 vasp.6.3.2 27Jun22 (build Aug 05 2024 15:42:26) complex                        
  
 executed on             LinuxIFC date 2025.06.02  20:29:52
 running  192 mpi-ranks, with    1 threads/rank
 distrk:  each k-point on  192 cores,    1 groups
 distr:  one band on NCORE=   1 cores,  192 groups


--------------------------------------------------------------------------------------------------------


 INCAR:
   ADDGRID = True
   ALGO = Fast
   EDIFF = 1e-06
   EDIFFG = -0.01
   ENCUT = 520.0
   IBRION = 1
   ISIF = 2
   ISMEAR = 0
   ISPIN = 2
   ISYM = 0
   LASPH = True
   LDAU = True
   LDAUJ = 0 0 0 0
   LDAUL = 0 0 2 0
   LDAUPRINT = 1
   LDAUTYPE = 2
   LDAUU = 0 0 4.38 0
   LMAXMIX = 4
   LORBIT = 11
   LREAL = False
   LWAVE = False
   MAGMOM = 93*0.6
   NELM = 100
   NELMIN = 3
   NSW = 350
   POTIM = 0.2
   PREC = Accurate
   SIGMA = 0.05

 POTCAR:   PAW_PBE Li_sv 23Jan2001                
 POTCAR:   PAW_PBE Nb_pv 08Apr2002                
 POTCAR:   PAW_PBE Mo_pv 08Apr2002                
 POTCAR:   PAW_PBE O 08Apr2002                    
 POTCAR:   PAW_PBE Li_sv 23Jan2001                
   VRHFIN =Li: 1s2s2p                                                                               
   LEXCH  = PE                                                                                      
   EATOM  =   202.7858 eV,   14.9043 Ry                                                             
                                                                                                    
   TITEL  = PAW_PBE Li_sv 23Jan2001                                                                 
   LULTRA =        F    use ultrasoft PP ?                                                          
   IUNSCR =        0    unscreen: 0-lin 1-nonlin 2-no                                               
   RPACOR =     .000    partial core radius                                                         
   POMASS =    7.010; ZVAL   =    3.000    mass and valenz                                          
   RCORE  =    2.050    outmost cutoff radius                                                       
   RWIGS  =    2.050; RWIGS  =    1.085    wigner-seitz radius (au A)                               
   ENMAX  =  271.649; ENMIN  =  203.737 eV                                                          
   ICORE  =        2    local potential                                                             
   LCOR   =        T    correct aug charges                                                         
   LPAW   =        T    paw PP                                                                      
   EAUG   =  428.394                                                                                
   RMAX   =    2.797    core radius for proj-oper                                                   
   RAUG   =    1.300    factor for augmentation sphere                                              
   RDEP   =    2.094    radius for radial grids                                                     
   RDEPT  =    1.550    core radius for aug-charge                                                  
   QCUT   =   -4.468; QGAM   =    8.937    optimization parameters                                  
                                                                                                    
   Description                                                                                      
     l     E      TYP  RCUT    TYP  RCUT                                                            
     0   .000     23  1.550                                                                         
     0   .000     23  2.050                                                                         
     0   .000     23  1.550                                                                         
     0   .000     23  2.050                                                                         
     1  -.200     23  2.050                                                                         
     1  1.500     23  2.050                                                                         
     2   .000      7  1.550                                                                         
  local pseudopotential read in
  atomic valenz-charges read in
  non local Contribution for L=           0  read in
    real space projection operators read in
  non local Contribution for L=           0  read in
    real space projection operators read in
  non local Contribution for L=           1  read in
    real space projection operators read in
  non local Contribution for L=           1  read in
    real space projection operators read in
    PAW grid and wavefunctions read in
 
   number of l-projection  operators is LMAX  =           4
   number of lm-projection operators is LMMAX =           8
 
 POTCAR:   PAW_PBE Nb_pv 08Apr2002                
   VRHFIN =Nb: 4p5s4d                                                                               
   LEXCH  = PE                                                                                      
   EATOM  =  1043.3919 eV,   76.6871 Ry                                                             
                                                                                                    
   TITEL  = PAW_PBE Nb_pv 08Apr2002                                                                 
   LULTRA =        F    use ultrasoft PP ?                                                          
   IUNSCR =        1    unscreen: 0-lin 1-nonlin 2-no                                               
   RPACOR =    2.200    partial core radius                                                         
   POMASS =   92.000; ZVAL   =   11.000    mass and valenz                                          
   RCORE  =    2.750    outmost cutoff radius                                                       
   RWIGS  =    2.840; RWIGS  =    1.503    wigner-seitz radius (au A)                               
   ENMAX  =  208.608; ENMIN  =  156.456 eV                                                          
   RCLOC  =    2.201    cutoff for local pot                                                        
   LCOR   =        T    correct aug charges                                                         
   LPAW   =        T    paw PP                                                                      
   EAUG   =  355.067                                                                                
   DEXC   =    -.005                                                                                
   RMAX   =    3.192    core radius for proj-oper                                                   
   RAUG   =    1.300    factor for augmentation sphere                                              
   RDEP   =    2.776    radius for radial grids                                                     
   QCUT   =   -3.916; QGAM   =    7.831    optimization parameters                                  
                                                                                                    
   Description                                                                                      
     l     E      TYP  RCUT    TYP  RCUT                                                            
     1   .000     23  2.600                                                                         
     1  -.100     23  2.600                                                                         
     2   .000     23  2.600                                                                         
     2   .000     23  2.600                                                                         
     0   .000     23  2.750                                                                         
     0  1.500     23  2.750                                                                         
     3   .000      7   .000                                                                         
  local pseudopotential read in
  partial core-charges read in
  atomic valenz-charges read in
  non local Contribution for L=           1  read in
    real space projection operators read in
  non local Contribution for L=           1  read in
    real space projection operators read in
  non local Contribution for L=           2  read in
    real space projection operators read in
  non local Contribution for L=           2  read in
    real space projection operators read in
  non local Contribution for L=           0  read in
    real space projection operators read in
  non local Contribution for L=           0  read in
    real space projection operators read in
    PAW grid and wavefunctions read in
 
   number of l-projection  operators is LMAX  =           6
   number of lm-projection operators is LMMAX =          18
 
 POTCAR:   PAW_PBE Mo_pv 08Apr2002                
   VRHFIN =Mo: 4p5s4d                                                                               
   LEXCH  = PE                                                                                      
   EATOM  =  1284.3009 eV,   94.3935 Ry                                                             
                                                                                                    
   TITEL  = PAW_PBE Mo_pv 08Apr2002                                                                 
   LULTRA =        F    use ultrasoft PP ?                                                          
   IUNSCR =        1    unscreen: 0-lin 1-nonlin 2-no                                               
   RPACOR =    2.200    partial core radius                                                         
   POMASS =   95.940; ZVAL   =   12.000    mass and valenz                                          
   RCORE  =    2.600    outmost cutoff radius                                                       
   RWIGS  =    2.750; RWIGS  =    1.455    wigner-seitz radius (au A)                               
   ENMAX  =  224.584; ENMIN  =  168.438 eV                                                          
   RCLOC  =    1.902    cutoff for local pot                                                        
   LCOR   =        T    correct aug charges                                                         
   LPAW   =        T    paw PP                                                                      
   EAUG   =  392.427                                                                                
   DEXC   =    -.006                                                                                
   RMAX   =    3.077    core radius for proj-oper                                                   
   RAUG   =    1.300    factor for augmentation sphere                                              
   RDEP   =    2.641    radius for radial grids                                                     
   QCUT   =   -4.063; QGAM   =    8.126    optimization parameters                                  
                                                                                                    
   Description                                                                                      
     l     E      TYP  RCUT    TYP  RCUT                                                            
     1   .000     23  2.500                                                                         
     1  -.200     23  2.500                                                                         
     2   .000     23  2.500                                                                         
     2   .000     23  2.500                                                                         
     0   .000     23  2.600                                                                         
     0  1.000     23  2.600                                                                         
     3   .000      7   .000                                                                         
  local pseudopotential read in
  partial core-charges read in
  atomic valenz-charges read in
  non local Contribution for L=           1  read in
    real space projection operators read in
  non local Contribution for L=           1  read in
    real space projection operators read in
  non local Contribution for L=           2  read in
    real space projection operators read in
  non local Contribution for L=           2  read in
    real space projection operators read in
  non local Contribution for L=           0  read in
    real space projection operators read in
  non local Contribution for L=           0  read in
    real space projection operators read in
    PAW grid and wavefunctions read in
 
   number of l-projection  operators is LMAX  =           6
   number of lm-projection operators is LMMAX =          18
 
 POTCAR:   PAW_PBE O 08Apr2002                    
   VRHFIN =O: s2p4                                                                                  
   LEXCH  = PE                                                                                      
   EATOM  =   432.3788 eV,   31.7789 Ry                                                             
                                                                                                    
   TITEL  = PAW_PBE O 08Apr2002                                                                     
   LULTRA =        F    use ultrasoft PP ?                                                          
   IUNSCR =        0    unscreen: 0-lin 1-nonlin 2-no                                               
   RPACOR =     .000    partial core radius                                                         
   POMASS =   16.000; ZVAL   =    6.000    mass and valenz                                          
   RCORE  =    1.520    outmost cutoff radius                                                       
   RWIGS  =    1.550; RWIGS  =     .820    wigner-seitz radius (au A)                               
   ENMAX  =  400.000; ENMIN  =  300.000 eV                                                          
   ICORE  =        2    local potential                                                             
   LCOR   =        T    correct aug charges                                                         
   LPAW   =        T    paw PP                                                                      
   EAUG   =  605.392                                                                                
   DEXC   =     .000                                                                                
   RMAX   =    2.264    core radius for proj-oper                                                   
   RAUG   =    1.300    factor for augmentation sphere                                              
   RDEP   =    1.550    radius for radial grids                                                     
   QCUT   =   -5.520; QGAM   =   11.041    optimization parameters                                  
                                                                                                    
   Description                                                                                      
     l     E      TYP  RCUT    TYP  RCUT                                                            
     0   .000     23  1.200                                                                         
     0  -.700     23  1.200                                                                         
     1   .000     23  1.520                                                                         
     1   .600     23  1.520                                                                         
     2   .000      7  1.500                                                                         
  local pseudopotential read in
  atomic valenz-charges read in
  non local Contribution for L=           0  read in
    real space projection operators read in
  non local Contribution for L=           0  read in
    real space projection operators read in
  non local Contribution for L=           1  read in
    real space projection operators read in
  non local Contribution for L=           1  read in
    real space projection operators read in
    PAW grid and wavefunctions read in
 
   number of l-projection  operators is LMAX  =           4
   number of lm-projection operators is LMMAX =           8
 
 -----------------------------------------------------------------------------
|                                                                             |
|               ----> ADVICE to this user running VASP <----                  |
|                                                                             |
|     You have a (more or less) 'large supercell' and for larger cells it     |
|     might be more efficient to use real-space projection operators.         |
|     Therefore, try LREAL= Auto in the INCAR file.                           |
|     Mind: If you want to do very accurate calculations, keep the            |
|     reciprocal projection scheme (i.e. LREAL=.FALSE.).                      |
|                                                                             |
 -----------------------------------------------------------------------------

 PAW_PBE Li_sv 23Jan2001                :
 energy of atom  1       EATOM= -202.7858
 kinetic energy error for atom=    0.0020 (will be added to EATOM!!)
 PAW_PBE Nb_pv 08Apr2002                :
 energy of atom  2       EATOM=-1043.3919
 kinetic energy error for atom=    0.0011 (will be added to EATOM!!)
 PAW_PBE Mo_pv 08Apr2002                :
 energy of atom  3       EATOM=-1284.3009
 kinetic energy error for atom=    0.0019 (will be added to EATOM!!)
 PAW_PBE O 08Apr2002                    :
 energy of atom  4       EATOM= -432.3788
 kinetic energy error for atom=    0.0208 (will be added to EATOM!!)
 
 
 POSCAR: Li1 Nb24 Mo2 O66
  positions in direct lattice
  No initial velocities read in
 exchange correlation table for  LEXCH =        8
   RHO(1)=    0.500       N(1)  =     2000
   RHO(2)=  100.500       N(2)  =     4000
 


--------------------------------------------------------------------------------------------------------


 ion  position               nearest neighbor table
   1  0.370  0.500  0.600-  74 1.94  74 1.96  73 2.02  53 2.03  18 2.73  18 2.76  22 2.78  22 2.78
                            13 3.05
   2  0.367  0.009  0.046-  42 1.85  34 1.89  33 2.00  33 2.04  90 2.17  86 2.34   9 3.47   9 3.49

   3  0.633  0.009  0.954-  43 1.85  35 1.89  32 2.00  32 2.04  91 2.17  87 2.34   8 3.47   8 3.49

   4  0.867  0.509  0.046-  44 1.85  36 1.89  31 2.00  31 2.04  92 2.17  88 2.34   7 3.47   7 3.49

   5  0.133  0.509  0.954-  45 1.85  37 1.89  30 2.00  30 2.04  93 2.17  89 2.34   6 3.47   6 3.49

   6  0.248  0.004  0.137-  54 1.82  34 2.00  89 2.01  89 2.02  46 2.04  30 2.35   5 3.47   5 3.49

   7  0.752  0.004  0.863-  55 1.82  35 2.00  88 2.01  88 2.02  47 2.04  31 2.35   4 3.47   4 3.49

   8  0.748  0.504  0.137-  56 1.82  36 2.00  87 2.01  87 2.02  48 2.04  32 2.35   3 3.47   3 3.49

   9  0.252  0.504  0.863-  57 1.82  37 2.00  86 2.01  86 2.02  49 2.04  33 2.35   2 3.47   2 3.49

  10  0.131  0.996  0.232-  62 1.85  46 1.86  85 2.01  85 2.04  38 2.20  50 2.32  25 3.44  25 3.46

  11  0.869  0.996  0.768-  63 1.85  47 1.86  84 2.01  84 2.04  39 2.20  51 2.32  24 3.44  24 3.46

  12  0.631  0.496  0.232-  64 1.85  48 1.86  83 2.01  83 2.04  40 2.20  52 2.32  23 3.44  23 3.46

  13  0.369  0.496  0.768-  65 1.85  49 1.86  82 2.01  82 2.04  41 2.20  53 2.32   1 3.05  22 3.44
                            22 3.46
  14  0.417  0.968  0.381-  81 1.85  29 1.93  66 2.04  81 2.05  58 2.05  54 2.14
  15  0.583  0.968  0.619-  80 1.85  29 1.93  67 2.04  80 2.05  59 2.05  55 2.14
  16  0.917  0.468  0.381-  79 1.85  28 1.93  68 2.04  79 2.05  60 2.05  56 2.14
  17  0.083  0.468  0.619-  78 1.85  28 1.93  69 2.04  78 2.05  61 2.05  57 2.14
  18  0.299  0.005  0.473-  66 1.85  74 1.94  73 2.01  73 2.02  62 2.06  70 2.32   1 2.73   1 2.76
                            21 3.46  21 3.46
  19  0.701  0.005  0.527-  67 1.85  75 1.94  72 2.01  72 2.02  63 2.06  71 2.32  20 3.46  20 3.46

  20  0.799  0.505  0.473-  68 1.85  76 1.94  71 2.01  71 2.02  64 2.06  72 2.32  19 3.46  19 3.46

  21  0.201  0.505  0.527-  69 1.85  77 1.94  70 2.01  70 2.02  65 2.06  73 2.32  18 3.46  18 3.46

  22  0.465  0.001  0.713-  59 1.85  74 1.95  53 2.01  53 2.01  43 2.08  82 2.30   1 2.78   1 2.78
                            13 3.44  13 3.46
  23  0.535  0.001  0.287-  58 1.85  75 1.95  52 2.01  52 2.01  42 2.08  83 2.30  12 3.44  12 3.46

  24  0.965  0.501  0.713-  61 1.85  76 1.95  51 2.01  51 2.01  45 2.08  84 2.30  11 3.44  11 3.46

  25  0.035  0.501  0.287-  60 1.85  77 1.95  50 2.01  50 2.01  44 2.08  85 2.30  10 3.44  10 3.46

  26  0.000  0.252  0.000-  39 1.79  38 1.79  93 1.80  92 1.80
  27  0.500  0.752  0.000-  40 1.79  41 1.79  91 1.80  90 1.80
  28  0.000  0.493  0.500-  17 1.93  16 1.93
  29  0.500  0.993  0.500-  15 1.93  14 1.93
  30  0.150  0.003  0.991-   5 2.00   5 2.04   6 2.35
  31  0.850  0.003  0.009-   4 2.00   4 2.04   7 2.35
  32  0.650  0.503  0.991-   3 2.00   3 2.04   8 2.35
  33  0.350  0.503  0.009-   2 2.00   2 2.04   9 2.35
  34  0.303  0.001  0.082-   2 1.89   6 2.00
  35  0.697  0.001  0.918-   3 1.89   7 2.00
  36  0.803  0.501  0.082-   4 1.89   8 2.00
  37  0.197  0.501  0.918-   5 1.89   9 2.00
  38  0.035  1.000  0.098-  26 1.79  10 2.20
  39  0.965  1.000  0.902-  26 1.79  11 2.20
  40  0.535  0.500  0.098-  27 1.79  12 2.20
  41  0.465  0.500  0.902-  27 1.79  13 2.20
  42  0.450  0.004  0.157-   2 1.85  23 2.08
  43  0.550  0.004  0.843-   3 1.85  22 2.08
  44  0.950  0.504  0.157-   4 1.85  25 2.08
  45  0.050  0.504  0.843-   5 1.85  24 2.08
  46  0.180  0.001  0.178-  10 1.86   6 2.04
  47  0.820  0.001  0.822-  11 1.86   7 2.04
  48  0.680  0.501  0.178-  12 1.86   8 2.04
  49  0.320  0.501  0.822-  13 1.86   9 2.04
  50  0.049  0.001  0.271-  25 2.01  25 2.01  10 2.32
  51  0.951  0.001  0.729-  24 2.01  24 2.01  11 2.32
  52  0.549  0.501  0.271-  23 2.01  23 2.01  12 2.32
  53  0.451  0.501  0.729-  22 2.01  22 2.01   1 2.03  13 2.32
  54  0.326  0.001  0.250-   6 1.82  14 2.14
  55  0.674  0.001  0.750-   7 1.82  15 2.14
  56  0.826  0.501  0.250-   8 1.82  16 2.14
  57  0.174  0.501  0.750-   9 1.82  17 2.14
  58  0.476  1.000  0.327-  23 1.85  14 2.05
  59  0.524  1.000  0.673-  22 1.85  15 2.05
  60  0.976  0.500  0.327-  25 1.85  16 2.05
  61  0.024  0.500  0.673-  24 1.85  17 2.05
  62  0.207  0.002  0.349-  10 1.85  18 2.06
  63  0.793  0.002  0.651-  11 1.85  19 2.06
  64  0.707  0.502  0.349-  12 1.85  20 2.06
  65  0.293  0.502  0.651-  13 1.85  21 2.06
  66  0.352  0.002  0.425-  18 1.85  14 2.04
  67  0.648  0.002  0.575-  19 1.85  15 2.04
  68  0.852  0.502  0.425-  20 1.85  16 2.04
  69  0.148  0.502  0.575-  21 1.85  17 2.04
  70  0.222  0.004  0.519-  21 2.01  21 2.02  18 2.32
  71  0.778  0.004  0.481-  20 2.01  20 2.02  19 2.32
  72  0.722  0.504  0.519-  19 2.01  19 2.02  20 2.32
  73  0.278  0.504  0.481-  18 2.01   1 2.02  18 2.02  21 2.32
  74  0.378  0.002  0.596-  18 1.94   1 1.94  22 1.95   1 1.96
  75  0.622  0.002  0.404-  19 1.94  23 1.95
  76  0.878  0.502  0.596-  20 1.94  24 1.95
  77  0.122  0.502  0.404-  21 1.94  25 1.95
  78  0.090  0.994  0.631-  17 1.85  17 2.05
  79  0.910  0.994  0.369-  16 1.85  16 2.05
  80  0.590  0.494  0.631-  15 1.85  15 2.05
  81  0.410  0.494  0.369-  14 1.85  14 2.05
  82  0.394  0.000  0.768-  13 2.01  13 2.04  22 2.30
  83  0.606  0.000  0.232-  12 2.01  12 2.04  23 2.30
  84  0.894  0.500  0.768-  11 2.01  11 2.04  24 2.30
  85  0.106  0.500  0.232-  10 2.01  10 2.04  25 2.30
  86  0.276  0.003  0.897-   9 2.01   9 2.02   2 2.34
  87  0.724  0.003  0.103-   8 2.01   8 2.02   3 2.34
  88  0.776  0.503  0.897-   7 2.01   7 2.02   4 2.34
  89  0.224  0.503  0.103-   6 2.01   6 2.02   5 2.34
  90  0.429  0.001  0.988-  27 1.80   2 2.17
  91  0.571  0.001  0.012-  27 1.80   3 2.17
  92  0.929  0.501  0.988-  26 1.80   4 2.17
  93  0.071  0.501  0.012-  26 1.80   5 2.17
 

IMPORTANT INFORMATION: All symmetrisations will be switched off!
NOSYMM: (Re-)initialisation of all symmetry stuff for point group C_1.


----------------------------------------------------------------------------------------

                                     Primitive cell                                     

  volume of cell :    1336.3476

  direct lattice vectors                    reciprocal lattice vectors
    22.785142899  0.000000000  0.000000000     0.043888248  0.000000000  0.028932614
     0.000000000  3.876850367  0.000000000     0.000000000  0.257941346 -0.000000041
    -9.973051630  0.000002413 15.128248185     0.000000000  0.000000000  0.066101507

  length of vectors
    22.785142899  3.876850367 18.119758606     0.052566857  0.257941346  0.066101507

  position of ions in fractional coordinates (direct lattice)
     0.370000005  0.500000000  0.600000024
     0.367032468  0.008588224  0.046037953
     0.632967591  0.008586925  0.953961968
     0.867032468  0.508586705  0.046037957
     0.132967621  0.508586347  0.953962088
     0.248390913  0.003538838  0.137481004
     0.751609147  0.003540096  0.862518907
     0.748390853  0.503541291  0.137480959
     0.251609176  0.503540516  0.862518966
     0.131397530  0.996466458  0.232483745
     0.868602395  0.996467888  0.767516077
     0.631397545  0.496466160  0.232483789
     0.368602455  0.496467084  0.767516196
     0.417339504  0.967753410  0.380907148
     0.582660437  0.967754066  0.619092822
     0.917339563  0.467754364  0.380907208
     0.082660347  0.467751503  0.619092703
     0.298795044  0.005177166  0.473374635
     0.701204836  0.005174780  0.526625276
     0.798795044  0.505177081  0.473374695
     0.201204911  0.505175650  0.526625335
     0.464619935  0.001402153  0.712855220
     0.535379946  0.001402178  0.287144661
     0.964619994  0.501402974  0.712855339
     0.035380036  0.501403868  0.287144780
     0.000000000  0.251767516  0.000000000
     0.499999911  0.751767933  0.000000000
     0.000000140  0.493270248  0.500000179
     0.500000060  0.993268073  0.500000060
     0.149720326  0.003319751  0.990709722
     0.850279748  0.003320290  0.009290479
     0.649720371  0.503320456  0.990709722
     0.350279808  0.503321171  0.009290626
     0.303458095  0.001135590  0.081838757
     0.696541905  0.001134367  0.918161154
     0.803458095  0.501134515  0.081838787
     0.196541905  0.501134455  0.918161154
     0.034868445  0.999984443  0.098450094
     0.965131581  0.999984920  0.901549995
     0.534868360  0.499985188  0.098450005
     0.465131491  0.499984622  0.901549995
     0.449869484  0.003999513  0.156501502
     0.550130427  0.003997388  0.843498468
     0.949869514  0.503997147  0.156501502
     0.050130446  0.503997028  0.843498528
     0.180274546  0.000569226  0.177570015
     0.819725513  0.000572272  0.822430015
     0.680274487  0.500569701  0.177570000
     0.319725513  0.500570774  0.822430074
     0.049486183  0.001194181  0.270745665
     0.950513780  0.001194002  0.729254365
     0.549486160  0.501193643  0.270745575
     0.450513750  0.501193583  0.729254305
     0.325580776  0.000777367  0.249842033
     0.674419224  0.000779130  0.750157893
     0.825580776  0.500779271  0.249842003
     0.174419269  0.500780046  0.750157952
     0.476032197  0.999875426  0.326906860
     0.523967683  0.999876440  0.673093081
     0.976032197  0.499876589  0.326906949
     0.023967750  0.499878138  0.673093200
     0.207227945  0.002106899  0.349147856
     0.792771995  0.002107400  0.650851905
     0.707227945  0.502105772  0.349147886
     0.292772025  0.502106428  0.650851965
     0.352319062  0.002212975  0.425084382
     0.647680938  0.002212399  0.574915648
     0.852319121  0.502212882  0.425084412
     0.147680998  0.502214670  0.574915648
     0.221702725  0.003606565  0.519376993
     0.778297365  0.003606716  0.480622858
     0.721702754  0.503606319  0.519377053
     0.278297395  0.503607154  0.480622858
     0.378164202  0.002214626  0.595669806
     0.621835709  0.002213158  0.404330075
     0.878164232  0.502214074  0.595669806
     0.121835716  0.502213597  0.404330105
     0.090243012  0.994214058  0.630857348
     0.909756958  0.994207263  0.369142711
     0.590242982  0.494208306  0.630857289
     0.409757137  0.494205922  0.369142830
     0.394239366  0.000126983  0.767691493
     0.605760634  0.000126476  0.232308522
     0.894239306  0.500127673  0.767691553
     0.105760612  0.500126779  0.232308567
     0.275653273  0.002798338  0.896677315
     0.724346817  0.002798364  0.103322670
     0.775653303  0.502798200  0.896677375
     0.224346802  0.502797365  0.103322707
     0.428709298  0.001423744  0.987942457
     0.571290553  0.001422816  0.012057430
     0.928709388  0.501423240  0.987942576
     0.071290657  0.501422763  0.012057608

  ion indices of the primitive-cell ions
   primitive index   ion index
                 1           1
                 2           2
                 3           3
                 4           4
                 5           5
                 6           6
                 7           7
                 8           8
                 9           9
                10          10
                11          11
                12          12
                13          13
                14          14
                15          15
                16          16
                17          17
                18          18
                19          19
                20          20
                21          21
                22          22
                23          23
                24          24
                25          25
                26          26
                27          27
                28          28
                29          29
                30          30
                31          31
                32          32
                33          33
                34          34
                35          35
                36          36
                37          37
                38          38
                39          39
                40          40
                41          41
                42          42
                43          43
                44          44
                45          45
                46          46
                47          47
                48          48
                49          49
                50          50
                51          51
                52          52
                53          53
                54          54
                55          55
                56          56
                57          57
                58          58
                59          59
                60          60
                61          61
                62          62
                63          63
                64          64
                65          65
                66          66
                67          67
                68          68
                69          69
                70          70
                71          71
                72          72
                73          73
                74          74
                75          75
                76          76
                77          77
                78          78
                79          79
                80          80
                81          81
                82          82
                83          83
                84          84
                85          85
                86          86
                87          87
                88          88
                89          89
                90          90
                91          91
                92          92
                93          93

----------------------------------------------------------------------------------------

 
 
 KPOINTS: pymatgen with grid density = 1000 / numb

Automatic generation of k-mesh.
 Grid dimensions read from file:
 generate k-points for:    1    6    1

 Generating k-lattice:

  Cartesian coordinates                     Fractional coordinates (reciprocal lattice)
     0.043888248  0.000000000  0.028932614     1.000000000  0.000000000 -0.000000000
     0.000000000  0.042990224 -0.000000007     0.000000000  0.166666667  0.000000000
     0.000000000  0.000000000  0.066101507     0.000000000  0.000000000  1.000000000

  Length of vectors
     0.052566857  0.042990224  0.066101507

  Shift w.r.t. Gamma in fractional coordinates (k-lattice)
     0.000000000  0.000000000  0.000000000

 
 Subroutine IBZKPT returns following result:
 ===========================================
 
 Found      4 irreducible k-points:
 
 Following reciprocal coordinates:
            Coordinates               Weight
  0.000000  0.000000  0.000000      1.000000
  0.000000  0.166667  0.000000      2.000000
  0.000000  0.333333  0.000000      2.000000
  0.000000  0.500000  0.000000      1.000000
 
 Following cartesian coordinates:
            Coordinates               Weight
  0.000000  0.000000  0.000000      1.000000
  0.000000  0.042990 -0.000000      2.000000
  0.000000  0.085980 -0.000000      2.000000
  0.000000  0.128971 -0.000000      1.000000
 


--------------------------------------------------------------------------------------------------------




 Dimension of arrays:
   k-points           NKPTS =      4   k-points in BZ     NKDIM =      4   number of bands    NBANDS=    576
   number of dos      NEDOS =    301   number of ions     NIONS =     93
   non local maximal  LDIM  =      6   non local SUM 2l+1 LMDIM =     18
   total plane-waves  NPLWV = 756000
   max r-space proj   IRMAX =      1   max aug-charges    IRDMAX= 278808
   dimension x,y,z NGX =   180 NGY =   30 NGZ =  140
   dimension x,y,z NGXF=   360 NGYF=   60 NGZF=  280
   support grid    NGXF=   720 NGYF=  120 NGZF=  560
   ions per type =               1  24   2  66
   NGX,Y,Z   is equivalent  to a cutoff of  13.13, 12.86, 12.84 a.u.
   NGXF,Y,Z  is equivalent  to a cutoff of  26.27, 25.73, 25.69 a.u.

 SYSTEM =  unknown system                          
 POSCAR =  Li1 Nb24 Mo2 O66                        

 Startparameter for this run:
   NWRITE =      2    write-flag & timer
   PREC   = accura    normal or accurate (medium, high low for compatibility)
   ISTART =      0    job   : 0-new  1-cont  2-samecut
   ICHARG =      2    charge: 1-file 2-atom 10-const
   ISPIN  =      2    spin polarized calculation?
   LNONCOLLINEAR =      F non collinear calculations
   LSORBIT =      F    spin-orbit coupling
   INIWAV =      1    electr: 0-lowe 1-rand  2-diag
   LASPH  =      T    aspherical Exc in radial PAW
 Electronic Relaxation 1
   ENCUT  =  520.0 eV  38.22 Ry    6.18 a.u.  42.37  7.21 33.69*2*pi/ulx,y,z
   ENINI  =  520.0     initial cutoff
   ENAUG  =  605.4 eV  augmentation charge cutoff
   NELM   =    100;   NELMIN=  3; NELMDL= -5     # of ELM steps 
   EDIFF  = 0.1E-05   stopping-criterion for ELM
   LREAL  =      F    real-space projection
   NLSPLINE    = F    spline interpolate recip. space projectors
   LCOMPAT=      F    compatible to vasp.4.4
   GGA_COMPAT  = T    GGA compatible to vasp.4.4-vasp.4.6
   LMAXPAW     = -100 max onsite density
   LMAXMIX     =    4 max onsite mixed and CHGCAR
   VOSKOWN=      0    Vosko Wilk Nusair interpolation
   ROPT   =    0.00000   0.00000   0.00000   0.00000
 Ionic relaxation
   EDIFFG = -.1E-01   stopping-criterion for IOM
   NSW    =    350    number of steps for IOM
   NBLOCK =      1;   KBLOCK =    350    inner block; outer block 
   IBRION =      1    ionic relax: 0-MD 1-quasi-New 2-CG
   NFREE  =      0    steps in history (QN), initial steepest desc. (CG)
   ISIF   =      2    stress and relaxation
   IWAVPR =     11    prediction:  0-non 1-charg 2-wave 3-comb
   ISYM   =      0    0-nonsym 1-usesym 2-fastsym
   LCORR  =      T    Harris-Foulkes like correction to forces

   POTIM  = 0.2000    time-step for ionic-motion
   TEIN   =    0.0    initial temperature
   TEBEG  =    0.0;   TEEND  =   0.0 temperature during run
   SMASS  =  -3.00    Nose mass-parameter (am)
   estimated Nose-frequenzy (Omega)   =  0.10E-29 period in steps = 0.31E+47 mass=  -0.119E-25a.u.
   SCALEE = 1.0000    scale energy and forces
   NPACO  =    256;   APACO  = 10.0  distance and # of slots for P.C.
   PSTRESS=    0.0 pullay stress

  Mass of Ions in am
   POMASS =   7.01 92.00 95.94 16.00
  Ionic Valenz
   ZVAL   =   3.00 11.00 12.00  6.00
  Atomic Wigner-Seitz radii
   RWIGS  =  -1.00 -1.00 -1.00 -1.00
  virtual crystal weights 
   VCA    =   1.00  1.00  1.00  1.00
   NELECT =     687.0000    total number of electrons
   NUPDOWN=      -1.0000    fix difference up-down

 DOS related values:
   EMIN   =  10.00;   EMAX   =-10.00  energy-range for DOS
   EFERMI =   0.00
   ISMEAR =     0;   SIGMA  =   0.05  broadening in eV -4-tet -1-fermi 0-gaus

 Electronic relaxation 2 (details)
   IALGO  =     68    algorithm
   LDIAG  =      T    sub-space diagonalisation (order eigenvalues)
   LSUBROT=      F    optimize rotation matrix (better conditioning)
   TURBO    =      0    0=normal 1=particle mesh
   IRESTART =      0    0=no restart 2=restart with 2 vectors
   NREBOOT  =      0    no. of reboots
   NMIN     =      0    reboot dimension
   EREF     =   0.00    reference energy to select bands
   IMIX   =      4    mixing-type and parameters
     AMIX     =   0.40;   BMIX     =  1.00
     AMIX_MAG =   1.60;   BMIX_MAG =  1.00
     AMIN     =   0.10
     WC   =   100.;   INIMIX=   1;  MIXPRE=   1;  MAXMIX= -45

 Intra band minimization:
   WEIMIN = 0.0010     energy-eigenvalue tresh-hold
   EBREAK =  0.43E-09  absolut break condition
   DEPER  =   0.30     relativ break condition  

   TIME   =   0.40     timestep for ELM

  volume/ion in A,a.u.               =      14.37        96.97
  Fermi-wavevector in a.u.,A,eV,Ry     =   1.311457  2.478294 23.400912  1.719918
  Thomas-Fermi vector in A             =   2.441917
 
 Write flags
   LWAVE        =      F    write WAVECAR
   LDOWNSAMPLE  =      F    k-point downsampling of WAVECAR
   LCHARG       =      T    write CHGCAR
   LVTOT        =      F    write LOCPOT, total local potential
   LVHAR        =      F    write LOCPOT, Hartree potential only
   LELF         =      F    write electronic localiz. function (ELF)
   LORBIT       =     11    0 simple, 1 ext, 2 COOP (PROOUT), +10 PAW based schemes


 Dipole corrections
   LMONO  =      F    monopole corrections only (constant potential shift)
   LDIPOL =      F    correct potential (dipole corrections)
   IDIPOL =      0    1-x, 2-y, 3-z, 4-all directions 
   EPSILON=  1.0000000 bulk dielectric constant

 LDA+U is selected, type is set to LDAUTYPE =  2
   angular momentum for each species LDAUL =     0    0    2    0
   U (eV)           for each species LDAUU =   0.0  0.0  4.4  0.0
   J (eV)           for each species LDAUJ =   0.0  0.0  0.0  0.0
 Exchange correlation treatment:
   GGA     =    --    GGA type
   LEXCH   =     8    internal setting for exchange type
   LIBXC   =     F    Libxc                    
   VOSKOWN =     0    Vosko Wilk Nusair interpolation
   LHFCALC =     F    Hartree Fock is set to
   LHFONE  =     F    Hartree Fock one center treatment
   AEXX    =    0.0000 exact exchange contribution

 Linear response parameters
   LEPSILON=     F    determine dielectric tensor
   LRPA    =     F    only Hartree local field effects (RPA)
   LNABLA  =     F    use nabla operator in PAW spheres
   LVEL    =     F    velocity operator in full k-point grid
   CSHIFT  =0.1000    complex shift for real part using Kramers Kronig
   OMEGAMAX=  -1.0    maximum frequency
   DEG_THRESHOLD= 0.2000000E-02 threshold for treating states as degnerate
   RTIME   =   -0.100 relaxation time in fs
  (WPLASMAI=    0.000 imaginary part of plasma frequency in eV, 0.658/RTIME)
   DFIELD  = 0.0000000 0.0000000 0.0000000 field for delta impulse in time
 
  Optional k-point grid parameters
   LKPOINTS_OPT  =     F    use optional k-point grid
   KPOINTS_OPT_MODE=     1    mode for optional k-point grid
 
 Orbital magnetization related:
   ORBITALMAG=     F  switch on orbital magnetization
   LCHIMAG   =     F  perturbation theory with respect to B field
   DQ        =  0.001000  dq finite difference perturbation B field
   LLRAUG    =     F  two centre corrections for induced B field



--------------------------------------------------------------------------------------------------------


 quasi-Newton-method for relaxation of ions
 charge density and potential will be updated during run
 spin polarized calculation
 RMM-DIIS sequential band-by-band and
  variant of blocked Davidson during initial phase
 perform sub-space diagonalisation
    before iterative eigenvector-optimisation
 modified Broyden-mixing scheme, WC =      100.0
 initial mixing is a Kerker type mixing with AMIX =  0.4000 and BMIX =      1.0000
 Hartree-type preconditioning will be used
 using additional bands          232
 reciprocal scheme for non local part
 use partial core corrections
 calculate Harris-corrections to forces 
   (improved forces if not selfconsistent)
 use gradient corrections 
 use of overlap-Matrix (Vanderbilt PP)
 Gauss-broadening in eV      SIGMA  =   0.05


--------------------------------------------------------------------------------------------------------


  energy-cutoff  :      520.00
  volume of cell :     1336.35
      direct lattice vectors                 reciprocal lattice vectors
    22.785142899  0.000000000  0.000000000     0.043888248  0.000000000  0.028932614
     0.000000000  3.876850367  0.000000000     0.000000000  0.257941346 -0.000000041
    -9.973051630  0.000002413 15.128248185     0.000000000  0.000000000  0.066101507

  length of vectors
    22.785142899  3.876850367 18.119758606     0.052566857  0.257941346  0.066101507


 
 k-points in units of 2pi/SCALE and weight: pymatgen with grid density = 1000 / numb
   0.00000000  0.00000000  0.00000000       0.167
   0.00000000  0.04299022 -0.00000001       0.333
   0.00000000  0.08598045 -0.00000001       0.333
   0.00000000  0.12897067 -0.00000002       0.167
 
 k-points in reciprocal lattice and weights: pymatgen with grid density = 1000 / numb
   0.00000000  0.00000000  0.00000000       0.167
   0.00000000  0.16666667  0.00000000       0.333
   0.00000000  0.33333333  0.00000000       0.333
   0.00000000  0.50000000  0.00000000       0.167
 
 position of ions in fractional coordinates (direct lattice) 
   0.37000001  0.50000000  0.60000002
   0.36703247  0.00858822  0.04603795
   0.63296759  0.00858693  0.95396197
   0.86703247  0.50858670  0.04603796
   0.13296762  0.50858635  0.95396209
   0.24839091  0.00353884  0.13748100
   0.75160915  0.00354010  0.86251891
   0.74839085  0.50354129  0.13748096
   0.25160918  0.50354052  0.86251897
   0.13139753  0.99646646  0.23248375
   0.86860240  0.99646789  0.76751608
   0.63139754  0.49646616  0.23248379
   0.36860246  0.49646708  0.76751620
   0.41733950  0.96775341  0.38090715
   0.58266044  0.96775407  0.61909282
   0.91733956  0.46775436  0.38090721
   0.08266035  0.46775150  0.61909270
   0.29879504  0.00517717  0.47337463
   0.70120484  0.00517478  0.52662528
   0.79879504  0.50517708  0.47337469
   0.20120491  0.50517565  0.52662533
   0.46461994  0.00140215  0.71285522
   0.53537995  0.00140218  0.28714466
   0.96461999  0.50140297  0.71285534
   0.03538004  0.50140387  0.28714478
   0.00000000  0.25176752  0.00000000
   0.49999991  0.75176793  0.00000000
   0.00000014  0.49327025  0.50000018
   0.50000006  0.99326807  0.50000006
   0.14972033  0.00331975  0.99070972
   0.85027975  0.00332029  0.00929048
   0.64972037  0.50332046  0.99070972
   0.35027981  0.50332117  0.00929063
   0.30345810  0.00113559  0.08183876
   0.69654190  0.00113437  0.91816115
   0.80345810  0.50113451  0.08183879
   0.19654190  0.50113445  0.91816115
   0.03486845  0.99998444  0.09845009
   0.96513158  0.99998492  0.90155000
   0.53486836  0.49998519  0.09845000
   0.46513149  0.49998462  0.90155000
   0.44986948  0.00399951  0.15650150
   0.55013043  0.00399739  0.84349847
   0.94986951  0.50399715  0.15650150
   0.05013045  0.50399703  0.84349853
   0.18027455  0.00056923  0.17757002
   0.81972551  0.00057227  0.82243002
   0.68027449  0.50056970  0.17757000
   0.31972551  0.50057077  0.82243007
   0.04948618  0.00119418  0.27074566
   0.95051378  0.00119400  0.72925437
   0.54948616  0.50119364  0.27074557
   0.45051375  0.50119358  0.72925430
   0.32558078  0.00077737  0.24984203
   0.67441922  0.00077913  0.75015789
   0.82558078  0.50077927  0.24984200
   0.17441927  0.50078005  0.75015795
   0.47603220  0.99987543  0.32690686
   0.52396768  0.99987644  0.67309308
   0.97603220  0.49987659  0.32690695
   0.02396775  0.49987814  0.67309320
   0.20722794  0.00210690  0.34914786
   0.79277200  0.00210740  0.65085191
   0.70722794  0.50210577  0.34914789
   0.29277202  0.50210643  0.65085197
   0.35231906  0.00221297  0.42508438
   0.64768094  0.00221240  0.57491565
   0.85231912  0.50221288  0.42508441
   0.14768100  0.50221467  0.57491565
   0.22170273  0.00360656  0.51937699
   0.77829737  0.00360672  0.48062286
   0.72170275  0.50360632  0.51937705
   0.27829740  0.50360715  0.48062286
   0.37816420  0.00221463  0.59566981
   0.62183571  0.00221316  0.40433007
   0.87816423  0.50221407  0.59566981
   0.12183572  0.50221360  0.40433010
   0.09024301  0.99421406  0.63085735
   0.90975696  0.99420726  0.36914271
   0.59024298  0.49420831  0.63085729
   0.40975714  0.49420592  0.36914283
   0.39423937  0.00012698  0.76769149
   0.60576063  0.00012648  0.23230852
   0.89423931  0.50012767  0.76769155
   0.10576061  0.50012678  0.23230857
   0.27565327  0.00279834  0.89667731
   0.72434682  0.00279836  0.10332267
   0.77565330  0.50279820  0.89667738
   0.22434680  0.50279736  0.10332271
   0.42870930  0.00142374  0.98794246
   0.57129055  0.00142282  0.01205743
   0.92870939  0.50142324  0.98794258
   0.07129066  0.50142276  0.01205761
 
 position of ions in cartesian coordinates  (Angst):
   2.44667177  1.93842663  9.07694927
   7.90374835  0.03329537  0.69647358
   4.90834505  0.03329253 14.43177341
  19.29631976  1.97171466  0.69647364
  -6.48422691  1.97171547 14.43177523
   4.28851730  0.01371988  2.07984675
   8.52357623  0.01372650 13.04840009
  15.68108783  1.95215457  2.07984607
  -2.86899515  1.95215332 13.04840098
   0.67533911  3.86315191  3.51707179
  12.13675223  3.86315875 11.61117370
  12.06791046  1.92472558  3.51707246
   0.74418096  1.92473045 11.61117550
   5.71033358  3.75183608  5.76245787
   7.10175664  3.75183920  9.36578986
  17.10290578  1.81341460  5.76245878
  -4.29081567  1.81340408  9.36578806
   2.08709810  0.02007224  7.16132896
  10.72499132  0.02006312  7.96691788
  13.47966895  1.95849709  7.16132987
  -0.66757901  1.95849167  7.96691877
   3.47708970  0.00543766 10.78425069
   9.33500005  0.00543673  4.34399570
  14.86966131  1.94386602 10.78425249
  -2.05757054  1.94386846  4.34399750
   0.00000000  0.97606499  0.00000000
  11.39256942  2.91449179  0.00000000
  -4.98652441  1.91233615  7.56412680
   6.40604640  3.85075290  7.56412500
  -6.46900018  0.01287257 14.98770255
  19.28109114  0.01287229  0.14054867
   4.92357229  1.95130048 14.98770255
   7.88851959  1.95130089  0.14055090
   6.09815391  0.00440271  1.23807703
   6.71393825  0.00439999 13.89016981
  17.49072506  1.94282373  1.23807748
  -4.67863320  1.94282551 13.89016981
  -0.18736537  3.87679029  1.48937746
  12.99945634  3.87679408 13.63887208
  11.20520503  1.93836800  1.48937611
   1.60688284  1.93836774 13.63887208
   8.68954292  0.01550589  2.36759356
   4.12254662  0.01549931 12.76065417
  20.08211505  1.95392190  2.36759356
  -7.27002499  1.95392310 12.76065507
   2.33666636  0.00220723  2.68632326
  10.47542595  0.00222060 12.44192538
  13.72923662  1.94063426  2.68632303
  -0.91714609  1.94063997 12.44192627
  -1.57261074  0.00463031  4.09590761
  14.38470087  0.00463073 11.03234102
   9.81996108  1.94305341  4.09590625
   2.99212934  1.94305429 11.03234012
   4.92671701  0.00301434  3.77967228
   7.88537500  0.00302238 11.34857478
  16.31928876  1.94144690  3.77967183
  -3.50719602  1.94145111 11.34857568
   7.58620264  3.87636820  4.94552811
   5.22588648  3.87637297 10.18271918
  18.97877320  1.93794753  4.94552946
  -6.16668463  1.93795437 10.18272098
   1.23964875  0.00816897  5.28199542
  11.57244354  0.00817164  9.84624915
  12.63221990  1.94658979  5.28199587
   0.17987218  1.94659306  9.84625006
   3.78825168  0.00858040  6.43078203
   9.02383928  0.00857853  8.69746661
  15.18082418  1.94700522  6.43078248
  -2.36873080  1.94701251  8.69746661
  -0.12824530  0.01398337  7.85726405
  12.94034010  0.01398386  7.27098188
  11.26432622  1.95240760  7.85726496
   1.54776934  1.95241074  7.27098188
   2.67587965  0.00858721  9.01144066
  10.13621078  0.00858106  6.11680572
  14.06845179  1.94701025  9.01144066
  -1.25636081  1.94700794  6.11680618
  -4.23537298  3.85442066  9.54376653
  17.04746298  3.85439368  5.58448255
   7.15719838  1.91597317  9.54376564
   5.65489442  1.91596330  5.58448435
   1.32657340  0.00049415 11.61382744
  11.48551772  0.00049089  3.51442098
  12.71914288  1.93892200 11.61382834
   0.09294532  1.93891725  3.51442166
  -2.66180994  0.01085090 13.56515696
  15.47390341  0.01084909  1.56309099
   8.73076159  1.94927555 13.56515787
   4.08133125  1.94927040  1.56309155
  -0.08459851  0.00552203 14.94583868
  12.89668751  0.00551607  0.18240779
  11.30797380  1.94394526 14.94584048
   1.50411666  1.94394105  0.18241049
 


--------------------------------------------------------------------------------------------------------


 k-point   1 :   0.0000 0.0000 0.0000  plane waves:   36029
 k-point   2 :   0.0000 0.1667 0.0000  plane waves:   35947
 k-point   3 :   0.0000 0.3333 0.0000  plane waves:   35982
 k-point   4 :   0.0000 0.5000 0.0000  plane waves:   36018

 maximum and minimum number of plane-waves per node :     36029    35947

 maximum number of plane-waves:     36029
 maximum index in each direction: 
   IXMAX=   42   IYMAX=    7   IZMAX=   33
   IXMIN=  -42   IYMIN=   -7   IZMIN=  -33


 serial   3D FFT for wavefunctions
 parallel 3D FFT for charge:
    minimum data exchange during FFTs selected (reduces bandwidth)


 total amount of memory used by VASP MPI-rank0   256345. kBytes
=======================================================================

   base      :      30000. kBytes
   nonl-proj :     136876. kBytes
   fftplans  :       7974. kBytes
   grid      :      64300. kBytes
   one-center:       2892. kBytes
   wavefun   :      14303. kBytes
 
     INWAV:  cpu time      0.0000: real time      0.0003
 Broyden mixing: mesh for mixing (old mesh)
   NGX = 85   NGY = 15   NGZ = 67
  (NGX  =360   NGY  = 60   NGZ  =280)
  gives a total of  85425 points

 initial charge density was supplied:
 charge density of overlapping atoms calculated
 number of electron     687.0000000 magnetization      55.8000000
 keeping initial charge density in first step


--------------------------------------------------------------------------------------------------------


 Maximum index for augmentation-charges         4418 (set IRDMAX)


--------------------------------------------------------------------------------------------------------


 First call to EWALD:  gamma=   0.161
 Maximum number of real-space cells 2x 7x 2
 Maximum number of reciprocal cells 5x 1x 4

    FEWALD:  cpu time      0.0029: real time      0.0038


--------------------------------------- Iteration      1(   1)  ---------------------------------------


    POTLOK:  cpu time      0.3052: real time      0.3096
    SETDIJ:  cpu time      0.6923: real time      0.6973
atom =   1  type =  1  l = 0
 
 onsite density matrix
 
spin component  1
 
  1.2642
 
spin component  2
 
  0.8428
 
 occupancies and eigenvectors
 
  o =  0.8428  v =  0.0000  1.0000      0.0000  0.0000
  o =  1.2642  v =  1.0000  0.0000      0.0000  0.0000
 
atom =   2  type =  2  l = 0
 
 onsite density matrix
 
spin component  1
 
  0.1347
 
spin component  2
 
  0.1207
 
 occupancies and eigenvectors
 
  o =  0.1207  v =  0.0000  1.0000      0.0000  0.0000
  o =  0.1347  v =  1.0000  0.0000      0.0000  0.0000
 
atom =   3  type =  2  l = 0
 
 onsite density matrix
 
spin component  1
 
  0.1347
 
spin component  2
 
  0.1207
 
 occupancies and eigenvectors
 
  o =  0.1207  v =  0.0000  1.0000      0.0000  0.0000
  o =  0.1347  v =  1.0000  0.0000      0.0000  0.0000
 
atom =   4  type =  2  l = 0
 
 onsite density matrix
 
spin component  1
 
  0.1347
 
spin component  2
 
  0.1207
 
 occupancies and eigenvectors
 
  o =  0.1207  v =  0.0000  1.0000      0.0000  0.0000
  o =  0.1347  v =  1.0000  0.0000      0.0000  0.0000
 
atom =   5  type =  2  l = 0
 
 onsite density matrix
 
spin component  1
 
  0.1347
 
spin component  2
 
  0.1207
 
 occupancies and eigenvectors
 
  o =  0.1207  v =  0.0000  1.0000      0.0000  0.0000
  o =  0.1347  v =  1.0000  0.0000      0.0000  0.0000
 
atom =   6  type =  2  l = 0
 
 onsite density matrix
 
spin component  1
 
  0.1347
 
spin component  2
 
  0.1207
 
 occupancies and eigenvectors
 
  o =  0.1207  v =  0.0000  1.0000      0.0000  0.0000
  o =  0.1347  v =  1.0000  0.0000      0.0000  0.0000
 
atom =   7  type =  2  l = 0
 
 onsite density matrix
 
spin component  1
 
  0.1347
 
spin component  2
 
  0.1207
 
 occupancies and eigenvectors
 
  o =  0.1207  v =  0.0000  1.0000      0.0000  0.0000
  o =  0.1347  v =  1.0000  0.0000      0.0000  0.0000
 
atom =   8  type =  2  l = 0
 
 onsite density matrix
 
spin component  1
 
  0.1347
 
spin component  2
 
  0.1207
 
 occupancies and eigenvectors
 
  o =  0.1207  v =  0.0000  1.0000      0.0000  0.0000
  o =  0.1347  v =  1.0000  0.0000      0.0000  0.0000
 
atom =   9  type =  2  l = 0
 
 onsite density matrix
 
spin component  1
 
  0.1347
 
spin component  2
 
  0.1207
 
 occupancies and eigenvectors
 
  o =  0.1207  v =  0.0000  1.0000      0.0000  0.0000
  o =  0.1347  v =  1.0000  0.0000      0.0000  0.0000
 
atom =  10  type =  2  l = 0
 
 onsite density matrix
 
spin component  1
 
  0.1347
 
spin component  2
 
  0.1207
 
 occupancies and eigenvectors
 
  o =  0.1207  v =  0.0000  1.0000      0.0000  0.0000
  o =  0.1347  v =  1.0000  0.0000      0.0000  0.0000
 
atom =  11  type =  2  l = 0
 
 onsite density matrix
 
spin component  1
 
  0.1347
 
spin component  2
 
  0.1207
 
 occupancies and eigenvectors
 
  o =  0.1207  v =  0.0000  1.0000      0.0000  0.0000
  o =  0.1347  v =  1.0000  0.0000      0.0000  0.0000
 
atom =  12  type =  2  l = 0
 
 onsite density matrix
 
spin component  1
 
  0.1347
 
spin component  2
 
  0.1207
 
 occupancies and eigenvectors
 
  o =  0.1207  v =  0.0000  1.0000      0.0000  0.0000
  o =  0.1347  v =  1.0000  0.0000      0.0000  0.0000
 
atom =  13  type =  2  l = 0
 
 onsite density matrix
 
spin component  1
 
  0.1347
 
spin component  2
 
  0.1207
 
 occupancies and eigenvectors
 
  o =  0.1207  v =  0.0000  1.0000      0.0000  0.0000
  o =  0.1347  v =  1.0000  0.0000      0.0000  0.0000
 
atom =  14  type =  2  l = 0
 
 onsite density matrix
 
spin component  1
 
  0.1347
 
spin component  2
 
  0.1207
 
 occupancies and eigenvectors
 
  o =  0.1207  v =  0.0000  1.0000      0.0000  0.0000
  o =  0.1347  v =  1.0000  0.0000      0.0000  0.0000
 
atom =  15  type =  2  l = 0
 
 onsite density matrix
 
spin component  1
 
  0.1347
 
spin component  2
 
  0.1207
 
 occupancies and eigenvectors
 
  o =  0.1207  v =  0.0000  1.0000      0.0000  0.0000
  o =  0.1347  v =  1.0000  0.0000      0.0000  0.0000
 
atom =  16  type =  2  l = 0
 
 onsite density matrix
 
spin component  1
 
  0.1347
 
spin component  2
 
  0.1207
 
 occupancies and eigenvectors
 
  o =  0.1207  v =  0.0000  1.0000      0.0000  0.0000
  o =  0.1347  v =  1.0000  0.0000      0.0000  0.0000
 
atom =  17  type =  2  l = 0
 
 onsite density matrix
 
spin component  1
 
  0.1347
 
spin component  2
 
  0.1207
 
 occupancies and eigenvectors
 
  o =  0.1207  v =  0.0000  1.0000      0.0000  0.0000
  o =  0.1347  v =  1.0000  0.0000      0.0000  0.0000
 
atom =  18  type =  2  l = 0
 
 onsite density matrix
 
spin component  1
 
  0.1347
 
spin component  2
 
  0.1207
 
 occupancies and eigenvectors
 
  o =  0.1207  v =  0.0000  1.0000      0.0000  0.0000
  o =  0.1347  v =  1.0000  0.0000      0.0000  0.0000
 
atom =  19  type =  2  l = 0
 
 onsite density matrix
 
spin component  1
 
  0.1347
 
spin component  2
 
  0.1207
 
 occupancies and eigenvectors
 
  o =  0.1207  v =  0.0000  1.0000      0.0000  0.0000
  o =  0.1347  v =  1.0000  0.0000      0.0000  0.0000
 
atom =  20  type =  2  l = 0
 
 onsite density matrix
 
spin component  1
 
  0.1347
 
spin component  2
 
  0.1207
 
 occupancies and eigenvectors
 
  o =  0.1207  v =  0.0000  1.0000      0.0000  0.0000
  o =  0.1347  v =  1.0000  0.0000      0.0000  0.0000
 
atom =  21  type =  2  l = 0
 
 onsite density matrix
 
spin component  1
 
  0.1347
 
spin component  2
 
  0.1207
 
 occupancies and eigenvectors
 
  o =  0.1207  v =  0.0000  1.0000      0.0000  0.0000
  o =  0.1347  v =  1.0000  0.0000      0.0000  0.0000
 
atom =  22  type =  2  l = 0
 
 onsite density matrix
 
spin component  1
 
  0.1347
 
spin component  2
 
  0.1207
 
 occupancies and eigenvectors
 
  o =  0.1207  v =  0.0000  1.0000      0.0000  0.0000
  o =  0.1347  v =  1.0000  0.0000      0.0000  0.0000
 
atom =  23  type =  2  l = 0
 
 onsite density matrix
 
spin component  1
 
  0.1347
 
spin component  2
 
  0.1207
 
 occupancies and eigenvectors
 
  o =  0.1207  v =  0.0000  1.0000      0.0000  0.0000
  o =  0.1347  v =  1.0000  0.0000      0.0000  0.0000
 
atom =  24  type =  2  l = 0
 
 onsite density matrix
 
spin component  1
 
  0.1347
 
spin component  2
 
  0.1207
 
 occupancies and eigenvectors
 
  o =  0.1207  v =  0.0000  1.0000      0.0000  0.0000
  o =  0.1347  v =  1.0000  0.0000      0.0000  0.0000
 
atom =  25  type =  2  l = 0
 
 onsite density matrix
 
spin component  1
 
  0.1347
 
spin component  2
 
  0.1207
 
 occupancies and eigenvectors
 
  o =  0.1207  v =  0.0000  1.0000      0.0000  0.0000
  o =  0.1347  v =  1.0000  0.0000      0.0000  0.0000
 
atom =  26  type =  3  l = 2
 
 onsite density matrix
 
spin component  1
 
  0.4151  0.0000  0.0000  0.0000  0.0000
  0.0000  0.4151  0.0000  0.0000  0.0000
  0.0000  0.0000  0.4151  0.0000 -0.0000
  0.0000  0.0000  0.0000  0.4151  0.0000
  0.0000  0.0000 -0.0000  0.0000  0.4151
 
spin component  2
 
  0.3756  0.0000  0.0000  0.0000  0.0000
  0.0000  0.3756  0.0000  0.0000  0.0000
  0.0000  0.0000  0.3756  0.0000 -0.0000
  0.0000  0.0000  0.0000  0.3756  0.0000
  0.0000  0.0000 -0.0000  0.0000  0.3756
 
 occupancies and eigenvectors
 
  o =  0.3756  v =  0.0000  0.0000  0.0000  0.0000  0.0000  0.0000  0.0000  1.0000  0.0000  0.0000      0.0000  0.0000  0.0000  0.0000  0.0000  0.0000  0.0000  0.0000  0.0000  0.0000
  o =  0.3756  v =  0.0000  0.0000  0.0000  0.0000  0.0000  1.0000  0.0000  0.0000  0.0000  0.0000      0.0000  0.0000  0.0000  0.0000  0.0000  0.0000  0.0000  0.0000  0.0000  0.0000
  o =  0.3756  v =  0.0000  0.0000  0.0000  0.0000  0.0000  0.0000  1.0000  0.0000  0.0000  0.0000      0.0000  0.0000  0.0000  0.0000  0.0000  0.0000  0.0000  0.0000  0.0000  0.0000
  o =  0.3756  v =  0.0000  0.0000  0.0000  0.0000  0.0000  0.0000  0.0000  0.0000  1.0000  0.0000      0.0000  0.0000  0.0000  0.0000  0.0000  0.0000  0.0000  0.0000  0.0000  0.0000
  o =  0.3756  v =  0.0000  0.0000  0.0000  0.0000  0.0000  0.0000  0.0000  0.0000  0.0000  1.0000      0.0000  0.0000  0.0000  0.0000  0.0000  0.0000  0.0000  0.0000  0.0000  0.0000
  o =  0.4151  v =  0.0000  0.0000  1.0000  0.0000  0.0000  0.0000  0.0000  0.0000  0.0000  0.0000      0.0000  0.0000  0.0000  0.0000  0.0000  0.0000  0.0000  0.0000  0.0000  0.0000
  o =  0.4151  v =  0.0000  1.0000  0.0000  0.0000  0.0000  0.0000  0.0000  0.0000  0.0000  0.0000      0.0000  0.0000  0.0000  0.0000  0.0000  0.0000  0.0000  0.0000  0.0000  0.0000
  o =  0.4151  v =  1.0000  0.0000  0.0000  0.0000  0.0000  0.0000  0.0000  0.0000  0.0000  0.0000      0.0000  0.0000  0.0000  0.0000  0.0000  0.0000  0.0000  0.0000  0.0000  0.0000
  o =  0.4151  v =  0.0000  0.0000  0.0000  1.0000  0.0000  0.0000  0.0000  0.0000  0.0000  0.0000      0.0000  0.0000  0.0000  0.0000  0.0000  0.0000  0.0000  0.0000  0.0000  0.0000
  o =  0.4151  v =  0.0000  0.0000  0.0000  0.0000  1.0000  0.0000  0.0000  0.0000  0.0000  0.0000      0.0000  0.0000  0.0000  0.0000  0.0000  0.0000  0.0000  0.0000  0.0000  0.0000
 
atom =  27  type =  3  l = 2
 
 onsite density matrix
 
spin component  1
 
  0.4151  0.0000  0.0000  0.0000  0.0000
  0.0000  0.4151  0.0000  0.0000  0.0000
  0.0000  0.0000  0.4151  0.0000 -0.0000
  0.0000  0.0000  0.0000  0.4151  0.0000
  0.0000  0.0000 -0.0000  0.0000  0.4151
 
spin component  2
 
  0.3756  0.0000  0.0000  0.0000  0.0000
  0.0000  0.3756  0.0000  0.0000  0.0000
  0.0000  0.0000  0.3756  0.0000 -0.0000
  0.0000  0.0000  0.0000  0.3756  0.0000
  0.0000  0.0000 -0.0000  0.0000  0.3756
 
 occupancies and eigenvectors
 
  o =  0.3756  v =  0.0000  0.0000  0.0000  0.0000  0.0000  0.0000  0.0000  1.0000  0.0000  0.0000      0.0000  0.0000  0.0000  0.0000  0.0000  0.0000  0.0000  0.0000  0.0000  0.0000
  o =  0.3756  v =  0.0000  0.0000  0.0000  0.0000  0.0000  1.0000  0.0000  0.0000  0.0000  0.0000      0.0000  0.0000  0.0000  0.0000  0.0000  0.0000  0.0000  0.0000  0.0000  0.0000
  o =  0.3756  v =  0.0000  0.0000  0.0000  0.0000  0.0000  0.0000  1.0000  0.0000  0.0000  0.0000      0.0000  0.0000  0.0000  0.0000  0.0000  0.0000  0.0000  0.0000  0.0000  0.0000
  o =  0.3756  v =  0.0000  0.0000  0.0000  0.0000  0.0000  0.0000  0.0000  0.0000  1.0000  0.0000      0.0000  0.0000  0.0000  0.0000  0.0000  0.0000  0.0000  0.0000  0.0000  0.0000
  o =  0.3756  v =  0.0000  0.0000  0.0000  0.0000  0.0000  0.0000  0.0000  0.0000  0.0000  1.0000      0.0000  0.0000  0.0000  0.0000  0.0000  0.0000  0.0000  0.0000  0.0000  0.0000
  o =  0.4151  v =  0.0000  0.0000  1.0000  0.0000  0.0000  0.0000  0.0000  0.0000  0.0000  0.0000      0.0000  0.0000  0.0000  0.0000  0.0000  0.0000  0.0000  0.0000  0.0000  0.0000
  o =  0.4151  v =  0.0000  1.0000  0.0000  0.0000  0.0000  0.0000  0.0000  0.0000  0.0000  0.0000      0.0000  0.0000  0.0000  0.0000  0.0000  0.0000  0.0000  0.0000  0.0000  0.0000
  o =  0.4151  v =  1.0000  0.0000  0.0000  0.0000  0.0000  0.0000  0.0000  0.0000  0.0000  0.0000      0.0000  0.0000  0.0000  0.0000  0.0000  0.0000  0.0000  0.0000  0.0000  0.0000
  o =  0.4151  v =  0.0000  0.0000  0.0000  1.0000  0.0000  0.0000  0.0000  0.0000  0.0000  0.0000      0.0000  0.0000  0.0000  0.0000  0.0000  0.0000  0.0000  0.0000  0.0000  0.0000
  o =  0.4151  v =  0.0000  0.0000  0.0000  0.0000  1.0000  0.0000  0.0000  0.0000  0.0000  0.0000      0.0000  0.0000  0.0000  0.0000  0.0000  0.0000  0.0000  0.0000  0.0000  0.0000
 
atom =  28  type =  4  l = 0
 
 onsite density matrix
 
spin component  1
 
  0.8936
 
spin component  2
 
  0.7311
 
 occupancies and eigenvectors
 
  o =  0.7311  v =  0.0000  1.0000      0.0000  0.0000
  o =  0.8936  v =  1.0000  0.0000      0.0000  0.0000
 
atom =  29  type =  4  l = 0
 
 onsite density matrix
 
spin component  1
 
  0.8936
 
spin component  2
 
  0.7311
 
 occupancies and eigenvectors
 
  o =  0.7311  v =  0.0000  1.0000      0.0000  0.0000
  o =  0.8936  v =  1.0000  0.0000      0.0000  0.0000
 
atom =  30  type =  4  l = 0
 
 onsite density matrix
 
spin component  1
 
  0.8936
 
spin component  2
 
  0.7311
 
 occupancies and eigenvectors
 
  o =  0.7311  v =  0.0000  1.0000      0.0000  0.0000
  o =  0.8936  v =  1.0000  0.0000      0.0000  0.0000
 
atom =  31  type =  4  l = 0
 
 onsite density matrix
 
spin component  1
 
  0.8936
 
spin component  2
 
  0.7311
 
 occupancies and eigenvectors
 
  o =  0.7311  v =  0.0000  1.0000      0.0000  0.0000
  o =  0.8936  v =  1.0000  0.0000      0.0000  0.0000
 
atom =  32  type =  4  l = 0
 
 onsite density matrix
 
spin component  1
 
  0.8936
 
spin component  2
 
  0.7311
 
 occupancies and eigenvectors
 
  o =  0.7311  v =  0.0000  1.0000      0.0000  0.0000
  o =  0.8936  v =  1.0000  0.0000      0.0000  0.0000
 
atom =  33  type =  4  l = 0
 
 onsite density matrix
 
spin component  1
 
  0.8936
 
spin component  2
 
  0.7311
 
 occupancies and eigenvectors
 
  o =  0.7311  v =  0.0000  1.0000      0.0000  0.0000
  o =  0.8936  v =  1.0000  0.0000      0.0000  0.0000
 
atom =  34  type =  4  l = 0
 
 onsite density matrix
 
spin component  1
 
  0.8936
 
spin component  2
 
  0.7311
 
 occupancies and eigenvectors
 
  o =  0.7311  v =  0.0000  1.0000      0.0000  0.0000
  o =  0.8936  v =  1.0000  0.0000      0.0000  0.0000
 
atom =  35  type =  4  l = 0
 
 onsite density matrix
 
spin component  1
 
  0.8936
 
spin component  2
 
  0.7311
 
 occupancies and eigenvectors
 
  o =  0.7311  v =  0.0000  1.0000      0.0000  0.0000
  o =  0.8936  v =  1.0000  0.0000      0.0000  0.0000
 
atom =  36  type =  4  l = 0
 
 onsite density matrix
 
spin component  1
 
  0.8936
 
spin component  2
 
  0.7311
 
 occupancies and eigenvectors
 
  o =  0.7311  v =  0.0000  1.0000      0.0000  0.0000
  o =  0.8936  v =  1.0000  0.0000      0.0000  0.0000
 
atom =  37  type =  4  l = 0
 
 onsite density matrix
 
spin component  1
 
  0.8936
 
spin component  2
 
  0.7311
 
 occupancies and eigenvectors
 
  o =  0.7311  v =  0.0000  1.0000      0.0000  0.0000
  o =  0.8936  v =  1.0000  0.0000      0.0000  0.0000
 
atom =  38  type =  4  l = 0
 
 onsite density matrix
 
spin component  1
 
  0.8936
 
spin component  2
 
  0.7311
 
 occupancies and eigenvectors
 
  o =  0.7311  v =  0.0000  1.0000      0.0000  0.0000
  o =  0.8936  v =  1.0000  0.0000      0.0000  0.0000
 
atom =  39  type =  4  l = 0
 
 onsite density matrix
 
spin component  1
 
  0.8936
 
spin component  2
 
  0.7311
 
 occupancies and eigenvectors
 
  o =  0.7311  v =  0.0000  1.0000      0.0000  0.0000
  o =  0.8936  v =  1.0000  0.0000      0.0000  0.0000
 
atom =  40  type =  4  l = 0
 
 onsite density matrix
 
spin component  1
 
  0.8936
 
spin component  2
 
  0.7311
 
 occupancies and eigenvectors
 
  o =  0.7311  v =  0.0000  1.0000      0.0000  0.0000
  o =  0.8936  v =  1.0000  0.0000      0.0000  0.0000
 
atom =  41  type =  4  l = 0
 
 onsite density matrix
 
spin component  1
 
  0.8936
 
spin component  2
 
  0.7311
 
 occupancies and eigenvectors
 
  o =  0.7311  v =  0.0000  1.0000      0.0000  0.0000
  o =  0.8936  v =  1.0000  0.0000      0.0000  0.0000
 
atom =  42  type =  4  l = 0
 
 onsite density matrix
 
spin component  1
 
  0.8936
 
spin component  2
 
  0.7311
 
 occupancies and eigenvectors
 
  o =  0.7311  v =  0.0000  1.0000      0.0000  0.0000
  o =  0.8936  v =  1.0000  0.0000      0.0000  0.0000
 
atom =  43  type =  4  l = 0
 
 onsite density matrix
 
spin component  1
 
  0.8936
 
spin component  2
 
  0.7311
 
 occupancies and eigenvectors
 
  o =  0.7311  v =  0.0000  1.0000      0.0000  0.0000
  o =  0.8936  v =  1.0000  0.0000      0.0000  0.0000
 
atom =  44  type =  4  l = 0
 
 onsite density matrix
 
spin component  1
 
  0.8936
 
spin component  2
 
  0.7311
 
 occupancies and eigenvectors
 
  o =  0.7311  v =  0.0000  1.0000      0.0000  0.0000
  o =  0.8936  v =  1.0000  0.0000      0.0000  0.0000
 
atom =  45  type =  4  l = 0
 
 onsite density matrix
 
spin component  1
 
  0.8936
 
spin component  2
 
  0.7311
 
 occupancies and eigenvectors
 
  o =  0.7311  v =  0.0000  1.0000      0.0000  0.0000
  o =  0.8936  v =  1.0000  0.0000      0.0000  0.0000
 
atom =  46  type =  4  l = 0
 
 onsite density matrix
 
spin component  1
 
  0.8936
 
spin component  2
 
  0.7311
 
 occupancies and eigenvectors
 
  o =  0.7311  v =  0.0000  1.0000      0.0000  0.0000
  o =  0.8936  v =  1.0000  0.0000      0.0000  0.0000
 
atom =  47  type =  4  l = 0
 
 onsite density matrix
 
spin component  1
 
  0.8936
 
spin component  2
 
  0.7311
 
 occupancies and eigenvectors
 
  o =  0.7311  v =  0.0000  1.0000      0.0000  0.0000
  o =  0.8936  v =  1.0000  0.0000      0.0000  0.0000
 
atom =  48  type =  4  l = 0
 
 onsite density matrix
 
spin component  1
 
  0.8936
 
spin component  2
 
  0.7311
 
 occupancies and eigenvectors
 
  o =  0.7311  v =  0.0000  1.0000      0.0000  0.0000
  o =  0.8936  v =  1.0000  0.0000      0.0000  0.0000
 
atom =  49  type =  4  l = 0
 
 onsite density matrix
 
spin component  1
 
  0.8936
 
spin component  2
 
  0.7311
 
 occupancies and eigenvectors
 
  o =  0.7311  v =  0.0000  1.0000      0.0000  0.0000
  o =  0.8936  v =  1.0000  0.0000      0.0000  0.0000
 
atom =  50  type =  4  l = 0
 
 onsite density matrix
 
spin component  1
 
  0.8936
 
spin component  2
 
  0.7311
 
 occupancies and eigenvectors
 
  o =  0.7311  v =  0.0000  1.0000      0.0000  0.0000
  o =  0.8936  v =  1.0000  0.0000      0.0000  0.0000
 
atom =  51  type =  4  l = 0
 
 onsite density matrix
 
spin component  1
 
  0.8936
 
spin component  2
 
  0.7311
 
 occupancies and eigenvectors
 
  o =  0.7311  v =  0.0000  1.0000      0.0000  0.0000
  o =  0.8936  v =  1.0000  0.0000      0.0000  0.0000
 
atom =  52  type =  4  l = 0
 
 onsite density matrix
 
spin component  1
 
  0.8936
 
spin component  2
 
  0.7311
 
 occupancies and eigenvectors
 
  o =  0.7311  v =  0.0000  1.0000      0.0000  0.0000
  o =  0.8936  v =  1.0000  0.0000      0.0000  0.0000
 
atom =  53  type =  4  l = 0
 
 onsite density matrix
 
spin component  1
 
  0.8936
 
spin component  2
 
  0.7311
 
 occupancies and eigenvectors
 
  o =  0.7311  v =  0.0000  1.0000      0.0000  0.0000
  o =  0.8936  v =  1.0000  0.0000      0.0000  0.0000
 
atom =  54  type =  4  l = 0
 
 onsite density matrix
 
spin component  1
 
  0.8936
 
spin component  2
 
  0.7311
 
 occupancies and eigenvectors
 
  o =  0.7311  v =  0.0000  1.0000      0.0000  0.0000
  o =  0.8936  v =  1.0000  0.0000      0.0000  0.0000
 
atom =  55  type =  4  l = 0
 
 onsite density matrix
 
spin component  1
 
  0.8936
 
spin component  2
 
  0.7311
 
 occupancies and eigenvectors
 
  o =  0.7311  v =  0.0000  1.0000      0.0000  0.0000
  o =  0.8936  v =  1.0000  0.0000      0.0000  0.0000
 
atom =  56  type =  4  l = 0
 
 onsite density matrix
 
spin component  1
 
  0.8936
 
spin component  2
 
  0.7311
 
 occupancies and eigenvectors
 
  o =  0.7311  v =  0.0000  1.0000      0.0000  0.0000
  o =  0.8936  v =  1.0000  0.0000      0.0000  0.0000
 
atom =  57  type =  4  l = 0
 
 onsite density matrix
 
spin component  1
 
  0.8936
 
spin component  2
 
  0.7311
 
 occupancies and eigenvectors
 
  o =  0.7311  v =  0.0000  1.0000      0.0000  0.0000
  o =  0.8936  v =  1.0000  0.0000      0.0000  0.0000
 
atom =  58  type =  4  l = 0
 
 onsite density matrix
 
spin component  1
 
  0.8936
 
spin component  2
 
  0.7311
 
 occupancies and eigenvectors
 
  o =  0.7311  v =  0.0000  1.0000      0.0000  0.0000
  o =  0.8936  v =  1.0000  0.0000      0.0000  0.0000
 
atom =  59  type =  4  l = 0
 
 onsite density matrix
 
spin component  1
 
  0.8936
 
spin component  2
 
  0.7311
 
 occupancies and eigenvectors
 
  o =  0.7311  v =  0.0000  1.0000      0.0000  0.0000
  o =  0.8936  v =  1.0000  0.0000      0.0000  0.0000
 
atom =  60  type =  4  l = 0
 
 onsite density matrix
 
spin component  1
 
  0.8936
 
spin component  2
 
  0.7311
 
 occupancies and eigenvectors
 
  o =  0.7311  v =  0.0000  1.0000      0.0000  0.0000
  o =  0.8936  v =  1.0000  0.0000      0.0000  0.0000
 
atom =  61  type =  4  l = 0
 
 onsite density matrix
 
spin component  1
 
  0.8936
 
spin component  2
 
  0.7311
 
 occupancies and eigenvectors
 
  o =  0.7311  v =  0.0000  1.0000      0.0000  0.0000
  o =  0.8936  v =  1.0000  0.0000      0.0000  0.0000
 
atom =  62  type =  4  l = 0
 
 onsite density matrix
 
spin component  1
 
  0.8936
 
spin component  2
 
  0.7311
 
 occupancies and eigenvectors
 
  o =  0.7311  v =  0.0000  1.0000      0.0000  0.0000
  o =  0.8936  v =  1.0000  0.0000      0.0000  0.0000
 
atom =  63  type =  4  l = 0
 
 onsite density matrix
 
spin component  1
 
  0.8936
 
spin component  2
 
  0.7311
 
 occupancies and eigenvectors
 
  o =  0.7311  v =  0.0000  1.0000      0.0000  0.0000
  o =  0.8936  v =  1.0000  0.0000      0.0000  0.0000
 
atom =  64  type =  4  l = 0
 
 onsite density matrix
 
spin component  1
 
  0.8936
 
spin component  2
 
  0.7311
 
 occupancies and eigenvectors
 
  o =  0.7311  v =  0.0000  1.0000      0.0000  0.0000
  o =  0.8936  v =  1.0000  0.0000      0.0000  0.0000
 
atom =  65  type =  4  l = 0
 
 onsite density matrix
 
spin component  1
 
  0.8936
 
spin component  2
 
  0.7311
 
 occupancies and eigenvectors
 
  o =  0.7311  v =  0.0000  1.0000      0.0000  0.0000
  o =  0.8936  v =  1.0000  0.0000      0.0000  0.0000
 
atom =  66  type =  4  l = 0
 
 onsite density matrix
 
spin component  1
 
  0.8936
 
spin component  2
 
  0.7311
 
 occupancies and eigenvectors
 
  o =  0.7311  v =  0.0000  1.0000      0.0000  0.0000
  o =  0.8936  v =  1.0000  0.0000      0.0000  0.0000
 
atom =  67  type =  4  l = 0
 
 onsite density matrix
 
spin component  1
 
  0.8936
 
spin component  2
 
  0.7311
 
 occupancies and eigenvectors
 
  o =  0.7311  v =  0.0000  1.0000      0.0000  0.0000
  o =  0.8936  v =  1.0000  0.0000      0.0000  0.0000
 
atom =  68  type =  4  l = 0
 
 onsite density matrix
 
spin component  1
 
  0.8936
 
spin component  2
 
  0.7311
 
 occupancies and eigenvectors
 
  o =  0.7311  v =  0.0000  1.0000      0.0000  0.0000
  o =  0.8936  v =  1.0000  0.0000      0.0000  0.0000
 
atom =  69  type =  4  l = 0
 
 onsite density matrix
 
spin component  1
 
  0.8936
 
spin component  2
 
  0.7311
 
 occupancies and eigenvectors
 
  o =  0.7311  v =  0.0000  1.0000      0.0000  0.0000
  o =  0.8936  v =  1.0000  0.0000      0.0000  0.0000
 
atom =  70  type =  4  l = 0
 
 onsite density matrix
 
spin component  1
 
  0.8936
 
spin component  2
 
  0.7311
 
 occupancies and eigenvectors
 
  o =  0.7311  v =  0.0000  1.0000      0.0000  0.0000
  o =  0.8936  v =  1.0000  0.0000      0.0000  0.0000
 
atom =  71  type =  4  l = 0
 
 onsite density matrix
 
spin component  1
 
  0.8936
 
spin component  2
 
  0.7311
 
 occupancies and eigenvectors
 
  o =  0.7311  v =  0.0000  1.0000      0.0000  0.0000
  o =  0.8936  v =  1.0000  0.0000      0.0000  0.0000
 
atom =  72  type =  4  l = 0
 
 onsite density matrix
 
spin component  1
 
  0.8936
 
spin component  2
 
  0.7311
 
 occupancies and eigenvectors
 
  o =  0.7311  v =  0.0000  1.0000      0.0000  0.0000
  o =  0.8936  v =  1.0000  0.0000      0.0000  0.0000
 
atom =  73  type =  4  l = 0
 
 onsite density matrix
 
spin component  1
 
  0.8936
 
spin component  2
 
  0.7311
 
 occupancies and eigenvectors
 
  o =  0.7311  v =  0.0000  1.0000      0.0000  0.0000
  o =  0.8936  v =  1.0000  0.0000      0.0000  0.0000
 
atom =  74  type =  4  l = 0
 
 onsite density matrix
 
spin component  1
 
  0.8936
 
spin component  2
 
  0.7311
 
 occupancies and eigenvectors
 
  o =  0.7311  v =  0.0000  1.0000      0.0000  0.0000
  o =  0.8936  v =  1.0000  0.0000      0.0000  0.0000
 
atom =  75  type =  4  l = 0
 
 onsite density matrix
 
spin component  1
 
  0.8936
 
spin component  2
 
  0.7311
 
 occupancies and eigenvectors
 
  o =  0.7311  v =  0.0000  1.0000      0.0000  0.0000
  o =  0.8936  v =  1.0000  0.0000      0.0000  0.0000
 
atom =  76  type =  4  l = 0
 
 onsite density matrix
 
spin component  1
 
  0.8936
 
spin component  2
 
  0.7311
 
 occupancies and eigenvectors
 
  o =  0.7311  v =  0.0000  1.0000      0.0000  0.0000
  o =  0.8936  v =  1.0000  0.0000      0.0000  0.0000
 
atom =  77  type =  4  l = 0
 
 onsite density matrix
 
spin component  1
 
  0.8936
 
spin component  2
 
  0.7311
 
 occupancies and eigenvectors
 
  o =  0.7311  v =  0.0000  1.0000      0.0000  0.0000
  o =  0.8936  v =  1.0000  0.0000      0.0000  0.0000
 
atom =  78  type =  4  l = 0
 
 onsite density matrix
 
spin component  1
 
  0.8936
 
spin component  2
 
  0.7311
 
 occupancies and eigenvectors
 
  o =  0.7311  v =  0.0000  1.0000      0.0000  0.0000
  o =  0.8936  v =  1.0000  0.0000      0.0000  0.0000
 
atom =  79  type =  4  l = 0
 
 onsite density matrix
 
spin component  1
 
  0.8936
 
spin component  2
 
  0.7311
 
 occupancies and eigenvectors
 
  o =  0.7311  v =  0.0000  1.0000      0.0000  0.0000
  o =  0.8936  v =  1.0000  0.0000      0.0000  0.0000
 
atom =  80  type =  4  l = 0
 
 onsite density matrix
 
spin component  1
 
  0.8936
 
spin component  2
 
  0.7311
 
 occupancies and eigenvectors
 
  o =  0.7311  v =  0.0000  1.0000      0.0000  0.0000
  o =  0.8936  v =  1.0000  0.0000      0.0000  0.0000
 
atom =  81  type =  4  l = 0
 
 onsite density matrix
 
spin component  1
 
  0.8936
 
spin component  2
 
  0.7311
 
 occupancies and eigenvectors
 
  o =  0.7311  v =  0.0000  1.0000      0.0000  0.0000
  o =  0.8936  v =  1.0000  0.0000      0.0000  0.0000
 
atom =  82  type =  4  l = 0
 
 onsite density matrix
 
spin component  1
 
  0.8936
 
spin component  2
 
  0.7311
 
 occupancies and eigenvectors
 
  o =  0.7311  v =  0.0000  1.0000      0.0000  0.0000
  o =  0.8936  v =  1.0000  0.0000      0.0000  0.0000
 
atom =  83  type =  4  l = 0
 
 onsite density matrix
 
spin component  1
 
  0.8936
 
spin component  2
 
  0.7311
 
 occupancies and eigenvectors
 
  o =  0.7311  v =  0.0000  1.0000      0.0000  0.0000
  o =  0.8936  v =  1.0000  0.0000      0.0000  0.0000
 
atom =  84  type =  4  l = 0
 
 onsite density matrix
 
spin component  1
 
  0.8936
 
spin component  2
 
  0.7311
 
 occupancies and eigenvectors
 
  o =  0.7311  v =  0.0000  1.0000      0.0000  0.0000
  o =  0.8936  v =  1.0000  0.0000      0.0000  0.0000
 
atom =  85  type =  4  l = 0
 
 onsite density matrix
 
spin component  1
 
  0.8936
 
spin component  2
 
  0.7311
 
 occupancies and eigenvectors
 
  o =  0.7311  v =  0.0000  1.0000      0.0000  0.0000
  o =  0.8936  v =  1.0000  0.0000      0.0000  0.0000
 
atom =  86  type =  4  l = 0
 
 onsite density matrix
 
spin component  1
 
  0.8936
 
spin component  2
 
  0.7311
 
 occupancies and eigenvectors
 
  o =  0.7311  v =  0.0000  1.0000      0.0000  0.0000
  o =  0.8936  v =  1.0000  0.0000      0.0000  0.0000
 
atom =  87  type =  4  l = 0
 
 onsite density matrix
 
spin component  1
 
  0.8936
 
spin component  2
 
  0.7311
 
 occupancies and eigenvectors
 
  o =  0.7311  v =  0.0000  1.0000      0.0000  0.0000
  o =  0.8936  v =  1.0000  0.0000      0.0000  0.0000
 
atom =  88  type =  4  l = 0
 
 onsite density matrix
 
spin component  1
 
  0.8936
 
spin component  2
 
  0.7311
 
 occupancies and eigenvectors
 
  o =  0.7311  v =  0.0000  1.0000      0.0000  0.0000
  o =  0.8936  v =  1.0000  0.0000      0.0000  0.0000
 
atom =  89  type =  4  l = 0
 
 onsite density matrix
 
spin component  1
 
  0.8936
 
spin component  2
 
  0.7311
 
 occupancies and eigenvectors
 
  o =  0.7311  v =  0.0000  1.0000      0.0000  0.0000
  o =  0.8936  v =  1.0000  0.0000      0.0000  0.0000
 
atom =  90  type =  4  l = 0
 
 onsite density matrix
 
spin component  1
 
  0.8936
 
spin component  2
 
  0.7311
 
 occupancies and eigenvectors
 
  o =  0.7311  v =  0.0000  1.0000      0.0000  0.0000
  o =  0.8936  v =  1.0000  0.0000      0.0000  0.0000
 
atom =  91  type =  4  l = 0
 
 onsite density matrix
 
spin component  1
 
  0.8936
 
[...]
   0.529E+02 0.109E+01 0.140E+03   -.520E+02 -.129E+01 -.139E+03   -.906E+00 0.206E+00 -.119E+01   0.531E-03 0.729E-03 -.162E-02
   -.503E+02 0.682E+00 -.143E+03   0.485E+02 -.788E+00 0.142E+03   0.176E+01 0.106E+00 0.855E+00   -.323E-04 0.376E-03 0.202E-02
   0.112E+03 -.966E+02 0.660E+02   -.124E+03 0.112E+03 -.742E+02   0.120E+02 -.149E+02 0.818E+01   -.905E-03 0.105E-02 0.140E-02
   -.112E+03 -.984E+02 -.765E+02   0.125E+03 0.113E+03 0.843E+02   -.128E+02 -.150E+02 -.778E+01   -.141E-02 0.781E-03 -.144E-02
   0.111E+03 -.979E+02 0.737E+02   -.124E+03 0.113E+03 -.820E+02   0.126E+02 -.150E+02 0.834E+01   -.339E-03 0.123E-02 -.105E-02
   -.104E+03 -.960E+02 -.713E+02   0.116E+03 0.111E+03 0.800E+02   -.115E+02 -.149E+02 -.871E+01   -.424E-03 0.152E-02 0.114E-02
 -----------------------------------------------------------------------------------------------
   -.444E+01 -.944E+01 -.166E+01   -.995E-13 -.298E-12 -.156E-12   0.443E+01 0.944E+01 0.166E+01   0.598E-02 -.281E-02 -.457E-02
 
 
 POSITION                                       TOTAL-FORCE (eV/Angst)
 -----------------------------------------------------------------------------------
      2.15550      1.94966      9.16889         0.002147     -0.001103      0.000026
      7.91433      0.03072      0.68711        -0.001950      0.001593      0.002982
      4.93935      0.03233     14.45467        -0.000311      0.001111     -0.000128
     19.28674      1.96968      0.70723         0.002250      0.001425     -0.002091
     -6.52952      1.97397     14.44407        -0.001715      0.001366      0.001878
      4.30921      0.01343      2.06964        -0.000724      0.000291      0.003286
      8.55462      0.01193     13.04430        -0.001462     -0.000255     -0.001882
     15.67666      1.95104      2.09195         0.001680      0.000069     -0.002936
     -2.93532      1.95209     13.07650        -0.002379     -0.000061      0.001662
      0.65294      3.86363      3.44381         0.001390      0.000494      0.001610
     12.14840      3.87215     11.60155        -0.001618      0.000878     -0.001087
     12.06743      1.93368      3.51356         0.001366      0.001248     -0.002351
      0.71785      1.92076     11.69035        -0.000838     -0.000621      0.000258
      5.76006      3.74780      5.74614         0.000882     -0.001466      0.000064
      7.15279      3.74911      9.34912         0.000447     -0.002160     -0.000106
     17.11016      1.80925      5.77500         0.001102     -0.002260     -0.003668
     -4.32333      1.80667      9.39057        -0.002319     -0.001843     -0.000193
      2.07978      0.01297      7.01705         0.001765     -0.001414      0.000697
     10.75695      0.01385      7.95365        -0.000910     -0.000903     -0.000940
     13.47940      1.95246      7.14348        -0.000091     -0.000565     -0.001398
     -0.69130      1.95126      7.99003         0.001290     -0.000902      0.001176
      3.53879      0.00705     10.83032         0.000522     -0.001791      0.001129
      9.36588      0.00773      4.33723         0.000179      0.000792     -0.000443
     14.84251      1.94485     10.76867        -0.002729      0.000622     -0.000259
     -2.05335      1.94278      4.36001         0.002757     -0.000318     -0.000069
     -0.01864      0.97890     -0.00646        -0.000506     -0.000912      0.001343
     11.40034      2.91952     -0.00064        -0.000917      0.002279     -0.003094
     -4.97458      1.90450      7.57251        -0.000040     -0.004585     -0.000937
      6.41343      3.84094      7.56272         0.003153     -0.001910     -0.000814
     -6.50413      0.01730     14.99217        -0.005057      0.000982      0.002644
     19.28401      0.01631      0.14771         0.002195      0.001264     -0.001492
      4.91532      1.95529     14.98887         0.000035      0.001425     -0.002210
      7.90560      1.95406      0.12999        -0.002746      0.001206      0.003281
      6.09936      0.01075      1.22279        -0.000595      0.001198      0.005211
      6.71414      0.01461     13.88788        -0.001022      0.002052     -0.001790
     17.48425      1.95179      1.24310         0.001362      0.002088     -0.000522
     -4.69967      1.94687     13.92084        -0.001934      0.001106      0.002115
     -0.22480      3.87127      1.48704        -0.001265      0.000026      0.002596
     13.00881      3.87936     13.64446        -0.001424      0.000980      0.001512
     11.19863      1.94488      1.48208         0.001845      0.001523     -0.003135
      1.62952      1.93623     13.62865        -0.000170      0.001877     -0.000747
      8.69363      0.01630      2.35087         0.000338      0.001357      0.000254
      4.12069      0.01353     12.77065         0.000989      0.001588      0.000246
     20.08339      1.95267      2.36935         0.003483      0.001754     -0.001462
     -7.28183      1.95790     12.77369        -0.000840      0.001660      0.000948
      2.32572      0.00533      2.67513        -0.001189      0.000966      0.000969
     10.48725      0.01283     12.45145        -0.000939      0.001499     -0.001293
     13.72868      1.95036      2.67739         0.001036      0.001808     -0.006192
     -0.95639      1.93767     12.41472        -0.003440      0.000163     -0.002138
     -1.57278      0.00402      4.09762         0.002127      0.000388     -0.000255
     14.37108      0.00724     11.04443        -0.001122      0.000938      0.001583
      9.83860      1.94584      4.07420         0.002191      0.001169     -0.000966
      3.00718      1.94480     10.96233         0.000538     -0.000934      0.003703
      4.93098     -0.00261      3.77134        -0.002947     -0.000512      0.001779
      7.90382     -0.00357     11.35112        -0.000451     -0.001302      0.000082
     16.31640      1.93523      3.78616        -0.001480     -0.001882     -0.000630
     -3.54706      1.93827     11.36844        -0.001069     -0.002491      0.000291
      7.60509      3.87235      4.93357         0.002759     -0.000490      0.001202
      5.25017      3.87489     10.18768        -0.003168     -0.003846     -0.002249
     18.98677      1.93498      4.95721         0.000270     -0.001754     -0.002673
     -6.17479      1.93022     10.18696        -0.000204     -0.001811      0.000276
      1.22571      0.00742      5.26193         0.003042     -0.000216      0.000123
     11.57032      0.00767      9.84824        -0.001101      0.000571      0.000083
     12.64171      1.94729      5.27515         0.006613      0.001263     -0.002848
      0.30638      1.94708      9.83778         0.000045     -0.000651     -0.000901
      3.80555      0.00175      6.39951         0.001583     -0.002612      0.005545
      9.04088     -0.00240      8.68293         0.000125     -0.002704     -0.002747
     15.19146      1.93920      6.44030         0.003329     -0.002107      0.000594
     -2.35580      1.93944      8.74712        -0.000243     -0.001682      0.003603
     -0.12904      0.01125      7.86443        -0.000117     -0.000716     -0.000331
     12.94748      0.01207      7.27596         0.002277     -0.000035      0.000692
     11.27830      1.94995      7.84243         0.000584     -0.000154     -0.002150
      1.61167      1.95012      7.30103         0.001420     -0.001034     -0.000115
      2.66930      0.01005      9.01257        -0.003593     -0.000996      0.002990
     10.14490      0.01066      6.10617         0.005001      0.001106     -0.001633
     14.06743      1.94936      9.01424        -0.000758      0.000979      0.000769
     -1.24729      1.94771      6.13255        -0.000051      0.000090     -0.000075
     -4.21804      3.84660      9.54255        -0.003562     -0.001689      0.003445
     17.05597      3.84862      5.58581         0.002094     -0.002024     -0.003884
      7.15745      1.90984      9.54728        -0.000865     -0.002151      0.002208
      5.66495      1.90907      5.57957         0.000505     -0.001181     -0.002521
      1.31456      0.00065     11.65671        -0.003549     -0.000448      0.002017
     11.49477      0.00524      3.50173         0.002965      0.001259     -0.002020
     12.72020      1.94279     11.62093        -0.000953      0.000823     -0.000098
      0.10333      1.93818      3.50117         0.001969      0.000151      0.003182
     -2.67110      0.01184     13.56420        -0.005977      0.000684      0.004641
     15.47293      0.01443      1.55571         0.001326      0.001348     -0.003679
      8.72848      1.95262     13.56922         0.002014      0.001164     -0.000895
      4.07295      1.95191      1.57077        -0.000574      0.000998      0.001574
     -0.06945      0.01615     14.92960        -0.002059      0.000812     -0.001265
     12.89028      0.01511      0.19109        -0.000275      0.003044     -0.003451
     11.30279      1.95146     14.92322         0.000673      0.001415      0.000211
      1.47706      1.95510      0.20326        -0.002411      0.001600      0.002287
 -----------------------------------------------------------------------------------
    total drift:                                0.001443      0.000900      0.002216


--------------------------------------------------------------------------------------------------------



  FREE ENERGIE OF THE ION-ELECTRON SYSTEM (eV)
  ---------------------------------------------------
  free  energy   TOTEN  =      -814.03155197 eV

  energy  without entropy=     -814.01445532  energy(sigma->0) =     -814.02300364
 
 d Force = 0.2946848E-03[ 0.246E-03, 0.343E-03]  d Energy = 0.2582295E-03 0.365E-04
 d Force =-0.8236957E+00[-0.822E+00,-0.825E+00]  d Ewald  =-0.8236910E+00-0.462E-05


--------------------------------------------------------------------------------------------------------


    POTLOK:  cpu time      1.1438: real time      1.1511


--------------------------------------------------------------------------------------------------------


 Quasi-Newton relaxation of ions (Broydens 2nd method)
  g(Force)  = 0.203E-04   g(Stress)= 0.000E+00

 retain information from N=  2 steps
 eigenvalues of (default step * inverse Hessian matrix)
  average eigenvalue of G=   2.0587
 eigenvalue spectrum of G is  0.9578  3.1596


--------------------------------------------------------------------------------------------------------


  
 reached required accuracy - stopping structural energy minimisation
     LOOP+:  cpu time    149.3448: real time    151.1594
    4ORBIT:  cpu time      0.0000: real time      0.0000



 total charge

# of ion       s       p       d       tot
------------------------------------------
    1        2.100   0.304   0.000   2.405
    2        0.424   6.572   2.830   9.826
    3        0.423   6.572   2.819   9.814
    4        0.424   6.569   2.833   9.826
    5        0.425   6.575   2.830   9.830
    6        0.422   6.575   2.810   9.807
    7        0.421   6.576   2.802   9.798
    8        0.422   6.576   2.812   9.811
    9        0.424   6.580   2.817   9.820
   10        0.422   6.573   2.828   9.823
   11        0.425   6.571   2.852   9.848
   12        0.425   6.571   2.850   9.846
   13        0.425   6.568   2.859   9.853
   14        0.420   6.610   2.745   9.775
   15        0.420   6.608   2.743   9.771
   16        0.420   6.610   2.741   9.771
   17        0.421   6.612   2.743   9.776
   18        0.422   6.579   2.839   9.840
   19        0.418   6.579   2.776   9.772
   20        0.419   6.578   2.786   9.782
   21        0.419   6.564   2.815   9.799
   22        0.421   6.576   2.818   9.814
   23        0.418   6.576   2.781   9.775
   24        0.419   6.576   2.786   9.781
   25        0.418   6.572   2.781   9.771
   26        0.489   6.631   3.927  11.047
   27        0.489   6.630   3.924  11.043
   28        1.574   3.477   0.000   5.051
   29        1.574   3.475   0.000   5.049
   30        1.565   3.490   0.000   5.055
   31        1.564   3.489   0.000   5.054
   32        1.565   3.491   0.000   5.056
   33        1.565   3.490   0.000   5.055
   34        1.574   3.477   0.000   5.051
   35        1.575   3.473   0.000   5.048
   36        1.575   3.477   0.000   5.052
   37        1.574   3.482   0.000   5.056
   38        1.581   3.456   0.000   5.037
   39        1.584   3.446   0.000   5.030
   40        1.584   3.447   0.000   5.030
   41        1.581   3.456   0.000   5.037
   42        1.577   3.461   0.000   5.038
   43        1.574   3.470   0.000   5.044
   44        1.576   3.461   0.000   5.037
   45        1.577   3.460   0.000   5.037
   46        1.576   3.466   0.000   5.042
   47        1.575   3.473   0.000   5.048
   48        1.575   3.472   0.000   5.047
   49        1.577   3.468   0.000   5.046
   50        1.565   3.490   0.000   5.055
   51        1.565   3.494   0.000   5.059
   52        1.565   3.493   0.000   5.059
   53        1.564   3.513   0.000   5.076
   54        1.580   3.453   0.000   5.032
   55        1.579   3.453   0.000   5.032
   56        1.580   3.453   0.000   5.033
   57        1.580   3.456   0.000   5.036
   58        1.576   3.471   0.000   5.046
   59        1.577   3.463   0.000   5.040
   60        1.576   3.467   0.000   5.043
   61        1.575   3.471   0.000   5.046
   62        1.575   3.478   0.000   5.053
   63        1.577   3.467   0.000   5.044
   64        1.576   3.469   0.000   5.046
   65        1.569   3.484   0.000   5.054
   66        1.577   3.467   0.000   5.044
   67        1.575   3.473   0.000   5.048
   68        1.576   3.470   0.000   5.045
   69        1.577   3.466   0.000   5.042
   70        1.564   3.483   0.000   5.047
   71        1.565   3.493   0.000   5.058
   72        1.566   3.493   0.000   5.059
   73        1.563   3.517   0.000   5.080
   74        1.561   3.488   0.000   5.049
   75        1.575   3.472   0.000   5.047
   76        1.575   3.473   0.000   5.047
   77        1.574   3.471   0.000   5.045
   78        1.581   3.470   0.000   5.051
   79        1.581   3.469   0.000   5.049
   80        1.580   3.469   0.000   5.049
   81        1.581   3.470   0.000   5.050
   82        1.564   3.483   0.000   5.046
   83        1.564   3.496   0.000   5.060
   84        1.564   3.496   0.000   5.060
   85        1.565   3.491   0.000   5.056
   86        1.565   3.489   0.000   5.054
   87        1.565   3.490   0.000   5.054
   88        1.565   3.487   0.000   5.052
   89        1.565   3.488   0.000   5.053
   90        1.582   3.451   0.000   5.033
   91        1.583   3.448   0.000   5.031
   92        1.583   3.449   0.000   5.032
   93        1.582   3.454   0.000   5.036
--------------------------------------------------
tot        117.030 400.777  75.146 592.953



 magnetization (x)

# of ion       s       p       d       tot
------------------------------------------
    1       -0.000  -0.000   0.000  -0.000
    2        0.000  -0.000  -0.000  -0.000
    3       -0.000  -0.000  -0.000  -0.000
    4       -0.000  -0.000   0.000  -0.000
    5       -0.000   0.000   0.000   0.000
    6        0.000  -0.000   0.000  -0.000
    7        0.000  -0.000  -0.000  -0.000
    8        0.000   0.000   0.000   0.000
    9        0.000   0.000   0.000   0.000
   10       -0.000  -0.000   0.000   0.000
   11       -0.000  -0.000  -0.000  -0.000
   12        0.000   0.000   0.000   0.000
   13        0.000  -0.000  -0.000  -0.000
   14        0.000  -0.000  -0.000  -0.000
   15       -0.000  -0.000  -0.000  -0.000
   16       -0.000   0.000   0.000   0.000
   17       -0.000   0.000   0.000   0.000
   18       -0.000   0.000  -0.000  -0.000
   19       -0.000  -0.000  -0.000  -0.000
   20        0.000   0.000   0.000   0.000
   21        0.000   0.000   0.000   0.000
   22       -0.000   0.000  -0.000  -0.000
   23       -0.000  -0.000  -0.000  -0.000
   24        0.000   0.000   0.000   0.000
   25        0.000   0.000   0.000   0.000
   26        0.000   0.000   0.000   0.000
   27        0.000   0.000  -0.000   0.000
   28        0.000  -0.000   0.000  -0.000
   29        0.000   0.000   0.000   0.000
   30       -0.000   0.000   0.000   0.000
   31       -0.000  -0.000   0.000  -0.000
   32        0.000  -0.000   0.000  -0.000
   33        0.000  -0.000   0.000  -0.000
   34        0.000   0.000   0.000   0.000
   35        0.000   0.000   0.000   0.000
   36       -0.000  -0.000   0.000  -0.000
   37        0.000   0.000   0.000   0.000
   38        0.000   0.000   0.000   0.000
   39        0.000  -0.000   0.000  -0.000
   40       -0.000  -0.000   0.000  -0.000
   41        0.000   0.000   0.000   0.000
   42       -0.000   0.000   0.000   0.000
   43        0.000   0.000   0.000   0.000
   44       -0.000  -0.000   0.000  -0.000
   45       -0.000  -0.000   0.000  -0.000
   46       -0.000   0.000   0.000  -0.000
   47       -0.000   0.000   0.000   0.000
   48        0.000   0.000   0.000   0.000
   49        0.000   0.000   0.000   0.000
   50       -0.000  -0.000   0.000  -0.000
   51       -0.000  -0.000   0.000  -0.000
   52        0.000   0.000   0.000   0.000
   53       -0.000   0.000   0.000   0.000
   54        0.000   0.000   0.000   0.000
   55        0.000   0.000   0.000   0.000
   56       -0.000  -0.000   0.000  -0.000
   57       -0.000  -0.000   0.000  -0.000
   58        0.000  -0.000   0.000  -0.000
   59       -0.000  -0.000   0.000  -0.000
   60       -0.000  -0.000   0.000  -0.000
   61       -0.000  -0.000   0.000  -0.000
   62        0.000   0.000   0.000   0.000
   63       -0.000   0.000   0.000   0.000
   64        0.000  -0.000   0.000  -0.000
   65        0.000   0.000   0.000   0.000
   66       -0.000   0.000   0.000   0.000
   67        0.000   0.000   0.000   0.000
   68       -0.000  -0.000   0.000  -0.000
   69       -0.000  -0.000   0.000  -0.000
   70       -0.000  -0.000   0.000  -0.000
   71        0.000  -0.000   0.000  -0.000
   72        0.000   0.000   0.000   0.000
   73       -0.000  -0.000   0.000  -0.000
   74        0.000   0.000   0.000   0.000
   75        0.000   0.000   0.000   0.000
   76        0.000  -0.000   0.000  -0.000
   77        0.000  -0.000   0.000  -0.000
   78       -0.000  -0.000   0.000  -0.000
   79        0.000  -0.000   0.000  -0.000
   80        0.000   0.000   0.000   0.000
   81        0.000   0.000   0.000   0.000
   82        0.000  -0.000   0.000  -0.000
   83        0.000  -0.000   0.000  -0.000
   84        0.000  -0.000   0.000  -0.000
   85       -0.000  -0.000   0.000  -0.000
   86        0.000  -0.000   0.000  -0.000
   87        0.000   0.000   0.000   0.000
   88        0.000   0.000   0.000   0.000
   89       -0.000  -0.000   0.000  -0.000
   90        0.000   0.000   0.000   0.000
   91        0.000   0.000   0.000   0.000
   92        0.000  -0.000   0.000  -0.000
   93        0.000  -0.000   0.000  -0.000
--------------------------------------------------
tot          0.000  -0.000  -0.000  -0.000
 

 total amount of memory used by VASP MPI-rank0   256345. kBytes
=======================================================================

   base      :      30000. kBytes
   nonl-proj :     136876. kBytes
   fftplans  :       7974. kBytes
   grid      :      64300. kBytes
   one-center:       2892. kBytes
   wavefun   :      14303. kBytes
 
  
  
 General timing and accounting informations for this job:
 ========================================================
  
                  Total CPU time used (sec):     5756.514
                            User time (sec):     5676.167
                          System time (sec):       80.347
                         Elapsed time (sec):     5816.444
  
                   Maximum memory used (kb):      672316.
                   Average memory used (kb):          N/A
  
                          Minor page faults:       619709
                          Major page faults:         2433
                 Voluntary context switches:        11689
