 running on   20 total cores
 distrk:  each k-point on   20 cores,    1 groups
 distr:  one band on    1 cores,   20 groups
 using from now: INCAR     
 vasp.5.4.4.18Apr17-6-g9f103f2a35 (build Dec 11 2018 16:16:58) complex          
  
 POSCAR found type information on POSCAR  Ni S 
 POSCAR found :  2 types and      56 ions
 scaLAPACK will be used

 ----------------------------------------------------------------------------- 
|                                                                             |
|           W    W    AA    RRRRR   N    N  II  N    N   GGGG   !!!           |
|           W    W   A  A   R    R  NN   N  II  NN   N  G    G  !!!           |
|           W    W  A    A  R    R  N N  N  II  N N  N  G       !!!           |
|           W WW W  AAAAAA  RRRRR   N  N N  II  N  N N  G  GGG   !            |
|           WW  WW  A    A  R   R   N   NN  II  N   NN  G    G                |
|           W    W  A    A  R    R  N    N  II  N    N   GGGG   !!!           |
|                                                                             |
|      For optimal performance we recommend to set                            |
|        NCORE= 4 - approx SQRT( number of cores)                             |
|      NCORE specifies how many cores store one orbital (NPAR=cpu/NCORE).     |
|      This setting can  greatly improve the performance of VASP for DFT.     |
|      The default,   NCORE=1            might be grossly inefficient         |
|      on modern multi-core architectures or massively parallel machines.     |
|      Do your own testing !!!!                                               |
|      Unfortunately you need to use the default for GW and RPA calculations. |
|      (for HF NCORE is supported but not extensively tested yet)             |
|                                                                             |
 ----------------------------------------------------------------------------- 

 LDA part: xc-table for Pade appr. of Perdew
 POSCAR, INCAR and KPOINTS ok, starting setup
 FFT: planning ...
 WAVECAR not read
 entering main loop
       N       E                     dE             d eps       ncg     rms          rms(c)
DAV:   1     0.284012104927E+04    0.28401E+04   -0.16161E+05  1520   0.882E+02
DAV:   2    -0.143479959174E+03   -0.29836E+04   -0.28817E+04  1660   0.275E+02
DAV:   3    -0.302895335911E+03   -0.15942E+03   -0.15232E+03  1820   0.770E+01
DAV:   4    -0.306660819210E+03   -0.37655E+01   -0.37084E+01  1680   0.129E+01
DAV:   5    -0.306739247161E+03   -0.78428E-01   -0.78390E-01  1740   0.142E+00
DAV:   6    -0.306741398065E+03   -0.21509E-02   -0.21508E-02  1740   0.240E-01
DAV:   7    -0.306741513923E+03   -0.11586E-03   -0.11586E-03  2080   0.468E-02
DAV:   8    -0.306741516416E+03   -0.24932E-05   -0.24916E-05  1800   0.651E-03    0.544E+01
RMM:   9    -0.392867621894E+03   -0.86126E+02   -0.58664E+02  1523   0.654E+01    0.131E+02
RMM:  10    -0.328615909095E+03    0.64252E+02   -0.27532E+02  1528   0.428E+01    0.775E+01
RMM:  11    -0.292036573046E+03    0.36579E+02   -0.10321E+02  1528   0.263E+01    0.966E+01
RMM:  12    -0.265986682942E+03    0.26050E+02   -0.45549E+01  1528   0.181E+01    0.507E+01
RMM:  13    -0.264886627889E+03    0.11001E+01   -0.55450E+00  1528   0.582E+00    0.518E+01
RMM:  14    -0.262973889901E+03    0.19127E+01   -0.54360E+00  1528   0.573E+00    0.540E+01
RMM:  15    -0.258813794850E+03    0.41601E+01   -0.37392E+00  1528   0.474E+00    0.368E+01
RMM:  16    -0.256791874430E+03    0.20219E+01   -0.31882E+00  1528   0.446E+00    0.306E+01
RMM:  17    -0.255750667940E+03    0.10412E+01   -0.72480E-01  1528   0.206E+00    0.240E+01
RMM:  18    -0.255064222500E+03    0.68645E+00   -0.25708E-01  1528   0.120E+00    0.182E+01
RMM:  19    -0.254707913277E+03    0.35631E+00   -0.59208E-01  1528   0.182E+00    0.168E+01
RMM:  20    -0.255365115897E+03   -0.65720E+00   -0.95271E-01  1528   0.232E+00    0.257E+01
RMM:  21    -0.253751871519E+03    0.16132E+01   -0.93469E-01  1528   0.240E+00    0.105E+01
RMM:  22    -0.253589645523E+03    0.16223E+00   -0.46545E-01  1528   0.167E+00    0.909E+00
RMM:  23    -0.254064109903E+03   -0.47446E+00   -0.43565E-01  1528   0.158E+00    0.141E+01
RMM:  24    -0.254242682835E+03   -0.17857E+00   -0.37725E-01  1526   0.152E+00    0.765E+00
RMM:  25    -0.254269716803E+03   -0.27034E-01   -0.14473E-01  1528   0.934E-01    0.726E+00
RMM:  26    -0.254562446324E+03   -0.29273E+00   -0.13110E-01  1528   0.843E-01    0.709E+00
RMM:  27    -0.255175576058E+03   -0.61313E+00   -0.17556E-01  1524   0.868E-01    0.422E+00
RMM:  28    -0.255378695032E+03   -0.20312E+00   -0.53591E-02  1528   0.531E-01    0.353E+00
RMM:  29    -0.256344676824E+03   -0.96598E+00   -0.14718E-01  1524   0.612E-01    0.382E+00
RMM:  30    -0.256818448344E+03   -0.47377E+00   -0.67922E-02  1524   0.527E-01    0.302E+00
RMM:  31    -0.257473675421E+03   -0.65523E+00   -0.87195E-02  1525   0.531E-01    0.530E+00
RMM:  32    -0.258146822096E+03   -0.67315E+00   -0.82835E-02  1524   0.490E-01    0.230E+00
RMM:  33    -0.258368395132E+03   -0.22157E+00   -0.27382E-02  1528   0.339E-01    0.202E+00
RMM:  34    -0.259103455021E+03   -0.73506E+00   -0.70457E-02  1524   0.375E-01    0.327E+00
RMM:  35    -0.259551079358E+03   -0.44762E+00   -0.37712E-02  1524   0.300E-01    0.195E+00
RMM:  36    -0.259764532349E+03   -0.21345E+00   -0.15219E-02  1525   0.221E-01    0.178E+00
RMM:  37    -0.260480327739E+03   -0.71580E+00   -0.70430E-02  1524   0.308E-01    0.169E+00
RMM:  38    -0.260736571500E+03   -0.25624E+00   -0.20796E-02  1525   0.217E-01    0.102E+00
RMM:  39    -0.260973996485E+03   -0.23742E+00   -0.17121E-02  1525   0.199E-01    0.156E+00
RMM:  40    -0.261267039380E+03   -0.29304E+00   -0.24686E-02  1523   0.208E-01    0.103E+00
RMM:  41    -0.261354754424E+03   -0.87715E-01   -0.60911E-03  1528   0.141E-01    0.697E-01
RMM:  42    -0.261583950707E+03   -0.22920E+00   -0.14379E-02  1525   0.176E-01    0.109E+00
RMM:  43    -0.261711010909E+03   -0.12706E+00   -0.80528E-03  1525   0.152E-01    0.452E-01
RMM:  44    -0.261783200313E+03   -0.72189E-01   -0.37301E-03  1528   0.109E-01    0.696E-01
RMM:  45    -0.261890117522E+03   -0.10692E+00   -0.59478E-03  1524   0.105E-01    0.371E-01
RMM:  46    -0.261908395565E+03   -0.18278E-01   -0.96059E-04  1528   0.562E-02    0.370E-01
RMM:  47    -0.261961436816E+03   -0.53041E-01   -0.26439E-03  1524   0.655E-02    0.312E-01
RMM:  48    -0.261974970491E+03   -0.13534E-01   -0.66290E-04  1525   0.460E-02    0.215E-01
RMM:  49    -0.261997911326E+03   -0.22941E-01   -0.11218E-03  1525   0.519E-02    0.307E-01
RMM:  50    -0.262017191203E+03   -0.19280E-01   -0.12164E-03  1523   0.497E-02    0.167E-01
RMM:  51    -0.262021818500E+03   -0.46273E-02   -0.29525E-04  1528   0.288E-02    0.167E-01
RMM:  52    -0.262029976108E+03   -0.81576E-02   -0.69330E-04  1521   0.313E-02    0.133E-01
RMM:  53    -0.262031447759E+03   -0.14717E-02   -0.13989E-04  1528   0.217E-02    0.103E-01
RMM:  54    -0.262033911748E+03   -0.24640E-02   -0.22245E-04  1524   0.265E-02    0.140E-01
RMM:  55    -0.262035522896E+03   -0.16111E-02   -0.15261E-04  1523   0.221E-02    0.516E-02
RMM:  56    -0.262036948004E+03   -0.14251E-02   -0.11018E-04  1523   0.156E-02    0.100E-01
RMM:  57    -0.262037898437E+03   -0.95043E-03   -0.73418E-05  1518   0.135E-02    0.323E-02
RMM:  58    -0.262038573313E+03   -0.67488E-03   -0.45131E-05  1518   0.106E-02    0.579E-02
RMM:  59    -0.262039227908E+03   -0.65459E-03   -0.47211E-05  1516   0.101E-02    0.260E-02
RMM:  60    -0.262039773947E+03   -0.54604E-03   -0.18243E-05  1516   0.736E-03    0.398E-02
RMM:  61    -0.262040642324E+03   -0.86838E-03   -0.32777E-05  1495   0.743E-03    0.170E-02
RMM:  62    -0.262040891931E+03   -0.24961E-03   -0.97055E-06  1363   0.526E-03    0.266E-02
RMM:  63    -0.262041273812E+03   -0.38188E-03   -0.23938E-05  1413   0.589E-03    0.120E-02
RMM:  64    -0.262041313131E+03   -0.39319E-04   -0.43147E-06  1222   0.478E-03    0.318E-02
RMM:  65    -0.262041416956E+03   -0.10382E-03   -0.13884E-05  1359   0.543E-03    0.202E-02
RMM:  66    -0.262041483695E+03   -0.66739E-04   -0.31360E-06  1043   0.278E-03    0.123E-02
RMM:  67    -0.262041592640E+03   -0.10895E-03   -0.16025E-06   991   0.207E-03    0.856E-03
RMM:  68    -0.262041627379E+03   -0.34739E-04   -0.20547E-06  1009   0.231E-03    0.807E-03
RMM:  69    -0.262041633531E+03   -0.61517E-05   -0.54624E-07   915   0.185E-03    0.853E-03
RMM:  70    -0.262041658540E+03   -0.25009E-04   -0.70907E-07   939   0.168E-03    0.833E-03
RMM:  71    -0.262041700746E+03   -0.42206E-04   -0.54271E-07   932   0.141E-03    0.109E-02
RMM:  72    -0.262041764131E+03   -0.63385E-04   -0.80638E-07   959   0.149E-03    0.484E-03
RMM:  73    -0.262041812595E+03   -0.48465E-04   -0.63707E-07   945   0.124E-03    0.254E-03
RMM:  74    -0.262041831231E+03   -0.18636E-04   -0.24171E-07   904   0.107E-03    0.592E-03
RMM:  75    -0.262041852614E+03   -0.21383E-04   -0.35990E-07   918   0.110E-03    0.230E-03
RMM:  76    -0.262041863142E+03   -0.10528E-04   -0.11948E-07   863   0.637E-04    0.177E-03
RMM:  77    -0.262041873706E+03   -0.10564E-04   -0.11062E-07   868   0.570E-04    0.166E-03
RMM:  78    -0.262041878314E+03   -0.46071E-05   -0.48452E-08   721   0.441E-04    0.142E-03
RMM:  79    -0.262041882666E+03   -0.43524E-05   -0.42101E-08   684   0.410E-04    0.144E-03
RMM:  80    -0.262041884620E+03   -0.19541E-05   -0.22135E-08   482   0.350E-04    0.928E-04
RMM:  81    -0.262041886464E+03   -0.18435E-05   -0.27843E-08   495   0.352E-04    0.905E-04
RMM:  82    -0.262041888095E+03   -0.16315E-05   -0.17263E-08   397   0.323E-04    0.723E-04
RMM:  83    -0.262041889851E+03   -0.17558E-05   -0.31297E-08   467   0.338E-04    0.630E-04
RMM:  84    -0.262041890366E+03   -0.51462E-06   -0.84311E-09   324   0.311E-04
   1 F= -.26204189E+03 E0= -.26171682E+03  d E =-.650143E+00  mag=    39.9244
 Finite differences POTIM= 0.02500 DOF=  15
 bond charge predicted
       N       E                     dE             d eps       ncg     rms          rms(c)
DAV:   1    -0.262037826753E+03    0.40631E-02   -0.30372E+00  1560   0.259E+00    0.572E-01
RMM:   2    -0.262076847486E+03   -0.39021E-01   -0.48894E-02  1528   0.537E-01    0.380E+00
RMM:   3    -0.262039078336E+03    0.37769E-01   -0.27291E-02  1528   0.420E-01    0.151E+00
RMM:   4    -0.262041234894E+03   -0.21566E-02   -0.67573E-03  1528   0.199E-01    0.119E+00
RMM:   5    -0.262042653594E+03   -0.14187E-02   -0.33357E-03  1528   0.148E-01    0.135E+00
RMM:   6    -0.262038721346E+03    0.39322E-02   -0.19093E-03  1528   0.118E-01    0.416E-01
RMM:   7    -0.262039191377E+03   -0.47003E-03   -0.60608E-04  1528   0.615E-02    0.215E-01
RMM:   8    -0.262039757237E+03   -0.56586E-03   -0.48836E-04  1528   0.534E-02    0.479E-01
RMM:   9    -0.262039340173E+03    0.41706E-03   -0.33471E-04  1528   0.480E-02    0.349E-01
RMM:  10    -0.262039185000E+03    0.15517E-03   -0.17895E-04  1528   0.345E-02    0.119E-01
RMM:  11    -0.262039307932E+03   -0.12293E-03   -0.87106E-05  1528   0.228E-02    0.160E-01
RMM:  12    -0.262039299597E+03    0.83350E-05   -0.65266E-05  1522   0.206E-02    0.139E-01
RMM:  13    -0.262039261198E+03    0.38399E-04   -0.36118E-05  1523   0.161E-02    0.482E-02
RMM:  14    -0.262039280690E+03   -0.19492E-04   -0.11458E-05  1507   0.830E-03    0.503E-02
RMM:  15    -0.262039286284E+03   -0.55941E-05   -0.63688E-06  1416   0.639E-03    0.532E-02
RMM:  16    -0.262039283712E+03    0.25725E-05   -0.40603E-06  1252   0.539E-03    0.269E-02
RMM:  17    -0.262039286601E+03   -0.28888E-05   -0.20850E-06   975   0.380E-03    0.151E-02
RMM:  18    -0.262039289034E+03   -0.24330E-05   -0.84678E-07   886   0.241E-03    0.140E-02
RMM:  19    -0.262039294027E+03   -0.49935E-05   -0.69136E-07   909   0.232E-03    0.108E-02
RMM:  20    -0.262039296297E+03   -0.22697E-05   -0.43160E-07   889   0.192E-03    0.492E-03
RMM:  21    -0.262039299052E+03   -0.27553E-05   -0.20347E-07   885   0.113E-03    0.888E-03
RMM:  22    -0.262039302353E+03   -0.33010E-05   -0.16826E-07   894   0.112E-03    0.445E-03
RMM:  23    -0.262039304058E+03   -0.17046E-05   -0.79754E-08   847   0.741E-04    0.243E-03
RMM:  24    -0.262039309102E+03   -0.50442E-05   -0.94782E-08   893   0.661E-04    0.427E-03
RMM:  25    -0.262039311810E+03   -0.27076E-05   -0.63597E-08   853   0.653E-04    0.209E-03
RMM:  26    -0.262039313174E+03   -0.13642E-05   -0.16532E-08   546   0.366E-04    0.160E-03
RMM:  27    -0.262039317281E+03   -0.41077E-05   -0.38171E-08   705   0.396E-04    0.184E-03
RMM:  28    -0.262039319220E+03   -0.19390E-05   -0.15681E-08   563   0.365E-04    0.640E-04
RMM:  29    -0.262039320699E+03   -0.14785E-05   -0.25354E-09   325   0.272E-04    0.779E-04
RMM:  30    -0.262039324563E+03   -0.38641E-05   -0.15213E-08   387   0.297E-04    0.641E-04
RMM:  31    -0.262039325880E+03   -0.13170E-05   -0.57707E-09   303   0.285E-04    0.430E-04
RMM:  32    -0.262039329074E+03   -0.31938E-05   -0.33785E-08   458   0.326E-04    0.600E-04
RMM:  33    -0.262039331803E+03   -0.27291E-05   -0.28841E-08   438   0.314E-04    0.368E-04
RMM:  34    -0.262039333231E+03   -0.14281E-05   -0.13936E-08   336   0.287E-04    0.380E-04
RMM:  35    -0.262039336207E+03   -0.29759E-05   -0.38220E-08   467   0.313E-04    0.291E-04
RMM:  36    -0.262039337035E+03   -0.82773E-06   -0.12925E-08   319   0.274E-04
   2 F= -.26203934E+03 E0= -.26171438E+03  d E =-.649910E+00  mag=    39.9259
 Finite differences progress:
  Degree of freedom:   1/ 15
  Displacement:        1/  2
  Total:               1/ 30
 bond charge predicted
       N       E                     dE             d eps       ncg     rms          rms(c)
DAV:   1    -0.262033712019E+03    0.56242E-02   -0.12264E+01  1560   0.521E+00    0.976E-01
RMM:   2    -0.262122847000E+03   -0.89135E-01   -0.98443E-02  1528   0.762E-01    0.684E+00
RMM:   3    -0.262042244723E+03    0.80602E-01   -0.64209E-02  1528   0.627E-01    0.218E+00
RMM:   4    -0.262061516045E+03   -0.19271E-01   -0.23625E-02  1528   0.372E-01    0.321E+00
RMM:   5    -0.262047010917E+03    0.14505E-01   -0.12415E-02  1528   0.297E-01    0.202E+00
RMM:   6    -0.262039943006E+03    0.70679E-02   -0.55066E-03  1528   0.197E-01    0.697E-01
RMM:   7    -0.262040917384E+03   -0.97438E-03   -0.20229E-03  1528   0.110E-01    0.517E-01
RMM:   8    -0.262042207074E+03   -0.12897E-02   -0.18735E-03  1528   0.107E-01    0.807E-01
RMM:   9    -0.262040751194E+03    0.14559E-02   -0.12849E-03  1528   0.952E-02    0.509E-01
RMM:  10    -0.262040705601E+03    0.45593E-04   -0.39339E-04  1528   0.493E-02    0.362E-01
RMM:  11    -0.262041064950E+03   -0.35935E-03   -0.44175E-04  1528   0.519E-02    0.479E-01
RMM:  12    -0.262040652139E+03    0.41281E-03   -0.30082E-04  1528   0.454E-02    0.243E-01
RMM:  13    -0.262040674173E+03   -0.22033E-04   -0.16711E-04  1528   0.331E-02    0.117E-01
RMM:  14    -0.262040767244E+03   -0.93071E-04   -0.10467E-04  1526   0.247E-02    0.142E-01
RMM:  15    -0.262040783468E+03   -0.16224E-04   -0.60578E-05  1523   0.204E-02    0.153E-01
RMM:  16    -0.262040746147E+03    0.37321E-04   -0.36503E-05  1520   0.158E-02    0.885E-02
RMM:  17    -0.262040758214E+03   -0.12067E-04   -0.19346E-05  1520   0.110E-02    0.557E-02
RMM:  18    -0.262040779364E+03   -0.21151E-04   -0.12075E-05  1490   0.874E-03    0.761E-02
RMM:  19    -0.262040773708E+03    0.56560E-05   -0.81638E-06  1461   0.762E-03    0.266E-02
RMM:  20    -0.262040786654E+03   -0.12946E-04   -0.41135E-06  1240   0.518E-03    0.205E-02
RMM:  21    -0.262040804221E+03   -0.17567E-04   -0.21382E-06   947   0.403E-03    0.192E-02
RMM:  22    -0.262040808348E+03   -0.41265E-05   -0.97444E-07   904   0.287E-03    0.926E-03
RMM:  23    -0.262040814852E+03   -0.65045E-05   -0.44298E-07   903   0.167E-03    0.107E-02
RMM:  24    -0.262040829665E+03   -0.14812E-04   -0.45567E-07   921   0.169E-03    0.776E-03
RMM:  25    -0.262040834718E+03   -0.50534E-05   -0.22264E-07   900   0.125E-03    0.315E-03
RMM:  26    -0.262040845126E+03   -0.10408E-04   -0.20418E-07   905   0.975E-04    0.671E-03
RMM:  27    -0.262040858204E+03   -0.13078E-04   -0.23323E-07   911   0.107E-03    0.450E-03
RMM:  28    -0.262040861523E+03   -0.33186E-05   -0.72387E-08   850   0.631E-04    0.153E-03
RMM:  29    -0.262040867796E+03   -0.62735E-05   -0.54417E-08   778   0.471E-04    0.251E-03
RMM:  30    -0.262040877020E+03   -0.92236E-05   -0.69136E-08   758   0.486E-04    0.990E-04
RMM:  31    -0.262040879909E+03   -0.28894E-05   -0.15061E-08   457   0.340E-04    0.887E-04
RMM:  32    -0.262040890399E+03   -0.10490E-04   -0.69355E-08   613   0.384E-04    0.103E-03
RMM:  33    -0.262040893747E+03   -0.33474E-05   -0.19931E-08   458   0.337E-04    0.498E-04
RMM:  34    -0.262040900366E+03   -0.66197E-05   -0.56111E-08   606   0.365E-04    0.926E-04
RMM:  35    -0.262040905266E+03   -0.48999E-05   -0.29560E-08   462   0.333E-04    0.502E-04
RMM:  36    -0.262040907421E+03   -0.21550E-05   -0.16604E-08   366   0.311E-04    0.498E-04
RMM:  37    -0.262040913144E+03   -0.57227E-05   -0.71057E-08   579   0.357E-04    0.472E-04
RMM:  38    -0.262040915111E+03   -0.19667E-05   -0.18650E-08   385   0.297E-04    0.324E-04
RMM:  39    -0.262040917559E+03   -0.24485E-05   -0.21505E-08   399   0.303E-04    0.385E-04
RMM:  40    -0.262040919252E+03   -0.16925E-05   -0.14183E-08   354   0.299E-04    0.231E-04
RMM:  41    -0.262040920654E+03   -0.14028E-05   -0.14513E-08   338   0.301E-04    0.291E-04
RMM:  42    -0.262040922188E+03   -0.15338E-05   -0.22586E-08   391   0.316E-04    0.170E-04
RMM:  43    -0.262040922632E+03   -0.44415E-06   -0.14076E-08   306   0.301E-04
   3 F= -.26204092E+03 E0= -.26171571E+03  d E =-.650418E+00  mag=    39.9237
 Finite differences progress:
  Degree of freedom:   1/ 15
  Displacement:        2/  2
  Total:               2/ 30
 bond charge predicted
       N       E                     dE             d eps       ncg     rms          rms(c)
DAV:   1    -0.262036458336E+03    0.44639E-02   -0.60697E+00  1580   0.366E+00    0.775E-01
RMM:   2    -0.262099363803E+03   -0.62905E-01   -0.88316E-02  1528   0.736E-01    0.460E+00
RMM:   3    -0.262038968078E+03    0.60396E-01   -0.48917E-02  1528   0.559E-01    0.170E+00
RMM:   4    -0.262046636248E+03   -0.76682E-02   -0.12328E-02  1528   0.270E-01    0.193E+00
RMM:   5    -0.262044297092E+03    0.23392E-02   -0.58487E-03  1528   0.201E-01    0.166E+00
RMM:   6    -0.262038876085E+03    0.54210E-02   -0.29351E-03  1528   0.146E-01    0.455E-01
RMM:   7    -0.262039716338E+03   -0.84025E-03   -0.91650E-04  1528   0.747E-02    0.297E-01
RMM:   8    -0.262040513478E+03   -0.79714E-03   -0.86277E-04  1528   0.714E-02    0.597E-01
RMM:   9    -0.262039635459E+03    0.87802E-03   -0.62872E-04  1528   0.662E-02    0.289E-01
RMM:  10    -0.262039695417E+03   -0.59958E-04   -0.21674E-04  1528   0.370E-02    0.154E-01
RMM:  11    -0.262039942598E+03   -0.24718E-03   -0.16744E-04  1528   0.320E-02    0.316E-01
RMM:  12    -0.262039746815E+03    0.19578E-03   -0.10831E-04  1525   0.276E-02    0.162E-01
RMM:  13    -0.262039746147E+03    0.66786E-06   -0.53893E-05  1526   0.191E-02    0.639E-02
RMM:  14    -0.262039782942E+03   -0.36795E-04   -0.25215E-05  1520   0.123E-02    0.867E-02
RMM:  15    -0.262039779220E+03    0.37216E-05   -0.13655E-05  1504   0.966E-03    0.711E-02
RMM:  16    -0.262039775012E+03    0.42086E-05   -0.74826E-06  1447   0.715E-03    0.335E-02
RMM:  17    -0.262039780780E+03   -0.57682E-05   -0.40724E-06  1111   0.504E-03    0.253E-02
RMM:  18    -0.262039786915E+03   -0.61351E-05   -0.21544E-06   965   0.391E-03    0.252E-02
RMM:  19    -0.262039792887E+03   -0.59714E-05   -0.16668E-06   935   0.376E-03    0.126E-02
RMM:  20    -0.262039796936E+03   -0.40494E-05   -0.78478E-07   895   0.244E-03    0.770E-03
RMM:  21    -0.262039805091E+03   -0.81551E-05   -0.55346E-07   910   0.195E-03    0.148E-02
RMM:  22    -0.262039808676E+03   -0.35848E-05   -0.33664E-07   902   0.167E-03    0.549E-03
RMM:  23    -0.262039811703E+03   -0.30275E-05   -0.14811E-07   874   0.973E-04    0.457E-03
RMM:  24    -0.262039822841E+03   -0.11138E-04   -0.20155E-07   911   0.988E-04    0.554E-03
RMM:  25    -0.262039826609E+03   -0.37683E-05   -0.11136E-07   882   0.891E-04    0.214E-03
RMM:  26    -0.262039830066E+03   -0.34568E-05   -0.48956E-08   816   0.501E-04    0.367E-03
RMM:  27    -0.262039838322E+03   -0.82558E-05   -0.73717E-08   849   0.547E-04    0.266E-03
RMM:  28    -0.262039841247E+03   -0.29245E-05   -0.30093E-08   721   0.448E-04    0.109E-03
RMM:  29    -0.262039844640E+03   -0.33933E-05   -0.67500E-09   371   0.300E-04    0.139E-03
RMM:  30    -0.262039852264E+03   -0.76242E-05   -0.33729E-08   441   0.315E-04    0.813E-04
RMM:  31    -0.262039854599E+03   -0.23352E-05   -0.54709E-09   317   0.298E-04    0.660E-04
RMM:  32    -0.262039863365E+03   -0.87652E-05   -0.87939E-08   625   0.388E-04    0.953E-04
RMM:  33    -0.262039866955E+03   -0.35905E-05   -0.24131E-08   464   0.333E-04    0.628E-04
RMM:  34    -0.262039871552E+03   -0.45969E-05   -0.38240E-08   531   0.340E-04    0.708E-04
RMM:  35    -0.262039875881E+03   -0.43288E-05   -0.33196E-08   493   0.326E-04    0.486E-04
RMM:  36    -0.262039878196E+03   -0.23149E-05   -0.25790E-08   408   0.310E-04    0.565E-04
RMM:  37    -0.262039881185E+03   -0.29891E-05   -0.22714E-08   413   0.317E-04    0.336E-04
RMM:  38    -0.262039882014E+03   -0.82889E-06   -0.73073E-09   309   0.303E-04
   4 F= -.26203988E+03 E0= -.26171503E+03  d E =-.649709E+00  mag=    39.9297
 Finite differences progress:
  Degree of freedom:   2/ 15
  Displacement:        1/  2
  Total:               3/ 30
 bond charge predicted
       N       E                     dE             d eps       ncg     rms          rms(c)
DAV:   1    -0.262031662135E+03    0.82190E-02   -0.12087E+01  1560   0.526E+00    0.842E-01
RMM:   2    -0.262079815136E+03   -0.48153E-01   -0.71507E-02  1527   0.745E-01    0.452E+00
RMM:   3    -0.262041266126E+03    0.38549E-01   -0.29626E-02  1528   0.443E-01    0.208E+00
RMM:   4    -0.262063339381E+03   -0.22073E-01   -0.21839E-02  1528   0.364E-01    0.332E+00
RMM:   5    -0.262041405092E+03    0.21934E-01   -0.11725E-02  1528   0.293E-01    0.153E+00
RMM:   6    -0.262039078679E+03    0.23264E-02   -0.35959E-03  1528   0.155E-01    0.426E-01
RMM:   7    -0.262040597738E+03   -0.15191E-02   -0.13356E-03  1528   0.880E-02    0.593E-01
RMM:   8    -0.262041264736E+03   -0.66700E-03   -0.11400E-03  1528   0.849E-02    0.808E-01
RMM:   9    -0.262039849051E+03    0.14157E-02   -0.75746E-04  1528   0.728E-02    0.340E-01
RMM:  10    -0.262040016042E+03   -0.16699E-03   -0.41167E-04  1528   0.499E-02    0.227E-01
RMM:  11    -0.262040321674E+03   -0.30563E-03   -0.29981E-04  1528   0.428E-02    0.409E-01
RMM:  12    -0.262039904328E+03    0.41735E-03   -0.21409E-04  1528   0.390E-02    0.122E-01
RMM:  13    -0.262040022844E+03   -0.11852E-03   -0.65440E-05  1526   0.203E-02    0.766E-02
RMM:  14    -0.262040086222E+03   -0.63378E-04   -0.35228E-05  1518   0.151E-02    0.130E-01
RMM:  15    -0.262040056489E+03    0.29733E-04   -0.19272E-05  1510   0.118E-02    0.690E-02
RMM:  16    -0.262040067277E+03   -0.10787E-04   -0.10135E-05  1508   0.808E-03    0.343E-02
RMM:  17    -0.262040083397E+03   -0.16120E-04   -0.55640E-06  1381   0.593E-03    0.500E-02
RMM:  18    -0.262040084979E+03   -0.15818E-05   -0.32263E-06  1122   0.497E-03    0.191E-02
RMM:  19    -0.262040093973E+03   -0.89939E-05   -0.17389E-06   935   0.354E-03    0.137E-02
RMM:  20    -0.262040106825E+03   -0.12852E-04   -0.13339E-06   944   0.305E-03    0.188E-02
RMM:  21    -0.262040114756E+03   -0.79307E-05   -0.79007E-07   907   0.254E-03    0.118E-02
RMM:  22    -0.262040120304E+03   -0.55478E-05   -0.48061E-07   901   0.185E-03    0.549E-03
RMM:  23    -0.262040128661E+03   -0.83577E-05   -0.33797E-07   906   0.143E-03    0.857E-03
RMM:  24    -0.262040139814E+03   -0.11152E-04   -0.30234E-07   912   0.143E-03    0.463E-03
RMM:  25    -0.262040143122E+03   -0.33080E-05   -0.10932E-07   876   0.838E-04    0.296E-03
RMM:  26    -0.262040148657E+03   -0.55356E-05   -0.81826E-08   867   0.647E-04    0.484E-03
RMM:  27    -0.262040157224E+03   -0.85667E-05   -0.92975E-08   877   0.679E-04    0.250E-03
RMM:  28    -0.262040159344E+03   -0.21200E-05   -0.26295E-08   678   0.428E-04    0.852E-04
RMM:  29    -0.262040165071E+03   -0.57269E-05   -0.19126E-08   455   0.344E-04    0.169E-03
RMM:  30    -0.262040169594E+03   -0.45228E-05   -0.17360E-08   414   0.303E-04    0.602E-04
RMM:  31    -0.262040172294E+03   -0.26998E-05   -0.82859E-09   344   0.301E-04    0.841E-04
RMM:  32    -0.262040180417E+03   -0.81239E-05   -0.76296E-08   568   0.371E-04    0.729E-04
RMM:  33    -0.262040182571E+03   -0.21531E-05   -0.15397E-08   379   0.321E-04    0.527E-04
RMM:  34    -0.262040188045E+03   -0.54746E-05   -0.66928E-08   618   0.368E-04    0.851E-04
RMM:  35    -0.262040190806E+03   -0.27606E-05   -0.21736E-08   440   0.319E-04    0.507E-04
RMM:  36    -0.262040192472E+03   -0.16661E-05   -0.19254E-08   406   0.309E-04    0.606E-04
RMM:  37    -0.262040195427E+03   -0.29547E-05   -0.29082E-08   433   0.326E-04    0.479E-04
RMM:  38    -0.262040196249E+03   -0.82196E-06   -0.95199E-09   316   0.310E-04
   5 F= -.26204020E+03 E0= -.26171493E+03  d E =-.650534E+00  mag=    39.9200
 Finite differences progress:
  Degree of freedom:   2/ 15
  Displacement:        2/  2
  Total:               4/ 30
 bond charge predicted
       N       E                     dE             d eps       ncg     rms          rms(c)
DAV:   1    -0.262036985403E+03    0.32100E-02   -0.60715E+00  1560   0.367E+00    0.662E-01
RMM:   2    -0.262070670189E+03   -0.33685E-01   -0.41060E-02  1528   0.521E-01    0.398E+00
RMM:   3    -0.262040328372E+03    0.30342E-01   -0.24268E-02  1528   0.392E-01    0.151E+00
RMM:   4    -0.262052558117E+03   -0.12230E-01   -0.12249E-02  1528   0.271E-01    0.242E+00
RMM:   5    -0.262042278200E+03    0.10280E-01   -0.62126E-03  1528   0.213E-01    0.128E+00
RMM:   6    -0.262040130697E+03    0.21475E-02   -0.20215E-03  1528   0.118E-01    0.336E-01
RMM:   7    -0.262041024078E+03   -0.89338E-03   -0.80775E-04  1528   0.693E-02    0.409E-01
RMM:   8    -0.262041611550E+03   -0.58747E-03   -0.74203E-04  1528   0.676E-02    0.665E-01
RMM:   9    -0.262040700185E+03    0.91136E-03   -0.51145E-04  1528   0.602E-02    0.322E-01
RMM:  10    -0.262040745083E+03   -0.44898E-04   -0.24094E-04  1528   0.389E-02    0.182E-01
RMM:  11    -0.262040930200E+03   -0.18512E-03   -0.17239E-04  1528   0.322E-02    0.294E-01
RMM:  12    -0.262040727968E+03    0.20223E-03   -0.11927E-04  1528   0.288E-02    0.125E-01
RMM:  13    -0.262040765109E+03   -0.37141E-04   -0.42205E-05  1526   0.168E-02    0.594E-02
RMM:  14    -0.262040791823E+03   -0.26714E-04   -0.19033E-05  1518   0.107E-02    0.963E-02
RMM:  15    -0.262040777336E+03    0.14487E-04   -0.12155E-05  1498   0.902E-03    0.643E-02
RMM:  16    -0.262040776111E+03    0.12252E-05   -0.92410E-06  1480   0.794E-03    0.352E-02
RMM:  17    -0.262040779293E+03   -0.31829E-05   -0.34206E-06  1057   0.466E-03    0.276E-02
RMM:  18    -0.262040783458E+03   -0.41645E-05   -0.21295E-06   947   0.390E-03    0.298E-02
RMM:  19    -0.262040786208E+03   -0.27504E-05   -0.17173E-06   937   0.378E-03    0.119E-02
RMM:  20    -0.262040789135E+03   -0.29266E-05   -0.76157E-07   904   0.239E-03    0.817E-03
RMM:  21    -0.262040794482E+03   -0.53474E-05   -0.48990E-07   905   0.187E-03    0.115E-02
RMM:  22    -0.262040796667E+03   -0.21843E-05   -0.28267E-07   888   0.153E-03    0.595E-03
RMM:  23    -0.262040799019E+03   -0.23525E-05   -0.13766E-07   868   0.941E-04    0.479E-03
RMM:  24    -0.262040806721E+03   -0.77021E-05   -0.17222E-07   902   0.961E-04    0.522E-03
RMM:  25    -0.262040809656E+03   -0.29343E-05   -0.95740E-08   877   0.823E-04    0.260E-03
RMM:  26    -0.262040812762E+03   -0.31062E-05   -0.52152E-08   798   0.529E-04    0.317E-03
RMM:  27    -0.262040820382E+03   -0.76199E-05   -0.78280E-08   868   0.552E-04    0.256E-03
RMM:  28    -0.262040822577E+03   -0.21950E-05   -0.26752E-08   694   0.434E-04    0.960E-04
RMM:  29    -0.262040827164E+03   -0.45879E-05   -0.14001E-08   444   0.331E-04    0.172E-03
RMM:  30    -0.262040833189E+03   -0.60248E-05   -0.24123E-08   412   0.299E-04    0.631E-04
RMM:  31    -0.262040835976E+03   -0.27871E-05   -0.12319E-08   345   0.300E-04    0.835E-04
RMM:  32    -0.262040845600E+03   -0.96238E-05   -0.10762E-07   616   0.390E-04    0.893E-04
RMM:  33    -0.262040848345E+03   -0.27452E-05   -0.22651E-08   434   0.326E-04    0.617E-04
RMM:  34    -0.262040853394E+03   -0.50484E-05   -0.50579E-08   555   0.352E-04    0.859E-04
RMM:  35    -0.262040857500E+03   -0.41060E-05   -0.36623E-08   481   0.337E-04    0.521E-04
RMM:  36    -0.262040859201E+03   -0.17013E-05   -0.20689E-08   393   0.314E-04    0.583E-04
RMM:  37    -0.262040862720E+03   -0.35186E-05   -0.39637E-08   489   0.331E-04    0.468E-04
RMM:  38    -0.262040863676E+03   -0.95678E-06   -0.11560E-08   337   0.299E-04
   6 F= -.26204086E+03 E0= -.26171578E+03  d E =-.650168E+00  mag=    39.9281
 Finite differences progress:
  Degree of freedom:   3/ 15
  Displacement:        1/  2
  Total:               5/ 30
 bond charge predicted
       N       E                     dE             d eps       ncg     rms          rms(c)
DAV:   1    -0.262033473801E+03    0.73889E-02   -0.12206E+01  1520   0.522E+00    0.126E+00
RMM:   2    -0.262233080465E+03   -0.19961E+00   -0.29775E-01  1527   0.130E+00    0.724E+00
RMM:   3    -0.262045411614E+03    0.18767E+00   -0.14919E-01  1528   0.983E-01    0.294E+00
RMM:   4    -0.262045600883E+03   -0.18927E-03   -0.26399E-02  1528   0.391E-01    0.208E+00
RMM:   5    -0.262054471273E+03   -0.88704E-02   -0.13680E-02  1528   0.294E-01    0.275E+00
RMM:   6    -0.262039021042E+03    0.15450E-01   -0.76147E-03  1528   0.236E-01    0.914E-01
RMM:   7    -0.262039425836E+03   -0.40479E-03   -0.22908E-03  1528   0.121E-01    0.356E-01
RMM:   8    -0.262041013934E+03   -0.15881E-02   -0.14603E-03  1528   0.928E-02    0.795E-01
RMM:   9    -0.262040049407E+03    0.96453E-03   -0.10265E-03  1528   0.835E-02    0.611E-01
RMM:  10    -0.262039538807E+03    0.51060E-03   -0.64944E-04  1528   0.655E-02    0.275E-01
RMM:  11    -0.262039900759E+03   -0.36195E-03   -0.32886E-04  1528   0.443E-02    0.365E-01
RMM:  12    -0.262039790640E+03    0.11012E-03   -0.26614E-04  1528   0.423E-02    0.280E-01
RMM:  13    -0.262039670126E+03    0.12051E-03   -0.14914E-04  1528   0.325E-02    0.109E-01
RMM:  14    -0.262039764891E+03   -0.94764E-04   -0.56270E-05  1524   0.186E-02    0.154E-01
RMM:  15    -0.262039744665E+03    0.20226E-04   -0.34614E-05  1514   0.153E-02    0.121E-01
RMM:  16    -0.262039736255E+03    0.84093E-05   -0.21425E-05  1514   0.120E-02    0.362E-02
RMM:  17    -0.262039767478E+03   -0.31223E-04   -0.11447E-05  1517   0.842E-03    0.593E-02
RMM:  18    -0.262039772671E+03   -0.51925E-05   -0.64267E-06  1430   0.669E-03    0.383E-02
RMM:  19    -0.262039778109E+03   -0.54385E-05   -0.34643E-06  1159   0.498E-03    0.148E-02
RMM:  20    -0.262039791140E+03   -0.13030E-04   -0.21034E-06   975   0.368E-03    0.225E-02
RMM:  21    -0.262039800183E+03   -0.90437E-05   -0.13234E-06   919   0.333E-03    0.165E-02
RMM:  22    -0.262039804335E+03   -0.41515E-05   -0.58843E-07   890   0.211E-03    0.860E-03
RMM:  23    -0.262039810693E+03   -0.63579E-05   -0.41357E-07   895   0.163E-03    0.708E-03
RMM:  24    -0.262039825362E+03   -0.14670E-04   -0.43054E-07   920   0.158E-03    0.733E-03
RMM:  25    -0.262039831030E+03   -0.56672E-05   -0.23566E-07   897   0.128E-03    0.302E-03
RMM:  26    -0.262039836925E+03   -0.58948E-05   -0.12668E-07   880   0.789E-04    0.540E-03
RMM:  27    -0.262039846880E+03   -0.99560E-05   -0.15294E-07   904   0.823E-04    0.431E-03
RMM:  28    -0.262039849693E+03   -0.28123E-05   -0.53767E-08   833   0.574E-04    0.148E-03
RMM:  29    -0.262039853573E+03   -0.38799E-05   -0.27412E-08   622   0.389E-04    0.220E-03
RMM:  30    -0.262039861908E+03   -0.83355E-05   -0.60572E-08   629   0.393E-04    0.113E-03
RMM:  31    -0.262039864321E+03   -0.24132E-05   -0.14097E-08   436   0.334E-04    0.893E-04
RMM:  32    -0.262039872730E+03   -0.84083E-05   -0.83273E-08   655   0.393E-04    0.121E-03
RMM:  33    -0.262039876045E+03   -0.33149E-05   -0.24236E-08   472   0.343E-04    0.680E-04
RMM:  34    -0.262039880678E+03   -0.46332E-05   -0.53113E-08   596   0.368E-04    0.938E-04
RMM:  35    -0.262039886621E+03   -0.59434E-05   -0.67098E-08   554   0.360E-04    0.616E-04
RMM:  36    -0.262039888498E+03   -0.18771E-05   -0.19983E-08   427   0.320E-04    0.681E-04
RMM:  37    -0.262039892129E+03   -0.36307E-05   -0.56568E-08   526   0.345E-04    0.541E-04
RMM:  38    -0.262039893018E+03   -0.88885E-06   -0.80952E-09   331   0.297E-04
   7 F= -.26203989E+03 E0= -.26171482E+03  d E =-.650143E+00  mag=    39.9212
 Finite differences progress:
  Degree of freedom:   3/ 15
  Displacement:        2/  2
  Total:               6/ 30
 bond charge predicted
       N       E                     dE             d eps       ncg     rms          rms(c)
DAV:   1    -0.262036940026E+03    0.29521E-02   -0.59815E+00  1560   0.371E+00    0.601E-01
RMM:   2    -0.262070516022E+03   -0.33576E-01   -0.44923E-02  1527   0.562E-01    0.390E+00
RMM:   3    -0.262039041532E+03    0.31474E-01   -0.21921E-02  1528   0.380E-01    0.138E+00
RMM:   4    -0.262047264808E+03   -0.82233E-02   -0.93624E-03  1528   0.236E-01    0.194E+00
RMM:   5    -0.262041961959E+03    0.53028E-02   -0.46721E-03  1528   0.182E-01    0.126E+00
RMM:   6    -0.262039301954E+03    0.26600E-02   -0.20278E-03  1528   0.119E-01    0.297E-01
RMM:   7    -0.262040290351E+03   -0.98840E-03   -0.97314E-04  1528   0.761E-02    0.437E-01
RMM:   8    -0.262041075241E+03   -0.78489E-03   -0.85820E-04  1528   0.727E-02    0.772E-01
RMM:   9    -0.262039705678E+03    0.13696E-02   -0.62942E-04  1528   0.667E-02    0.323E-01
RMM:  10    -0.262039872775E+03   -0.16710E-03   -0.27198E-04  1528   0.414E-02    0.160E-01
RMM:  11    -0.262040062522E+03   -0.18975E-03   -0.15354E-04  1529   0.304E-02    0.294E-01
RMM:  12    -0.262039840676E+03    0.22185E-03   -0.10323E-04  1526   0.269E-02    0.111E-01
RMM:  13    -0.262039885325E+03   -0.44649E-04   -0.28497E-05  1518   0.136E-02    0.536E-02
RMM:  14    -0.262039902115E+03   -0.16790E-04   -0.13320E-05  1507   0.895E-03    0.862E-02
RMM:  15    -0.262039883962E+03    0.18153E-04   -0.10222E-05  1471   0.839E-03    0.473E-02
RMM:  16    -0.262039885273E+03   -0.13105E-05   -0.51129E-06  1332   0.594E-03    0.215E-02
RMM:  17    -0.262039891345E+03   -0.60722E-05   -0.24533E-06   984   0.403E-03    0.305E-02
RMM:  18    -0.262039893215E+03   -0.18704E-05   -0.17689E-06   928   0.386E-03    0.149E-02
RMM:  19    -0.262039896523E+03   -0.33075E-05   -0.76469E-07   905   0.232E-03    0.837E-03
RMM:  20    -0.262039905516E+03   -0.89934E-05   -0.72994E-07   918   0.211E-03    0.125E-02
RMM:  21    -0.262039909537E+03   -0.40211E-05   -0.44349E-07   905   0.190E-03    0.566E-03
RMM:  22    -0.262039912515E+03   -0.29780E-05   -0.14678E-07   872   0.923E-04    0.627E-03
RMM:  23    -0.262039923439E+03   -0.10924E-04   -0.21884E-07   909   0.102E-03    0.567E-03
RMM:  24    -0.262039928701E+03   -0.52613E-05   -0.13474E-07   896   0.951E-04    0.200E-03
RMM:  25    -0.262039934632E+03   -0.59314E-05   -0.71299E-08   834   0.557E-04    0.348E-03
RMM:  26    -0.262039944490E+03   -0.98579E-05   -0.90492E-08   856   0.570E-04    0.305E-03
RMM:  27    -0.262039949992E+03   -0.55019E-05   -0.47544E-08   776   0.485E-04    0.132E-03
RMM:  28    -0.262039955038E+03   -0.50462E-05   -0.23143E-08   514   0.377E-04    0.128E-03
RMM:  29    -0.262039966739E+03   -0.11701E-04   -0.82244E-08   739   0.416E-04    0.191E-03
RMM:  30    -0.262039976934E+03   -0.10194E-04   -0.75610E-08   761   0.446E-04    0.806E-04
RMM:  31    -0.262039983197E+03   -0.62638E-05   -0.31448E-08   539   0.360E-04    0.105E-03
RMM:  32    -0.262039999036E+03   -0.15839E-04   -0.15901E-07   744   0.432E-04    0.909E-04
RMM:  33    -0.262040002718E+03   -0.36819E-05   -0.21123E-08   455   0.339E-04    0.686E-04
RMM:  34    -0.262040011703E+03   -0.89846E-05   -0.98072E-08   694   0.400E-04    0.848E-04
RMM:  35    -0.262040015752E+03   -0.40490E-05   -0.33479E-08   504   0.345E-04    0.507E-04
RMM:  36    -0.262040018606E+03   -0.28541E-05   -0.24261E-08   467   0.325E-04    0.604E-04
RMM:  37    -0.262040021711E+03   -0.31054E-05   -0.26366E-08   458   0.323E-04    0.429E-04
RMM:  38    -0.262040022597E+03   -0.88530E-06   -0.64303E-09   299   0.296E-04
   8 F= -.26204002E+03 E0= -.26171489E+03  d E =-.650257E+00  mag=    39.9296
 Finite differences progress:
  Degree of freedom:   4/ 15
  Displacement:        1/  2
  Total:               7/ 30
 bond charge predicted
       N       E                     dE             d eps       ncg     rms          rms(c)
DAV:   1    -0.262033820604E+03    0.62011E-02   -0.12063E+01  1540   0.495E+00    0.748E-01
RMM:   2    -0.262101170183E+03   -0.67350E-01   -0.91950E-02  1528   0.785E-01    0.532E+00
RMM:   3    -0.262035962582E+03    0.65208E-01   -0.33938E-02  1528   0.477E-01    0.166E+00
RMM:   4    -0.262045712580E+03   -0.97500E-02   -0.15403E-02  1528   0.298E-01    0.198E+00
RMM:   5    -0.262045689336E+03    0.23244E-04   -0.86629E-03  1528   0.233E-01    0.193E+00
RMM:   6    -0.262037860697E+03    0.78286E-02   -0.53476E-03  1528   0.193E-01    0.740E-01
RMM:   7    -0.262038263302E+03   -0.40261E-03   -0.20962E-03  1528   0.112E-01    0.498E-01
RMM:   8    -0.262040882187E+03   -0.26189E-02   -0.21619E-03  1528   0.114E-01    0.119E+00
RMM:   9    -0.262038195083E+03    0.26871E-02   -0.17577E-03  1528   0.109E-01    0.707E-01
RMM:  10    -0.262037627803E+03    0.56728E-03   -0.87720E-04  1528   0.753E-02    0.228E-01
RMM:  11    -0.262038004424E+03   -0.37662E-03   -0.27429E-04  1530   0.403E-02    0.288E-01
RMM:  12    -0.262037917892E+03    0.86532E-04   -0.18995E-04  1528   0.354E-02    0.198E-01
RMM:  13    -0.262037848127E+03    0.69765E-04   -0.10195E-04  1528   0.270E-02    0.751E-02
RMM:  14    -0.262037889534E+03   -0.41406E-04   -0.33056E-05  1520   0.141E-02    0.867E-02
RMM:  15    -0.262037904503E+03   -0.14970E-04   -0.18085E-05  1517   0.107E-02    0.900E-02
RMM:  16    -0.262037895682E+03    0.88209E-05   -0.14867E-05  1514   0.101E-02    0.484E-02
RMM:  17    -0.262037904325E+03   -0.86430E-05   -0.74658E-06  1420   0.687E-03    0.316E-02
RMM:  18    -0.262037913610E+03   -0.92847E-05   -0.37930E-06  1165   0.493E-03    0.311E-02
RMM:  19    -0.262037927301E+03   -0.13691E-04   -0.28385E-06  1029   0.467E-03    0.170E-02
RMM:  20    -0.262037935772E+03   -0.84716E-05   -0.13888E-06   907   0.327E-03    0.105E-02
RMM:  21    -0.262037953555E+03   -0.17783E-04   -0.98653E-07   925   0.254E-03    0.199E-02
RMM:  22    -0.262037965666E+03   -0.12111E-04   -0.73198E-07   911   0.240E-03    0.787E-03
RMM:  23    -0.262037972284E+03   -0.66186E-05   -0.28635E-07   896   0.135E-03    0.481E-03
RMM:  24    -0.262037993123E+03   -0.20839E-04   -0.29375E-07   918   0.114E-03    0.589E-03
RMM:  25    -0.262038001091E+03   -0.79678E-05   -0.15987E-07   894   0.102E-03    0.282E-03
RMM:  26    -0.262038007829E+03   -0.67378E-05   -0.70422E-08   828   0.560E-04    0.374E-03
RMM:  27    -0.262038029962E+03   -0.22133E-04   -0.16978E-07   889   0.649E-04    0.311E-03
RMM:  28    -0.262038037686E+03   -0.77242E-05   -0.68299E-08   836   0.580E-04    0.139E-03
RMM:  29    -0.262038052496E+03   -0.14810E-04   -0.92320E-08   809   0.476E-04    0.273E-03
RMM:  30    -0.262038074878E+03   -0.22382E-04   -0.18945E-07   843   0.567E-04    0.129E-03
RMM:  31    -0.262038081883E+03   -0.70048E-05   -0.48533E-08   696   0.434E-04    0.118E-03
RMM:  32    -0.262038103326E+03   -0.21443E-04   -0.19206E-07   828   0.483E-04    0.143E-03
RMM:  33    -0.262038109685E+03   -0.63587E-05   -0.51357E-08   671   0.404E-04    0.615E-04
RMM:  34    -0.262038120095E+03   -0.10411E-04   -0.73845E-08   650   0.394E-04    0.116E-03
RMM:  35    -0.262038127598E+03   -0.75029E-05   -0.61632E-08   539   0.361E-04    0.482E-04
RMM:  36    -0.262038130189E+03   -0.25914E-05   -0.19128E-08   432   0.332E-04    0.625E-04
RMM:  37    -0.262038136428E+03   -0.62391E-05   -0.70042E-08   607   0.368E-04    0.551E-04
RMM:  38    -0.262038137556E+03   -0.11280E-05   -0.81197E-09   332   0.292E-04    0.248E-04
RMM:  39    -0.262038139397E+03   -0.18406E-05   -0.22046E-08   398   0.309E-04    0.362E-04
RMM:  40    -0.262038140233E+03   -0.83561E-06   -0.75186E-09   300   0.292E-04
   9 F= -.26203814E+03 E0= -.26171310E+03  d E =-.650083E+00  mag=    39.9203
 Finite differences progress:
  Degree of freedom:   4/ 15
  Displacement:        2/  2
  Total:               8/ 30
 bond charge predicted
       N       E                     dE             d eps       ncg     rms          rms(c)
DAV:   1    -0.262036558661E+03    0.15807E-02   -0.59444E+00  1560   0.347E+00    0.536E-01
RMM:   2    -0.262075327460E+03   -0.38769E-01   -0.46910E-02  1528   0.555E-01    0.423E+00
RMM:   3    -0.262035829043E+03    0.39498E-01   -0.19472E-02  1528   0.355E-01    0.920E-01
RMM:   4    -0.262044228352E+03   -0.83993E-02   -0.67908E-03  1528   0.198E-01    0.168E+00
RMM:   5    -0.262040439327E+03    0.37890E-02   -0.34752E-03  1528   0.155E-01    0.116E+00
RMM:   6    -0.262038371278E+03    0.20680E-02   -0.19401E-03  1528   0.116E-01    0.354E-01
RMM:   7    -0.262039440471E+03   -0.10692E-02   -0.11640E-03  1528   0.833E-02    0.545E-01
RMM:   8    -0.262039646040E+03   -0.20557E-03   -0.10405E-03  1528   0.807E-02    0.684E-01
RMM:   9    -0.262038667750E+03    0.97829E-03   -0.55897E-04  1528   0.627E-02    0.329E-01
RMM:  10    -0.262038728845E+03   -0.61095E-04   -0.26455E-04  1529   0.403E-02    0.190E-01
RMM:  11    -0.262038849670E+03   -0.12082E-03   -0.16723E-04  1528   0.320E-02    0.275E-01
RMM:  12    -0.262038669371E+03    0.18030E-03   -0.10236E-04  1528   0.267E-02    0.105E-01
RMM:  13    -0.262038701855E+03   -0.32484E-04   -0.39723E-05  1522   0.162E-02    0.669E-02
RMM:  14    -0.262038706227E+03   -0.43728E-05   -0.20666E-05  1521   0.110E-02    0.892E-02
RMM:  15    -0.262038693675E+03    0.12552E-04   -0.11920E-05  1507   0.891E-03    0.580E-02
RMM:  16    -0.262038685947E+03    0.77279E-05   -0.10140E-05  1483   0.800E-03    0.372E-02
RMM:  17    -0.262038690913E+03   -0.49660E-05   -0.41245E-06  1195   0.507E-03    0.311E-02
RMM:  18    -0.262038704611E+03   -0.13698E-04   -0.35451E-06  1166   0.480E-03    0.289E-02
RMM:  19    -0.262038713110E+03   -0.84984E-05   -0.23664E-06   975   0.431E-03    0.791E-03
RMM:  20    -0.262038726903E+03   -0.13794E-04   -0.93295E-07   912   0.238E-03    0.164E-02
RMM:  21    -0.262038747068E+03   -0.20165E-04   -0.82418E-07   929   0.229E-03    0.137E-02
RMM:  22    -0.262038755755E+03   -0.86867E-05   -0.42467E-07   906   0.172E-03    0.440E-03
RMM:  23    -0.262038779204E+03   -0.23450E-04   -0.36874E-07   917   0.121E-03    0.762E-03
RMM:  24    -0.262038800787E+03   -0.21582E-04   -0.33054E-07   913   0.129E-03    0.268E-03
RMM:  25    -0.262038812931E+03   -0.12144E-04   -0.13835E-07   886   0.739E-04    0.358E-03
RMM:  26    -0.262038851664E+03   -0.38733E-04   -0.41294E-07   920   0.835E-04    0.425E-03
RMM:  27    -0.262038865068E+03   -0.13403E-04   -0.13929E-07   862   0.725E-04    0.235E-03
RMM:  28    -0.262038880071E+03   -0.15003E-04   -0.11196E-07   866   0.547E-04    0.325E-03
RMM:  29    -0.262038919749E+03   -0.39678E-04   -0.43335E-07   917   0.718E-04    0.276E-03
RMM:  30    -0.262038934048E+03   -0.14299E-04   -0.14057E-07   878   0.645E-04    0.136E-03
RMM:  31    -0.262038959839E+03   -0.25792E-04   -0.25192E-07   869   0.602E-04    0.241E-03
RMM:  32    -0.262038978088E+03   -0.18249E-04   -0.19592E-07   871   0.610E-04    0.922E-04
RMM:  33    -0.262038986664E+03   -0.85760E-05   -0.65610E-08   680   0.452E-04    0.139E-03
RMM:  34    -0.262039000895E+03   -0.14230E-04   -0.13965E-07   726   0.443E-04    0.734E-04
RMM:  35    -0.262039003394E+03   -0.24989E-05   -0.19495E-08   471   0.340E-04    0.545E-04
RMM:  36    -0.262039010070E+03   -0.66766E-05   -0.48461E-08   545   0.358E-04    0.668E-04
RMM:  37    -0.262039011563E+03   -0.14925E-05   -0.82342E-09   333   0.306E-04    0.358E-04
RMM:  38    -0.262039013244E+03   -0.16812E-05   -0.14569E-08   372   0.316E-04    0.477E-04
RMM:  39    -0.262039015226E+03   -0.19821E-05   -0.27721E-08   436   0.316E-04    0.330E-04
RMM:  40    -0.262039015931E+03   -0.70546E-06   -0.10275E-08   321   0.289E-04
  10 F= -.26203902E+03 E0= -.26171388E+03  d E =-.650271E+00  mag=    39.9388
 Finite differences progress:
  Degree of freedom:   5/ 15
  Displacement:        1/  2
  Total:               9/ 30
 bond charge predicted
       N       E                     dE             d eps       ncg     rms          rms(c)
DAV:   1    -0.262034157584E+03    0.48576E-02   -0.12061E+01  1520   0.498E+00    0.793E-01
RMM:   2    -0.262119209965E+03   -0.85052E-01   -0.11098E-01  1528   0.851E-01    0.589E+00
RMM:   3    -0.262036755279E+03    0.82455E-01   -0.43369E-02  1528   0.540E-01    0.172E+00
RMM:   4    -0.262045014875E+03   -0.82596E-02   -0.16482E-02  1528   0.304E-01    0.191E+00
RMM:   5    -0.262047001821E+03   -0.19869E-02   -0.97276E-03  1528   0.242E-01    0.201E+00
RMM:   6    -0.262038285165E+03    0.87167E-02   -0.60942E-03  1528   0.206E-01    0.878E-01
RMM:   7    -0.262038107202E+03    0.17796E-03   -0.23333E-03  1528   0.119E-01    0.469E-01
RMM:   8    -0.262041091805E+03   -0.29846E-02   -0.23551E-03  1528   0.118E-01    0.122E+00
RMM:   9    -0.262038477547E+03    0.26143E-02   -0.18146E-03  1528   0.110E-01    0.808E-01
RMM:  10    -0.262037519376E+03    0.95817E-03   -0.10457E-03  1528   0.825E-02    0.232E-01
RMM:  11    -0.262038041366E+03   -0.52199E-03   -0.29409E-04  1530   0.417E-02    0.325E-01
RMM:  12    -0.262037884430E+03    0.15694E-03   -0.20389E-04  1528   0.367E-02    0.206E-01
RMM:  13    -0.262037842002E+03    0.42428E-04   -0.11541E-04  1528   0.287E-02    0.669E-02
RMM:  14    -0.262037907254E+03   -0.65252E-04   -0.33654E-05  1522   0.142E-02    0.985E-02
RMM:  15    -0.262037919556E+03   -0.12302E-04   -0.22835E-05  1518   0.122E-02    0.987E-02
RMM:  16    -0.262037914911E+03    0.46447E-05   -0.14253E-05  1510   0.985E-03    0.453E-02
RMM:  17    -0.262037930713E+03   -0.15802E-04   -0.63174E-06  1380   0.626E-03    0.375E-02
RMM:  18    -0.262037949287E+03   -0.18574E-04   -0.48645E-06  1274   0.556E-03    0.289E-02
RMM:  19    -0.262037973589E+03   -0.24302E-04   -0.31847E-06  1076   0.485E-03    0.193E-02
RMM:  20    -0.262037987524E+03   -0.13935E-04   -0.14813E-06   935   0.330E-03    0.151E-02
RMM:  21    -0.262038010643E+03   -0.23119E-04   -0.11162E-06   918   0.270E-03    0.176E-02
RMM:  22    -0.262038042374E+03   -0.31731E-04   -0.98335E-07   928   0.272E-03    0.815E-03
RMM:  23    -0.262038055057E+03   -0.12683E-04   -0.36317E-07   902   0.155E-03    0.583E-03
RMM:  24    -0.262038090915E+03   -0.35858E-04   -0.37445E-07   917   0.132E-03    0.881E-03
RMM:  25    -0.262038110375E+03   -0.19461E-04   -0.24601E-07   904   0.126E-03    0.430E-03
RMM:  26    -0.262038124246E+03   -0.13871E-04   -0.12709E-07   881   0.778E-04    0.423E-03
RMM:  27    -0.262038173805E+03   -0.49559E-04   -0.35588E-07   923   0.915E-04    0.536E-03
RMM:  28    -0.262038194118E+03   -0.20313E-04   -0.17597E-07   896   0.909E-04    0.191E-03
RMM:  29    -0.262038223624E+03   -0.29506E-04   -0.20730E-07   902   0.725E-04    0.407E-03
RMM:  30    -0.262038275739E+03   -0.52115E-04   -0.55691E-07   932   0.931E-04    0.209E-03
RMM:  31    -0.262038288633E+03   -0.12894E-04   -0.13188E-07   874   0.680E-04    0.212E-03
RMM:  32    -0.262038322766E+03   -0.34133E-04   -0.38863E-07   915   0.690E-04    0.209E-03
RMM:  33    -0.262038330296E+03   -0.75294E-05   -0.87912E-08   825   0.557E-04    0.110E-03
RMM:  34    -0.262038344281E+03   -0.13986E-04   -0.12904E-07   802   0.480E-04    0.191E-03
RMM:  35    -0.262038352128E+03   -0.78469E-05   -0.81514E-08   783   0.461E-04    0.695E-04
RMM:  36    -0.262038355053E+03   -0.29245E-05   -0.19360E-08   498   0.341E-04    0.913E-04
RMM:  37    -0.262038361047E+03   -0.59941E-05   -0.44687E-08   510   0.347E-04    0.639E-04
RMM:  38    -0.262038361961E+03   -0.91412E-06   -0.90631E-09   340   0.308E-04
  11 F= -.26203836E+03 E0= -.26171332E+03  d E =-.650089E+00  mag=    39.9098
 Finite differences progress:
  Degree of freedom:   5/ 15
  Displacement:        2/  2
  Total:              10/ 30
 bond charge predicted
       N       E                     dE             d eps       ncg     rms          rms(c)
DAV:   1    -0.262035934705E+03    0.24263E-02   -0.61064E+00  1560   0.350E+00    0.516E-01
RMM:   2    -0.262055890947E+03   -0.19956E-01   -0.33489E-02  1527   0.484E-01    0.303E+00
RMM:   3    -0.262036518037E+03    0.19373E-01   -0.12601E-02  1528   0.288E-01    0.102E+00
RMM:   4    -0.262044217670E+03   -0.76996E-02   -0.67215E-03  1528   0.200E-01    0.185E+00
RMM:   5    -0.262038131983E+03    0.60857E-02   -0.38168E-03  1528   0.164E-01    0.102E+00
RMM:   6    -0.262036762021E+03    0.13700E-02   -0.18696E-03  1528   0.112E-01    0.381E-01
RMM:   7    -0.262038079143E+03   -0.13171E-02   -0.15623E-03  1528   0.965E-02    0.689E-01
RMM:   8    -0.262037646041E+03    0.43310E-03   -0.13466E-03  1528   0.922E-02    0.662E-01
RMM:   9    -0.262036749236E+03    0.89680E-03   -0.71030E-04  1528   0.708E-02    0.318E-01
RMM:  10    -0.262036793059E+03   -0.43823E-04   -0.21311E-04  1528   0.359E-02    0.152E-01
RMM:  11    -0.262036941823E+03   -0.14876E-03   -0.12015E-04  1528   0.269E-02    0.242E-01
RMM:  12    -0.262036831319E+03    0.11050E-03   -0.84343E-05  1528   0.238E-02    0.941E-02
RMM:  13    -0.262036841997E+03   -0.10677E-04   -0.40179E-05  1520   0.157E-02    0.507E-02
RMM:  14    -0.262036845949E+03   -0.39520E-05   -0.12182E-05  1515   0.858E-03    0.454E-02
RMM:  15    -0.262036851848E+03   -0.58993E-05   -0.69222E-06  1457   0.683E-03    0.552E-02
RMM:  16    -0.262036848620E+03    0.32283E-05   -0.49331E-06  1327   0.596E-03    0.230E-02
RMM:  17    -0.262036855390E+03   -0.67704E-05   -0.15959E-06   911   0.329E-03    0.253E-02
RMM:  18    -0.262036866743E+03   -0.11353E-04   -0.16860E-06   939   0.343E-03    0.233E-02
RMM:  19    -0.262036874116E+03   -0.73734E-05   -0.11989E-06   907   0.320E-03    0.743E-03
RMM:  20    -0.262036883008E+03   -0.88917E-05   -0.49068E-07   901   0.178E-03    0.135E-02
RMM:  21    -0.262036901059E+03   -0.18051E-04   -0.46200E-07   908   0.178E-03    0.106E-02
RMM:  22    -0.262036909295E+03   -0.82357E-05   -0.25892E-07   897   0.141E-03    0.336E-03
RMM:  23    -0.262036920579E+03   -0.11284E-04   -0.14343E-07   881   0.884E-04    0.570E-03
RMM:  24    -0.262036947227E+03   -0.26648E-04   -0.19581E-07   906   0.965E-04    0.406E-03
RMM:  25    -0.262036955540E+03   -0.83133E-05   -0.84479E-08   865   0.717E-04    0.275E-03
RMM:  26    -0.262036971184E+03   -0.15644E-04   -0.91172E-08   874   0.607E-04    0.494E-03
RMM:  27    -0.262037005587E+03   -0.34403E-04   -0.22692E-07   915   0.776E-04    0.317E-03
RMM:  28    -0.262037018144E+03   -0.12557E-04   -0.94659E-08   878   0.645E-04    0.226E-03
RMM:  29    -0.262037056543E+03   -0.38399E-04   -0.33468E-07   923   0.713E-04    0.337E-03
RMM:  30    -0.262037072034E+03   -0.15492E-04   -0.15222E-07   880   0.738E-04    0.124E-03
RMM:  31    -0.262037086837E+03   -0.14803E-04   -0.12447E-07   850   0.555E-04    0.233E-03
RMM:  32    -0.262037100774E+03   -0.13937E-04   -0.12352E-07   841   0.557E-04    0.101E-03
RMM:  33    -0.262037103895E+03   -0.31208E-05   -0.23899E-08   545   0.368E-04    0.848E-04
RMM:  34    -0.262037111952E+03   -0.80566E-05   -0.41331E-08   528   0.361E-04    0.103E-03
RMM:  35    -0.262037114627E+03   -0.26752E-05   -0.14855E-08   399   0.333E-04    0.392E-04
RMM:  36    -0.262037117384E+03   -0.27572E-05   -0.33459E-08   532   0.352E-04    0.723E-04
RMM:  37    -0.262037120122E+03   -0.27378E-05   -0.21401E-08   478   0.327E-04    0.342E-04
RMM:  38    -0.262037120914E+03   -0.79202E-06   -0.61387E-09   314   0.286E-04
  12 F= -.26203712E+03 E0= -.26171209E+03  d E =-.650066E+00  mag=    39.9377
 Finite differences progress:
  Degree of freedom:   6/ 15
  Displacement:        1/  2
  Total:              11/ 30
 bond charge predicted
       N       E                     dE             d eps       ncg     rms          rms(c)
DAV:   1    -0.262038376312E+03   -0.12562E-02   -0.12217E+01  1520   0.493E+00    0.741E-01
RMM:   2    -0.262073073070E+03   -0.34697E-01   -0.79303E-02  1528   0.703E-01    0.369E+00
RMM:   3    -0.262048184879E+03    0.24888E-01   -0.27795E-02  1528   0.432E-01    0.222E+00
RMM:   4    -0.262050805720E+03   -0.26208E-02   -0.17503E-02  1528   0.319E-01    0.198E+00
RMM:   5    -0.262047637272E+03    0.31684E-02   -0.81445E-03  1528   0.234E-01    0.169E+00
RMM:   6    -0.262040968927E+03    0.66683E-02   -0.45350E-03  1528   0.176E-01    0.540E-01
RMM:   7    -0.262042074120E+03   -0.11052E-02   -0.19486E-03  1528   0.106E-01    0.654E-01
RMM:   8    -0.262044253349E+03   -0.21792E-02   -0.24362E-03  1528   0.120E-01    0.121E+00
RMM:   9    -0.262040942253E+03    0.33111E-02   -0.15599E-03  1528   0.105E-01    0.505E-01
RMM:  10    -0.262041097840E+03   -0.15559E-03   -0.55489E-04  1528   0.587E-02    0.236E-01
RMM:  11    -0.262041357423E+03   -0.25958E-03   -0.31787E-04  1528   0.434E-02    0.339E-01
RMM:  12    -0.262041121204E+03    0.23622E-03   -0.18564E-04  1528   0.357E-02    0.193E-01
RMM:  13    -0.262041113848E+03    0.73564E-05   -0.97302E-05  1528   0.254E-02    0.886E-02
RMM:  14    -0.262041134804E+03   -0.20956E-04   -0.26485E-05  1520   0.124E-02    0.797E-02
RMM:  15    -0.262041152531E+03   -0.17727E-04   -0.22499E-05  1522   0.118E-02    0.766E-02
RMM:  16    -0.262041155909E+03   -0.33784E-05   -0.15255E-05  1511   0.102E-02    0.400E-02
RMM:  17    -0.262041168104E+03   -0.12195E-04   -0.66227E-06  1408   0.655E-03    0.276E-02
RMM:  18    -0.262041189978E+03   -0.21874E-04   -0.39906E-06  1245   0.500E-03    0.432E-02
RMM:  19    -0.262041206508E+03   -0.16531E-04   -0.29063E-06  1041   0.472E-03    0.137E-02
RMM:  20    -0.262041221337E+03   -0.14829E-04   -0.11977E-06   911   0.285E-03    0.122E-02
RMM:  21    -0.262041260003E+03   -0.38666E-04   -0.12354E-06   937   0.266E-03    0.205E-02
RMM:  22    -0.262041275573E+03   -0.15571E-04   -0.72090E-07   911   0.236E-03    0.706E-03
RMM:  23    -0.262041290006E+03   -0.14433E-04   -0.34327E-07   900   0.141E-03    0.710E-03
RMM:  24    -0.262041325399E+03   -0.35393E-04   -0.40276E-07   925   0.127E-03    0.664E-03
RMM:  25    -0.262041339602E+03   -0.14203E-04   -0.19744E-07   900   0.107E-03    0.229E-03
RMM:  26    -0.262041369493E+03   -0.29891E-04   -0.25584E-07   913   0.832E-04    0.571E-03
RMM:  27    -0.262041406612E+03   -0.37120E-04   -0.35697E-07   920   0.977E-04    0.310E-03
RMM:  28    -0.262041416273E+03   -0.96604E-05   -0.89483E-08   827   0.603E-04    0.267E-03
RMM:  29    -0.262041454933E+03   -0.38660E-04   -0.36316E-07   926   0.730E-04    0.403E-03
RMM:  30    -0.262041487360E+03   -0.32427E-04   -0.38150E-07   919   0.858E-04    0.146E-03
RMM:  31    -0.262041504779E+03   -0.17419E-04   -0.16334E-07   856   0.666E-04    0.245E-03
RMM:  32    -0.262041538091E+03   -0.33312E-04   -0.47789E-07   920   0.748E-04    0.130E-03
RMM:  33    -0.262041544288E+03   -0.61971E-05   -0.77371E-08   773   0.513E-04    0.119E-03
RMM:  34    -0.262041559998E+03   -0.15711E-04   -0.16622E-07   805   0.487E-04    0.150E-03
RMM:  35    -0.262041564854E+03   -0.48553E-05   -0.51485E-08   666   0.406E-04    0.684E-04
RMM:  36    -0.262041568716E+03   -0.38628E-05   -0.25147E-08   537   0.350E-04    0.102E-03
RMM:  37    -0.262041574155E+03   -0.54381E-05   -0.51526E-08   509   0.343E-04    0.473E-04
RMM:  38    -0.262041574817E+03   -0.66255E-06   -0.68101E-09   332   0.299E-04
  13 F= -.26204157E+03 E0= -.26171645E+03  d E =-.650251E+00  mag=    39.9111
 Finite differences progress:
  Degree of freedom:   6/ 15
  Displacement:        2/  2
  Total:              12/ 30
 bond charge predicted
       N       E                     dE             d eps       ncg     rms          rms(c)
DAV:   1    -0.262038352533E+03    0.32216E-02   -0.60427E+00  1560   0.364E+00    0.558E-01
RMM:   2    -0.262065318948E+03   -0.26966E-01   -0.50513E-02  1527   0.584E-01    0.310E+00
RMM:   3    -0.262042545583E+03    0.22773E-01   -0.17432E-02  1527   0.342E-01    0.164E+00
RMM:   4    -0.262043482509E+03   -0.93693E-03   -0.94185E-03  1528   0.231E-01    0.131E+00
RMM:   5    -0.262044859734E+03   -0.13772E-02   -0.47991E-03  1528   0.174E-01    0.151E+00
RMM:   6    -0.262039938363E+03    0.49214E-02   -0.29808E-03  1528   0.145E-01    0.520E-01
RMM:   7    -0.262040368029E+03   -0.42967E-03   -0.10108E-03  1528   0.782E-02    0.347E-01
RMM:   8    -0.262042111022E+03   -0.17430E-02   -0.12395E-03  1528   0.861E-02    0.965E-01
RMM:   9    -0.262040110498E+03    0.20005E-02   -0.91206E-04  1528   0.789E-02    0.429E-01
RMM:  10    -0.262040107283E+03    0.32158E-05   -0.38388E-04  1528   0.501E-02    0.166E-01
RMM:  11    -0.262040251259E+03   -0.14398E-03   -0.14747E-04  1528   0.296E-02    0.197E-01
RMM:  12    -0.262040213178E+03    0.38081E-04   -0.10189E-04  1528   0.258E-02    0.147E-01
RMM:  13    -0.262040178641E+03    0.34537E-04   -0.50652E-05  1525   0.189E-02    0.598E-02
RMM:  14    -0.262040192349E+03   -0.13708E-04   -0.14449E-05  1517   0.935E-03    0.633E-02
RMM:  15    -0.262040196010E+03   -0.36615E-05   -0.10287E-05  1503   0.811E-03    0.549E-02
RMM:  16    -0.262040196526E+03   -0.51574E-06   -0.68285E-06  1425   0.687E-03
  14 F= -.26204020E+03 E0= -.26171533E+03  d E =-.649731E+00  mag=    39.9140
 Finite differences progress:
  Degree of freedom:   7/ 15
  Displacement:        1/  2
  Total:              13/ 30
 bond charge predicted
       N       E                     dE             d eps       ncg     rms          rms(c)
DAV:   1    -0.262035711966E+03    0.44840E-02   -0.12228E+01  1560   0.488E+00    0.774E-01
RMM:   2    -0.262076364892E+03   -0.40653E-01   -0.77034E-02  1527   0.707E-01    0.389E+00
RMM:   3    -0.262044002236E+03    0.32363E-01   -0.32303E-02  1528   0.456E-01    0.208E+00
RMM:   4    -0.262050846966E+03   -0.68447E-02   -0.16249E-02  1528   0.305E-01    0.225E+00
RMM:   5    -0.262045985581E+03    0.48614E-02   -0.86246E-03  1528   0.240E-01    0.181E+00
RMM:   6    -0.262039683981E+03    0.63016E-02   -0.44326E-03  1528   0.175E-01    0.650E-01
RMM:   7    -0.262040554041E+03   -0.87006E-03   -0.20906E-03  1528   0.110E-01    0.527E-01
RMM:   8    -0.262042624712E+03   -0.20707E-02   -0.22116E-03  1528   0.114E-01    0.114E+00
RMM:   9    -0.262039668322E+03    0.29564E-02   -0.13123E-03  1528   0.961E-02    0.463E-01
RMM:  10    -0.262039774219E+03   -0.10590E-03   -0.51827E-04  1529   0.558E-02    0.207E-01
RMM:  11    -0.262040139909E+03   -0.36569E-03   -0.29868E-04  1528   0.425E-02    0.388E-01
RMM:  12    -0.262039796058E+03    0.34385E-03   -0.17194E-04  1528   0.347E-02    0.134E-01
RMM:  13    -0.262039859865E+03   -0.63806E-04   -0.55543E-05  1528   0.192E-02    0.561E-02
RMM:  14    -0.262039900540E+03   -0.40676E-04   -0.25248E-05  1519   0.123E-02    0.110E-01
RMM:  15    -0.262039880711E+03    0.19829E-04   -0.15652E-05  1504   0.104E-02    0.654E-02
RMM:  16    -0.262039883758E+03   -0.30473E-05   -0.80103E-06  1471   0.738E-03    0.326E-02
RMM:  17    -0.262039890615E+03   -0.68572E-05   -0.38484E-06  1154   0.487E-03    0.305E-02
RMM:  18    -0.262039899252E+03   -0.86368E-05   -0.31421E-06  1068   0.466E-03    0.238E-02
RMM:  19    -0.262039906686E+03   -0.74335E-05   -0.20362E-06   956   0.404E-03    0.142E-02
RMM:  20    -0.262039912292E+03   -0.56058E-05   -0.10652E-06   919   0.272E-03    0.901E-03
RMM:  21    -0.262039925006E+03   -0.12715E-04   -0.71778E-07   919   0.221E-03    0.108E-02
RMM:  22    -0.262039930410E+03   -0.54040E-05   -0.41722E-07   904   0.181E-03    0.508E-03
RMM:  23    -0.262039937458E+03   -0.70481E-05   -0.21921E-07   901   0.114E-03    0.873E-03
RMM:  24    -0.262039949922E+03   -0.12463E-04   -0.22858E-07   906   0.116E-03    0.600E-03
RMM:  25    -0.262039955547E+03   -0.56252E-05   -0.11740E-07   888   0.897E-04    0.273E-03
RMM:  26    -0.262039964493E+03   -0.89465E-05   -0.80084E-08   869   0.609E-04    0.424E-03
RMM:  27    -0.262039977828E+03   -0.13335E-04   -0.98124E-08   865   0.643E-04    0.317E-03
RMM:  28    -0.262039983197E+03   -0.53684E-05   -0.42029E-08   792   0.479E-04    0.158E-03
RMM:  29    -0.262040003862E+03   -0.20666E-04   -0.14612E-07   888   0.545E-04    0.309E-03
RMM:  30    -0.262040017856E+03   -0.13994E-04   -0.11450E-07   849   0.618E-04    0.140E-03
RMM:  31    -0.262040026535E+03   -0.86794E-05   -0.59191E-08   726   0.453E-04    0.209E-03
RMM:  32    -0.262040047281E+03   -0.20746E-04   -0.20285E-07   834   0.517E-04    0.148E-03
RMM:  33    -0.262040051588E+03   -0.43069E-05   -0.40440E-08   694   0.420E-04    0.811E-04
RMM:  34    -0.262040061649E+03   -0.10061E-04   -0.75955E-08   660   0.401E-04    0.141E-03
RMM:  35    -0.262040065768E+03   -0.41191E-05   -0.29578E-08   527   0.353E-04    0.516E-04
RMM:  36    -0.262040069108E+03   -0.33400E-05   -0.24924E-08   515   0.343E-04    0.789E-04
RMM:  37    -0.262040073290E+03   -0.41820E-05   -0.33488E-08   504   0.339E-04    0.318E-04
RMM:  38    -0.262040074270E+03   -0.98047E-06   -0.10040E-08   338   0.296E-04
  15 F= -.26204007E+03 E0= -.26171476E+03  d E =-.650620E+00  mag=    39.9329
 Finite differences progress:
  Degree of freedom:   7/ 15
  Displacement:        2/  2
  Total:              14/ 30
 bond charge predicted
       N       E                     dE             d eps       ncg     rms          rms(c)
DAV:   1    -0.262036271748E+03    0.38015E-02   -0.61407E+00  1580   0.343E+00    0.723E-01
RMM:   2    -0.262088135996E+03   -0.51864E-01   -0.10404E-01  1527   0.715E-01    0.332E+00
RMM:   3    -0.262038609693E+03    0.49526E-01   -0.52310E-02  1527   0.549E-01    0.139E+00
RMM:   4    -0.262040394407E+03   -0.17847E-02   -0.88755E-03  1528   0.217E-01    0.142E+00
RMM:   5    -0.262041879534E+03   -0.14851E-02   -0.47829E-03  1528   0.174E-01    0.158E+00
RMM:   6    -0.262036655117E+03    0.52244E-02   -0.28225E-03  1528   0.142E-01    0.616E-01
RMM:   7    -0.262036822589E+03   -0.16747E-03   -0.10110E-03  1528   0.790E-02    0.333E-01
RMM:   8    -0.262038419681E+03   -0.15971E-02   -0.15474E-03  1528   0.954E-02    0.897E-01
RMM:   9    -0.262036434600E+03    0.19851E-02   -0.10553E-03  1528   0.851E-02    0.450E-01
RMM:  10    -0.262036392206E+03    0.42394E-04   -0.33274E-04  1530   0.463E-02    0.154E-01
RMM:  11    -0.262036572010E+03   -0.17980E-03   -0.13875E-04  1527   0.287E-02    0.218E-01
RMM:  12    -0.262036517762E+03    0.54248E-04   -0.94107E-05  1526   0.251E-02    0.167E-01
RMM:  13    -0.262036487732E+03    0.30030E-04   -0.53221E-05  1526   0.194E-02    0.484E-02
RMM:  14    -0.262036537065E+03   -0.49333E-04   -0.17561E-05  1516   0.101E-02    0.655E-02
RMM:  15    -0.262036563795E+03   -0.26730E-04   -0.12573E-05  1504   0.886E-03    0.604E-02
RMM:  16    -0.262036580970E+03   -0.17175E-04   -0.67954E-06  1426   0.664E-03    0.335E-02
RMM:  17    -0.262036599984E+03   -0.19013E-04   -0.40793E-06  1147   0.500E-03    0.270E-02
RMM:  18    -0.262036629213E+03   -0.29229E-04   -0.27519E-06  1013   0.425E-03    0.286E-02
RMM:  19    -0.262036660572E+03   -0.31359E-04   -0.19757E-06   957   0.387E-03    0.149E-02
RMM:  20    -0.262036681341E+03   -0.20769E-04   -0.10728E-06   923   0.268E-03    0.885E-03
RMM:  21    -0.262036729338E+03   -0.47997E-04   -0.98285E-07   939   0.221E-03    0.167E-02
RMM:  22    -0.262036771976E+03   -0.42639E-04   -0.80581E-07   931   0.214E-03    0.809E-03
RMM:  23    -0.262036791293E+03   -0.19317E-04   -0.32250E-07   910   0.133E-03    0.399E-03
RMM:  24    -0.262036851716E+03   -0.60423E-04   -0.55600E-07   938   0.122E-03    0.771E-03
RMM:  25    -0.262036899836E+03   -0.48120E-04   -0.46739E-07   926   0.130E-03    0.473E-03
RMM:  26    -0.262036918323E+03   -0.18487E-04   -0.16116E-07   887   0.782E-04    0.399E-03
RMM:  27    -0.262036989246E+03   -0.70923E-04   -0.63214E-07   946   0.986E-04    0.535E-03
RMM:  28    -0.262037041957E+03   -0.52711E-04   -0.58308E-07   938   0.112E-03    0.212E-03
RMM:  29    -0.262037074614E+03   -0.32658E-04   -0.31449E-07   905   0.864E-04    0.393E-03
RMM:  30    -0.262037129431E+03   -0.54816E-04   -0.89125E-07   964   0.100E-03    0.278E-03
RMM:  31    -0.262037140595E+03   -0.11164E-04   -0.16752E-07   881   0.735E-04    0.141E-03
RMM:  32    -0.262037160651E+03   -0.20056E-04   -0.24582E-07   863   0.613E-04    0.232E-03
RMM:  33    -0.262037169239E+03   -0.85884E-05   -0.10433E-07   843   0.566E-04    0.714E-04
RMM:  34    -0.262037176699E+03   -0.74596E-05   -0.65620E-08   650   0.426E-04    0.139E-03
RMM:  35    -0.262037183757E+03   -0.70586E-05   -0.70607E-08   642   0.410E-04    0.628E-04
RMM:  36    -0.262037185542E+03   -0.17842E-05   -0.16367E-08   471   0.344E-04    0.582E-04
RMM:  37    -0.262037191058E+03   -0.55167E-05   -0.58167E-08   613   0.376E-04    0.480E-04
RMM:  38    -0.262037191852E+03   -0.79322E-06   -0.79811E-09   326   0.290E-04
  16 F= -.26203719E+03 E0= -.26171222E+03  d E =-.649940E+00  mag=    39.9009
 Finite differences progress:
  Degree of freedom:   8/ 15
  Displacement:        1/  2
  Total:              15/ 30
 bond charge predicted
       N       E                     dE             d eps       ncg     rms          rms(c)
DAV:   1    -0.262038029164E+03   -0.83811E-03   -0.12277E+01  1560   0.485E+00    0.775E-01
RMM:   2    -0.262076744654E+03   -0.38715E-01   -0.79042E-02  1527   0.680E-01    0.360E+00
RMM:   3    -0.262044639328E+03    0.32105E-01   -0.35019E-02  1528   0.461E-01    0.173E+00
RMM:   4    -0.262054614448E+03   -0.99751E-02   -0.15203E-02  1528   0.291E-01    0.248E+00
RMM:   5    -0.262046649779E+03    0.79647E-02   -0.83942E-03  1528   0.240E-01    0.174E+00
RMM:   6    -0.262041261539E+03    0.53882E-02   -0.38373E-03  1528   0.163E-01    0.593E-01
RMM:   7    -0.262042536213E+03   -0.12747E-02   -0.20593E-03  1528   0.110E-01    0.617E-01
RMM:   8    -0.262043857342E+03   -0.13211E-02   -0.22806E-03  1528   0.116E-01    0.112E+00
RMM:   9    -0.262040850841E+03    0.30065E-02   -0.13350E-03  1528   0.962E-02    0.426E-01
RMM:  10    -0.262041030889E+03   -0.18005E-03   -0.47219E-04  1530   0.534E-02    0.194E-01
RMM:  11    -0.262041286582E+03   -0.25569E-03   -0.28189E-04  1528   0.413E-02    0.340E-01
RMM:  12    -0.262041011604E+03    0.27498E-03   -0.16012E-04  1528   0.337E-02    0.150E-01
RMM:  13    -0.262041028004E+03   -0.16400E-04   -0.65326E-05  1528   0.206E-02    0.708E-02
RMM:  14    -0.262041074358E+03   -0.46355E-04   -0.30156E-05  1522   0.134E-02    0.113E-01
RMM:  15    -0.262041064694E+03    0.96645E-05   -0.19572E-05  1513   0.113E-02    0.850E-02
RMM:  16    -0.262041075237E+03   -0.10544E-04   -0.13250E-05  1509   0.932E-03    0.368E-02
RMM:  17    -0.262041103045E+03   -0.27807E-04   -0.78058E-06  1353   0.649E-03    0.333E-02
RMM:  18    -0.262041151956E+03   -0.48911E-04   -0.49555E-06  1309   0.548E-03    0.402E-02
RMM:  19    -0.262041201422E+03   -0.49466E-04   -0.39529E-06  1189   0.506E-03    0.188E-02
RMM:  20    -0.262041234357E+03   -0.32935E-04   -0.16959E-06   941   0.330E-03    0.123E-02
RMM:  21    -0.262041328122E+03   -0.93765E-04   -0.17962E-06   966   0.282E-03    0.158E-02
RMM:  22    -0.262041370618E+03   -0.42495E-04   -0.91387E-07   925   0.239E-03    0.929E-03
RMM:  23    -0.262041410204E+03   -0.39586E-04   -0.50877E-07   911   0.156E-03    0.101E-02
RMM:  24    -0.262041545080E+03   -0.13488E-03   -0.14913E-06   967   0.190E-03    0.101E-02
RMM:  25    -0.262041603687E+03   -0.58608E-04   -0.66677E-07   928   0.174E-03    0.577E-03
RMM:  26    -0.262041661731E+03   -0.58043E-04   -0.44670E-07   922   0.119E-03    0.871E-03
RMM:  27    -0.262041817848E+03   -0.15612E-03   -0.17109E-06   979   0.157E-03    0.592E-03
RMM:  28    -0.262041865178E+03   -0.47330E-04   -0.49025E-07   928   0.129E-03    0.342E-03
RMM:  29    -0.262041985601E+03   -0.12042E-03   -0.14903E-06   965   0.136E-03    0.719E-03
RMM:  30    -0.262042046536E+03   -0.60935E-04   -0.87714E-07   937   0.140E-03    0.265E-03
RMM:  31    -0.262042072167E+03   -0.25631E-04   -0.30201E-07   906   0.932E-04    0.348E-03
RMM:  32    -0.262042120674E+03   -0.48507E-04   -0.62664E-07   930   0.919E-04    0.266E-03
RMM:  33    -0.262042131622E+03   -0.10948E-04   -0.13619E-07   837   0.689E-04    0.134E-03
RMM:  34    -0.262042156808E+03   -0.25186E-04   -0.27527E-07   889   0.592E-04    0.203E-03
RMM:  35    -0.262042165896E+03   -0.90884E-05   -0.93558E-08   803   0.531E-04    0.860E-04
RMM:  36    -0.262042174828E+03   -0.89321E-05   -0.67173E-08   640   0.409E-04    0.131E-03
RMM:  37    -0.262042184241E+03   -0.94129E-05   -0.93728E-08   656   0.410E-04    0.562E-04
RMM:  38    -0.262042186197E+03   -0.19557E-05   -0.14951E-08   440   0.335E-04    0.615E-04
RMM:  39    -0.262042190844E+03   -0.46476E-05   -0.47331E-08   559   0.358E-04    0.587E-04
RMM:  40    -0.262042191827E+03   -0.98205E-06   -0.89297E-09   332   0.297E-04
  17 F= -.26204219E+03 E0= -.26171700E+03  d E =-.650387E+00  mag=    39.9490
 Finite differences progress:
  Degree of freedom:   8/ 15
  Displacement:        2/  2
  Total:              16/ 30
 bond charge predicted
       N       E                     dE             d eps       ncg     rms          rms(c)
DAV:   1    -0.262028247781E+03    0.13943E-01   -0.59564E+00  1560   0.337E+00    0.518E-01
RMM:   2    -0.262043491595E+03   -0.15244E-01   -0.35153E-02  1528   0.444E-01    0.225E+00
RMM:   3    -0.262031833895E+03    0.11658E-01   -0.11399E-02  1528   0.259E-01    0.117E+00
RMM:   4    -0.262038177732E+03   -0.63438E-02   -0.85858E-03  1528   0.219E-01    0.183E+00
RMM:   5    -0.262032875986E+03    0.53017E-02   -0.46560E-03  1528   0.179E-01    0.121E+00
RMM:   6    -0.262030599780E+03    0.22762E-02   -0.20824E-03  1528   0.119E-01    0.399E-01
RMM:   7    -0.262031288623E+03   -0.68884E-03   -0.94356E-04  1528   0.739E-02    0.414E-01
RMM:   8    -0.262031638413E+03   -0.34979E-03   -0.10101E-03  1528   0.780E-02    0.732E-01
RMM:   9    -0.262030177238E+03    0.14612E-02   -0.71250E-04  1528   0.681E-02    0.300E-01
RMM:  10    -0.262030302369E+03   -0.12513E-03   -0.21121E-04  1530   0.351E-02    0.161E-01
RMM:  11    -0.262030408229E+03   -0.10586E-03   -0.11933E-04  1528   0.267E-02    0.262E-01
RMM:  12    -0.262030170239E+03    0.23799E-03   -0.86204E-05  1524   0.244E-02    0.103E-01
RMM:  13    -0.262030215374E+03   -0.45135E-04   -0.29271E-05  1520   0.137E-02    0.625E-02
RMM:  14    -0.262030252097E+03   -0.36723E-04   -0.18380E-05  1520   0.103E-02    0.104E-01
RMM:  15    -0.262030254950E+03   -0.28533E-05   -0.15950E-05  1504   0.967E-03    0.575E-02
RMM:  16    -0.262030274317E+03   -0.19366E-04   -0.82309E-06  1479   0.716E-03    0.204E-02
RMM:  17    -0.262030316188E+03   -0.41871E-04   -0.31667E-06  1069   0.426E-03    0.327E-02
RMM:  18    -0.262030401031E+03   -0.84844E-04   -0.38569E-06  1125   0.459E-03    0.220E-02
RMM:  19    -0.262030446824E+03   -0.45792E-04   -0.18196E-06   962   0.352E-03    0.878E-03
RMM:  20    -0.262030509097E+03   -0.62273E-04   -0.12438E-06   961   0.248E-03    0.129E-02
RMM:  21    -0.262030596874E+03   -0.87777E-04   -0.11673E-06   952   0.226E-03    0.154E-02
RMM:  22    -0.262030679585E+03   -0.82711E-04   -0.10487E-06   945   0.213E-03    0.733E-03
RMM:  23    -0.262030754237E+03   -0.74652E-04   -0.75632E-07   932   0.169E-03    0.813E-03
RMM:  24    -0.262030909881E+03   -0.15564E-03   -0.17681E-06  1007   0.180E-03    0.672E-03
RMM:  25    -0.262030974294E+03   -0.64413E-04   -0.60047E-07   930   0.143E-03    0.561E-03
RMM:  26    -0.262031065464E+03   -0.91170E-04   -0.76221E-07   949   0.132E-03    0.955E-03
RMM:  27    -0.262031231694E+03   -0.16623E-03   -0.23424E-06  1026   0.175E-03    0.503E-03
RMM:  28    -0.262031267408E+03   -0.35714E-04   -0.41015E-07   927   0.116E-03    0.326E-03
RMM:  29    -0.262031350569E+03   -0.83161E-04   -0.92012E-07   963   0.111E-03    0.562E-03
RMM:  30    -0.262031400464E+03   -0.49896E-04   -0.66538E-07   939   0.116E-03    0.156E-03
RMM:  31    -0.262031423418E+03   -0.22954E-04   -0.23052E-07   887   0.801E-04    0.276E-03
RMM:  32    -0.262031457139E+03   -0.33721E-04   -0.36881E-07   915   0.761E-04    0.148E-03
RMM:  33    -0.262031467859E+03   -0.10720E-04   -0.10708E-07   789   0.562E-04    0.153E-03
RMM:  34    -0.262031487688E+03   -0.19829E-04   -0.24481E-07   890   0.553E-04    0.115E-03
RMM:  35    -0.262031491676E+03   -0.39870E-05   -0.46079E-08   615   0.403E-04    0.725E-04
RMM:  36    -0.262031499873E+03   -0.81974E-05   -0.78229E-08   651   0.401E-04    0.988E-04
RMM:  37    -0.262031503775E+03   -0.39023E-05   -0.47444E-08   540   0.359E-04    0.441E-04
RMM:  38    -0.262031506150E+03   -0.23748E-05   -0.27652E-08   508   0.345E-04    0.664E-04
RMM:  39    -0.262031508348E+03   -0.21984E-05   -0.38465E-08   540   0.335E-04    0.442E-04
RMM:  40    -0.262031508922E+03   -0.57317E-06   -0.44155E-09   314   0.280E-04
  18 F= -.26203151E+03 E0= -.26170595E+03  d E =-.651111E+00  mag=    39.9014
 Finite differences progress:
  Degree of freedom:   9/ 15
  Displacement:        1/  2
  Total:              17/ 30
 bond charge predicted
       N       E                     dE             d eps       ncg     rms          rms(c)
DAV:   1    -0.262036261881E+03   -0.47535E-02   -0.11925E+01  1560   0.479E+00    0.885E-01
RMM:   2    -0.262090864048E+03   -0.54602E-01   -0.14825E-01  1525   0.877E-01    0.376E+00
RMM:   3    -0.262054744909E+03    0.36119E-01   -0.61433E-02  1528   0.622E-01    0.282E+00
RMM:   4    -0.262050325308E+03    0.44196E-02   -0.17377E-02  1528   0.318E-01    0.202E+00
RMM:   5    -0.262049607785E+03    0.71752E-03   -0.84847E-03  1528   0.235E-01    0.192E+00
RMM:   6    -0.262041521206E+03    0.80866E-02   -0.45915E-03  1528   0.179E-01    0.614E-01
RMM:   7    -0.262042428630E+03   -0.90742E-03   -0.18131E-03  1528   0.103E-01    0.529E-01
RMM:   8    -0.262044022523E+03   -0.15939E-02   -0.19692E-03  1528   0.107E-01    0.107E+00
RMM:   9    -0.262041388982E+03    0.26335E-02   -0.11729E-03  1528   0.907E-02    0.474E-01
RMM:  10    -0.262041456290E+03   -0.67308E-04   -0.54587E-04  1530   0.580E-02    0.253E-01
RMM:  11    -0.262041694344E+03   -0.23805E-03   -0.38099E-04  1528   0.484E-02    0.408E-01
RMM:  12    -0.262041242993E+03    0.45135E-03   -0.23743E-04  1528   0.410E-02    0.187E-01
RMM:  13    -0.262041260712E+03   -0.17719E-04   -0.87574E-05  1528   0.238E-02    0.812E-02
RMM:  14    -0.262041299390E+03   -0.38678E-04   -0.50438E-05  1522   0.176E-02    0.165E-01
RMM:  15    -0.262041229424E+03    0.69967E-04   -0.35636E-05  1519   0.157E-02    0.835E-02
RMM:  16    -0.262041242927E+03   -0.13503E-04   -0.19280E-05  1518   0.113E-02    0.403E-02
RMM:  17    -0.262041293258E+03   -0.50331E-04   -0.13879E-05  1506   0.878E-03    0.481E-02
RMM:  18    -0.262041338213E+03   -0.44955E-04   -0.74512E-06  1452   0.694E-03    0.416E-02
RMM:  19    -0.262041367284E+03   -0.29071E-04   -0.37332E-06  1101   0.489E-03    0.170E-02
RMM:  20    -0.262041408600E+03   -0.41316E-04   -0.18290E-06   961   0.336E-03    0.133E-02
RMM:  21    -0.262041538565E+03   -0.12997E-03   -0.28596E-06  1029   0.312E-03    0.160E-02
RMM:  22    -0.262041586418E+03   -0.47853E-04   -0.11448E-06   931   0.254E-03    0.925E-03
RMM:  23    -0.262041635072E+03   -0.48654E-04   -0.64534E-07   922   0.165E-03    0.122E-02
RMM:  24    -0.262041791826E+03   -0.15675E-03   -0.21499E-06   996   0.207E-03    0.984E-03
RMM:  25    -0.262041856949E+03   -0.65124E-04   -0.82732E-07   931   0.180E-03    0.411E-03
RMM:  26    -0.262041954961E+03   -0.98012E-04   -0.89063E-07   937   0.142E-03    0.106E-02
RMM:  27    -0.262042128228E+03   -0.17327E-03   -0.24477E-06  1021   0.183E-03    0.667E-03
RMM:  28    -0.262042179081E+03   -0.50853E-04   -0.56930E-07   929   0.130E-03    0.290E-03
RMM:  29    -0.262042309697E+03   -0.13062E-03   -0.17024E-06   976   0.138E-03    0.628E-03
RMM:  30    -0.262042366162E+03   -0.56464E-04   -0.74356E-07   935   0.133E-03    0.245E-03
RMM:  31    -0.262042395912E+03   -0.29750E-04   -0.29169E-07   902   0.864E-04    0.346E-03
RMM:  32    -0.262042462869E+03   -0.66957E-04   -0.89760E-07   944   0.963E-04    0.252E-03
RMM:  33    -0.262042474336E+03   -0.11467E-04   -0.14671E-07   857   0.692E-04    0.129E-03
RMM:  34    -0.262042501024E+03   -0.26687E-04   -0.26287E-07   872   0.586E-04    0.218E-03
RMM:  35    -0.262042513590E+03   -0.12566E-04   -0.12440E-07   831   0.548E-04    0.802E-04
RMM:  36    -0.262042520567E+03   -0.69766E-05   -0.47849E-08   598   0.393E-04    0.115E-03
RMM:  37    -0.262042531704E+03   -0.11137E-04   -0.10743E-07   630   0.398E-04    0.590E-04
RMM:  38    -0.262042533815E+03   -0.21118E-05   -0.17524E-08   440   0.332E-04    0.614E-04
RMM:  39    -0.262042539264E+03   -0.54487E-05   -0.74025E-08   613   0.376E-04    0.557E-04
RMM:  40    -0.262042540174E+03   -0.90971E-06   -0.10046E-08   355   0.298E-04
  19 F= -.26204254E+03 E0= -.26171799E+03  d E =-.649101E+00  mag=    39.9453
 Finite differences progress:
  Degree of freedom:   9/ 15
  Displacement:        2/  2
  Total:              18/ 30
 bond charge predicted
       N       E                     dE             d eps       ncg     rms          rms(c)
DAV:   1    -0.262035736123E+03    0.68031E-02   -0.59227E+00  1600   0.371E+00    0.589E-01
RMM:   2    -0.262066207914E+03   -0.30472E-01   -0.48222E-02  1526   0.600E-01    0.358E+00
RMM:   3    -0.262039077282E+03    0.27131E-01   -0.17621E-02  1530   0.343E-01    0.136E+00
RMM:   4    -0.262048205752E+03   -0.91285E-02   -0.10946E-02  1528   0.254E-01    0.210E+00
RMM:   5    -0.262041916269E+03    0.62895E-02   -0.54974E-03  1528   0.195E-01    0.125E+00
RMM:   6    -0.262039168400E+03    0.27479E-02   -0.24494E-03  1528   0.129E-01    0.407E-01
RMM:   7    -0.262039565126E+03   -0.39673E-03   -0.74880E-04  1528   0.641E-02    0.339E-01
RMM:   8    -0.262040690440E+03   -0.11253E-02   -0.80784E-04  1528   0.685E-02    0.808E-01
RMM:   9    -0.262039144008E+03    0.15464E-02   -0.61545E-04  1528   0.649E-02    0.328E-01
RMM:  10    -0.262039261235E+03   -0.11723E-03   -0.25994E-04  1528   0.410E-02    0.146E-01
RMM:  11    -0.262039457791E+03   -0.19656E-03   -0.16094E-04  1528   0.309E-02    0.280E-01
RMM:  12    -0.262039241575E+03    0.21622E-03   -0.10976E-04  1528   0.272E-02    0.118E-01
RMM:  13    -0.262039270813E+03   -0.29238E-04   -0.37654E-05  1520   0.161E-02    0.483E-02
RMM:  14    -0.262039297111E+03   -0.26298E-04   -0.12736E-05  1515   0.870E-03    0.778E-02
RMM:  15    -0.262039304448E+03   -0.73371E-05   -0.10779E-05  1503   0.843E-03    0.576E-02
RMM:  16    -0.262039309172E+03   -0.47234E-05   -0.73248E-06  1467   0.715E-03    0.218E-02
RMM:  17    -0.262039324626E+03   -0.15454E-04   -0.23101E-06   962   0.390E-03    0.296E-02
RMM:  18    -0.262039345377E+03   -0.20751E-04   -0.21358E-06   955   0.401E-03    0.160E-02
[...]
RMM:   2    -0.262045689254E+03   -0.11299E-01   -0.11572E-01  1524   0.547E-01    0.568E-01
RMM:   3    -0.262047821323E+03   -0.21321E-02   -0.13266E-02  1620   0.190E-01    0.957E-01
RMM:   4    -0.262047763937E+03    0.57387E-04   -0.24063E-03  1530   0.118E-01    0.102E+00
RMM:   5    -0.262045494427E+03    0.22695E-02   -0.14933E-03  1526   0.998E-02    0.411E-01
RMM:   6    -0.262045565342E+03   -0.70915E-04   -0.40297E-04  1528   0.488E-02    0.208E-01
RMM:   7    -0.262045647178E+03   -0.81836E-04   -0.41618E-04  1528   0.465E-02    0.302E-01
RMM:   8    -0.262045297562E+03    0.34962E-03   -0.38685E-04  1529   0.450E-02    0.218E-01
RMM:   9    -0.262045281637E+03    0.15925E-04   -0.23472E-04  1528   0.357E-02    0.253E-01
RMM:  10    -0.262045277507E+03    0.41304E-05   -0.26341E-04  1529   0.369E-02    0.333E-01
RMM:  11    -0.262044966458E+03    0.31105E-03   -0.17196E-04  1530   0.321E-02    0.127E-01
RMM:  12    -0.262044998899E+03   -0.32440E-04   -0.45612E-05  1525   0.161E-02    0.602E-02
RMM:  13    -0.262045027967E+03   -0.29068E-04   -0.22289E-05  1521   0.116E-02    0.734E-02
RMM:  14    -0.262045027461E+03    0.50614E-06   -0.11946E-05  1510   0.905E-03    0.264E-02
RMM:  15    -0.262045046900E+03   -0.19439E-04   -0.50137E-06  1319   0.529E-03    0.398E-02
RMM:  16    -0.262045098357E+03   -0.51457E-04   -0.88091E-06  1476   0.613E-03    0.617E-02
RMM:  17    -0.262045142683E+03   -0.44325E-04   -0.97832E-06  1440   0.639E-03    0.235E-02
RMM:  18    -0.262045161803E+03   -0.19121E-04   -0.22999E-06   960   0.357E-03    0.159E-02
RMM:  19    -0.262045211182E+03   -0.49379E-04   -0.21933E-06   957   0.344E-03    0.219E-02
RMM:  20    -0.262045276520E+03   -0.65339E-04   -0.20613E-06   972   0.339E-03    0.803E-03
RMM:  21    -0.262045297403E+03   -0.20883E-04   -0.50127E-07   911   0.163E-03    0.682E-03
RMM:  22    -0.262045342090E+03   -0.44687E-04   -0.49242E-07   922   0.136E-03    0.870E-03
RMM:  23    -0.262045424365E+03   -0.82274E-04   -0.10120E-06   943   0.150E-03    0.541E-03
RMM:  24    -0.262045477150E+03   -0.52785E-04   -0.65326E-07   931   0.140E-03    0.438E-03
RMM:  25    -0.262045556463E+03   -0.79313E-04   -0.99785E-07   941   0.135E-03    0.624E-03
RMM:  26    -0.262045679485E+03   -0.12302E-03   -0.25073E-06  1021   0.171E-03    0.658E-03
RMM:  27    -0.262045709096E+03   -0.29611E-04   -0.43650E-07   918   0.109E-03    0.316E-03
RMM:  28    -0.262045757535E+03   -0.48439E-04   -0.54535E-07   927   0.940E-04    0.504E-03
RMM:  29    -0.262045820605E+03   -0.63070E-04   -0.89529E-07   935   0.108E-03    0.224E-03
RMM:  30    -0.262045834095E+03   -0.13490E-04   -0.15167E-07   838   0.708E-04    0.188E-03
RMM:  31    -0.262045876772E+03   -0.42678E-04   -0.45432E-07   909   0.687E-04    0.194E-03
RMM:  32    -0.262045888056E+03   -0.11284E-04   -0.10251E-07   830   0.540E-04    0.113E-03
RMM:  33    -0.262045915861E+03   -0.27805E-04   -0.22986E-07   851   0.546E-04    0.167E-03
RMM:  34    -0.262045931269E+03   -0.15408E-04   -0.14033E-07   797   0.493E-04    0.665E-04
RMM:  35    -0.262045936982E+03   -0.57128E-05   -0.37052E-08   585   0.378E-04    0.102E-03
RMM:  36    -0.262045946192E+03   -0.92099E-05   -0.62597E-08   526   0.357E-04    0.642E-04
RMM:  37    -0.262045948227E+03   -0.20348E-05   -0.16600E-08   396   0.317E-04    0.463E-04
RMM:  38    -0.262045953055E+03   -0.48284E-05   -0.69600E-08   573   0.364E-04    0.542E-04
RMM:  39    -0.262045954230E+03   -0.11752E-05   -0.20550E-08   407   0.310E-04    0.367E-04
RMM:  40    -0.262045955208E+03   -0.97811E-06   -0.26196E-08   445   0.311E-04
  27 F= -.26204596E+03 E0= -.26172111E+03  d E =-.649699E+00  mag=    39.9352
 Finite differences progress:
  Degree of freedom:  13/ 15
  Displacement:        2/  2
  Total:              26/ 30
 bond charge predicted
       N       E                     dE             d eps       ncg     rms          rms(c)
DAV:   1    -0.262032831188E+03    0.13123E-01   -0.13655E+00  1560   0.990E-01    0.240E-01
RMM:   2    -0.262039213847E+03   -0.63827E-02   -0.64160E-02  1524   0.401E-01    0.501E-01
RMM:   3    -0.262039834316E+03   -0.62047E-03   -0.75933E-03  1584   0.148E-01    0.640E-01
RMM:   4    -0.262041045830E+03   -0.12115E-02   -0.18464E-03  1528   0.103E-01    0.101E+00
RMM:   5    -0.262038681705E+03    0.23641E-02   -0.12916E-03  1528   0.928E-02    0.430E-01
RMM:   6    -0.262038635566E+03    0.46139E-04   -0.46517E-04  1528   0.536E-02    0.162E-01
RMM:   7    -0.262038928462E+03   -0.29290E-03   -0.33451E-04  1528   0.434E-02    0.354E-01
RMM:   8    -0.262038501362E+03    0.42710E-03   -0.36480E-04  1528   0.435E-02    0.172E-01
RMM:   9    -0.262038527196E+03   -0.25834E-04   -0.19732E-04  1530   0.332E-02    0.142E-01
RMM:  10    -0.262038574936E+03   -0.47740E-04   -0.10822E-04  1530   0.251E-02    0.217E-01
RMM:  11    -0.262038448344E+03    0.12659E-03   -0.58345E-05  1521   0.198E-02    0.922E-02
RMM:  12    -0.262038467280E+03   -0.18936E-04   -0.21718E-05  1522   0.116E-02    0.482E-02
RMM:  13    -0.262038474477E+03   -0.71974E-05   -0.10893E-05  1505   0.809E-03    0.552E-02
RMM:  14    -0.262038471145E+03    0.33324E-05   -0.87198E-06  1476   0.749E-03    0.391E-02
RMM:  15    -0.262038473638E+03   -0.24936E-05   -0.43087E-06  1192   0.529E-03    0.221E-02
RMM:  16    -0.262038484213E+03   -0.10575E-04   -0.32295E-06  1046   0.440E-03    0.321E-02
RMM:  17    -0.262038496720E+03   -0.12507E-04   -0.39676E-06  1154   0.460E-03    0.336E-02
RMM:  18    -0.262038512289E+03   -0.15568E-04   -0.41806E-06  1149   0.487E-03    0.188E-02
RMM:  19    -0.262038520076E+03   -0.77876E-05   -0.11931E-06   916   0.276E-03    0.908E-03
RMM:  20    -0.262038535572E+03   -0.15496E-04   -0.70414E-07   907   0.208E-03    0.107E-02
RMM:  21    -0.262038564830E+03   -0.29257E-04   -0.63090E-07   929   0.196E-03    0.429E-03
RMM:  22    -0.262038574673E+03   -0.98433E-05   -0.18688E-07   893   0.101E-03    0.399E-03
RMM:  23    -0.262038603350E+03   -0.28677E-04   -0.27798E-07   908   0.924E-04    0.737E-03
RMM:  24    -0.262038648641E+03   -0.45291E-04   -0.57424E-07   933   0.112E-03    0.347E-03
RMM:  25    -0.262038667176E+03   -0.18535E-04   -0.21217E-07   901   0.876E-04    0.335E-03
RMM:  26    -0.262038730803E+03   -0.63628E-04   -0.10594E-06   965   0.112E-03    0.601E-03
RMM:  27    -0.262038753689E+03   -0.22886E-04   -0.37128E-07   918   0.101E-03    0.235E-03
RMM:  28    -0.262038762450E+03   -0.87609E-05   -0.10288E-07   840   0.605E-04    0.241E-03
RMM:  29    -0.262038794515E+03   -0.32065E-04   -0.29945E-07   907   0.607E-04    0.243E-03
RMM:  30    -0.262038803724E+03   -0.92084E-05   -0.77640E-08   825   0.520E-04    0.118E-03
RMM:  31    -0.262038821816E+03   -0.18092E-04   -0.11138E-07   724   0.448E-04    0.177E-03
RMM:  32    -0.262038836466E+03   -0.14650E-04   -0.10893E-07   760   0.464E-04    0.755E-04
RMM:  33    -0.262038847702E+03   -0.11236E-04   -0.68450E-08   685   0.423E-04    0.130E-03
RMM:  34    -0.262038859953E+03   -0.12251E-04   -0.10230E-07   689   0.420E-04    0.480E-04
RMM:  35    -0.262038862541E+03   -0.25875E-05   -0.17384E-08   447   0.333E-04    0.581E-04
RMM:  36    -0.262038867296E+03   -0.47554E-05   -0.28462E-08   479   0.328E-04    0.528E-04
RMM:  37    -0.262038868681E+03   -0.13847E-05   -0.45527E-09   300   0.293E-04    0.323E-04
RMM:  38    -0.262038870904E+03   -0.22232E-05   -0.24969E-08   414   0.318E-04    0.499E-04
RMM:  39    -0.262038873154E+03   -0.22504E-05   -0.45576E-08   497   0.332E-04    0.294E-04
RMM:  40    -0.262038873597E+03   -0.44213E-06   -0.68740E-09   303   0.292E-04
  28 F= -.26203887E+03 E0= -.26171367E+03  d E =-.650417E+00  mag=    39.9206
 Finite differences progress:
  Degree of freedom:  14/ 15
  Displacement:        1/  2
  Total:              27/ 30
 bond charge predicted
       N       E                     dE             d eps       ncg     rms          rms(c)
DAV:   1    -0.262028551731E+03    0.10321E-01   -0.26865E+00  1560   0.141E+00    0.320E-01
RMM:   2    -0.262042610181E+03   -0.14058E-01   -0.12407E-01  1524   0.565E-01    0.105E+00
RMM:   3    -0.262041725473E+03    0.88471E-03   -0.14273E-02  1590   0.202E-01    0.857E-01
RMM:   4    -0.262042821105E+03   -0.10956E-02   -0.32139E-03  1530   0.133E-01    0.102E+00
RMM:   5    -0.262041408988E+03    0.14121E-02   -0.21713E-03  1528   0.117E-01    0.846E-01
RMM:   6    -0.262039935285E+03    0.14737E-02   -0.13163E-03  1528   0.911E-02    0.263E-01
RMM:   7    -0.262040522905E+03   -0.58762E-03   -0.60308E-04  1528   0.581E-02    0.387E-01
RMM:   8    -0.262040246876E+03    0.27603E-03   -0.72763E-04  1528   0.575E-02    0.320E-01
RMM:   9    -0.262040021885E+03    0.22499E-03   -0.32256E-04  1528   0.438E-02    0.120E-01
RMM:  10    -0.262040160207E+03   -0.13832E-03   -0.11278E-04  1535   0.248E-02    0.201E-01
RMM:  11    -0.262040107364E+03    0.52843E-04   -0.64008E-05  1525   0.205E-02    0.149E-01
RMM:  12    -0.262040090258E+03    0.17106E-04   -0.36700E-05  1520   0.160E-02    0.687E-02
RMM:  13    -0.262040099055E+03   -0.87970E-05   -0.12859E-05  1520   0.887E-03    0.443E-02
RMM:  14    -0.262040111138E+03   -0.12083E-04   -0.12865E-05  1503   0.854E-03    0.586E-02
RMM:  15    -0.262040113414E+03   -0.22757E-05   -0.90871E-06  1493   0.740E-03    0.382E-02
RMM:  16    -0.262040119368E+03   -0.59538E-05   -0.48992E-06  1225   0.525E-03    0.365E-02
RMM:  17    -0.262040130582E+03   -0.11214E-04   -0.57104E-06  1329   0.571E-03    0.266E-02
RMM:  18    -0.262040145855E+03   -0.15273E-04   -0.44619E-06  1209   0.507E-03    0.242E-02
RMM:  19    -0.262040151273E+03   -0.54174E-05   -0.14993E-06   931   0.318E-03    0.107E-02
RMM:  20    -0.262040159693E+03   -0.84201E-05   -0.83940E-07   905   0.233E-03    0.113E-02
RMM:  21    -0.262040176450E+03   -0.16758E-04   -0.60018E-07   918   0.207E-03    0.572E-03
RMM:  22    -0.262040180773E+03   -0.43229E-05   -0.16611E-07   882   0.103E-03    0.370E-03
RMM:  23    -0.262040191359E+03   -0.10585E-04   -0.15476E-07   898   0.809E-04    0.589E-03
RMM:  24    -0.262040213308E+03   -0.21950E-04   -0.33961E-07   919   0.956E-04    0.357E-03
RMM:  25    -0.262040220353E+03   -0.70454E-05   -0.11418E-07   878   0.715E-04    0.251E-03
RMM:  26    -0.262040250630E+03   -0.30277E-04   -0.52995E-07   933   0.890E-04    0.511E-03
RMM:  27    -0.262040266432E+03   -0.15802E-04   -0.29917E-07   906   0.931E-04    0.223E-03
RMM:  28    -0.262040272985E+03   -0.65535E-05   -0.98291E-08   832   0.592E-04    0.287E-03
RMM:  29    -0.262040291067E+03   -0.18082E-04   -0.23363E-07   898   0.601E-04    0.300E-03
RMM:  30    -0.262040300590E+03   -0.95225E-05   -0.12128E-07   870   0.592E-04    0.110E-03
RMM:  31    -0.262040309209E+03   -0.86193E-05   -0.72371E-08   697   0.448E-04    0.177E-03
RMM:  32    -0.262040319997E+03   -0.10788E-04   -0.10335E-07   721   0.443E-04    0.772E-04
RMM:  33    -0.262040325210E+03   -0.52133E-05   -0.38686E-08   588   0.378E-04    0.112E-03
RMM:  34    -0.262040337428E+03   -0.12218E-04   -0.15434E-07   711   0.439E-04    0.722E-04
RMM:  35    -0.262040339082E+03   -0.16533E-05   -0.14484E-08   399   0.327E-04    0.512E-04
RMM:  36    -0.262040342212E+03   -0.31309E-05   -0.29607E-08   505   0.342E-04    0.673E-04
RMM:  37    -0.262040344308E+03   -0.20952E-05   -0.17586E-08   386   0.311E-04    0.384E-04
RMM:  38    -0.262040345518E+03   -0.12106E-05   -0.16321E-08   358   0.302E-04    0.466E-04
RMM:  39    -0.262040347906E+03   -0.23881E-05   -0.33741E-08   421   0.316E-04    0.329E-04
RMM:  40    -0.262040348489E+03   -0.58287E-06   -0.83503E-09   299   0.290E-04
  29 F= -.26204035E+03 E0= -.26171542E+03  d E =-.649863E+00  mag=    39.9282
 Finite differences progress:
  Degree of freedom:  14/ 15
  Displacement:        2/  2
  Total:              28/ 30
 bond charge predicted
       N       E                     dE             d eps       ncg     rms          rms(c)
DAV:   1    -0.262045087873E+03   -0.47400E-02   -0.13518E+00  1560   0.984E-01    0.326E-01
RMM:   2    -0.262059297718E+03   -0.14210E-01   -0.78140E-02  1523   0.485E-01    0.172E+00
RMM:   3    -0.262053351720E+03    0.59460E-02   -0.12841E-02  1556   0.228E-01    0.113E+00
RMM:   4    -0.262052803675E+03    0.54804E-03   -0.33449E-03  1530   0.133E-01    0.744E-01
RMM:   5    -0.262052974545E+03   -0.17087E-03   -0.17313E-03  1528   0.103E-01    0.868E-01
RMM:   6    -0.262050916486E+03    0.20581E-02   -0.14409E-03  1528   0.929E-02    0.295E-01
RMM:   7    -0.262051134494E+03   -0.21801E-03   -0.44075E-04  1528   0.500E-02    0.250E-01
RMM:   8    -0.262050849506E+03    0.28499E-03   -0.49206E-04  1528   0.501E-02    0.298E-01
RMM:   9    -0.262050469883E+03    0.37962E-03   -0.32037E-04  1528   0.438E-02    0.134E-01
RMM:  10    -0.262050517151E+03   -0.47268E-04   -0.14650E-04  1530   0.287E-02    0.209E-01
RMM:  11    -0.262050400356E+03    0.11679E-03   -0.81479E-05  1524   0.229E-02    0.130E-01
RMM:  12    -0.262050393887E+03    0.64692E-05   -0.31732E-05  1522   0.145E-02    0.533E-02
RMM:  13    -0.262050420410E+03   -0.26523E-04   -0.11416E-05  1511   0.816E-03    0.613E-02
RMM:  14    -0.262050476692E+03   -0.56281E-04   -0.11192E-05  1510   0.799E-03    0.599E-02
RMM:  15    -0.262050509159E+03   -0.32468E-04   -0.89767E-06  1480   0.743E-03    0.219E-02
RMM:  16    -0.262050555720E+03   -0.46561E-04   -0.39289E-06  1158   0.465E-03    0.446E-02
RMM:  17    -0.262050651522E+03   -0.95802E-04   -0.64713E-06  1339   0.552E-03    0.340E-02
RMM:  18    -0.262050733662E+03   -0.82140E-04   -0.49804E-06  1210   0.497E-03    0.224E-02
RMM:  19    -0.262050767335E+03   -0.33673E-04   -0.15248E-06   948   0.292E-03    0.106E-02
RMM:  20    -0.262050831607E+03   -0.64272E-04   -0.12808E-06   939   0.252E-03    0.116E-02
RMM:  21    -0.262050941979E+03   -0.11037E-03   -0.15939E-06   960   0.242E-03    0.804E-03
RMM:  22    -0.262050977848E+03   -0.35869E-04   -0.50031E-07   915   0.155E-03    0.583E-03
RMM:  23    -0.262051034120E+03   -0.56271E-04   -0.44601E-07   924   0.117E-03    0.781E-03
RMM:  24    -0.262051196579E+03   -0.16246E-03   -0.19421E-06   994   0.159E-03    0.726E-03
RMM:  25    -0.262051253167E+03   -0.56588E-04   -0.56506E-07   926   0.125E-03    0.465E-03
RMM:  26    -0.262051435207E+03   -0.18204E-03   -0.30517E-06  1055   0.168E-03    0.771E-03
RMM:  27    -0.262051543766E+03   -0.10856E-03   -0.20139E-06   990   0.159E-03    0.285E-03
RMM:  28    -0.262051568628E+03   -0.24861E-04   -0.32532E-07   902   0.949E-04    0.349E-03
RMM:  29    -0.262051626875E+03   -0.58248E-04   -0.58984E-07   920   0.854E-04    0.426E-03
RMM:  30    -0.262051657995E+03   -0.31120E-04   -0.28795E-07   907   0.790E-04    0.122E-03
RMM:  31    -0.262051678972E+03   -0.20977E-04   -0.12376E-07   806   0.572E-04    0.206E-03
RMM:  32    -0.262051711856E+03   -0.32884E-04   -0.22596E-07   843   0.554E-04    0.938E-04
RMM:  33    -0.262051725450E+03   -0.13593E-04   -0.69390E-08   692   0.445E-04    0.130E-03
RMM:  34    -0.262051756335E+03   -0.30885E-04   -0.29006E-07   844   0.530E-04    0.979E-04
RMM:  35    -0.262051760649E+03   -0.43145E-05   -0.39233E-08   564   0.366E-04    0.734E-04
RMM:  36    -0.262051769447E+03   -0.87978E-05   -0.71292E-08   573   0.369E-04    0.755E-04
RMM:  37    -0.262051771603E+03   -0.21555E-05   -0.16538E-08   391   0.310E-04    0.395E-04
RMM:  38    -0.262051773518E+03   -0.19149E-05   -0.21500E-08   409   0.317E-04    0.524E-04
RMM:  39    -0.262051775778E+03   -0.22601E-05   -0.50578E-08   501   0.334E-04    0.364E-04
RMM:  40    -0.262051776210E+03   -0.43166E-06   -0.80779E-09   306   0.294E-04
  30 F= -.26205178E+03 E0= -.26172710E+03  d E =-.649343E+00  mag=    39.9480
 Finite differences progress:
  Degree of freedom:  15/ 15
  Displacement:        1/  2
  Total:              29/ 30
 bond charge predicted
       N       E                     dE             d eps       ncg     rms          rms(c)
DAV:   1    -0.262010102357E+03    0.41673E-01   -0.26856E+00  1580   0.142E+00    0.504E-01
RMM:   2    -0.262041429456E+03   -0.31327E-01   -0.16826E-01  1524   0.739E-01    0.273E+00
RMM:   3    -0.262027487908E+03    0.13942E-01   -0.29153E-02  1556   0.358E-01    0.173E+00
RMM:   4    -0.262026445130E+03    0.10428E-02   -0.81970E-03  1529   0.207E-01    0.121E+00
RMM:   5    -0.262025988165E+03    0.45696E-03   -0.42347E-03  1528   0.162E-01    0.131E+00
RMM:   6    -0.262021369171E+03    0.46190E-02   -0.31448E-03  1528   0.138E-01    0.406E-01
RMM:   7    -0.262021667190E+03   -0.29802E-03   -0.95238E-04  1528   0.733E-02    0.375E-01
RMM:   8    -0.262020711668E+03    0.95552E-03   -0.80622E-04  1528   0.648E-02    0.336E-01
RMM:   9    -0.262020191517E+03    0.52015E-03   -0.52027E-04  1528   0.554E-02    0.233E-01
RMM:  10    -0.262020164329E+03    0.27188E-04   -0.43546E-04  1529   0.495E-02    0.447E-01
RMM:  11    -0.262019414244E+03    0.75009E-03   -0.32006E-04  1529   0.447E-02    0.228E-01
RMM:  12    -0.262019377744E+03    0.36501E-04   -0.10481E-04  1528   0.256E-02    0.114E-01
RMM:  13    -0.262019440323E+03   -0.62580E-04   -0.44058E-05  1524   0.160E-02    0.111E-01
RMM:  14    -0.262019572543E+03   -0.13222E-03   -0.27970E-05  1517   0.131E-02    0.753E-02
RMM:  15    -0.262019633190E+03   -0.60647E-04   -0.16244E-05  1514   0.101E-02    0.283E-02
RMM:  16    -0.262019945861E+03   -0.31267E-03   -0.22337E-05  1517   0.963E-03    0.883E-02
RMM:  17    -0.262020194760E+03   -0.24890E-03   -0.18814E-05  1505   0.868E-03    0.439E-02
RMM:  18    -0.262020310162E+03   -0.11540E-03   -0.71898E-06  1432   0.597E-03    0.225E-02
RMM:  19    -0.262020457948E+03   -0.14779E-03   -0.32874E-06  1071   0.394E-03    0.347E-02
RMM:  20    -0.262020805461E+03   -0.34751E-03   -0.62904E-06  1290   0.472E-03    0.238E-02
RMM:  21    -0.262021014082E+03   -0.20862E-03   -0.32680E-06  1062   0.380E-03    0.124E-02
RMM:  22    -0.262021151573E+03   -0.13749E-03   -0.14537E-06   966   0.256E-03    0.156E-02
RMM:  23    -0.262021451020E+03   -0.29945E-03   -0.28622E-06  1050   0.285E-03    0.168E-02
RMM:  24    -0.262021818806E+03   -0.36779E-03   -0.43193E-06  1122   0.313E-03    0.116E-02
RMM:  25    -0.262021984851E+03   -0.16605E-03   -0.15518E-06   968   0.220E-03    0.961E-03
RMM:  26    -0.262022502460E+03   -0.51761E-03   -0.80700E-06  1210   0.299E-03    0.175E-02
RMM:  27    -0.262022758949E+03   -0.25649E-03   -0.40712E-06  1079   0.250E-03    0.916E-03
RMM:  28    -0.262022828369E+03   -0.69420E-04   -0.72527E-07   941   0.148E-03    0.561E-03
RMM:  29    -0.262023052832E+03   -0.22446E-03   -0.24041E-06  1026   0.165E-03    0.727E-03
RMM:  30    -0.262023144668E+03   -0.91836E-04   -0.88677E-07   946   0.150E-03    0.218E-03
RMM:  31    -0.262023215015E+03   -0.70347E-04   -0.47343E-07   922   0.101E-03    0.417E-03
RMM:  32    -0.262023311610E+03   -0.96595E-04   -0.71027E-07   940   0.107E-03    0.177E-03
RMM:  33    -0.262023346938E+03   -0.35328E-04   -0.22699E-07   894   0.765E-04    0.235E-03
RMM:  34    -0.262023433638E+03   -0.86700E-04   -0.96418E-07   961   0.901E-04    0.188E-03
RMM:  35    -0.262023447884E+03   -0.14246E-04   -0.14894E-07   818   0.599E-04    0.106E-03
RMM:  36    -0.262023470289E+03   -0.22405E-04   -0.24267E-07   831   0.527E-04    0.179E-03
RMM:  37    -0.262023477245E+03   -0.69559E-05   -0.81462E-08   701   0.434E-04    0.679E-04
RMM:  38    -0.262023481256E+03   -0.40106E-05   -0.39040E-08   570   0.360E-04    0.102E-03
RMM:  39    -0.262023485584E+03   -0.43282E-05   -0.11045E-07   607   0.383E-04    0.549E-04
RMM:  40    -0.262023485806E+03   -0.22240E-06   -0.11843E-08   383   0.313E-04
  31 F= -.26202349E+03 E0= -.26169793E+03  d E =-.651104E+00  mag=    39.8970
 Finite differences progress:
  Degree of freedom:  15/ 15
  Displacement:        2/  2
  Total:              30/ 30
 Finite differences POTIM=  2.500000000000000E-002
