  56  56   0   0
  0.1428571E+03  0.2000000E-08  0.2000000E-08  0.2000000E-08  0.2500000E-16
  1.000000000000000E-004
  CAR 
 TS_Vibrational_Calculation              
      2.78937486    -17.64405473  301     -3.80876310      1.00000000
    -17.644  0.0000E+00  0.0000E+00  0.0000E+00  0.0000E+00
    -17.576  0.0000E+00  0.0000E+00  0.0000E+00  0.0000E+00
    -17.508  0.0000E+00  0.0000E+00  0.0000E+00  0.0000E+00
    -17.440  0.0000E+00  0.0000E+00  0.0000E+00  0.0000E+00
    -17.372  0.0000E+00  0.0000E+00  0.0000E+00  0.0000E+00
    -17.303  0.0000E+00  0.0000E+00  0.0000E+00  0.0000E+00
    -17.235  0.1150E-17  0.0000E+00  0.7829E-19  0.0000E+00
    -17.167  0.1415E-14  0.0000E+00  0.9646E-16  0.0000E+00
    -17.099  0.1267E-11  0.0000E+00  0.8639E-13  0.0000E+00
    -17.031  0.4570E-09  0.8334E-15  0.3121E-10  0.5676E-16
    -16.963  0.6675E-07  0.7967E-12  0.4578E-08  0.5432E-13
    -16.895  0.3975E-05  0.3070E-09  0.2753E-06  0.2096E-10
    -16.827  0.9730E-04  0.4788E-07  0.6902E-05  0.3282E-08
    -16.759  0.9882E-03  0.3043E-05  0.7421E-04  0.2105E-06
    -16.690  0.4205E-02  0.7943E-04  0.3606E-03  0.5621E-05
    -16.622  0.7552E-02  0.8598E-03  0.8750E-03  0.6418E-04
    -16.554  0.5747E-02  0.3896E-02  0.1266E-02  0.3296E-03
    -16.486  0.1850E-02  0.7450E-02  0.1392E-02  0.8370E-03
    -16.418  0.2501E-03  0.6035E-02  0.1409E-02  0.1248E-02
    -16.350  0.1409E-04  0.2068E-02  0.1410E-02  0.1389E-02
    -16.282  0.3272E-06  0.2980E-03  0.1410E-02  0.1409E-02
    -16.214  0.3107E-08  0.1789E-04  0.1410E-02  0.1410E-02
    -16.146  0.1197E-10  0.4434E-06  0.1410E-02  0.1410E-02
    -16.077  0.1862E-13  0.4494E-08  0.1410E-02  0.1410E-02
    -16.009  0.1150E-16  0.1850E-10  0.1410E-02  0.1410E-02
    -15.941  0.0000E+00  0.3074E-13  0.1410E-02  0.1410E-02
    -15.873  0.0000E+00  0.2069E-16  0.1410E-02  0.1410E-02
    -15.805  0.0000E+00  0.0000E+00  0.1410E-02  0.1410E-02
    -15.737  0.0000E+00  0.0000E+00  0.1410E-02  0.1410E-02
    -15.669  0.0000E+00  0.0000E+00  0.1410E-02  0.1410E-02
    -15.601  0.0000E+00  0.0000E+00  0.1410E-02  0.1410E-02
    -15.533  0.0000E+00  0.0000E+00  0.1410E-02  0.1410E-02
    -15.464  0.0000E+00  0.0000E+00  0.1410E-02  0.1410E-02
    -15.396  0.0000E+00  0.0000E+00  0.1410E-02  0.1410E-02
    -15.328  0.0000E+00  0.0000E+00  0.1410E-02  0.1410E-02
    -15.260  0.0000E+00  0.0000E+00  0.1410E-02  0.1410E-02
    -15.192  0.0000E+00  0.0000E+00  0.1410E-02  0.1410E-02
    -15.124  0.0000E+00  0.0000E+00  0.1410E-02  0.1410E-02
    -15.056  0.0000E+00  0.0000E+00  0.1410E-02  0.1410E-02
    -14.988  0.0000E+00  0.0000E+00  0.1410E-02  0.1410E-02
    -14.920  0.0000E+00  0.0000E+00  0.1410E-02  0.1410E-02
    -14.851  0.0000E+00  0.0000E+00  0.1410E-02  0.1410E-02
    -14.783  0.0000E+00  0.0000E+00  0.1410E-02  0.1410E-02
    -14.715  0.0000E+00  0.0000E+00  0.1410E-02  0.1410E-02
    -14.647  0.0000E+00  0.0000E+00  0.1410E-02  0.1410E-02
    -14.579  0.0000E+00  0.0000E+00  0.1410E-02  0.1410E-02
    -14.511  0.0000E+00  0.0000E+00  0.1410E-02  0.1410E-02
    -14.443  0.0000E+00  0.0000E+00  0.1410E-02  0.1410E-02
    -14.375  0.0000E+00  0.0000E+00  0.1410E-02  0.1410E-02
    -14.307  0.0000E+00  0.0000E+00  0.1410E-02  0.1410E-02
    -14.238  0.0000E+00  0.0000E+00  0.1410E-02  0.1410E-02
    -14.170  0.0000E+00  0.0000E+00  0.1410E-02  0.1410E-02
    -14.102  0.0000E+00  0.0000E+00  0.1410E-02  0.1410E-02
    -14.034  0.0000E+00  0.0000E+00  0.1410E-02  0.1410E-02
    -13.966  0.0000E+00  0.0000E+00  0.1410E-02  0.1410E-02
    -13.898  0.0000E+00  0.0000E+00  0.1410E-02  0.1410E-02
    -13.830  0.0000E+00  0.0000E+00  0.1410E-02  0.1410E-02
    -13.762  0.0000E+00  0.0000E+00  0.1410E-02  0.1410E-02
    -13.694  0.0000E+00  0.0000E+00  0.1410E-02  0.1410E-02
    -13.625  0.0000E+00  0.0000E+00  0.1410E-02  0.1410E-02
    -13.557  0.0000E+00  0.0000E+00  0.1410E-02  0.1410E-02
    -13.489  0.0000E+00  0.0000E+00  0.1410E-02  0.1410E-02
    -13.421  0.0000E+00  0.0000E+00  0.1410E-02  0.1410E-02
    -13.353  0.0000E+00  0.0000E+00  0.1410E-02  0.1410E-02
    -13.285  0.0000E+00  0.0000E+00  0.1410E-02  0.1410E-02
    -13.217  0.0000E+00  0.0000E+00  0.1410E-02  0.1410E-02
    -13.149  0.0000E+00  0.0000E+00  0.1410E-02  0.1410E-02
    -13.081  0.0000E+00  0.0000E+00  0.1410E-02  0.1410E-02
    -13.012  0.0000E+00  0.0000E+00  0.1410E-02  0.1410E-02
    -12.944  0.0000E+00  0.0000E+00  0.1410E-02  0.1410E-02
    -12.876  0.0000E+00  0.0000E+00  0.1410E-02  0.1410E-02
    -12.808  0.0000E+00  0.0000E+00  0.1410E-02  0.1410E-02
    -12.740  0.0000E+00  0.0000E+00  0.1410E-02  0.1410E-02
    -12.672  0.2299E-17  0.1150E-17  0.1410E-02  0.1410E-02
    -12.604  0.5112E-14  0.2511E-14  0.1410E-02  0.1410E-02
    -12.536  0.3887E-11  0.2090E-11  0.1410E-02  0.1410E-02
    -12.468  0.1192E-08  0.7016E-09  0.1410E-02  0.1410E-02
    -12.399  0.1482E-06  0.9541E-07  0.1410E-02  0.1410E-02
    -12.331  0.7521E-05  0.5293E-05  0.1411E-02  0.1411E-02
    -12.263  0.1572E-03  0.1208E-03  0.1422E-02  0.1419E-02
    -12.195  0.1365E-02  0.1144E-02  0.1515E-02  0.1497E-02
    -12.127  0.4974E-02  0.4546E-02  0.1853E-02  0.1807E-02
    -12.059  0.7660E-02  0.7626E-02  0.2375E-02  0.2326E-02
    -11.991  0.4998E-02  0.5420E-02  0.2716E-02  0.2695E-02
    -11.923  0.1378E-02  0.1629E-02  0.2809E-02  0.2806E-02
    -11.855  0.1594E-03  0.2056E-03  0.2820E-02  0.2820E-02
    -11.786  0.7667E-05  0.1079E-04  0.2821E-02  0.2821E-02
    -11.718  0.1518E-06  0.2336E-06  0.2821E-02  0.2821E-02
    -11.650  0.1227E-08  0.2065E-08  0.2821E-02  0.2821E-02
    -11.582  0.4022E-11  0.7407E-11  0.2821E-02  0.2821E-02
    -11.514  0.5315E-14  0.1072E-13  0.2821E-02  0.2821E-02
    -11.446  0.2299E-17  0.4598E-17  0.2821E-02  0.2821E-02
    -11.378  0.0000E+00  0.0000E+00  0.2821E-02  0.2821E-02
    -11.310  0.1150E-17  0.1150E-17  0.2821E-02  0.2821E-02
    -11.242  0.3900E-14  0.3583E-14  0.2821E-02  0.2821E-02
    -11.173  0.3275E-11  0.3019E-11  0.2821E-02  0.2821E-02
    -11.105  0.1117E-08  0.1034E-08  0.2821E-02  0.2821E-02
    -11.037  0.1557E-06  0.1448E-06  0.2821E-02  0.2821E-02
    -10.969  0.8967E-05  0.8381E-05  0.2821E-02  0.2821E-02
    -10.901  0.2162E-03  0.2032E-03  0.2836E-02  0.2835E-02
    -10.833  0.2225E-02  0.2106E-02  0.2988E-02  0.2979E-02
    -10.765  0.1001E-01  0.9576E-02  0.3670E-02  0.3631E-02
    -10.697  0.2029E-01  0.1978E-01  0.5052E-02  0.4978E-02
    -10.629  0.1904E-01  0.1922E-01  0.6349E-02  0.6287E-02
    -10.560  0.8412E-02  0.8997E-02  0.6922E-02  0.6900E-02
    -10.492  0.1742E-02  0.2016E-02  0.7040E-02  0.7037E-02
    -10.424  0.1648E-03  0.2094E-03  0.7052E-02  0.7052E-02
    -10.356  0.6890E-05  0.9656E-05  0.7052E-02  0.7052E-02
    -10.288  0.1232E-06  0.1905E-06  0.7052E-02  0.7052E-02
    -10.220  0.9185E-09  0.1566E-08  0.7052E-02  0.7052E-02
    -10.152  0.2810E-11  0.5279E-11  0.7052E-02  0.7052E-02
    -10.084  0.3489E-14  0.7212E-14  0.7052E-02  0.7052E-02
    -10.016  0.2246E-14  0.5748E-17  0.7052E-02  0.7052E-02
     -9.947  0.1949E-11  0.1761E-14  0.7052E-02  0.7052E-02
     -9.879  0.6930E-09  0.1572E-11  0.7052E-02  0.7052E-02
     -9.811  0.1023E-06  0.5740E-09  0.7052E-02  0.7052E-02
     -9.743  0.6389E-05  0.8683E-07  0.7053E-02  0.7052E-02
     -9.675  0.1730E-03  0.5548E-05  0.7064E-02  0.7053E-02
     -9.607  0.2085E-02  0.1534E-03  0.7206E-02  0.7063E-02
     -9.539  0.1147E-01  0.1887E-02  0.7988E-02  0.7192E-02
     -9.471  0.2956E-01  0.1061E-01  0.1000E-01  0.7914E-02
     -9.403  0.3731E-01  0.2788E-01  0.1254E-01  0.9813E-02
     -9.334  0.2609E-01  0.3500E-01  0.1432E-01  0.1220E-01
     -9.266  0.1252E-01  0.2207E-01  0.1517E-01  0.1370E-01
     -9.198  0.4192E-02  0.1040E-01  0.1546E-01  0.1441E-01
     -9.130  0.7644E-03  0.8420E-02  0.1551E-01  0.1498E-01
     -9.062  0.6347E-04  0.5751E-02  0.1551E-01  0.1537E-01
     -8.994  0.3791E-05  0.1815E-02  0.1551E-01  0.1550E-01
     -8.926  0.5239E-04  0.2427E-03  0.1552E-01  0.1551E-01
     -8.858  0.7691E-03  0.1352E-04  0.1557E-01  0.1551E-01
     -8.790  0.5094E-02  0.6528E-06  0.1592E-01  0.1551E-01
     -8.721  0.1580E-01  0.1518E-04  0.1699E-01  0.1552E-01
     -8.653  0.2503E-01  0.2880E-03  0.1870E-01  0.1554E-01
     -8.585  0.2890E-01  0.2445E-02  0.2067E-01  0.1570E-01
     -8.517  0.3971E-01  0.9817E-02  0.2337E-01  0.1637E-01
     -8.449  0.4578E-01  0.1953E-01  0.2649E-01  0.1770E-01
     -8.381  0.3567E-01  0.1992E-01  0.2892E-01  0.1906E-01
     -8.313  0.3503E-01  0.1280E-01  0.3130E-01  0.1993E-01
     -8.245  0.4614E-01  0.9873E-02  0.3445E-01  0.2060E-01
     -8.177  0.3890E-01  0.1230E-01  0.3710E-01  0.2144E-01
     -8.108  0.2336E-01  0.3147E-01  0.3869E-01  0.2358E-01
     -8.040  0.3060E-01  0.6496E-01  0.4077E-01  0.2801E-01
     -7.972  0.5707E-01  0.7030E-01  0.4466E-01  0.3280E-01
     -7.904  0.6464E-01  0.4676E-01  0.4906E-01  0.3598E-01
     -7.836  0.4237E-01  0.2335E-01  0.5195E-01  0.3757E-01
     -7.768  0.2870E-01  0.9872E-02  0.5390E-01  0.3824E-01
     -7.700  0.3418E-01  0.8499E-02  0.5623E-01  0.3882E-01
     -7.632  0.4924E-01  0.1161E-01  0.5958E-01  0.3961E-01
     -7.564  0.6312E-01  0.2004E-01  0.6388E-01  0.4098E-01
     -7.495  0.6460E-01  0.3411E-01  0.6828E-01  0.4330E-01
     -7.427  0.6490E-01  0.4617E-01  0.7270E-01  0.4645E-01
     -7.359  0.6655E-01  0.5500E-01  0.7724E-01  0.5019E-01
     -7.291  0.5711E-01  0.4905E-01  0.8113E-01  0.5353E-01
     -7.223  0.4571E-01  0.3275E-01  0.8424E-01  0.5576E-01
     -7.155  0.4370E-01  0.2819E-01  0.8722E-01  0.5768E-01
     -7.087  0.4384E-01  0.4193E-01  0.9020E-01  0.6054E-01
     -7.019  0.3970E-01  0.5838E-01  0.9291E-01  0.6452E-01
     -6.951  0.4310E-01  0.6740E-01  0.9584E-01  0.6911E-01
     -6.882  0.5421E-01  0.6719E-01  0.9954E-01  0.7368E-01
     -6.814  0.5876E-01  0.6403E-01  0.1035E+00  0.7804E-01
     -6.746  0.5853E-01  0.5365E-01  0.1075E+00  0.8170E-01
     -6.678  0.5941E-01  0.4143E-01  0.1116E+00  0.8452E-01
     -6.610  0.7652E-01  0.3633E-01  0.1168E+00  0.8699E-01
     -6.542  0.1182E+00  0.3986E-01  0.1248E+00  0.8971E-01
     -6.474  0.1360E+00  0.3696E-01  0.1341E+00  0.9223E-01
     -6.406  0.1174E+00  0.2394E-01  0.1421E+00  0.9386E-01
     -6.338  0.9933E-01  0.2018E-01  0.1489E+00  0.9523E-01
     -6.269  0.9735E-01  0.4141E-01  0.1555E+00  0.9805E-01
     -6.201  0.1024E+00  0.6778E-01  0.1625E+00  0.1027E+00
     -6.133  0.1001E+00  0.7107E-01  0.1693E+00  0.1075E+00
     -6.065  0.9373E-01  0.6327E-01  0.1757E+00  0.1118E+00
     -5.997  0.7704E-01  0.6391E-01  0.1809E+00  0.1162E+00
     -5.929  0.5895E-01  0.8957E-01  0.1849E+00  0.1223E+00
     -5.861  0.7067E-01  0.1097E+00  0.1897E+00  0.1297E+00
     -5.793  0.1125E+00  0.8651E-01  0.1974E+00  0.1356E+00
     -5.725  0.1387E+00  0.6478E-01  0.2069E+00  0.1401E+00
     -5.656  0.1371E+00  0.7839E-01  0.2162E+00  0.1454E+00
     -5.588  0.1383E+00  0.9431E-01  0.2256E+00  0.1518E+00
     -5.520  0.1337E+00  0.1027E+00  0.2347E+00  0.1588E+00
     -5.452  0.1040E+00  0.1241E+00  0.2418E+00  0.1673E+00
     -5.384  0.7885E-01  0.1276E+00  0.2472E+00  0.1760E+00
     -5.316  0.7979E-01  0.8923E-01  0.2526E+00  0.1820E+00
     -5.248  0.1014E+00  0.6048E-01  0.2595E+00  0.1862E+00
     -5.180  0.1177E+00  0.7041E-01  0.2675E+00  0.1909E+00
     -5.112  0.1154E+00  0.9886E-01  0.2754E+00  0.1977E+00
     -5.043  0.1228E+00  0.1060E+00  0.2838E+00  0.2049E+00
     -4.975  0.1446E+00  0.9579E-01  0.2936E+00  0.2114E+00
     -4.907  0.1586E+00  0.1128E+00  0.3044E+00  0.2191E+00
     -4.839  0.1619E+00  0.1505E+00  0.3154E+00  0.2294E+00
     -4.771  0.1757E+00  0.1508E+00  0.3274E+00  0.2396E+00
     -4.703  0.1966E+00  0.1192E+00  0.3408E+00  0.2478E+00
     -4.635  0.2331E+00  0.1034E+00  0.3567E+00  0.2548E+00
     -4.567  0.2566E+00  0.1032E+00  0.3742E+00  0.2618E+00
     -4.499  0.2179E+00  0.9165E-01  0.3890E+00  0.2681E+00
     -4.430  0.1535E+00  0.7668E-01  0.3995E+00  0.2733E+00
     -4.362  0.1004E+00  0.9231E-01  0.4063E+00  0.2796E+00
     -4.294  0.6270E-01  0.1346E+00  0.4106E+00  0.2887E+00
     -4.226  0.3342E-01  0.1598E+00  0.4128E+00  0.2996E+00
     -4.158  0.1718E-01  0.1491E+00  0.4140E+00  0.3098E+00
     -4.090  0.1352E-01  0.1352E+00  0.4149E+00  0.3190E+00
     -4.022  0.1277E-01  0.1541E+00  0.4158E+00  0.3295E+00
     -3.954  0.1530E-01  0.1721E+00  0.4168E+00  0.3412E+00
     -3.886  0.2287E-01  0.1598E+00  0.4184E+00  0.3521E+00
     -3.817  0.2435E-01  0.1538E+00  0.4201E+00  0.3626E+00
     -3.749  0.1735E-01  0.1736E+00  0.4212E+00  0.3744E+00
     -3.681  0.1348E-01  0.1876E+00  0.4222E+00  0.3872E+00
     -3.613  0.1777E-01  0.1494E+00  0.4234E+00  0.3973E+00
     -3.545  0.2138E-01  0.1001E+00  0.4248E+00  0.4042E+00
     -3.477  0.1977E-01  0.8065E-01  0.4262E+00  0.4096E+00
     -3.409  0.1260E-01  0.6568E-01  0.4270E+00  0.4141E+00
     -3.341  0.4310E-02  0.4642E-01  0.4273E+00  0.4173E+00
     -3.273  0.1537E-02  0.3408E-01  0.4274E+00  0.4196E+00
     -3.204  0.4201E-02  0.2676E-01  0.4277E+00  0.4214E+00
     -3.136  0.9279E-02  0.2491E-01  0.4283E+00  0.4231E+00
     -3.068  0.1290E-01  0.2490E-01  0.4292E+00  0.4248E+00
     -3.000  0.1566E-01  0.2121E-01  0.4303E+00  0.4263E+00
     -2.932  0.1690E-01  0.1230E-01  0.4314E+00  0.4271E+00
     -2.864  0.1445E-01  0.5329E-02  0.4324E+00  0.4275E+00
     -2.796  0.1054E-01  0.6860E-02  0.4331E+00  0.4279E+00
     -2.728  0.1002E-01  0.1210E-01  0.4338E+00  0.4288E+00
     -2.660  0.1084E-01  0.1627E-01  0.4346E+00  0.4299E+00
     -2.591  0.1006E-01  0.1933E-01  0.4352E+00  0.4312E+00
     -2.523  0.6835E-02  0.1938E-01  0.4357E+00  0.4325E+00
     -2.455  0.7238E-02  0.1595E-01  0.4362E+00  0.4336E+00
     -2.387  0.2115E-01  0.1192E-01  0.4376E+00  0.4344E+00
     -2.319  0.3777E-01  0.1097E-01  0.4402E+00  0.4351E+00
     -2.251  0.3609E-01  0.1273E-01  0.4427E+00  0.4360E+00
     -2.183  0.2452E-01  0.1561E-01  0.4443E+00  0.4371E+00
     -2.115  0.1379E-01  0.2139E-01  0.4453E+00  0.4385E+00
     -2.047  0.5032E-02  0.3042E-01  0.4456E+00  0.4406E+00
     -1.978  0.1137E-02  0.3407E-01  0.4457E+00  0.4429E+00
     -1.910  0.1720E-02  0.2567E-01  0.4458E+00  0.4447E+00
     -1.842  0.5444E-02  0.1183E-01  0.4462E+00  0.4455E+00
     -1.774  0.7639E-02  0.2890E-02  0.4467E+00  0.4457E+00
     -1.706  0.4874E-02  0.8848E-03  0.4470E+00  0.4457E+00
     -1.638  0.4308E-02  0.3094E-02  0.4473E+00  0.4459E+00
     -1.570  0.1271E-01  0.7023E-02  0.4482E+00  0.4464E+00
     -1.502  0.2299E-01  0.7128E-02  0.4498E+00  0.4469E+00
     -1.434  0.2414E-01  0.6118E-02  0.4514E+00  0.4473E+00
     -1.365  0.2490E-01  0.1341E-01  0.4531E+00  0.4482E+00
     -1.297  0.2474E-01  0.2219E-01  0.4548E+00  0.4498E+00
     -1.229  0.1921E-01  0.1889E-01  0.4561E+00  0.4510E+00
     -1.161  0.1988E-01  0.1611E-01  0.4575E+00  0.4521E+00
     -1.093  0.2533E-01  0.2309E-01  0.4592E+00  0.4537E+00
     -1.025  0.2418E-01  0.2351E-01  0.4608E+00  0.4553E+00
     -0.957  0.1994E-01  0.1696E-01  0.4622E+00  0.4565E+00
     -0.889  0.2581E-01  0.1688E-01  0.4639E+00  0.4576E+00
     -0.821  0.4021E-01  0.2540E-01  0.4667E+00  0.4593E+00
     -0.752  0.4343E-01  0.3158E-01  0.4696E+00  0.4615E+00
     -0.684  0.3123E-01  0.3693E-01  0.4718E+00  0.4640E+00
     -0.616  0.1898E-01  0.4704E-01  0.4731E+00  0.4672E+00
     -0.548  0.1390E-01  0.4454E-01  0.4740E+00  0.4703E+00
     -0.480  0.1106E-01  0.2669E-01  0.4748E+00  0.4721E+00
     -0.412  0.6131E-02  0.1573E-01  0.4752E+00  0.4731E+00
     -0.344  0.1732E-02  0.1595E-01  0.4753E+00  0.4742E+00
     -0.276  0.2178E-03  0.1156E-01  0.4753E+00  0.4750E+00
     -0.208  0.1295E-04  0.3857E-02  0.4753E+00  0.4753E+00
     -0.139  0.4363E-04  0.5582E-03  0.4753E+00  0.4753E+00
     -0.071  0.5687E-03  0.3524E-04  0.4754E+00  0.4753E+00
     -0.003  0.3225E-02  0.2879E-04  0.4756E+00  0.4753E+00
      0.065  0.9050E-02  0.4118E-03  0.4762E+00  0.4753E+00
      0.133  0.1788E-01  0.2557E-02  0.4774E+00  0.4755E+00
      0.201  0.3066E-01  0.7077E-02  0.4795E+00  0.4760E+00
      0.269  0.3668E-01  0.1165E-01  0.4820E+00  0.4768E+00
      0.337  0.3138E-01  0.2164E-01  0.4841E+00  0.4783E+00
      0.405  0.2367E-01  0.3860E-01  0.4857E+00  0.4809E+00
      0.474  0.1734E-01  0.4218E-01  0.4869E+00  0.4838E+00
      0.542  0.1548E-01  0.3041E-01  0.4880E+00  0.4858E+00
      0.610  0.1603E-01  0.2296E-01  0.4891E+00  0.4874E+00
      0.678  0.1437E-01  0.1857E-01  0.4901E+00  0.4887E+00
      0.746  0.9315E-02  0.1086E-01  0.4907E+00  0.4894E+00
      0.814  0.8707E-02  0.9653E-02  0.4913E+00  0.4901E+00
      0.882  0.1986E-01  0.1812E-01  0.4926E+00  0.4913E+00
      0.950  0.3378E-01  0.3039E-01  0.4949E+00  0.4934E+00
      1.018  0.3835E-01  0.3720E-01  0.4975E+00  0.4959E+00
      1.087  0.3863E-01  0.3300E-01  0.5002E+00  0.4982E+00
      1.155  0.4973E-01  0.3292E-01  0.5036E+00  0.5004E+00
      1.223  0.6689E-01  0.4859E-01  0.5081E+00  0.5037E+00
      1.291  0.6612E-01  0.6664E-01  0.5126E+00  0.5082E+00
      1.359  0.4791E-01  0.6496E-01  0.5159E+00  0.5127E+00
      1.427  0.3768E-01  0.5335E-01  0.5185E+00  0.5163E+00
      1.495  0.3979E-01  0.4754E-01  0.5212E+00  0.5195E+00
      1.563  0.4385E-01  0.4423E-01  0.5242E+00  0.5226E+00
      1.631  0.4754E-01  0.4636E-01  0.5274E+00  0.5257E+00
      1.700  0.4926E-01  0.5072E-01  0.5307E+00  0.5292E+00
      1.768  0.4323E-01  0.4851E-01  0.5337E+00  0.5325E+00
      1.836  0.2487E-01  0.3449E-01  0.5354E+00  0.5348E+00
      1.904  0.7434E-02  0.1393E-01  0.5359E+00  0.5358E+00
      1.972  0.1027E-02  0.2677E-02  0.5360E+00  0.5360E+00
      2.040  0.6227E-04  0.2272E-03  0.5360E+00  0.5360E+00
      2.108  0.1607E-05  0.8249E-05  0.5360E+00  0.5360E+00
      2.176  0.1733E-07  0.1258E-06  0.5360E+00  0.5360E+00
      2.244  0.7704E-10  0.7947E-09  0.5360E+00  0.5360E+00
      2.313  0.1397E-12  0.2061E-11  0.5360E+00  0.5360E+00
      2.381  0.1012E-15  0.2175E-14  0.5360E+00  0.5360E+00
      2.449  0.0000E+00  0.0000E+00  0.5360E+00  0.5360E+00
      2.517  0.0000E+00  0.0000E+00  0.5360E+00  0.5360E+00
      2.585  0.0000E+00  0.0000E+00  0.5360E+00  0.5360E+00
      2.653  0.0000E+00  0.0000E+00  0.5360E+00  0.5360E+00
      2.721  0.0000E+00  0.0000E+00  0.5360E+00  0.5360E+00
      2.789  0.0000E+00  0.0000E+00  0.5360E+00  0.5360E+00
