   56   56  709    2
  0.1428571E+03  0.2000000E-08  0.2000000E-08  0.2000000E-08  0.2500000E-16
  1.000000000000000E-004
  CAR 
 TS_Vibrational_Calculation              
    556      1    380
 
  0.0000000E+00  0.0000000E+00  0.0000000E+00  0.1000000E+01
    1      -16.644055    -16.502875   1.000000   1.000000
    2      -12.092785    -12.085998   1.000000   1.000000
    3      -10.725996    -10.725599   1.000000   1.000000
    4      -10.712070    -10.709332   1.000000   1.000000
    5      -10.666553    -10.659551   1.000000   1.000000
    6       -9.496364     -9.426008   1.000000   1.000000
    7       -9.460943     -9.389325   1.000000   1.000000
    8       -9.454330     -9.384496   1.000000   1.000000
    9       -9.448467     -9.374047   1.000000   1.000000
   10       -9.411161     -9.332074   1.000000   1.000000
   11       -9.323428     -9.152645   1.000000   1.000000
   12       -8.724455     -8.495741   1.000000   1.000000
   13       -8.677997     -8.437671   1.000000   1.000000
   14       -8.672557     -8.424415   1.000000   1.000000
   15       -8.566762     -8.260439   1.000000   1.000000
   16       -8.504755     -8.071092   1.000000   1.000000
   17       -8.500958     -8.066875   1.000000   1.000000
   18       -8.497511     -8.056664   1.000000   1.000000
   19       -8.486833     -8.051661   1.000000   1.000000
   20       -8.466906     -8.048153   1.000000   1.000000
   21       -8.387460     -8.036134   1.000000   1.000000
   22       -8.282828     -8.033029   1.000000   1.000000
   23       -8.277527     -8.022250   1.000000   1.000000
   24       -8.265431     -8.017529   1.000000   1.000000
   25       -8.258953     -7.933190   1.000000   1.000000
   26       -8.238364     -7.921476   1.000000   1.000000
   27       -8.224951     -7.902922   1.000000   1.000000
   28       -8.084507     -7.699383   1.000000   1.000000
   29       -7.991503     -7.556176   1.000000   1.000000
   30       -7.983503     -7.522867   1.000000   1.000000
   31       -7.978804     -7.499051   1.000000   1.000000
   32       -7.968553     -7.484740   1.000000   1.000000
   33       -7.956487     -7.389061   1.000000   1.000000
   34       -7.952360     -7.386723   1.000000   1.000000
   35       -7.947180     -7.384426   1.000000   1.000000
   36       -7.911683     -7.378148   1.000000   1.000000
   37       -7.904814     -7.373268   1.000000   1.000000
   38       -7.777874     -7.326928   1.000000   1.000000
   39       -7.755215     -7.272436   1.000000   1.000000
   40       -7.710030     -7.263877   1.000000   1.000000
   41       -7.637753     -7.112342   1.000000   1.000000
   42       -7.622062     -7.109183   1.000000   1.000000
   43       -7.619077     -7.101919   1.000000   1.000000
   44       -7.615906     -7.093238   1.000000   1.000000
   45       -7.571229     -7.015464   1.000000   1.000000
   46       -7.570317     -6.999562   1.000000   1.000000
   47       -7.553197     -6.993621   1.000000   1.000000
   48       -7.520595     -6.986735   1.000000   1.000000
   49       -7.482272     -6.974218   1.000000   1.000000
   50       -7.472764     -6.954591   1.000000   1.000000
   51       -7.453637     -6.941538   1.000000   1.000000
   52       -7.411916     -6.871734   1.000000   1.000000
   53       -7.383890     -6.862475   1.000000   1.000000
   54       -7.379816     -6.851155   1.000000   1.000000
   55       -7.376881     -6.838900   1.000000   1.000000
   56       -7.370298     -6.830228   1.000000   1.000000
   57       -7.349536     -6.813458   1.000000   1.000000
   58       -7.301859     -6.776708   1.000000   1.000000
   59       -7.250398     -6.705468   1.000000   1.000000
   60       -7.243228     -6.702077   1.000000   1.000000
   61       -7.201707     -6.695583   1.000000   1.000000
   62       -7.136308     -6.573339   1.000000   1.000000
   63       -7.133770     -6.570471   1.000000   1.000000
   64       -7.111805     -6.552416   1.000000   1.000000
   65       -7.097713     -6.533495   1.000000   1.000000
   66       -7.032503     -6.491393   1.000000   1.000000
   67       -6.982521     -6.433762   1.000000   1.000000
   68       -6.930158     -6.261297   1.000000   1.000000
   69       -6.922593     -6.253878   1.000000   1.000000
   70       -6.916744     -6.246364   1.000000   1.000000
   71       -6.889349     -6.244303   1.000000   1.000000
   72       -6.857536     -6.239705   1.000000   1.000000
   73       -6.840174     -6.208237   1.000000   1.000000
   74       -6.813405     -6.207243   1.000000   1.000000
   75       -6.797675     -6.193760   1.000000   1.000000
   76       -6.738506     -6.129609   1.000000   1.000000
   77       -6.733643     -6.124174   1.000000   1.000000
   78       -6.723487     -6.111768   1.000000   1.000000
   79       -6.708430     -6.089553   1.000000   1.000000
   80       -6.688757     -6.086644   1.000000   1.000000
   81       -6.595061     -6.028572   1.000000   1.000000
   82       -6.587048     -6.019360   1.000000   1.000000
   83       -6.576890     -5.940525   1.000000   1.000000
   84       -6.576411     -5.938199   1.000000   1.000000
   85       -6.564264     -5.936442   1.000000   1.000000
   86       -6.555951     -5.926185   1.000000   1.000000
   87       -6.549299     -5.917595   1.000000   1.000000
   88       -6.545319     -5.906725   1.000000   1.000000
   89       -6.544193     -5.898854   1.000000   1.000000
   90       -6.536400     -5.892766   1.000000   1.000000
   91       -6.530381     -5.887248   1.000000   1.000000
   92       -6.525977     -5.880198   1.000000   1.000000
   93       -6.515100     -5.872604   1.000000   1.000000
   94       -6.502665     -5.871822   1.000000   1.000000
   95       -6.487786     -5.863320   1.000000   1.000000
   96       -6.487615     -5.848962   1.000000   1.000000
   97       -6.472317     -5.800281   1.000000   1.000000
   98       -6.444548     -5.781155   1.000000   1.000000
   99       -6.437765     -5.695111   1.000000   1.000000
  100       -6.431967     -5.686797   1.000000   1.000000
  101       -6.429066     -5.685189   1.000000   1.000000
  102       -6.390804     -5.678723   1.000000   1.000000
  103       -6.385496     -5.654824   1.000000   1.000000
  104       -6.363232     -5.647680   1.000000   1.000000
  105       -6.358750     -5.632183   1.000000   1.000000
  106       -6.355228     -5.631342   1.000000   1.000000
  107       -6.332294     -5.616794   1.000000   1.000000
  108       -6.294873     -5.587894   1.000000   1.000000
  109       -6.272755     -5.577871   1.000000   1.000000
  110       -6.272231     -5.569581   1.000000   1.000000
  111       -6.256302     -5.543330   1.000000   1.000000
  112       -6.244155     -5.529333   1.000000   1.000000
  113       -6.233806     -5.500831   1.000000   1.000000
  114       -6.231899     -5.489083   1.000000   1.000000
  115       -6.220008     -5.478702   1.000000   1.000000
  116       -6.212802     -5.466918   1.000000   1.000000
  117       -6.190604     -5.450321   1.000000   1.000000
  118       -6.174999     -5.448527   1.000000   1.000000
  119       -6.161263     -5.443975   1.000000   1.000000
  120       -6.128399     -5.437663   1.000000   1.000000
  121       -6.118256     -5.427481   1.000000   1.000000
  122       -6.108445     -5.425386   1.000000   1.000000
  123       -6.100251     -5.419275   1.000000   1.000000
  124       -6.079538     -5.416888   1.000000   1.000000
  125       -6.067944     -5.405890   1.000000   1.000000
  126       -6.066128     -5.404371   1.000000   1.000000
  127       -6.052828     -5.399733   1.000000   1.000000
  128       -6.024175     -5.390092   1.000000   1.000000
  129       -6.018939     -5.373631   1.000000   1.000000
  130       -5.995726     -5.313145   1.000000   1.000000
  131       -5.930065     -5.272339   1.000000   1.000000
  132       -5.920555     -5.263840   1.000000   1.000000
  133       -5.874011     -5.231740   1.000000   1.000000
  134       -5.828512     -5.192871   1.000000   1.000000
  135       -5.826869     -5.157101   1.000000   1.000000
  136       -5.818056     -5.149879   1.000000   1.000000
  137       -5.812015     -5.140768   1.000000   1.000000
  138       -5.793819     -5.126922   1.000000   1.000000
  139       -5.793199     -5.120698   1.000000   1.000000
  140       -5.789822     -5.115362   1.000000   1.000000
  141       -5.783400     -5.112890   1.000000   1.000000
  142       -5.782140     -5.101056   1.000000   1.000000
  143       -5.778856     -5.095394   1.000000   1.000000
  144       -5.771655     -5.094535   1.000000   1.000000
  145       -5.748036     -5.072072   1.000000   1.000000
  146       -5.746755     -5.057026   1.000000   1.000000
  147       -5.741997     -5.020049   1.000000   1.000000
  148       -5.721120     -5.008300   1.000000   1.000000
  149       -5.705700     -5.007099   1.000000   1.000000
  150       -5.701428     -5.000144   1.000000   1.000000
  151       -5.683867     -4.942037   1.000000   1.000000
  152       -5.674152     -4.933867   1.000000   1.000000
  153       -5.660796     -4.916277   1.000000   1.000000
  154       -5.652034     -4.907591   1.000000   1.000000
  155       -5.639649     -4.892408   1.000000   1.000000
  156       -5.636680     -4.877657   1.000000   1.000000
  157       -5.611905     -4.874642   1.000000   1.000000
  158       -5.610241     -4.868102   1.000000   1.000000
  159       -5.601969     -4.860739   1.000000   1.000000
  160       -5.590618     -4.854026   1.000000   1.000000
  161       -5.572606     -4.850977   1.000000   1.000000
  162       -5.559411     -4.843864   1.000000   1.000000
  163       -5.549001     -4.840219   1.000000   1.000000
  164       -5.544733     -4.831526   1.000000   1.000000
  165       -5.542963     -4.830562   1.000000   1.000000
  166       -5.541359     -4.827403   1.000000   1.000000
  167       -5.539845     -4.818098   1.000000   1.000000
  168       -5.535117     -4.817264   1.000000   1.000000
  169       -5.530479     -4.811027   1.000000   1.000000
  170       -5.522164     -4.808697   1.000000   1.000000
  171       -5.496623     -4.793296   1.000000   1.000000
  172       -5.455085     -4.771116   1.000000   1.000000
  173       -5.428596     -4.733646   1.000000   1.000000
  174       -5.416106     -4.731609   1.000000   1.000000
  175       -5.404626     -4.721348   1.000000   1.000000
  176       -5.378990     -4.714301   1.000000   1.000000
  177       -5.355313     -4.692905   1.000000   1.000000
  178       -5.347536     -4.691903   1.000000   1.000000
  179       -5.319849     -4.665632   1.000000   1.000000
  180       -5.279915     -4.655866   1.000000   1.000000
  181       -5.259964     -4.614077   1.000000   1.000000
  182       -5.258687     -4.613380   1.000000   1.000000
  183       -5.251821     -4.596018   1.000000   1.000000
  184       -5.245909     -4.584133   1.000000   1.000000
  185       -5.241010     -4.582942   1.000000   1.000000
  186       -5.227170     -4.570110   1.000000   1.000000
  187       -5.225591     -4.567921   1.000000   1.000000
  188       -5.212453     -4.554479   1.000000   1.000000
  189       -5.204749     -4.548437   1.000000   1.000000
  190       -5.193950     -4.544288   1.000000   1.000000
  191       -5.168657     -4.491049   1.000000   1.000000
  192       -5.168162     -4.484849   1.000000   1.000000
  193       -5.158315     -4.448251   1.000000   1.000000
  194       -5.141114     -4.444062   1.000000   1.000000
  195       -5.115507     -4.399202   1.000000   1.000000
  196       -5.103868     -4.382403   1.000000   1.000000
  197       -5.088494     -4.348836   1.000000   1.000000
  198       -5.068484     -4.343334   1.000000   1.000000
  199       -5.060831     -4.329568   1.000000   1.000000
  200       -5.041182     -4.317497   1.000000   1.000000
  201       -5.038788     -4.316579   1.000000   1.000000
  202       -5.032203     -4.315670   1.000000   1.000000
  203       -5.027885     -4.312777   1.000000   1.000000
  204       -5.027472     -4.308592   1.000000   1.000000
  205       -5.017696     -4.291295   1.000000   1.000000
  206       -4.996041     -4.286456   1.000000   1.000000
  207       -4.971982     -4.278519   1.000000   1.000000
  208       -4.965904     -4.277962   1.000000   1.000000
  209       -4.965181     -4.258984   1.000000   1.000000
  210       -4.952193     -4.258124   1.000000   1.000000
  211       -4.947415     -4.246538   1.000000   1.000000
  212       -4.941883     -4.231142   1.000000   1.000000
  213       -4.941341     -4.218426   1.000000   1.000000
  214       -4.934961     -4.211461   1.000000   1.000000
  215       -4.922776     -4.203711   1.000000   1.000000
  216       -4.920167     -4.198312   1.000000   1.000000
  217       -4.902350     -4.196162   1.000000   1.000000
  218       -4.898791     -4.192940   1.000000   1.000000
  219       -4.897155     -4.187375   1.000000   1.000000
  220       -4.885461     -4.183792   1.000000   1.000000
  221       -4.874887     -4.178932   1.000000   1.000000
  222       -4.856059     -4.161926   1.000000   1.000000
  223       -4.853071     -4.132854   1.000000   0.999998
  224       -4.828369     -4.116271   1.000000   0.999993
  225       -4.792286     -4.081004   1.000000   0.999941
  226       -4.790044     -4.074196   1.000000   0.999913
  227       -4.788615     -4.066388   1.000000   0.999865
  228       -4.787469     -4.057639   1.000000   0.999784
  229       -4.786001     -4.054545   1.000000   0.999745
  230       -4.784748     -4.045953   1.000000   0.999602
  231       -4.782175     -4.037886   1.000000   0.999403
  232       -4.781604     -4.037319   1.000000   0.999386
  233       -4.776006     -4.026073   1.000000   0.998941
  234       -4.774078     -4.017565   1.000000   0.998426
  235       -4.773337     -4.012046   1.000000   0.997979
  236       -4.767116     -3.993719   1.000000   0.995547
  237       -4.758554     -3.982163   1.000000   0.992902
  238       -4.745254     -3.981850   1.000000   0.992814
  239       -4.715879     -3.979433   1.000000   0.992103
  240       -4.715732     -3.976675   1.000000   0.991217
  241       -4.702860     -3.974041   1.000000   0.990290
  242       -4.674707     -3.971438   1.000000   0.989292
  243       -4.674057     -3.965678   1.000000   0.986761
  244       -4.669428     -3.957919   1.000000   0.982544
  245       -4.667763     -3.950607   1.000000   0.977571
  246       -4.656702     -3.938157   1.000000   0.966368
  247       -4.654763     -3.935229   1.000000   0.963152
  248       -4.653496     -3.906602   1.000000   0.916767
  249       -4.648720     -3.905662   1.000000   0.914712
  250       -4.646030     -3.898323   1.000000   0.897345
  251       -4.642414     -3.848798   1.000000   0.714366
  252       -4.637544     -3.848133   1.000000   0.711158
  253       -4.625793     -3.847178   1.000000   0.706528
  254       -4.625481     -3.845973   1.000000   0.700633
  255       -4.618798     -3.834651   1.000000   0.642856
  256       -4.617421     -3.828553   1.000000   0.610214
  257       -4.607853     -3.827348   1.000000   0.603661
  258       -4.603035     -3.816117   1.000000   0.541417
  259       -4.601238     -3.811213   1.000000   0.513820
  260       -4.598114     -3.808190   1.000000   0.496769
  261       -4.596064     -3.790268   1.000000   0.396831
  262       -4.586397     -3.771763   1.000000   0.300395
  263       -4.585558     -3.750986   1.000000   0.206936
  264       -4.582569     -3.747340   1.000000   0.192517
  265       -4.579978     -3.734720   1.000000   0.147520
  266       -4.576659     -3.722173   1.000000   0.110370
  267       -4.574525     -3.714441   1.000000   0.091116
  268       -4.568495     -3.710419   1.000000   0.082144
  269       -4.558846     -3.709282   1.000000   0.079731
  270       -4.557900     -3.708282   1.000000   0.077655
  271       -4.555418     -3.704088   1.000000   0.069393
  272       -4.554166     -3.702082   1.000000   0.065688
  273       -4.551090     -3.699281   1.000000   0.060774
  274       -4.549819     -3.696829   1.000000   0.056713
  275       -4.542117     -3.692848   1.000000   0.050577
  276       -4.501265     -3.689308   1.000000   0.045577
  277       -4.492170     -3.687414   1.000000   0.043069
  278       -4.477633     -3.686560   1.000000   0.041975
  279       -4.474188     -3.685912   1.000000   0.041161
  280       -4.471826     -3.683521   1.000000   0.038265
  281       -4.470810     -3.680183   1.000000   0.034502
  282       -4.461987     -3.676881   1.000000   0.031084
  283       -4.459925     -3.607380   1.000000   0.002200
  284       -4.454792     -3.579832   1.000000   0.000603
  285       -4.453626     -3.569101   1.000000   0.000350
  286       -4.429363     -3.568916   1.000000   0.000347
  287       -4.420371     -3.567719   1.000000   0.000326
  288       -4.372669     -3.546470   1.000000   0.000104
  289       -4.342459     -3.491198   1.000000   0.000004
  290       -4.337700     -3.488707   1.000000   0.000003
  291       -4.334192     -3.473043   1.000000   0.000001
  292       -4.332447     -3.470555   1.000000   0.000001
  293       -4.280533     -3.451354   1.000000   0.000000
  294       -4.160451     -3.444418   1.000000   0.000000
  295       -4.059925     -3.418001   0.999809   0.000000
  296       -3.921966     -3.338096   0.945303   0.000000
  297       -3.887868     -3.322183   0.868369   0.000000
  298       -3.861825     -3.301059   0.773496   0.000000
  299       -3.782252     -3.224352   0.353860   0.000000
  300       -3.620676     -3.140361   0.003908   0.000000
  301       -3.618252     -3.131830   0.003527   0.000000
  302       -3.511585     -3.036159   0.000013   0.000000
  303       -3.478567     -3.014849   0.000002   0.000000
  304       -3.153739     -2.770899   0.000000   0.000000
  305       -3.041766     -2.672577   0.000000   0.000000
  306       -2.965140     -2.601319   0.000000   0.000000
  307       -2.888521     -2.544819   0.000000   0.000000
  308       -2.735475     -2.457472   0.000000   0.000000
  309       -2.611302     -2.316363   0.000000   0.000000
  310       -2.355623     -2.207344   0.000000   0.000000
  311       -2.349590     -2.127398   0.000000   0.000000
  312       -2.348044     -2.046460   0.000000   0.000000
  313       -2.347108     -2.039048   0.000000   0.000000
  314       -2.286840     -2.031566   0.000000   0.000000
  315       -2.226569     -1.951591   0.000000   0.000000
  316       -2.167998     -1.939652   0.000000   0.000000
  317       -1.815464     -1.572717   0.000000   0.000000
  318       -1.540307     -1.335070   0.000000   0.000000
  319       -1.531237     -1.332705   0.000000   0.000000
  320       -1.494427     -1.292316   0.000000   0.000000
  321       -1.371231     -1.118005   0.000000   0.000000
  322       -1.354563     -1.100876   0.000000   0.000000
  323       -1.332515     -1.084656   0.000000   0.000000
  324       -1.211152     -0.975580   0.000000   0.000000
  325       -1.115259     -0.843696   0.000000   0.000000
  326       -1.112509     -0.814998   0.000000   0.000000
  327       -1.063252     -0.811050   0.000000   0.000000
  328       -0.968977     -0.736654   0.000000   0.000000
  329       -0.858744     -0.661466   0.000000   0.000000
  330       -0.854211     -0.658960   0.000000   0.000000
  331       -0.818762     -0.635723   0.000000   0.000000
  332       -0.816695     -0.604866   0.000000   0.000000
  333       -0.791862     -0.600388   0.000000   0.000000
  334       -0.736781     -0.566262   0.000000   0.000000
  335       -0.721339     -0.541230   0.000000   0.000000
  336       -0.610648     -0.377949   0.000000   0.000000
  337       -0.505687     -0.351761   0.000000   0.000000
  338        0.062403      0.208383   0.000000   0.000000
  339        0.177225      0.348032   0.000000   0.000000
  340        0.204473      0.385575   0.000000   0.000000
  341        0.214660      0.405030   0.000000   0.000000
  342        0.228451      0.416921   0.000000   0.000000
  343        0.302401      0.428482   0.000000   0.000000
  344        0.339893      0.461375   0.000000   0.000000
  345        0.393749      0.536878   0.000000   0.000000
  346        0.501293      0.629802   0.000000   0.000000
  347        0.589802      0.634592   0.000000   0.000000
  348        0.667376      0.840083   0.000000   0.000000
  349        0.885341      0.915938   0.000000   0.000000
  350        0.894647      0.951164   0.000000   0.000000
  351        0.937579      0.997245   0.000000   0.000000
  352        0.980961      1.000756   0.000000   0.000000
  353        1.001262      1.016313   0.000000   0.000000
  354        1.024958      1.119742   0.000000   0.000000
  355        1.122073      1.143844   0.000000   0.000000
  356        1.124048      1.222597   0.000000   0.000000
  357        1.140965      1.233243   0.000000   0.000000
  358        1.200553      1.249320   0.000000   0.000000
  359        1.205919      1.258761   0.000000   0.000000
  360        1.209637      1.261194   0.000000   0.000000
  361        1.231601      1.293355   0.000000   0.000000
  362        1.239484      1.310780   0.000000   0.000000
  363        1.246002      1.317809   0.000000   0.000000
  364        1.259194      1.327954   0.000000   0.000000
  365        1.292092      1.387134   0.000000   0.000000
  366        1.346035      1.409549   0.000000   0.000000
  367        1.375266      1.439464   0.000000   0.000000
  368        1.450300      1.482449   0.000000   0.000000
  369        1.459727      1.490608   0.000000   0.000000
  370        1.492352      1.503775   0.000000   0.000000
  371        1.521122      1.578425   0.000000   0.000000
  372        1.579172      1.610106   0.000000   0.000000
  373        1.594504      1.637313   0.000000   0.000000
  374        1.613363      1.645611   0.000000   0.000000
  375        1.644511      1.675736   0.000000   0.000000
  376        1.677756      1.699717   0.000000   0.000000
  377        1.714917      1.759233   0.000000   0.000000
  378        1.735191      1.762403   0.000000   0.000000
  379        1.755285      1.781901   0.000000   0.000000
  380        1.761267      1.789375   0.000000   0.000000
