 vasp.5.4.4.18Apr17-6-g9f103f2a35 (build Dec 11 2018 16:16:58) complex          
  
 executed on             LinuxIFC date 2020.07.23  19:08:59
 running on   20 total cores
 distrk:  each k-point on   20 cores,    1 groups
 distr:  one band on NCORES_PER_BAND=   1 cores,   20 groups


--------------------------------------------------------------------------------------------------------


 INCAR:
 POTCAR:   PAW_PBE Ni 06Sep2000                   
 POTCAR:    PAW_PBE S 17Jan2003                   

 ----------------------------------------------------------------------------- 
|                                                                             |
|           W    W    AA    RRRRR   N    N  II  N    N   GGGG   !!!           |
|           W    W   A  A   R    R  NN   N  II  NN   N  G    G  !!!           |
|           W    W  A    A  R    R  N N  N  II  N N  N  G       !!!           |
|           W WW W  AAAAAA  RRRRR   N  N N  II  N  N N  G  GGG   !            |
|           WW  WW  A    A  R   R   N   NN  II  N   NN  G    G                |
|           W    W  A    A  R    R  N    N  II  N    N   GGGG   !!!           |
|                                                                             |
|      For optimal performance we recommend to set                            |
|        NCORE= 4 - approx SQRT( number of cores)                             |
|      NCORE specifies how many cores store one orbital (NPAR=cpu/NCORE).     |
|      This setting can  greatly improve the performance of VASP for DFT.     |
|      The default,   NCORE=1            might be grossly inefficient         |
|      on modern multi-core architectures or massively parallel machines.     |
|      Do your own testing !!!!                                               |
|      Unfortunately you need to use the default for GW and RPA calculations. |
|      (for HF NCORE is supported but not extensively tested yet)             |
|                                                                             |
 ----------------------------------------------------------------------------- 

 POTCAR:   PAW_PBE Ni 06Sep2000                   
  local pseudopotential read in
  partial core-charges read in
  atomic valenz-charges read in
  non local Contribution for L=           2  read in
    real space projection operators read in
  non local Contribution for L=           2  read in
    real space projection operators read in
  non local Contribution for L=           0  read in
    real space projection operators read in
  non local Contribution for L=           0  read in
    real space projection operators read in
  non local Contribution for L=           1  read in
    real space projection operators read in
  non local Contribution for L=           1  read in
    real space projection operators read in
    PAW grid and wavefunctions read in
 
   number of l-projection  operators is LMAX  =           6
   number of lm-projection operators is LMMAX =          18
 
 POTCAR:    PAW_PBE S 17Jan2003                   
  local pseudopotential read in
  partial core-charges read in
  atomic valenz-charges read in
  non local Contribution for L=           0  read in
    real space projection operators read in
  non local Contribution for L=           0  read in
    real space projection operators read in
  non local Contribution for L=           1  read in
    real space projection operators read in
  non local Contribution for L=           1  read in
    real space projection operators read in
    PAW grid and wavefunctions read in
 
   number of l-projection  operators is LMAX  =           4
   number of lm-projection operators is LMMAX =           8
 
 Optimization of the real space projectors (new method)

 maximal supplied QI-value         = 16.25
 optimisation between [QCUT,QGAM] = [ 10.24, 20.48] = [ 29.35,117.42] Ry 
 Optimized for a Real-space Cutoff    1.55 Angstroem

   l    n(q)    QCUT    max X(q) W(low)/X(q) W(high)/X(q)  e(spline) 
   2      9    10.239     4.811    0.74E-05    0.34E-04    0.54E-07
   2      9    10.239    15.146    0.10E-03    0.32E-03    0.20E-06
   0     10    10.239    14.357    0.19E-04    0.12E-05    0.68E-08
   0     10    10.239    43.282    0.61E-04    0.10E-04    0.80E-07
   1      9    10.239     5.514    0.22E-04    0.18E-04    0.20E-07
   1      9    10.239     7.697    0.66E-04    0.91E-04    0.11E-06
 Optimization of the real space projectors (new method)

 maximal supplied QI-value         = 19.84
 optimisation between [QCUT,QGAM] = [ 10.12, 20.44] = [ 28.68,116.96] Ry 
 Optimized for a Real-space Cutoff    1.42 Angstroem

   l    n(q)    QCUT    max X(q) W(low)/X(q) W(high)/X(q)  e(spline) 
   0      9    10.119     5.487    0.15E-04    0.47E-05    0.66E-08
   0      9    10.119    85.627    0.51E-04    0.92E-04    0.63E-07
   1      8    10.119     3.530    0.37E-05    0.76E-05    0.28E-07
   1      8    10.119    42.714    0.16E-03    0.16E-03    0.23E-06
 PAW_PBE Ni 06Sep2000                   :
 energy of atom  1       EATOM=-1077.9025
 kinetic energy error for atom=    0.0101 (will be added to EATOM!!)
  PAW_PBE S 17Jan2003                   :
 energy of atom  2       EATOM= -276.8230
 kinetic energy error for atom=    0.0046 (will be added to EATOM!!)
 
 
 POSCAR: Ni   S                                  
  positions in direct lattice
  velocities in cartesian coordinates
  No initial velocities read in
 exchange correlation table for  LEXCH =        8
   RHO(1)=    0.500       N(1)  =     2000
   RHO(2)=  100.500       N(2)  =     4000
 


--------------------------------------------------------------------------------------------------------


 ion  position               nearest neighbor table
   1  0.351  0.595  0.411-  19 2.40  10 2.41   8 2.44  16 2.44  17 2.50   2 2.51  24 2.52   3 2.52

   2  0.451  0.663  0.378-   5 2.40  19 2.41  16 2.43   4 2.44  20 2.51   1 2.51   3 2.52   6 2.53

   3  0.413  0.662  0.498-  10 2.40   5 2.41   4 2.44   8 2.44  11 2.49  12 2.49   2 2.52   1 2.52

   4  0.513  0.723  0.464-   5 2.29  12 2.43   6 2.44   3 2.44   2 2.44   7 2.45
   5  0.515  0.608  0.463-   4 2.29  28 2.34   6 2.40   2 2.40   3 2.41  12 2.41   7 2.42  23 2.45
                            19 2.45  14 2.47  10 2.47  13 2.48
   6  0.577  0.665  0.378-   5 2.40  23 2.42   4 2.44  35 2.44   7 2.51  32 2.51  20 2.52   2 2.53

   7  0.616  0.665  0.497-   5 2.42  14 2.42   4 2.45  33 2.45  12 2.50  15 2.50   6 2.51  32 2.51

   8  0.318  0.592  0.528-  10 2.29   1 2.44  24 2.44   3 2.44  11 2.45   9 2.46
   9  0.352  0.488  0.585-  27 2.41  10 2.43   8 2.46  42 2.50  24 2.52  11 2.54  25 2.56  39 2.58

  10  0.416  0.542  0.497-   8 2.29  28 2.34   3 2.40   1 2.41  11 2.41  24 2.41   9 2.43  13 2.46
                            26 2.47  27 2.47   5 2.47  19 2.47
  11  0.414  0.597  0.604-  13 2.40  10 2.41   8 2.45  40 2.46  39 2.49   3 2.49  12 2.51   9 2.54

  12  0.514  0.664  0.570-  13 2.41   5 2.41  40 2.42   4 2.43   3 2.49   7 2.50  11 2.51  15 2.52

  13  0.516  0.543  0.569-  40 2.31  28 2.34  41 2.40  11 2.40  12 2.41  15 2.41  39 2.42  10 2.46
                            31 2.46  14 2.48   5 2.48  27 2.49
  14  0.615  0.544  0.496-  33 2.29  28 2.34  32 2.40  37 2.40  34 2.41  15 2.41   7 2.42  23 2.45
                            30 2.46   5 2.47  31 2.47  13 2.48
  15  0.617  0.599  0.603-  13 2.41  14 2.41  40 2.42  33 2.43  34 2.50   7 2.50  41 2.51  12 2.52

  16  0.393  0.593  0.296-  19 2.30   2 2.43  17 2.44  18 2.44   1 2.44  20 2.44
  17  0.352  0.489  0.344-  19 2.40  26 2.41  50 2.43  16 2.44   1 2.50  18 2.51  47 2.52  24 2.53

  18  0.453  0.490  0.271-  19 2.41  21 2.41  48 2.44  16 2.44  17 2.51  47 2.51  20 2.52  22 2.52

  19  0.454  0.542  0.379-  16 2.30  28 2.34  17 2.40   1 2.40  18 2.41  20 2.41   2 2.41   5 2.45
                            21 2.46  26 2.46  23 2.47  10 2.47
  20  0.515  0.598  0.291-  23 2.41  19 2.41  35 2.44  16 2.44   2 2.51  22 2.51   6 2.52  18 2.52

  21  0.517  0.439  0.359-  48 2.29  28 2.35  52 2.41  47 2.41  22 2.41  18 2.41  49 2.41  30 2.46
                            19 2.46  23 2.46  26 2.47  29 2.47
  22  0.579  0.492  0.271-  23 2.41  21 2.41  48 2.44  35 2.44  20 2.51  36 2.51  49 2.52  18 2.52

  23  0.577  0.544  0.379-  35 2.29  28 2.35  22 2.41  20 2.41  36 2.41  32 2.41   6 2.42   5 2.45
                            14 2.45  21 2.46  30 2.46  19 2.47
  24  0.313  0.488  0.465-  26 2.41  10 2.41   8 2.44  50 2.45  25 2.49   1 2.52   9 2.52  17 2.53

  25  0.353  0.381  0.515-  42 2.39  26 2.39  27 2.42  50 2.43  24 2.49  51 2.50  43 2.52   9 2.56

  26  0.417  0.437  0.432-  50 2.30  28 2.34  25 2.39  24 2.41  17 2.41  47 2.42  51 2.42  19 2.46
                            29 2.46  27 2.46  21 2.47  10 2.47
  27  0.455  0.437  0.549-  42 2.33  28 2.36  44 2.41   9 2.41  25 2.42  43 2.42  29 2.46  26 2.46
                            31 2.47  10 2.47  13 2.49  39 2.54
  28  0.516  0.491  0.464-  10 2.34  31 2.34  14 2.34   5 2.34  30 2.34  19 2.34  13 2.34  26 2.34
                            29 2.34  21 2.35  23 2.35  27 2.36
  29  0.517  0.374  0.464-  55 2.30  28 2.34  43 2.39  45 2.41  53 2.41  52 2.42  51 2.42  30 2.46
                            26 2.46  27 2.46  21 2.47  31 2.47
  30  0.616  0.440  0.432-  54 2.30  28 2.34  53 2.41  38 2.41  49 2.41  36 2.41  37 2.41  14 2.46
                            21 2.46  29 2.46  23 2.46  31 2.47
  31  0.578  0.439  0.549-  46 2.29  28 2.34  34 2.40  38 2.41  41 2.41  45 2.41  44 2.43  13 2.46
                            29 2.47  27 2.47  14 2.47  30 2.47
  32  0.679  0.600  0.411-  14 2.40  23 2.41  33 2.44  35 2.44   6 2.51   7 2.51  36 2.52  37 2.53

  33  0.712  0.596  0.528-  14 2.29  15 2.43  32 2.44  34 2.44  37 2.44   7 2.45
  34  0.680  0.493  0.584-  31 2.40  14 2.41  33 2.44  46 2.44  41 2.49  15 2.50  37 2.52  38 2.53

  35  0.637  0.596  0.297-  23 2.29   6 2.44  32 2.44  22 2.44  36 2.44  20 2.44
  36  0.681  0.493  0.345-  23 2.41  30 2.41  35 2.44  54 2.44  37 2.51  22 2.51  49 2.52  32 2.52

  37  0.719  0.493  0.464-  14 2.40  30 2.41  54 2.43  33 2.44  38 2.51  36 2.51  34 2.52  32 2.53

  38  0.681  0.386  0.517-  30 2.41  31 2.41  46 2.44  54 2.44  53 2.50  37 2.51  45 2.52  34 2.53

  39  0.455  0.495  0.662-  56 2.06  40 2.40  13 2.42  41 2.49  11 2.49  27 2.54   9 2.58  44 2.58
                            42 2.74
  40  0.517  0.597  0.671-  13 2.31  39 2.40  15 2.42  12 2.42  11 2.46  41 2.46
  41  0.579  0.492  0.657-  13 2.40  31 2.41  46 2.45  40 2.46  39 2.49  34 2.49  15 2.51  44 2.54

  42  0.392  0.378  0.628-  56 2.05  27 2.33  25 2.39  43 2.39   9 2.50  44 2.50  39 2.74
  43  0.456  0.316  0.548-  29 2.39  42 2.39  27 2.42  55 2.43  45 2.49  51 2.50  25 2.52  44 2.56

  44  0.516  0.384  0.638-  27 2.41  31 2.43  46 2.46  42 2.50  45 2.52  41 2.54  43 2.56  39 2.58

  45  0.580  0.319  0.551-  29 2.41  31 2.41  46 2.44  55 2.45  43 2.49  38 2.52  44 2.52  53 2.53

  46  0.639  0.388  0.632-  31 2.29  38 2.44  34 2.44  45 2.44  41 2.45  44 2.46
  47  0.416  0.383  0.324-  21 2.41  26 2.42  50 2.43  48 2.44  52 2.49  51 2.50  18 2.51  17 2.52

  48  0.518  0.388  0.256-  21 2.29  22 2.44  52 2.44  47 2.44  18 2.44  49 2.44
  49  0.619  0.385  0.324-  30 2.41  21 2.41  48 2.44  54 2.44  53 2.51  52 2.51  36 2.52  22 2.52

  50  0.320  0.385  0.398-  26 2.30  17 2.43  47 2.43  25 2.43  24 2.45  51 2.45
  51  0.417  0.316  0.430-  26 2.42  29 2.42  55 2.45  50 2.45  25 2.50  43 2.50  52 2.50  47 2.50

  52  0.518  0.318  0.357-  21 2.41  29 2.42  55 2.43  48 2.44  47 2.49  51 2.50  49 2.51  53 2.52

  53  0.620  0.319  0.431-  30 2.41  29 2.41  55 2.43  54 2.43  38 2.50  49 2.51  52 2.52  45 2.53

  54  0.715  0.390  0.400-  30 2.30  37 2.43  53 2.43  49 2.44  38 2.44  36 2.44
  55  0.520  0.259  0.462-  29 2.30  53 2.43  52 2.43  43 2.43  51 2.45  45 2.45
  56  0.396  0.430  0.716-  42 2.05  39 2.06
 

IMPORTANT INFORMATION: All symmetrisations will be switched off!
NOSYMM: (Re-)initialisation of all symmetry stuff for point group C_1.

 
 
 KPOINTS: 4x2x1                                   

Automatic generation of k-mesh.
Space group operators:
 irot       det(A)        alpha          n_x          n_y          n_z        tau_x        tau_y        tau_z
    1     1.000000     0.000000     1.000000     0.000000     0.000000     0.000000     0.000000     0.000000
 
 Subroutine IBZKPT returns following result:
 ===========================================
 
 Found      1 irreducible k-points:
 
 Following reciprocal coordinates:
            Coordinates               Weight
  0.000000  0.000000  0.000000      1.000000
 
 Following cartesian coordinates:
            Coordinates               Weight
  0.000000  0.000000  0.000000      1.000000
 
 
 Subroutine IBZKPT_HF returns following result:
 ==============================================
 
 Found      1 k-points in 1st BZ
 the following      1 k-points will be used (e.g. in the exchange kernel)
 Following reciprocal coordinates:   # in IRBZ
  0.000000  0.000000  0.000000    1.00000000   1 t-inv F


--------------------------------------------------------------------------------------------------------




 Dimension of arrays:
   k-points           NKPTS =      1   k-points in BZ     NKDIM =      1   number of bands    NBANDS=    380
   number of dos      NEDOS =    301   number of ions     NIONS =     56
   non local maximal  LDIM  =      6   non local SUM 2l+1 LMDIM =     18
   total plane-waves  NPLWV = 941192
   max r-space proj   IRMAX =   1898   max aug-charges    IRDMAX=   4013
   dimension x,y,z NGX =    98 NGY =   98 NGZ =   98
   dimension x,y,z NGXF=   196 NGYF=  196 NGZF=  196
   support grid    NGXF=   196 NGYF=  196 NGZF=  196
   ions per type =              55   1
   NGX,Y,Z   is equivalent  to a cutoff of   8.15,  8.15,  8.15 a.u.
   NGXF,Y,Z  is equivalent  to a cutoff of  16.29, 16.29, 16.29 a.u.

 SYSTEM =  TS_Vibrational_Calculation              
 POSCAR =  Ni   S                                  

 Startparameter for this run:
   NWRITE =      1    write-flag & timer
   PREC   = normal    normal or accurate (medium, high low for compatibility)
   ISTART =      0    job   : 0-new  1-cont  2-samecut
   ICHARG =      2    charge: 1-file 2-atom 10-const
   ISPIN  =      2    spin polarized calculation?
   LNONCOLLINEAR =      F non collinear calculations
   LSORBIT =      F    spin-orbit coupling
   INIWAV =      1    electr: 0-lowe 1-rand  2-diag
   LASPH  =      F    aspherical Exc in radial PAW
   METAGGA=      F    non-selfconsistent MetaGGA calc.

 Electronic Relaxation 1
   ENCUT  =  400.0 eV  29.40 Ry    5.42 a.u.  32.61 32.61 32.61*2*pi/ulx,y,z
   ENINI  =  400.0     initial cutoff
   ENAUG  =  544.6 eV  augmentation charge cutoff
   NELM   =    100;   NELMIN=  2; NELMDL= -8     # of ELM steps 
   EDIFF  = 0.1E-05   stopping-criterion for ELM
   LREAL  =      T    real-space projection
   NLSPLINE    = F    spline interpolate recip. space projectors
   LCOMPAT=      F    compatible to vasp.4.4
   GGA_COMPAT  = T    GGA compatible to vasp.4.4-vasp.4.6
   LMAXPAW     = -100 max onsite density
   LMAXMIX     =    2 max onsite mixed and CHGCAR
   VOSKOWN=      0    Vosko Wilk Nusair interpolation
   ROPT   =   -0.00020  -0.00020
 Ionic relaxation
   EDIFFG = 0.1E-03   stopping-criterion for IOM
   NSW    =    709    number of steps for IOM
   NBLOCK =      1;   KBLOCK =    709    inner block; outer block 
   IBRION =      5    ionic relax: 0-MD 1-quasi-New 2-CG
   NFREE  =      2    steps in history (QN), initial steepest desc. (CG)
   ISIF   =      2    stress and relaxation
   IWAVPR =     11    prediction:  0-non 1-charg 2-wave 3-comb
   ISYM   =      0    0-nonsym 1-usesym 2-fastsym
   LCORR  =      T    Harris-Foulkes like correction to forces

   POTIM  = 0.0250    time-step for ionic-motion
   TEIN   =    0.0    initial temperature
   TEBEG  =    0.0;   TEEND  =   0.0 temperature during run
   SMASS  =  -3.00    Nose mass-parameter (am)
   estimated Nose-frequenzy (Omega)   =  0.10E-29 period in steps =****** mass=  -0.914E-26a.u.
   SCALEE = 1.0000    scale energy and forces
   NPACO  =    256;   APACO  = 16.0  distance and # of slots for P.C.
   PSTRESS=    0.0 pullay stress

  Mass of Ions in am
   POMASS =  58.69 32.07
  Ionic Valenz
   ZVAL   =  10.00  6.00
  Atomic Wigner-Seitz radii
   RWIGS  =  -1.00 -1.00
  virtual crystal weights 
   VCA    =   1.00  1.00
   NELECT =     556.0000    total number of electrons
   NUPDOWN=      -1.0000    fix difference up-down

 DOS related values:
   EMIN   =  10.00;   EMAX   =-10.00  energy-range for DOS
   EFERMI =   0.00
   ISMEAR =     0;   SIGMA  =   0.10  broadening in eV -4-tet -1-fermi 0-gaus

 Electronic relaxation 2 (details)
   IALGO  =     68    algorithm
   LDIAG  =      T    sub-space diagonalisation (order eigenvalues)
   LSUBROT=      F    optimize rotation matrix (better conditioning)
   TURBO    =      0    0=normal 1=particle mesh
   IRESTART =      0    0=no restart 2=restart with 2 vectors
   NREBOOT  =      0    no. of reboots
   NMIN     =      0    reboot dimension
   EREF     =   0.00    reference energy to select bands
   IMIX   =      4    mixing-type and parameters
     AMIX     =   0.40;   BMIX     =  1.00
     AMIX_MAG =   1.60;   BMIX_MAG =  1.00
     AMIN     =   0.10
     WC   =   100.;   INIMIX=   1;  MIXPRE=   1;  MAXMIX= -45

 Intra band minimization:
   WEIMIN = 0.0010     energy-eigenvalue tresh-hold
   EBREAK =  0.66E-09  absolut break condition
   DEPER  =   0.30     relativ break condition  

   TIME   =   0.40     timestep for ELM

  volume/ion in A,a.u.               =     142.86       964.05
  Fermi-wavevector in a.u.,A,eV,Ry     =   0.673085  1.271946  6.164026  0.453043
  Thomas-Fermi vector in A             =   1.749399
 
 Write flags
   LWAVE        =      F    write WAVECAR
   LDOWNSAMPLE  =      F    k-point downsampling of WAVECAR
   LCHARG       =      F    write CHGCAR
   LVTOT        =      F    write LOCPOT, total local potential
   LVHAR        =      F    write LOCPOT, Hartree potential only
   LELF         =      F    write electronic localiz. function (ELF)
   LORBIT       =      0    0 simple, 1 ext, 2 COOP (PROOUT), +10 PAW based schemes


 Dipole corrections
   LMONO  =      F    monopole corrections only (constant potential shift)
   LDIPOL =      F    correct potential (dipole corrections)
   IDIPOL =      0    1-x, 2-y, 3-z, 4-all directions 
   EPSILON=  1.0000000 bulk dielectric constant

 Exchange correlation treatment:
   GGA     =    --    GGA type
   LEXCH   =     8    internal setting for exchange type
   VOSKOWN=      0    Vosko Wilk Nusair interpolation
   LHFCALC =     F    Hartree Fock is set to
   LHFONE  =     F    Hartree Fock one center treatment
   AEXX    =    0.0000 exact exchange contribution

 Linear response parameters
   LEPSILON=     F    determine dielectric tensor
   LRPA    =     F    only Hartree local field effects (RPA)
   LNABLA  =     F    use nabla operator in PAW spheres
   LVEL    =     F    velocity operator in full k-point grid
   LINTERFAST=   F  fast interpolation
   KINTER  =     0    interpolate to denser k-point grid
   CSHIFT  =0.1000    complex shift for real part using Kramers Kronig
   OMEGAMAX=  -1.0    maximum frequency
   DEG_THRESHOLD= 0.2000000E-02 threshold for treating states as degnerate
   RTIME   =   -0.100 relaxation time in fs
  (WPLASMAI=    0.000 imaginary part of plasma frequency in eV, 0.658/RTIME)
   DFIELD  = 0.0000000 0.0000000 0.0000000 field for delta impulse in time
 
 Orbital magnetization related:
   ORBITALMAG=     F  switch on orbital magnetization
   LCHIMAG   =     F  perturbation theory with respect to B field
   DQ        =  0.001000  dq finite difference perturbation B field
   LLRAUG    =     F  two centre corrections for induced B field



--------------------------------------------------------------------------------------------------------


 finite differences
   using selective dynamics as specified on POSCAR
 charge density and potential will be updated during run
 spin polarized calculation
 RMM-DIIS sequential band-by-band and
  variant of blocked Davidson during initial phase
 perform sub-space diagonalisation
    before iterative eigenvector-optimisation
 modified Broyden-mixing scheme, WC =      100.0
 initial mixing is a Kerker type mixing with AMIX =  0.4000 and BMIX =      1.0000
 Hartree-type preconditioning will be used
 using additional bands          102
 real space projection scheme for non local part
 use partial core corrections
 calculate Harris-corrections to forces 
   (improved forces if not selfconsistent)
 use gradient corrections 
 use of overlap-Matrix (Vanderbilt PP)
 Gauss-broadening in eV      SIGMA  =   0.10


--------------------------------------------------------------------------------------------------------


  energy-cutoff  :      400.00
  volume of cell :     8000.00
      direct lattice vectors                 reciprocal lattice vectors
    20.000000000  0.000000000  0.000000000     0.050000000  0.000000000  0.000000000
     0.000000000 20.000000000  0.000000000     0.000000000  0.050000000  0.000000000
     0.000000000  0.000000000 20.000000000     0.000000000  0.000000000  0.050000000

  length of vectors
    20.000000000 20.000000000 20.000000000     0.050000000  0.050000000  0.050000000


 
 k-points in units of 2pi/SCALE and weight: 4x2x1                                   
   0.00000000  0.00000000  0.00000000       1.000
 
 k-points in reciprocal lattice and weights: 4x2x1                                   
   0.00000000  0.00000000  0.00000000       1.000
 
 position of ions in fractional coordinates (direct lattice) 
   0.35059555  0.59501761  0.41086543
   0.45090719  0.66294973  0.37765121
   0.41284110  0.66208230  0.49770400
   0.51307191  0.72269137  0.46387751
   0.51485246  0.60796112  0.46322502
   0.57724527  0.66495149  0.37800875
   0.61566083  0.66500530  0.49736674
   0.31782748  0.59188781  0.52822603
   0.35160115  0.48832847  0.58490320
   0.41603084  0.54190472  0.49701160
   0.41381305  0.59727561  0.60413243
   0.51431278  0.66410087  0.57011240
   0.51550615  0.54345423  0.56919207
   0.61537036  0.54424618  0.49581643
   0.61701398  0.59909788  0.60332705
   0.39303065  0.59336239  0.29641129
   0.35195965  0.48919791  0.34432238
   0.45335450  0.49046312  0.27068606
   0.45397105  0.54230696  0.37934703
   0.51503518  0.59810181  0.29149918
   0.51687588  0.43874827  0.35923951
   0.57918523  0.49211839  0.27081487
   0.57729139  0.54417715  0.37923060
   0.31308234  0.48771696  0.46490179
   0.35294458  0.38099878  0.51508225
   0.41716471  0.43728441  0.43168409
   0.45461585  0.43690987  0.54904469
   0.51610223  0.49100055  0.46439627
   0.51748933  0.37377222  0.46401456
   0.61613368  0.43961384  0.43154867
   0.57795176  0.43935093  0.54913751
   0.67937995  0.60011617  0.41101122
   0.71224786  0.59647954  0.52821633
   0.67978949  0.49301492  0.58386700
   0.63693586  0.59638567  0.29678873
   0.68071337  0.49313160  0.34483779
   0.71934766  0.49278009  0.46432851
   0.68100622  0.38568624  0.51735863
   0.45497966  0.49503441  0.66200225
   0.51679361  0.59738556  0.67109172
   0.57931035  0.49243135  0.65741032
   0.39199795  0.37810961  0.62783357
   0.45565135  0.31599706  0.54816624
   0.51645231  0.38396810  0.63799405
   0.57999760  0.31865291  0.55083477
   0.63896848  0.38849968  0.63167895
   0.41634413  0.38278048  0.32384759
   0.51777046  0.38794470  0.25639869
   0.61920413  0.38541630  0.32407053
   0.32025208  0.38518031  0.39811756
   0.41660206  0.31618169  0.42958118
   0.51793665  0.31846450  0.35653653
   0.61998664  0.31942327  0.43061121
   0.71463740  0.38960072  0.40006729
   0.51987398  0.25876216  0.46229702
   0.39626656  0.42994809  0.71627353
 
 position of ions in cartesian coordinates  (Angst):
   7.01191095 11.90035218  8.21730860
   9.01814379 13.25899454  7.55302414
   8.25682202 13.24164601  9.95407994
  10.26143828 14.45382740  9.27755023
  10.29704917 12.15922241  9.26450034
  11.54490543 13.29902981  7.56017491
  12.31321652 13.30010595  9.94733486
   6.35654954 11.83775618 10.56452056
   7.03202300  9.76656946 11.69806398
   8.32061675 10.83809439  9.94023208
   8.27626108 11.94551226 12.08264866
  10.28625565 13.28201742 11.40224791
  10.31012294 10.86908461 11.38384142
  12.30740714 10.88492368  9.91632855
  12.34027970 11.98195768 12.06654104
   7.86061301 11.86724774  5.92822583
   7.03919307  9.78395827  6.88644766
   9.06709010  9.80926241  5.41372129
   9.07942104 10.84613928  7.58694054
  10.30070367 11.96203630  5.82998368
  10.33751768  8.77496543  7.18479014
  11.58370468  9.84236785  5.41629747
  11.54582776 10.88354310  7.58461195
   6.26164680  9.75433928  9.29803571
   7.05889164  7.61997563 10.30164498
   8.34329427  8.74568819  8.63368171
   9.09231698  8.73819744 10.98089379
  10.32204463  9.82001107  9.28792539
  10.34978650  7.47544450  9.28029125
  12.32267366  8.79227680  8.63097341
  11.55903527  8.78701864 10.98275027
  13.58759890 12.00232343  8.22022434
  14.24495730 11.92959083 10.56432666
  13.59578982  9.86029834 11.67734004
  12.73871725 11.92771342  5.93577462
  13.61426732  9.86263203  6.89675573
  14.38695318  9.85560176  9.28657026
  13.62012438  7.71372485 10.34717263
   9.09959327  9.90068830 13.24004503
  10.33587214 11.94771122 13.42183447
  11.58620693  9.84862708 13.14820641
   7.83995896  7.56219229 12.55667141
   9.11302691  6.31994119 10.96332490
  10.32904630  7.67936196 12.75988096
  11.59995194  6.37305821 11.01669547
  12.77936954  7.76999360 12.63357898
   8.32688258  7.65560965  6.47695178
  10.35540923  7.75889403  5.12797383
  12.38408258  7.70832603  6.48141051
   6.40504162  7.70360627  7.96235125
   8.33204113  6.32363379  8.59162370
  10.35873290  6.36929007  7.13073070
  12.39973272  6.38846535  8.61222413
  14.29274802  7.79201437  8.00134571
  10.39747960  5.17524325  9.24594048
   7.92533110  8.59896170 14.32547054
 


--------------------------------------------------------------------------------------------------------


 k-point  1 :   0.0000 0.0000 0.0000  plane waves:  145165

 maximum and minimum number of plane-waves per node :    145165   145165

 maximum number of plane-waves:    145165
 maximum index in each direction: 
   IXMAX=   32   IYMAX=   32   IZMAX=   32
   IXMIN=  -32   IYMIN=  -32   IZMIN=  -32


 serial   3D FFT for wavefunctions
 parallel 3D FFT for charge:
    minimum data exchange during FFTs selected (reduces bandwidth)


 total amount of memory used by VASP MPI-rank0   261483. kBytes
=======================================================================

   base      :      30000. kBytes
   nonlr-proj:      17491. kBytes
   fftplans  :      16788. kBytes
   grid      :     106586. kBytes
   one-center:       1741. kBytes
   wavefun   :      88877. kBytes
 
     INWAV:  cpu time    0.0000: real time    0.0001
 Broyden mixing: mesh for mixing (old mesh)
   NGX = 65   NGY = 65   NGZ = 65
  (NGX  =196   NGY  =196   NGZ  =196)
  gives a total of 274625 points

 initial charge density was supplied:
 charge density of overlapping atoms calculated
 number of electron     556.0000000 magnetization      56.0000000
 keeping initial charge density in first step


--------------------------------------------------------------------------------------------------------


 Maximum index for non-local projection operator         1811
 Maximum index for augmentation-charges          289 (set IRDMAX)


--------------------------------------------------------------------------------------------------------


 First call to EWALD:  gamma=   0.089
 Maximum number of real-space cells 3x 3x 3
 Maximum number of reciprocal cells 3x 3x 3

    FEWALD:  cpu time    0.0040: real time    0.0042


--------------------------------------- Iteration      1(   1)  ---------------------------------------


    POTLOK:  cpu time    0.9769: real time    0.9802
    SETDIJ:  cpu time    0.0240: real time    0.0231
     EDDAV:  cpu time   23.2945: real time   23.3739
       DOS:  cpu time    0.0030: real time    0.0030
    --------------------------------------------
      LOOP:  cpu time   24.2983: real time   24.3802

 eigenvalue-minimisations  :  1520
 total energy-change (2. order) : 0.2840121E+04  (-0.1616121E+05)
 number of electron     556.0000000 magnetization      56.0000000
 augmentation part      556.0000000 magnetization      56.0000000

 Free energy of the ion-electron system (eV)
  ---------------------------------------------------
  alpha Z        PSCENC =       387.12086559
  Ewald energy   TEWEN  =    182189.62761590
  -Hartree energ DENC   =   -236952.55219042
  -exchange      EXHF   =         0.00000000
  -V(xc)+E(xc)   XCENC  =      1724.63635971
  PAW double counting   =     47977.39182462   -51648.67119642
  entropy T*S    EENTRO =        -0.39995671
  eigenvalues    EBANDS =      -397.93489532
  atomic energy  EATOM  =     59560.90262231
  Solvation  Ediel_sol  =         0.00000000
  ---------------------------------------------------
  free energy    TOTEN  =      2840.12104927 eV

  energy without entropy =     2840.52100597  energy(sigma->0) =     2840.32102762


--------------------------------------------------------------------------------------------------------




--------------------------------------- Iteration      1(   2)  ---------------------------------------


     EDDAV:  cpu time   24.9012: real time   24.9847
       DOS:  cpu time    0.0030: real time    0.0030
    --------------------------------------------
      LOOP:  cpu time   24.9042: real time   24.9877

 eigenvalue-minimisations  :  1660
 total energy-change (2. order) :-0.2983601E+04  (-0.2881725E+04)
 number of electron     556.0000000 magnetization      56.0000000
 augmentation part      556.0000000 magnetization      56.0000000

 Free energy of the ion-electron system (eV)
  ---------------------------------------------------
  alpha Z        PSCENC =       387.12086559
  Ewald energy   TEWEN  =    182189.62761590
  -Hartree energ DENC   =   -236952.55219042
  -exchange      EXHF   =         0.00000000
  -V(xc)+E(xc)   XCENC  =      1724.63635971
  PAW double counting   =     47977.39182462   -51648.67119642
  entropy T*S    EENTRO =        -0.58472779
  eigenvalues    EBANDS =     -3381.35113268
  atomic energy  EATOM  =     59560.90262231
  Solvation  Ediel_sol  =         0.00000000
  ---------------------------------------------------
  free energy    TOTEN  =      -143.47995917 eV

  energy without entropy =     -142.89523138  energy(sigma->0) =     -143.18759528


--------------------------------------------------------------------------------------------------------




--------------------------------------- Iteration      1(   3)  ---------------------------------------


     EDDAV:  cpu time   26.7939: real time   26.8940
       DOS:  cpu time    0.0030: real time    0.0029
    --------------------------------------------
      LOOP:  cpu time   26.7969: real time   26.8969

 eigenvalue-minimisations  :  1820
 total energy-change (2. order) :-0.1594154E+03  (-0.1523233E+03)
 number of electron     556.0000000 magnetization      56.0000000
 augmentation part      556.0000000 magnetization      56.0000000

 Free energy of the ion-electron system (eV)
  ---------------------------------------------------
  alpha Z        PSCENC =       387.12086559
  Ewald energy   TEWEN  =    182189.62761590
  -Hartree energ DENC   =   -236952.55219042
  -exchange      EXHF   =         0.00000000
  -V(xc)+E(xc)   XCENC  =      1724.63635971
  PAW double counting   =     47977.39182462   -51648.67119642
  entropy T*S    EENTRO =        -0.49676303
  eigenvalues    EBANDS =     -3540.85447418
  atomic energy  EATOM  =     59560.90262231
  Solvation  Ediel_sol  =         0.00000000
  ---------------------------------------------------
  free energy    TOTEN  =      -302.89533591 eV

  energy without entropy =     -302.39857288  energy(sigma->0) =     -302.64695440


--------------------------------------------------------------------------------------------------------




--------------------------------------- Iteration      1(   4)  ---------------------------------------


     EDDAV:  cpu time   25.1842: real time   25.2665
       DOS:  cpu time    0.0030: real time    0.0030
    --------------------------------------------
      LOOP:  cpu time   25.1872: real time   25.2696

 eigenvalue-minimisations  :  1680
 total energy-change (2. order) :-0.3765483E+01  (-0.3708389E+01)
 number of electron     556.0000000 magnetization      56.0000000
 augmentation part      556.0000000 magnetization      56.0000000

 Free energy of the ion-electron system (eV)
  ---------------------------------------------------
  alpha Z        PSCENC =       387.12086559
  Ewald energy   TEWEN  =    182189.62761590
  -Hartree energ DENC   =   -236952.55219042
  -exchange      EXHF   =         0.00000000
  -V(xc)+E(xc)   XCENC  =      1724.63635971
  PAW double counting   =     47977.39182462   -51648.67119642
  entropy T*S    EENTRO =        -0.50699135
  eigenvalues    EBANDS =     -3544.60972916
  atomic energy  EATOM  =     59560.90262231
  Solvation  Ediel_sol  =         0.00000000
  ---------------------------------------------------
  free energy    TOTEN  =      -306.66081921 eV

  energy without entropy =     -306.15382786  energy(sigma->0) =     -306.40732354


--------------------------------------------------------------------------------------------------------




--------------------------------------- Iteration      1(   5)  ---------------------------------------


     EDDAV:  cpu time   25.8971: real time   25.9944
       DOS:  cpu time    0.0030: real time    0.0030
    --------------------------------------------
      LOOP:  cpu time   25.9001: real time   25.9974

 eigenvalue-minimisations  :  1740
 total energy-change (2. order) :-0.7842795E-01  (-0.7838965E-01)
 number of electron     556.0000000 magnetization      56.0000000
 augmentation part      556.0000000 magnetization      56.0000000

 Free energy of the ion-electron system (eV)
  ---------------------------------------------------
  alpha Z        PSCENC =       387.12086559
  Ewald energy   TEWEN  =    182189.62761590
  -Hartree energ DENC   =   -236952.55219042
  -exchange      EXHF   =         0.00000000
  -V(xc)+E(xc)   XCENC  =      1724.63635971
  PAW double counting   =     47977.39182462   -51648.67119642
  entropy T*S    EENTRO =        -0.50724168
  eigenvalues    EBANDS =     -3544.68790678
  atomic energy  EATOM  =     59560.90262231
  Solvation  Ediel_sol  =         0.00000000
  ---------------------------------------------------
  free energy    TOTEN  =      -306.73924716 eV

  energy without entropy =     -306.23200548  energy(sigma->0) =     -306.48562632


--------------------------------------------------------------------------------------------------------




--------------------------------------- Iteration      1(   6)  ---------------------------------------


     EDDAV:  cpu time   25.9741: real time   26.0627
       DOS:  cpu time    0.0030: real time    0.0030
    --------------------------------------------
      LOOP:  cpu time   25.9771: real time   26.0657

 eigenvalue-minimisations  :  1740
 total energy-change (2. order) :-0.2150903E-02  (-0.2150770E-02)
 number of electron     556.0000000 magnetization      56.0000000
 augmentation part      556.0000000 magnetization      56.0000000

 Free energy of the ion-electron system (eV)
  ---------------------------------------------------
  alpha Z        PSCENC =       387.12086559
  Ewald energy   TEWEN  =    182189.62761590
  -Hartree energ DENC   =   -236952.55219042
  -exchange      EXHF   =         0.00000000
  -V(xc)+E(xc)   XCENC  =      1724.63635971
  PAW double counting   =     47977.39182462   -51648.67119642
  entropy T*S    EENTRO =        -0.50725104
  eigenvalues    EBANDS =     -3544.69004833
  atomic energy  EATOM  =     59560.90262231
  Solvation  Ediel_sol  =         0.00000000
  ---------------------------------------------------
  free energy    TOTEN  =      -306.74139806 eV

  energy without entropy =     -306.23414703  energy(sigma->0) =     -306.48777255


--------------------------------------------------------------------------------------------------------




--------------------------------------- Iteration      1(   7)  ---------------------------------------


     EDDAV:  cpu time   29.7035: real time   29.8119
       DOS:  cpu time    0.0030: real time    0.0030
    --------------------------------------------
      LOOP:  cpu time   29.7065: real time   29.8150

 eigenvalue-minimisations  :  2080
 total energy-change (2. order) :-0.1158580E-03  (-0.1158551E-03)
 number of electron     556.0000000 magnetization      56.0000000
 augmentation part      556.0000000 magnetization      56.0000000

 Free energy of the ion-electron system (eV)
  ---------------------------------------------------
  alpha Z        PSCENC =       387.12086559
  Ewald energy   TEWEN  =    182189.62761590
  -Hartree energ DENC   =   -236952.55219042
  -exchange      EXHF   =         0.00000000
  -V(xc)+E(xc)   XCENC  =      1724.63635971
  PAW double counting   =     47977.39182462   -51648.67119642
  entropy T*S    EENTRO =        -0.50725163
  eigenvalues    EBANDS =     -3544.69016359
  atomic energy  EATOM  =     59560.90262231
  Solvation  Ediel_sol  =         0.00000000
  ---------------------------------------------------
  free energy    TOTEN  =      -306.74151392 eV

  energy without entropy =     -306.23426229  energy(sigma->0) =     -306.48788811


--------------------------------------------------------------------------------------------------------




--------------------------------------- Iteration      1(   8)  ---------------------------------------


     EDDAV:  cpu time   26.6160: real time   26.7052
       DOS:  cpu time    0.0040: real time    0.0031
    CHARGE:  cpu time    1.1058: real time    1.1099
    MIXING:  cpu time    0.0160: real time    0.0154
    --------------------------------------------
      LOOP:  cpu time   27.7418: real time   27.8336

 eigenvalue-minimisations  :  1800
 total energy-change (2. order) :-0.2493216E-05  (-0.2491584E-05)
 number of electron     556.0000269 magnetization      54.8557798
 augmentation part      315.9278068 magnetization      45.8080706

 Broyden mixing:
  rms(total) = 0.54428E+01    rms(broyden)= 0.54419E+01
  rms(prec ) = 0.59778E+01
  weight for this iteration     100.00

 Free energy of the ion-electron system (eV)
  ---------------------------------------------------
  alpha Z        PSCENC =       387.12086559
  Ewald energy   TEWEN  =    182189.62761590
  -Hartree energ DENC   =   -236952.55219042
  -exchange      EXHF   =         0.00000000
  -V(xc)+E(xc)   XCENC  =      1724.63635971
  PAW double counting   =     47977.39182462   -51648.67119642
  entropy T*S    EENTRO =        -0.50725166
  eigenvalues    EBANDS =     -3544.69016606
  atomic energy  EATOM  =     59560.90262231
  Solvation  Ediel_sol  =         0.00000000
  ---------------------------------------------------
  free energy    TOTEN  =      -306.74151642 eV

  energy without entropy =     -306.23426476  energy(sigma->0) =     -306.48789059


--------------------------------------------------------------------------------------------------------




--------------------------------------- Iteration      1(   9)  ---------------------------------------


    POTLOK:  cpu time    0.9539: real time    0.9574
    SETDIJ:  cpu time    0.0240: real time    0.0237
    EDDIAG:  cpu time    4.8233: real time    4.8372
  RMM-DIIS:  cpu time    9.5186: real time    9.5514
    ORTHCH:  cpu time    1.6737: real time    1.6800
       DOS:  cpu time    0.0010: real time    0.0011
    CHARGE:  cpu time    1.0738: real time    1.0789
    MIXING:  cpu time    0.0160: real time    0.0155
    --------------------------------------------
      LOOP:  cpu time   18.0843: real time   18.1453

 eigenvalue-minimisations  :  1523
 total energy-change (2. order) :-0.8612611E+02  (-0.5866404E+02)
 number of electron     556.0000307 magnetization      53.9029768
 augmentation part      349.0879246 magnetization      49.7121109

 Broyden mixing:
  rms(total) = 0.13058E+02    rms(broyden)= 0.13057E+02
  rms(prec ) = 0.15118E+02
  weight for this iteration     100.00

 eigenvalues of (default mixing * dielectric matrix)
  average eigenvalue GAMMA=   0.2216
  0.2216

 Free energy of the ion-electron system (eV)
  ---------------------------------------------------
  alpha Z        PSCENC =       387.12086559
  Ewald energy   TEWEN  =    182189.62761590
  -Hartree energ DENC   =   -236248.77844864
  -exchange      EXHF   =         0.00000000
  -V(xc)+E(xc)   XCENC  =      1671.46097398
  PAW double counting   =     47675.73949695   -51160.48405823
  entropy T*S    EENTRO =        -0.23804050
  eigenvalues    EBANDS =     -4468.21864927
  atomic energy  EATOM  =     59560.90262231
  Solvation  Ediel_sol  =         0.00000000
  ---------------------------------------------------
  free energy    TOTEN  =      -392.86762189 eV

  energy without entropy =     -392.62958140  energy(sigma->0) =     -392.74860165


--------------------------------------------------------------------------------------------------------




--------------------------------------- Iteration      1(  10)  ---------------------------------------


    POTLOK:  cpu time    0.9519: real time    0.9546
    SETDIJ:  cpu time    0.0240: real time    0.0239
    EDDIAG:  cpu time    4.8333: real time    4.8464
  RMM-DIIS:  cpu time    9.5505: real time    9.5840
    ORTHCH:  cpu time    1.6557: real time    1.6599
       DOS:  cpu time    0.0020: real time    0.0024
    CHARGE:  cpu time    1.0958: real time    1.0985
    MIXING:  cpu time    0.0220: real time    0.0222
    --------------------------------------------
      LOOP:  cpu time   18.1352: real time   18.1920

 eigenvalue-minimisations  :  1528
 total energy-change (2. order) : 0.6425171E+02  (-0.2753210E+02)
 number of electron     556.0000255 magnetization      53.0815696
 augmentation part      350.9173171 magnetization      45.3461954

 Broyden mixing:
  rms(total) = 0.77495E+01    rms(broyden)= 0.77482E+01
  rms(prec ) = 0.86451E+01
  weight for this iteration     100.00

 eigenvalues of (default mixing * dielectric matrix)
  average eigenvalue GAMMA=   0.2384
  0.3053  0.1715

 Free energy of the ion-electron system (eV)
  ---------------------------------------------------
  alpha Z        PSCENC =       387.12086559
  Ewald energy   TEWEN  =    182189.62761590
  -Hartree energ DENC   =   -236114.22407054
  -exchange      EXHF   =         0.00000000
  -V(xc)+E(xc)   XCENC  =      1675.91575829
  PAW double counting   =     47974.80936551   -51515.39953765
  entropy T*S    EENTRO =        -0.77378457
  eigenvalues    EBANDS =     -4486.59474395
  atomic energy  EATOM  =     59560.90262231
  Solvation  Ediel_sol  =         0.00000000
  ---------------------------------------------------
  free energy    TOTEN  =      -328.61590910 eV

  energy without entropy =     -327.84212452  energy(sigma->0) =     -328.22901681


--------------------------------------------------------------------------------------------------------




--------------------------------------- Iteration      1(  11)  ---------------------------------------


    POTLOK:  cpu time    0.9469: real time    0.9505
    SETDIJ:  cpu time    0.0250: real time    0.0252
    EDDIAG:  cpu time    4.8273: real time    4.8424
  RMM-DIIS:  cpu time    9.5365: real time    9.5716
    ORTHCH:  cpu time    1.6577: real time    1.6626
       DOS:  cpu time    0.0030: real time    0.0021
    CHARGE:  cpu time    1.0968: real time    1.1009
    MIXING:  cpu time    0.0190: real time    0.0182
    --------------------------------------------
      LOOP:  cpu time   18.1122: real time   18.1735

 eigenvalue-minimisations  :  1528
 total energy-change (2. order) : 0.3657934E+02  (-0.1032063E+02)
 number of electron     556.0000357 magnetization      52.1478943
 augmentation part      346.1304892 magnetization      43.0643612

 Broyden mixing:
  rms(total) = 0.96599E+01    rms(broyden)= 0.96593E+01
  rms(prec ) = 0.10685E+02
  weight for this iteration     100.00

 eigenvalues of (default mixing * dielectric matrix)
  average eigenvalue GAMMA=   0.3097
  0.6253  0.1519  0.1519

 Free energy of the ion-electron system (eV)
  ---------------------------------------------------
  alpha Z        PSCENC =       387.12086559
  Ewald energy   TEWEN  =    182189.62761590
  -Hartree energ DENC   =   -236414.65450367
  -exchange      EXHF   =         0.00000000
  -V(xc)+E(xc)   XCENC  =      1682.42899376
  PAW double counting   =     48496.85371529   -52117.87197903
  entropy T*S    EENTRO =        -0.39436840
  eigenvalues    EBANDS =     -4076.04953481
  atomic energy  EATOM  =     59560.90262231
  Solvation  Ediel_sol  =         0.00000000
  ---------------------------------------------------
  free energy    TOTEN  =      -292.03657305 eV

  energy without entropy =     -291.64220465  energy(sigma->0) =     -291.83938885


--------------------------------------------------------------------------------------------------------




--------------------------------------- Iteration      1(  12)  ---------------------------------------


    POTLOK:  cpu time    0.9429: real time    0.9455
    SETDIJ:  cpu time    0.0240: real time    0.0245
    EDDIAG:  cpu time    4.8323: real time    4.8480
  RMM-DIIS:  cpu time    9.5595: real time    9.5930
    ORTHCH:  cpu time    1.6737: real time    1.6782
       DOS:  cpu time    0.0020: real time    0.0016
    CHARGE:  cpu time    1.0938: real time    1.0974
    MIXING:  cpu time    0.0180: real time    0.0180
    --------------------------------------------
      LOOP:  cpu time   18.1462: real time   18.2061

 eigenvalue-minimisations  :  1528
 total energy-change (2. order) : 0.2604989E+02  (-0.4554940E+01)
 number of electron     556.0000285 magnetization      51.9083129
 augmentation part      340.0684312 magnetization      42.8069849

 Broyden mixing:
  rms(total) = 0.50705E+01    rms(broyden)= 0.50695E+01
  rms(prec ) = 0.56075E+01
  weight for this iteration     100.00

 eigenvalues of (default mixing * dielectric matrix)
  average eigenvalue GAMMA=   0.2751
  0.6409  0.1799  0.1799  0.0997

 Free energy of the ion-electron system (eV)
  ---------------------------------------------------
  alpha Z        PSCENC =       387.12086559
  Ewald energy   TEWEN  =    182189.62761590
  -Hartree energ DENC   =   -236696.43793447
  -exchange      EXHF   =         0.00000000
  -V(xc)+E(xc)   XCENC  =      1688.13931100
  PAW double counting   =     48995.61259048   -52690.04401093
  entropy T*S    EENTRO =        -0.75228281
  eigenvalues    EBANDS =     -3700.15546002
  atomic energy  EATOM  =     59560.90262231
  Solvation  Ediel_sol  =         0.00000000
  ---------------------------------------------------
  free energy    TOTEN  =      -265.98668294 eV

  energy without entropy =     -265.23440014  energy(sigma->0) =     -265.61054154


--------------------------------------------------------------------------------------------------------




--------------------------------------- Iteration      1(  13)  ---------------------------------------


    POTLOK:  cpu time    0.9479: real time    0.9504
    SETDIJ:  cpu time    0.0250: real time    0.0248
    EDDIAG:  cpu time    4.8313: real time    4.8482
  RMM-DIIS:  cpu time    9.5745: real time    9.6087
    ORTHCH:  cpu time    1.6587: real time    1.6622
       DOS:  cpu time    0.0010: real time    0.0014
    CHARGE:  cpu time    1.0938: real time    1.0972
    MIXING:  cpu time    0.0200: real time    0.0191
    --------------------------------------------
      LOOP:  cpu time   18.1522: real time   18.2120

 eigenvalue-minimisations  :  1528
 total energy-change (2. order) : 0.1100055E+01  (-0.5545008E+00)
 number of electron     556.0000250 magnetization      51.3387947
 augmentation part      340.1980885 magnetization      42.2402876

 Broyden mixing:
  rms(total) = 0.51833E+01    rms(broyden)= 0.51825E+01
  rms(prec ) = 0.58495E+01
  weight for this iteration     100.00

 eigenvalues of (default mixing * dielectric matrix)
  average eigenvalue GAMMA=   0.2904
  0.7100  0.4018  0.1482  0.1211  0.0707

 Free energy of the ion-electron system (eV)
  ---------------------------------------------------
  alpha Z        PSCENC =       387.12086559
  Ewald energy   TEWEN  =    182189.62761590
  -Hartree energ DENC   =   -236719.02439055
  -exchange      EXHF   =         0.00000000
  -V(xc)+E(xc)   XCENC  =      1687.67131884
  PAW double counting   =     49073.28112162   -52774.27850399
  entropy T*S    EENTRO =        -0.64420878
  eigenvalues    EBANDS =     -3669.54306884
  atomic energy  EATOM  =     59560.90262231
  Solvation  Ediel_sol  =         0.00000000
  ---------------------------------------------------
  free energy    TOTEN  =      -264.88662789 eV

  energy without entropy =     -264.24241911  energy(sigma->0) =     -264.56452350


--------------------------------------------------------------------------------------------------------




--------------------------------------- Iteration      1(  14)  ---------------------------------------


    POTLOK:  cpu time    0.9439: real time    0.9476
    SETDIJ:  cpu time    0.0250: real time    0.0245
    EDDIAG:  cpu time    4.8483: real time    4.8628
  RMM-DIIS:  cpu time    9.5765: real time    9.6102
    ORTHCH:  cpu time    1.6567: real time    1.6630
       DOS:  cpu time    0.0020: real time    0.0018
    CHARGE:  cpu time    1.1158: real time    1.1197
    MIXING:  cpu time    0.0220: real time    0.0209
    --------------------------------------------
      LOOP:  cpu time   18.1902: real time   18.2506

 eigenvalue-minimisations  :  1528
 total energy-change (2. order) : 0.1912738E+01  (-0.5435982E+00)
 number of electron     556.0000241 magnetization      50.8763741
 augmentation part      339.8639328 magnetization      42.4523535

 Broyden mixing:
  rms(total) = 0.54025E+01    rms(broyden)= 0.54014E+01
  rms(prec ) = 0.61811E+01
  weight for this iteration     100.00

 eigenvalues of (default mixing * dielectric matrix)
  average eigenvalue GAMMA=   0.2782
  0.7794  0.4700  0.1410  0.1140  0.1140  0.0509

 Free energy of the ion-electron system (eV)
  ---------------------------------------------------
  alpha Z        PSCENC =       387.12086559
  Ewald energy   TEWEN  =    182189.62761590
  -Hartree energ DENC   =   -236773.27172466
  -exchange      EXHF   =         0.00000000
  -V(xc)+E(xc)   XCENC  =      1688.32238747
  PAW double counting   =     49256.36565989   -52972.02857248
  entropy T*S    EENTRO =        -0.53094877
  eigenvalues    EBANDS =     -3599.48179516
  atomic energy  EATOM  =     59560.90262231
  Solvation  Ediel_sol  =         0.00000000
  ---------------------------------------------------
  free energy    TOTEN  =      -262.97388990 eV

  energy without entropy =     -262.44294113  energy(sigma->0) =     -262.70841551


--------------------------------------------------------------------------------------------------------




--------------------------------------- Iteration      1(  15)  ---------------------------------------


    POTLOK:  cpu time    0.9379: real time    0.9411
    SETDIJ:  cpu time    0.0250: real time    0.0245
    EDDIAG:  cpu time    4.8333: real time    4.8476
  RMM-DIIS:  cpu time    9.5415: real time    9.5751
    ORTHCH:  cpu time    1.6577: real time    1.6616
       DOS:  cpu time    0.0030: real time    0.0027
    CHARGE:  cpu time    1.1338: real time    1.1388
    MIXING:  cpu time    0.0230: real time    0.0223
    --------------------------------------------
      LOOP:  cpu time   18.1552: real time   18.2137

 eigenvalue-minimisations  :  1528
 total energy-change (2. order) : 0.4160095E+01  (-0.3739186E+00)
 number of electron     556.0000314 magnetization      50.3163815
 augmentation part      339.4091064 magnetization      42.5287284

 Broyden mixing:
  rms(total) = 0.36843E+01    rms(broyden)= 0.36830E+01
  rms(prec ) = 0.41180E+01
  weight for this iteration     100.00

 eigenvalues of (default mixing * dielectric matrix)
  average eigenvalue GAMMA=   0.2669
  0.8222  0.4591  0.1644  0.1644  0.1384  0.0676  0.0520

 Free energy of the ion-electron system (eV)
  ---------------------------------------------------
  alpha Z        PSCENC =       387.12086559
  Ewald energy   TEWEN  =    182189.62761590
  -Hartree energ DENC   =   -236811.99097235
  -exchange      EXHF   =         0.00000000
  -V(xc)+E(xc)   XCENC  =      1688.68892631
  PAW double counting   =     49395.81406305   -53121.76501829
  entropy T*S    EENTRO =        -0.60102558
  eigenvalues    EBANDS =     -3546.61087179
  atomic energy  EATOM  =     59560.90262231
  Solvation  Ediel_sol  =         0.00000000
  ---------------------------------------------------
  free energy    TOTEN  =      -258.81379485 eV

  energy without entropy =     -258.21276927  energy(sigma->0) =     -258.51328206


--------------------------------------------------------------------------------------------------------




--------------------------------------- Iteration      1(  16)  ---------------------------------------


    POTLOK:  cpu time    0.9429: real time    0.9474
    SETDIJ:  cpu time    0.0250: real time    0.0245
    EDDIAG:  cpu time    4.8233: real time    4.8371
  RMM-DIIS:  cpu time    9.5505: real time    9.5849
    ORTHCH:  cpu time    1.6607: real time    1.6653
       DOS:  cpu time    0.0030: real time    0.0028
    CHARGE:  cpu time    1.1228: real time    1.1264
    MIXING:  cpu time    0.0250: real time    0.0242
    --------------------------------------------
      LOOP:  cpu time   18.1532: real time   18.2127

 eigenvalue-minimisations  :  1528
 total energy-change (2. order) : 0.2021920E+01  (-0.3188154E+00)
 number of electron     556.0000284 magnetization      50.1506473
 augmentation part      339.4084902 magnetization      42.4300116

 Broyden mixing:
  rms(total) = 0.30567E+01    rms(broyden)= 0.30559E+01
  rms(prec ) = 0.33907E+01
  weight for this iteration     100.00

 eigenvalues of (default mixing * dielectric matrix)
  average eigenvalue GAMMA=   0.2440
  0.8049  0.3417  0.2338  0.2338  0.1358  0.0759  0.0759  0.0502

 Free energy of the ion-electron system (eV)
  ---------------------------------------------------
  alpha Z        PSCENC =       387.12086559
  Ewald energy   TEWEN  =    182189.62761590
  -Hartree energ DENC   =   -236850.62851354
  -exchange      EXHF   =         0.00000000
  -V(xc)+E(xc)   XCENC  =      1689.17846484
  PAW double counting   =     49553.30191314   -53289.55890331
  entropy T*S    EENTRO =        -0.54339832
  eigenvalues    EBANDS =     -3496.19254105
  atomic energy  EATOM  =     59560.90262231
  Solvation  Ediel_sol  =         0.00000000
  ---------------------------------------------------
  free energy    TOTEN  =      -256.79187443 eV

  energy without entropy =     -256.24847611  energy(sigma->0) =     -256.52017527


--------------------------------------------------------------------------------------------------------




--------------------------------------- Iteration      1(  17)  ---------------------------------------


    POTLOK:  cpu time    0.9509: real time    0.9545
    SETDIJ:  cpu time    0.0240: real time    0.0236
    EDDIAG:  cpu time    4.8373: real time    4.8534
  RMM-DIIS:  cpu time    9.5455: real time    9.5785
    ORTHCH:  cpu time    1.6587: real time    1.6636
       DOS:  cpu time    0.0020: real time    0.0018
    CHARGE:  cpu time    1.1178: real time    1.1210
    MIXING:  cpu time    0.0250: real time    0.0254
    --------------------------------------------
      LOOP:  cpu time   18.1612: real time   18.2217

 eigenvalue-minimisations  :  1528
 total energy-change (2. order) : 0.1041206E+01  (-0.7248040E-01)
 number of electron     556.0000278 magnetization      50.0456199
 augmentation part      339.4319006 magnetization      42.4348002

 Broyden mixing:
  rms(total) = 0.23972E+01    rms(broyden)= 0.23969E+01
  rms(prec ) = 0.26435E+01
  weight for this iteration     100.00

 eigenvalues of (default mixing * dielectric matrix)
  average eigenvalue GAMMA=   0.2451
  0.7756  0.3938  0.3938  0.1937  0.1370  0.0986  0.0986  0.0636  0.0511

 Free energy of the ion-electron system (eV)
  ---------------------------------------------------
  alpha Z        PSCENC =       387.12086559
  Ewald energy   TEWEN  =    182189.62761590
  -Hartree energ DENC   =   -236855.87221659
  -exchange      EXHF   =         0.00000000
  -V(xc)+E(xc)   XCENC  =      1689.30048540
  PAW double counting   =     49592.60307251   -53330.18124795
  entropy T*S    EENTRO =        -0.55177490
  eigenvalues    EBANDS =     -3488.70009021
  atomic energy  EATOM  =     59560.90262231
  Solvation  Ediel_sol  =         0.00000000
  ---------------------------------------------------
  free energy    TOTEN  =      -255.75066794 eV

  energy without entropy =     -255.19889304  energy(sigma->0) =     -255.47478049


--------------------------------------------------------------------------------------------------------




--------------------------------------- Iteration      1(  18)  ---------------------------------------


    POTLOK:  cpu time    0.9419: real time    0.9442
    SETDIJ:  cpu time    0.0240: real time    0.0242
    EDDIAG:  cpu time    4.8303: real time    4.8457
  RMM-DIIS:  cpu time    9.5655: real time    9.6003
    ORTHCH:  cpu time    1.6587: real time    1.6617
       DOS:  cpu time    0.0030: real time    0.0024
    CHARGE:  cpu time    1.1168: real time    1.1210
    MIXING:  cpu time    0.0280: real time    0.0275
    --------------------------------------------
      LOOP:  cpu time   18.1682: real time   18.2269

 eigenvalue-minimisations  :  1528
 total energy-change (2. order) : 0.6864454E+00  (-0.2570835E-01)
 number of electron     556.0000279 magnetization      49.8075718
 augmentation part      339.5407092 magnetization      42.2163479

 Broyden mixing:
  rms(total) = 0.18189E+01    rms(broyden)= 0.18188E+01
  rms(prec ) = 0.19892E+01
  weight for this iteration     100.00

 eigenvalues of (default mixing * dielectric matrix)
  average eigenvalue GAMMA=   0.2612
  0.7590  0.5232  0.5232  0.1933  0.1454  0.1371  0.1371  0.0506  0.0760  0.0676

 Free energy of the ion-electron system (eV)
  ---------------------------------------------------
  alpha Z        PSCENC =       387.12086559
  Ewald energy   TEWEN  =    182189.62761590
  -Hartree energ DENC   =   -236855.66057999
  -exchange      EXHF   =         0.00000000
  -V(xc)+E(xc)   XCENC  =      1689.39886786
  PAW double counting   =     49611.22376933   -53348.43511860
  entropy T*S    EENTRO =        -0.58761526
  eigenvalues    EBANDS =     -3488.65464966
  atomic energy  EATOM  =     59560.90262231
  Solvation  Ediel_sol  =         0.00000000
  ---------------------------------------------------
  free energy    TOTEN  =      -255.06422250 eV

  energy without entropy =     -254.47660724  energy(sigma->0) =     -254.77041487


--------------------------------------------------------------------------------------------------------




--------------------------------------- Iteration      1(  19)  ---------------------------------------


    POTLOK:  cpu time    0.9459: real time    0.9487
    SETDIJ:  cpu time    0.0230: real time    0.0233
    EDDIAG:  cpu time    4.8303: real time    4.8446
  RMM-DIIS:  cpu time    9.5595: real time    9.5933
    ORTHCH:  cpu time    1.6587: real time    1.6649
       DOS:  cpu time    0.0020: real time    0.0015
    CHARGE:  cpu time    1.1108: real time    1.1147
    MIXING:  cpu time    0.0310: real time    0.0306
    --------------------------------------------
      LOOP:  cpu time   18.1612: real time   18.2216

 eigenvalue-minimisations  :  1528
 total energy-change (2. order) : 0.3563092E+00  (-0.5920850E-01)
 number of electron     556.0000286 magnetization      49.1869671
 augmentation part      339.7587014 magnetization      41.6254535

 Broyden mixing:
  rms(total) = 0.16809E+01    rms(broyden)= 0.16805E+01
  rms(prec ) = 0.18895E+01
  weight for this iteration     100.00

 eigenvalues of (default mixing * dielectric matrix)
  average eigenvalue GAMMA=   0.3011
  0.8067  0.7070  0.7070  0.3612  0.1581  0.1436  0.1436  0.0853  0.0853  0.0508
  0.0632

 Free energy of the ion-electron system (eV)
  ---------------------------------------------------
  alpha Z        PSCENC =       387.12086559
  Ewald energy   TEWEN  =    182189.62761590
  -Hartree energ DENC   =   -236860.53069666
  -exchange      EXHF   =         0.00000000
  -V(xc)+E(xc)   XCENC  =      1689.62700082
  PAW double counting   =     49655.15866441   -53392.75294698
  entropy T*S    EENTRO =        -0.63679938
  eigenvalues    EBANDS =     -3483.22423930
  atomic energy  EATOM  =     59560.90262231
  Solvation  Ediel_sol  =         0.00000000
  ---------------------------------------------------
  free energy    TOTEN  =      -254.70791328 eV

  energy without entropy =     -254.07111390  energy(sigma->0) =     -254.38951359


--------------------------------------------------------------------------------------------------------




--------------------------------------- Iteration      1(  20)  ---------------------------------------


    POTLOK:  cpu time    0.9409: real time    0.9445
    SETDIJ:  cpu time    0.0250: real time    0.0241
    EDDIAG:  cpu time    4.8923: real time    4.9073
  RMM-DIIS:  cpu time    9.5725: real time    9.6065
    ORTHCH:  cpu time    1.6577: real time    1.6619
       DOS:  cpu time    0.0020: real time    0.0021
    CHARGE:  cpu time    1.1048: real time    1.1094
    MIXING:  cpu time    0.0370: real time    0.0369
    --------------------------------------------
      LOOP:  cpu time   18.2322: real time   18.2926

 eigenvalue-minimisations  :  1528
 total energy-change (2. order) :-0.6572026E+00  (-0.9527086E-01)
 number of electron     556.0000298 magnetization      48.4771569
 augmentation part      340.0013754 magnetization      41.1448461

 Broyden mixing:
  rms(total) = 0.25693E+01    rms(broyden)= 0.25687E+01
  rms(prec ) = 0.29986E+01
  weight for this iteration     100.00

 eigenvalues of (default mixing * dielectric matrix)
  average eigenvalue GAMMA=   0.3208
  0.9286  0.8226  0.8226  0.4693  0.1611  0.1403  0.1403  0.0953  0.0953  0.0655
  0.0507  0.0579

 Free energy of the ion-electron system (eV)
  ---------------------------------------------------
  alpha Z        PSCENC =       387.12086559
  Ewald energy   TEWEN  =    182189.62761590
  -Hartree energ DENC   =   -236891.37700687
  -exchange      EXHF   =         0.00000000
  -V(xc)+E(xc)   XCENC  =      1689.69754858
  PAW double counting   =     49783.43872822   -53526.75955386
  entropy T*S    EENTRO =        -0.64797147
  eigenvalues    EBANDS =     -3447.36796431
  atomic energy  EATOM  =     59560.90262231
  Solvation  Ediel_sol  =         0.00000000
  ---------------------------------------------------
  free energy    TOTEN  =      -255.36511590 eV

  energy without entropy =     -254.71714443  energy(sigma->0) =     -255.04113016


--------------------------------------------------------------------------------------------------------




--------------------------------------- Iteration      1(  21)  ---------------------------------------


    POTLOK:  cpu time    0.9409: real time    0.9441
    SETDIJ:  cpu time    0.0250: real time    0.0241
    EDDIAG:  cpu time    4.8513: real time    4.8661
  RMM-DIIS:  cpu time    9.5545: real time    9.5878
    ORTHCH:  cpu time    1.6627: real time    1.6665
       DOS:  cpu time    0.0020: real time    0.0017
    CHARGE:  cpu time    1.1038: real time    1.1082
    MIXING:  cpu time    0.0390: real time    0.0387
    --------------------------------------------
      LOOP:  cpu time   18.1792: real time   18.2372

 eigenvalue-minimisations  :  1528
 total energy-change (2. order) : 0.1613244E+01  (-0.9346919E-01)
 number of electron     556.0000284 magnetization      48.1938066
 augmentation part      339.9307285 magnetization      41.2714079

 Broyden mixing:
  rms(total) = 0.10452E+01    rms(broyden)= 0.10443E+01
  rms(prec ) = 0.11796E+01
  weight for this iteration     100.00

 eigenvalues of (default mixing * dielectric matrix)
  average eigenvalue GAMMA=   0.3151
  0.9718  0.8468  0.8468  0.4672  0.1726  0.1536  0.1536  0.1163  0.1163  0.0786
  0.0658  0.0509  0.0556

 Free energy of the ion-electron system (eV)
  ---------------------------------------------------
  alpha Z        PSCENC =       387.12086559
  Ewald energy   TEWEN  =    182189.62761590
  -Hartree energ DENC   =   -236929.54086531
  -exchange      EXHF   =         0.00000000
  -V(xc)+E(xc)   XCENC  =      1689.70915237
  PAW double counting   =     49926.27713645   -53676.63265757
  entropy T*S    EENTRO =        -0.68373278
  eigenvalues    EBANDS =     -3400.53200849
  atomic energy  EATOM  =     59560.90262231
  Solvation  Ediel_sol  =         0.00000000
  ---------------------------------------------------
  free energy    TOTEN  =      -253.75187152 eV

  energy without entropy =     -253.06813874  energy(sigma->0) =     -253.41000513


--------------------------------------------------------------------------------------------------------




--------------------------------------- Iteration      1(  22)  ---------------------------------------


    POTLOK:  cpu time    0.9429: real time    0.9451
    SETDIJ:  cpu time    0.0220: real time    0.0228
    EDDIAG:  cpu time    4.8713: real time    4.8867
  RMM-DIIS:  cpu time    9.5345: real time    9.5678
    ORTHCH:  cpu time    1.6687: real time    1.6732
       DOS:  cpu time    0.0040: real time    0.0039
    CHARGE:  cpu time    1.1178: real time    1.1213
    MIXING:  cpu time    0.0430: real time    0.0425
    --------------------------------------------
      LOOP:  cpu time   18.2042: real time   18.2633

 eigenvalue-minimisations  :  1528
 total energy-change (2. order) : 0.1622260E+00  (-0.4654452E-01)
 number of electron     556.0000285 magnetization      47.6545336
 augmentation part      339.9784584 magnetization      40.8004244

 Broyden mixing:
  rms(total) = 0.90881E+00    rms(broyden)= 0.90838E+00
  rms(prec ) = 0.10261E+01
  weight for this iteration     100.00

 eigenvalues of (default mixing * dielectric matrix)
  average eigenvalue GAMMA=   0.3329
  1.0640  0.9055  0.9055  0.4463  0.4463  0.1524  0.1524  0.1257  0.1257  0.0831
  0.0831  0.0651  0.0508  0.0550

 Free energy of the ion-electron system (eV)
  ---------------------------------------------------
  alpha Z        PSCENC =       387.12086559
  Ewald energy   TEWEN  =    182189.62761590
  -Hartree energ DENC   =   -236942.00621008
  -exchange      EXHF   =         0.00000000
  -V(xc)+E(xc)   XCENC  =      1689.66979524
  PAW double counting   =     49969.78449320   -53722.08683676
  entropy T*S    EENTRO =        -0.66829881
  eigenvalues    EBANDS =     -3385.93369214
  atomic energy  EATOM  =     59560.90262231
  Solvation  Ediel_sol  =         0.00000000
  ---------------------------------------------------
  free energy    TOTEN  =      -253.58964552 eV

  energy without entropy =     -252.92134672  energy(sigma->0) =     -253.25549612


--------------------------------------------------------------------------------------------------------




--------------------------------------- Iteration      1(  23)  ---------------------------------------


    POTLOK:  cpu time    0.9439: real time    0.9476
    SETDIJ:  cpu time    0.0240: real time    0.0235
    EDDIAG:  cpu time    4.8563: real time    4.8736
  RMM-DIIS:  cpu time    9.5545: real time    9.5861
    ORTHCH:  cpu time    1.6657: real time    1.6699
       DOS:  cpu time    0.0020: real time    0.0019
    CHARGE:  cpu time    1.1088: real time    1.1130
    MIXING:  cpu time    0.0470: real time    0.0461
    --------------------------------------------
      LOOP:  cpu time   18.2022: real time   18.2618

 eigenvalue-minimisations  :  1528
 total energy-change (2. order) :-0.4744644E+00  (-0.4356514E-01)
 number of electron     556.0000295 magnetization      47.0433980
 augmentation part      340.1714755 magnetization      40.4202437

 Broyden mixing:
  rms(total) = 0.14123E+01    rms(broyden)= 0.14118E+01
  rms(prec ) = 0.16059E+01
  weight for this iteration     100.00

 eigenvalues of (default mixing * dielectric matrix)
  average eigenvalue GAMMA=   0.3460
  1.2083  0.9504  0.9504  0.5459  0.5459  0.1539  0.1539  0.1264  0.1264  0.1070
  0.0847  0.0655  0.0655  0.0508  0.0550

 Free energy of the ion-electron system (eV)
  ---------------------------------------------------
  alpha Z        PSCENC =       387.12086559
  Ewald energy   TEWEN  =    182189.62761590
  -Hartree energ DENC   =   -236963.12315672
  -exchange      EXHF   =         0.00000000
  -V(xc)+E(xc)   XCENC  =      1689.35414504
  PAW double counting   =     50035.60953018   -53790.52652831
  entropy T*S    EENTRO =        -0.68254461
  eigenvalues    EBANDS =     -3362.34665930
  atomic energy  EATOM  =     59560.90262231
  Solvation  Ediel_sol  =         0.00000000
  ---------------------------------------------------
  free energy    TOTEN  =      -254.06410990 eV

  energy without entropy =     -253.38156530  energy(sigma->0) =     -253.72283760


--------------------------------------------------------------------------------------------------------




--------------------------------------- Iteration      1(  24)  ---------------------------------------


    POTLOK:  cpu time    0.9409: real time    0.9446
    SETDIJ:  cpu time    0.0250: real time    0.0241
    EDDIAG:  cpu time    4.8333: real time    4.8499
  RMM-DIIS:  cpu time    9.5415: real time    9.5760
    ORTHCH:  cpu time    1.6677: real time    1.6720
       DOS:  cpu time    0.0020: real time    0.0016
    CHARGE:  cpu time    1.0808: real time    1.0844
    MIXING:  cpu time    0.0510: real time    0.0508
    --------------------------------------------
      LOOP:  cpu time   18.1422: real time   18.2034

 eigenvalue-minimisations  :  1526
 total energy-change (2. order) :-0.1785729E+00  (-0.3772503E-01)
 number of electron     556.0000278 magnetization      46.8466211
 augmentation part      340.2646844 magnetization      40.5280991

 Broyden mixing:
  rms(total) = 0.76474E+00    rms(broyden)= 0.76408E+00
  rms(prec ) = 0.87661E+00
  weight for this iteration     100.00

 eigenvalues of (default mixing * dielectric matrix)
  average eigenvalue GAMMA=   0.3407
  1.2509  0.9681  0.9681  0.5578  0.5578  0.1856  0.1628  0.1350  0.1350  0.1212
  0.0940  0.0820  0.0508  0.0653  0.0624  0.0542

 Free energy of the ion-electron system (eV)
  ---------------------------------------------------
  alpha Z        PSCENC =       387.12086559
  Ewald energy   TEWEN  =    182189.62761590
  -Hartree energ DENC   =   -236986.97002140
  -exchange      EXHF   =         0.00000000
  -V(xc)+E(xc)   XCENC  =      1688.77931169
  PAW double counting   =     50100.59148117   -53858.12975342
  entropy T*S    EENTRO =        -0.69213641
  eigenvalues    EBANDS =     -3335.47266828
  atomic energy  EATOM  =     59560.90262231
  Solvation  Ediel_sol  =         0.00000000
  ---------------------------------------------------
  free energy    TOTEN  =      -254.24268284 eV

  energy without entropy =     -253.55054643  energy(sigma->0) =     -253.89661463


--------------------------------------------------------------------------------------------------------




--------------------------------------- Iteration      1(  25)  ---------------------------------------


    POTLOK:  cpu time    0.9489: real time    0.9509
    SETDIJ:  cpu time    0.0240: real time    0.0240
    EDDIAG:  cpu time    4.8613: real time    4.8764
  RMM-DIIS:  cpu time    9.5635: real time    9.5967
    ORTHCH:  cpu time    1.6677: real time    1.6726
       DOS:  cpu time    0.0030: real time    0.0027
    CHARGE:  cpu time    1.0808: real time    1.0844
    MIXING:  cpu time    0.0560: real time    0.0562
    --------------------------------------------
      LOOP:  cpu time   18.2052: real time   18.2640

 eigenvalue-minimisations  :  1528
 total energy-change (2. order) :-0.2703397E-01  (-0.1447330E-01)
 number of electron     556.0000287 magnetization      46.5472118
 augmentation part      340.2795054 magnetization      40.3054682

 Broyden mixing:
  rms(total) = 0.72580E+00    rms(broyden)= 0.72548E+00
  rms(prec ) = 0.85019E+00
  weight for this iteration     100.00

 eigenvalues of (default mixing * dielectric matrix)
  average eigenvalue GAMMA=   0.3485
  1.3338  0.9702  0.9702  0.6003  0.6003  0.4150  0.1527  0.1380  0.1380  0.1277
  0.1013  0.0841  0.0665  0.0648  0.0508  0.0552  0.0552

 Free energy of the ion-electron system (eV)
  ---------------------------------------------------
  alpha Z        PSCENC =       387.12086559
  Ewald energy   TEWEN  =    182189.62761590
  -Hartree energ DENC   =   -236994.11538867
  -exchange      EXHF   =         0.00000000
  -V(xc)+E(xc)   XCENC  =      1688.74456330
  PAW double counting   =     50115.19088215   -53873.24367314
  entropy T*S    EENTRO =        -0.68811861
  eigenvalues    EBANDS =     -3327.80908565
  atomic energy  EATOM  =     59560.90262231
  Solvation  Ediel_sol  =         0.00000000
  ---------------------------------------------------
  free energy    TOTEN  =      -254.26971680 eV

  energy without entropy =     -253.58159819  energy(sigma->0) =     -253.92565750


--------------------------------------------------------------------------------------------------------




--------------------------------------- Iteration      1(  26)  ---------------------------------------


    POTLOK:  cpu time    0.9409: real time    0.9441
    SETDIJ:  cpu time    0.0250: real time    0.0243
    EDDIAG:  cpu time    4.8453: real time    4.8596
  RMM-DIIS:  cpu time    9.5565: real time    9.6047
    ORTHCH:  cpu time    1.6647: real time    1.6691
       DOS:  cpu time    0.0020: real time    0.0018
    CHARGE:  cpu time    1.0798: real time    1.0841
    MIXING:  cpu time    0.0600: real time    0.0602
    --------------------------------------------
      LOOP:  cpu time   18.1742: real time   18.2479

 eigenvalue-minimisations  :  1528
 total energy-change (2. order) :-0.2927295E+00  (-0.1310993E-01)
 number of electron     556.0000284 magnetization      45.8703037
 augmentation part      340.2916440 magnetization      39.7649075

 Broyden mixing:
  rms(total) = 0.70889E+00    rms(broyden)= 0.70859E+00
  rms(prec ) = 0.80186E+00
  weight for this iteration     100.00

 eigenvalues of (default mixing * dielectric matrix)
  average eigenvalue GAMMA=   0.3739
  1.7562  0.8575  0.8575  0.7968  0.7968  0.5288  0.1551  0.1395  0.1395  0.1259
  0.1108  0.0977  0.0823  0.0651  0.0651  0.0548  0.0508  0.0500

 Free energy of the ion-electron system (eV)
  ---------------------------------------------------
  alpha Z        PSCENC =       387.12086559
  Ewald energy   TEWEN  =    182189.62761590
  -Hartree energ DENC   =   -237004.22473236
  -exchange      EXHF   =         0.00000000
  -V(xc)+E(xc)   XCENC  =      1688.53580495
  PAW double counting   =     50132.34209177   -53890.86730869
  entropy T*S    EENTRO =        -0.69386430
  eigenvalues    EBANDS =     -3317.30554150
  atomic energy  EATOM  =     59560.90262231
  Solvation  Ediel_sol  =         0.00000000
  ---------------------------------------------------
  free energy    TOTEN  =      -254.56244632 eV

  energy without entropy =     -253.86858202  energy(sigma->0) =     -254.21551417


--------------------------------------------------------------------------------------------------------




--------------------------------------- Iteration      1(  27)  ---------------------------------------


    POTLOK:  cpu time    0.9419: real time    0.9448
    SETDIJ:  cpu time    0.0240: real time    0.0240
    EDDIAG:  cpu time    4.8533: real time    4.8677
  RMM-DIIS:  cpu time    9.5026: real time    9.5438
    ORTHCH:  cpu time    1.6687: real time    1.6723
       DOS:  cpu time    0.0020: real time    0.0014
    CHARGE:  cpu time    1.0798: real time    1.0836
    MIXING:  cpu time    0.0640: real time    0.0645
    --------------------------------------------
      LOOP:  cpu time   18.1362: real time   18.2023

 eigenvalue-minimisations  :  1524
 total energy-change (2. order) :-0.6131297E+00  (-0.1755641E-01)
 number of electron     556.0000284 magnetization      45.7124671
 augmentation part      340.3200287 magnetization      39.9270217

 Broyden mixing:
  rms(total) = 0.42243E+00    rms(broyden)= 0.42216E+00
  rms(prec ) = 0.47247E+00
  weight for this iteration     100.00

 eigenvalues of (default mixing * dielectric matrix)
  average eigenvalue GAMMA=   0.3661
  1.8070  0.8832  0.8832  0.7806  0.7806  0.5248  0.1747  0.1504  0.1504  0.1267
  0.1267  0.1087  0.0918  0.0827  0.0648  0.0648  0.0546  0.0508  0.0497

 Free energy of the ion-electron system (eV)
  ---------------------------------------------------
  alpha Z        PSCENC =       387.12086559
  Ewald energy   TEWEN  =    182189.62761590
  -Hartree energ DENC   =   -237026.44482184
  -exchange      EXHF   =         0.00000000
  -V(xc)+E(xc)   XCENC  =      1687.99738518
  PAW double counting   =     50165.56718468   -53925.04271352
  entropy T*S    EENTRO =        -0.69474178
  eigenvalues    EBANDS =     -3294.20897258
  atomic energy  EATOM  =     59560.90262231
  Solvation  Ediel_sol  =         0.00000000
  ---------------------------------------------------
  free energy    TOTEN  =      -255.17557606 eV

  energy without entropy =     -254.48083427  energy(sigma->0) =     -254.82820517


--------------------------------------------------------------------------------------------------------




--------------------------------------- Iteration      1(  28)  ---------------------------------------


    POTLOK:  cpu time    0.9459: real time    0.9497
    SETDIJ:  cpu time    0.0230: real time    0.0224
    EDDIAG:  cpu time    4.8433: real time    4.8600
  RMM-DIIS:  cpu time    9.5605: real time    9.5975
    ORTHCH:  cpu time    1.6657: real time    1.6706
       DOS:  cpu time    0.0030: real time    0.0023
    CHARGE:  cpu time    1.0848: real time    1.0883
    MIXING:  cpu time    0.0700: real time    0.0695
    --------------------------------------------
      LOOP:  cpu time   18.1962: real time   18.2603

 eigenvalue-minimisations  :  1528
 total energy-change (2. order) :-0.2031190E+00  (-0.5359084E-02)
 number of electron     556.0000286 magnetization      45.0365384
 augmentation part      340.3047884 magnetization      39.3165065

 Broyden mixing:
  rms(total) = 0.35265E+00    rms(broyden)= 0.35256E+00
  rms(prec ) = 0.39101E+00
  weight for this iteration     100.00

 eigenvalues of (default mixing * dielectric matrix)
  average eigenvalue GAMMA=   0.3960
  2.0024  0.9284  0.9284  0.8454  0.8454  0.5692  0.5692  0.1526  0.1526  0.1317
  0.1317  0.1122  0.0962  0.0887  0.0811  0.0648  0.0648  0.0546  0.0508  0.0497

 Free energy of the ion-electron system (eV)
  ---------------------------------------------------
  alpha Z        PSCENC =       387.12086559
  Ewald energy   TEWEN  =    182189.62761590
  -Hartree energ DENC   =   -237031.16974228
  -exchange      EXHF   =         0.00000000
  -V(xc)+E(xc)   XCENC  =      1687.82393784
  PAW double counting   =     50167.80414809   -53927.38091977
[...]
     12.738717 11.927713  5.935775            0           0           0  
     13.614267  9.862632  6.896756            0           0           0  
     14.386953  9.855602  9.286570            0           0           0  
     13.620124  7.713725 10.347173            0           0           0  
      9.099593  9.900688 13.240045     0.127580   -0.084395    0.053585  
     10.335872 11.947711 13.421834            0           0           0  
     11.586207  9.848627 13.148206            0           0           0  
      7.839959  7.562192 12.556671    -0.602586    0.377576   -0.203263  
      9.113027  6.319941 10.963325            0           0           0  
     10.329046  7.679362 12.759881    -0.343038   -0.252080   -0.166673  
     11.599952  6.373058 11.016695            0           0           0  
     12.779370  7.769994 12.633579            0           0           0  
      8.326883  7.655610  6.476952            0           0           0  
     10.355409  7.758894  5.127974            0           0           0  
     12.384083  7.708326  6.481411            0           0           0  
      6.405042  7.703606  7.962351            0           0           0  
      8.332041  6.323634  8.591624            0           0           0  
     10.358733  6.369290  7.130731            0           0           0  
     12.399733  6.388465  8.612224            0           0           0  
     14.292748  7.792014  8.001346            0           0           0  
     10.397480  5.175243  9.245940            0           0           0  
      7.925331  8.598962 14.325471    -0.049567    0.018274   -0.017630  
 
  12 f  =    3.325664 THz    20.895760 2PiTHz  110.932192 cm-1    13.753844 meV
             X         Y         Z           dx          dy          dz
      7.011911 11.900352  8.217309            0           0           0  
      9.018144 13.258995  7.553024            0           0           0  
      8.256822 13.241646  9.954080            0           0           0  
     10.261438 14.453827  9.277550            0           0           0  
     10.297049 12.159222  9.264500            0           0           0  
     11.544905 13.299030  7.560175            0           0           0  
     12.313217 13.300106  9.947335            0           0           0  
      6.356550 11.837756 10.564521            0           0           0  
      7.032023  9.766569 11.698064    -0.359664   -0.303621   -0.399422  
      8.320617 10.838094  9.940232            0           0           0  
      8.276261 11.945512 12.082649            0           0           0  
     10.286256 13.282017 11.402248            0           0           0  
     10.310123 10.869085 11.383841            0           0           0  
     12.307407 10.884924  9.916329            0           0           0  
     12.340280 11.981958 12.066541            0           0           0  
      7.860613 11.867248  5.928226            0           0           0  
      7.039193  9.783958  6.886448            0           0           0  
      9.067090  9.809262  5.413721            0           0           0  
      9.079421 10.846139  7.586941            0           0           0  
     10.300704 11.962036  5.829984            0           0           0  
     10.337518  8.774965  7.184790            0           0           0  
     11.583705  9.842368  5.416297            0           0           0  
     11.545828 10.883543  7.584612            0           0           0  
      6.261647  9.754339  9.298036            0           0           0  
      7.058892  7.619976 10.301645            0           0           0  
      8.343294  8.745688  8.633682            0           0           0  
      9.092317  8.738197 10.980894            0           0           0  
     10.322045  9.820011  9.287925            0           0           0  
     10.349787  7.475444  9.280291            0           0           0  
     12.322674  8.792277  8.630973            0           0           0  
     11.559035  8.787019 10.982750            0           0           0  
     13.587599 12.002323  8.220224            0           0           0  
     14.244957 11.929591 10.564327            0           0           0  
     13.595790  9.860298 11.677340            0           0           0  
     12.738717 11.927713  5.935775            0           0           0  
     13.614267  9.862632  6.896756            0           0           0  
     14.386953  9.855602  9.286570            0           0           0  
     13.620124  7.713725 10.347173            0           0           0  
      9.099593  9.900688 13.240045    -0.159770   -0.309245   -0.368927  
     10.335872 11.947711 13.421834            0           0           0  
     11.586207  9.848627 13.148206            0           0           0  
      7.839959  7.562192 12.556671    -0.112474   -0.164317   -0.066062  
      9.113027  6.319941 10.963325            0           0           0  
     10.329046  7.679362 12.759881     0.000875   -0.469321   -0.272738  
     11.599952  6.373058 11.016695            0           0           0  
     12.779370  7.769994 12.633579            0           0           0  
      8.326883  7.655610  6.476952            0           0           0  
     10.355409  7.758894  5.127974            0           0           0  
     12.384083  7.708326  6.481411            0           0           0  
      6.405042  7.703606  7.962351            0           0           0  
      8.332041  6.323634  8.591624            0           0           0  
     10.358733  6.369290  7.130731            0           0           0  
     12.399733  6.388465  8.612224            0           0           0  
     14.292748  7.792014  8.001346            0           0           0  
     10.397480  5.175243  9.245940            0           0           0  
      7.925331  8.598962 14.325471    -0.067520   -0.119150   -0.065049  
 
  13 f  =    3.209276 THz    20.164476 2PiTHz  107.049921 cm-1    13.272503 meV
             X         Y         Z           dx          dy          dz
      7.011911 11.900352  8.217309            0           0           0  
      9.018144 13.258995  7.553024            0           0           0  
      8.256822 13.241646  9.954080            0           0           0  
     10.261438 14.453827  9.277550            0           0           0  
     10.297049 12.159222  9.264500            0           0           0  
     11.544905 13.299030  7.560175            0           0           0  
     12.313217 13.300106  9.947335            0           0           0  
      6.356550 11.837756 10.564521            0           0           0  
      7.032023  9.766569 11.698064     0.342118    0.055856    0.334340  
      8.320617 10.838094  9.940232            0           0           0  
      8.276261 11.945512 12.082649            0           0           0  
     10.286256 13.282017 11.402248            0           0           0  
     10.310123 10.869085 11.383841            0           0           0  
     12.307407 10.884924  9.916329            0           0           0  
     12.340280 11.981958 12.066541            0           0           0  
      7.860613 11.867248  5.928226            0           0           0  
      7.039193  9.783958  6.886448            0           0           0  
      9.067090  9.809262  5.413721            0           0           0  
      9.079421 10.846139  7.586941            0           0           0  
     10.300704 11.962036  5.829984            0           0           0  
     10.337518  8.774965  7.184790            0           0           0  
     11.583705  9.842368  5.416297            0           0           0  
     11.545828 10.883543  7.584612            0           0           0  
      6.261647  9.754339  9.298036            0           0           0  
      7.058892  7.619976 10.301645            0           0           0  
      8.343294  8.745688  8.633682            0           0           0  
      9.092317  8.738197 10.980894            0           0           0  
     10.322045  9.820011  9.287925            0           0           0  
     10.349787  7.475444  9.280291            0           0           0  
     12.322674  8.792277  8.630973            0           0           0  
     11.559035  8.787019 10.982750            0           0           0  
     13.587599 12.002323  8.220224            0           0           0  
     14.244957 11.929591 10.564327            0           0           0  
     13.595790  9.860298 11.677340            0           0           0  
     12.738717 11.927713  5.935775            0           0           0  
     13.614267  9.862632  6.896756            0           0           0  
     14.386953  9.855602  9.286570            0           0           0  
     13.620124  7.713725 10.347173            0           0           0  
      9.099593  9.900688 13.240045     0.436948   -0.307673    0.126817  
     10.335872 11.947711 13.421834            0           0           0  
     11.586207  9.848627 13.148206            0           0           0  
      7.839959  7.562192 12.556671     0.234341   -0.182534    0.068304  
      9.113027  6.319941 10.963325            0           0           0  
     10.329046  7.679362 12.759881     0.207370   -0.494260   -0.228172  
     11.599952  6.373058 11.016695            0           0           0  
     12.779370  7.769994 12.633579            0           0           0  
      8.326883  7.655610  6.476952            0           0           0  
     10.355409  7.758894  5.127974            0           0           0  
     12.384083  7.708326  6.481411            0           0           0  
      6.405042  7.703606  7.962351            0           0           0  
      8.332041  6.323634  8.591624            0           0           0  
     10.358733  6.369290  7.130731            0           0           0  
     12.399733  6.388465  8.612224            0           0           0  
     14.292748  7.792014  8.001346            0           0           0  
     10.397480  5.175243  9.245940            0           0           0  
      7.925331  8.598962 14.325471     0.141458   -0.112908    0.036970  
 
  14 f  =    2.419394 THz    15.201501 2PiTHz   80.702298 cm-1    10.005813 meV
             X         Y         Z           dx          dy          dz
      7.011911 11.900352  8.217309            0           0           0  
      9.018144 13.258995  7.553024            0           0           0  
      8.256822 13.241646  9.954080            0           0           0  
     10.261438 14.453827  9.277550            0           0           0  
     10.297049 12.159222  9.264500            0           0           0  
     11.544905 13.299030  7.560175            0           0           0  
     12.313217 13.300106  9.947335            0           0           0  
      6.356550 11.837756 10.564521            0           0           0  
      7.032023  9.766569 11.698064    -0.095757    0.087290   -0.194134  
      8.320617 10.838094  9.940232            0           0           0  
      8.276261 11.945512 12.082649            0           0           0  
     10.286256 13.282017 11.402248            0           0           0  
     10.310123 10.869085 11.383841            0           0           0  
     12.307407 10.884924  9.916329            0           0           0  
     12.340280 11.981958 12.066541            0           0           0  
      7.860613 11.867248  5.928226            0           0           0  
      7.039193  9.783958  6.886448            0           0           0  
      9.067090  9.809262  5.413721            0           0           0  
      9.079421 10.846139  7.586941            0           0           0  
     10.300704 11.962036  5.829984            0           0           0  
     10.337518  8.774965  7.184790            0           0           0  
     11.583705  9.842368  5.416297            0           0           0  
     11.545828 10.883543  7.584612            0           0           0  
      6.261647  9.754339  9.298036            0           0           0  
      7.058892  7.619976 10.301645            0           0           0  
      8.343294  8.745688  8.633682            0           0           0  
      9.092317  8.738197 10.980894            0           0           0  
     10.322045  9.820011  9.287925            0           0           0  
     10.349787  7.475444  9.280291            0           0           0  
     12.322674  8.792277  8.630973            0           0           0  
     11.559035  8.787019 10.982750            0           0           0  
     13.587599 12.002323  8.220224            0           0           0  
     14.244957 11.929591 10.564327            0           0           0  
     13.595790  9.860298 11.677340            0           0           0  
     12.738717 11.927713  5.935775            0           0           0  
     13.614267  9.862632  6.896756            0           0           0  
     14.386953  9.855602  9.286570            0           0           0  
     13.620124  7.713725 10.347173            0           0           0  
      9.099593  9.900688 13.240045    -0.062026   -0.112887   -0.013428  
     10.335872 11.947711 13.421834            0           0           0  
     11.586207  9.848627 13.148206            0           0           0  
      7.839959  7.562192 12.556671     0.294333    0.639502    0.351856  
      9.113027  6.319941 10.963325            0           0           0  
     10.329046  7.679362 12.759881     0.188443   -0.109279   -0.114852  
     11.599952  6.373058 11.016695            0           0           0  
     12.779370  7.769994 12.633579            0           0           0  
      8.326883  7.655610  6.476952            0           0           0  
     10.355409  7.758894  5.127974            0           0           0  
     12.384083  7.708326  6.481411            0           0           0  
      6.405042  7.703606  7.962351            0           0           0  
      8.332041  6.323634  8.591624            0           0           0  
     10.358733  6.369290  7.130731            0           0           0  
     12.399733  6.388465  8.612224            0           0           0  
     14.292748  7.792014  8.001346            0           0           0  
     10.397480  5.175243  9.245940            0           0           0  
      7.925331  8.598962 14.325471     0.006260    0.229871    0.442529  
 
  15 f/i=    3.326599 THz    20.901641 2PiTHz  110.963412 cm-1    13.757715 meV
             X         Y         Z           dx          dy          dz
      7.011911 11.900352  8.217309            0           0           0  
      9.018144 13.258995  7.553024            0           0           0  
      8.256822 13.241646  9.954080            0           0           0  
     10.261438 14.453827  9.277550            0           0           0  
     10.297049 12.159222  9.264500            0           0           0  
     11.544905 13.299030  7.560175            0           0           0  
     12.313217 13.300106  9.947335            0           0           0  
      6.356550 11.837756 10.564521            0           0           0  
      7.032023  9.766569 11.698064    -0.014502    0.008623   -0.140409  
      8.320617 10.838094  9.940232            0           0           0  
      8.276261 11.945512 12.082649            0           0           0  
     10.286256 13.282017 11.402248            0           0           0  
     10.310123 10.869085 11.383841            0           0           0  
     12.307407 10.884924  9.916329            0           0           0  
     12.340280 11.981958 12.066541            0           0           0  
      7.860613 11.867248  5.928226            0           0           0  
      7.039193  9.783958  6.886448            0           0           0  
      9.067090  9.809262  5.413721            0           0           0  
      9.079421 10.846139  7.586941            0           0           0  
     10.300704 11.962036  5.829984            0           0           0  
     10.337518  8.774965  7.184790            0           0           0  
     11.583705  9.842368  5.416297            0           0           0  
     11.545828 10.883543  7.584612            0           0           0  
      6.261647  9.754339  9.298036            0           0           0  
      7.058892  7.619976 10.301645            0           0           0  
      8.343294  8.745688  8.633682            0           0           0  
      9.092317  8.738197 10.980894            0           0           0  
     10.322045  9.820011  9.287925            0           0           0  
     10.349787  7.475444  9.280291            0           0           0  
     12.322674  8.792277  8.630973            0           0           0  
     11.559035  8.787019 10.982750            0           0           0  
     13.587599 12.002323  8.220224            0           0           0  
     14.244957 11.929591 10.564327            0           0           0  
     13.595790  9.860298 11.677340            0           0           0  
     12.738717 11.927713  5.935775            0           0           0  
     13.614267  9.862632  6.896756            0           0           0  
     14.386953  9.855602  9.286570            0           0           0  
     13.620124  7.713725 10.347173            0           0           0  
      9.099593  9.900688 13.240045    -0.048081    0.029439   -0.014788  
     10.335872 11.947711 13.421834            0           0           0  
     11.586207  9.848627 13.148206            0           0           0  
      7.839959  7.562192 12.556671    -0.078757    0.050386   -0.025663  
      9.113027  6.319941 10.963325            0           0           0  
     10.329046  7.679362 12.759881    -0.071349    0.049360    0.115564  
     11.599952  6.373058 11.016695            0           0           0  
     12.779370  7.769994 12.633579            0           0           0  
      8.326883  7.655610  6.476952            0           0           0  
     10.355409  7.758894  5.127974            0           0           0  
     12.384083  7.708326  6.481411            0           0           0  
      6.405042  7.703606  7.962351            0           0           0  
      8.332041  6.323634  8.591624            0           0           0  
     10.358733  6.369290  7.130731            0           0           0  
     12.399733  6.388465  8.612224            0           0           0  
     14.292748  7.792014  8.001346            0           0           0  
     10.397480  5.175243  9.245940            0           0           0  
      7.925331  8.598962 14.325471     0.792170   -0.502989    0.256497  
 
 Finite differences POTIM=  2.500000000000000E-002
     LOOP+:  cpu time  678.1619: real time  680.1419
    4ORBIT:  cpu time    0.0000: real time    0.0000

 total amount of memory used by VASP MPI-rank0   261483. kBytes
=======================================================================

   base      :      30000. kBytes
   nonlr-proj:      17491. kBytes
   fftplans  :      16788. kBytes
   grid      :     106586. kBytes
   one-center:       1741. kBytes
   wavefun   :      88877. kBytes
 
  
  
 General timing and accounting informations for this job:
 ========================================================
  
                  Total CPU time used (sec):    20294.725
                            User time (sec):    19912.148
                          System time (sec):      382.577
                         Elapsed time (sec):    20354.021
  
                   Maximum memory used (kb):      580212.
                   Average memory used (kb):           0.
  
                          Minor page faults:     13478226
                          Major page faults:            0
                 Voluntary context switches:           88
