<?xml version="1.0" encoding="ISO-8859-1"?>
<modeling>
 <generator>
  <i name="program" type="string">vasp </i>
  <i name="version" type="string">5.4.4.18Apr17-6-g9f103f2a35  </i>
  <i name="subversion" type="string">(build Dec 11 2018 16:16:58) complex            parallel </i>
  <i name="platform" type="string">LinuxIFC </i>
  <i name="date" type="string">2020 07 23 </i>
  <i name="time" type="string">19:08:59 </i>
 </generator>
 <incar>
  <i type="string" name="SYSTEM"> TS_Vibrational_Calculation</i>
  <i type="int" name="ISTART">     2</i>
  <i type="string" name="PREC">normal</i>
  <i type="string" name="ALGO"> Fast</i>
  <i type="int" name="ISPIN">     2</i>
  <i type="int" name="NELM">   100</i>
  <i type="int" name="NELMDL">    -8</i>
  <i type="int" name="IBRION">     5</i>
  <i type="int" name="NFREE">     2</i>
  <i name="EDIFF">      0.00000100</i>
  <i name="EDIFFG">      0.00010000</i>
  <i type="int" name="NSW">     1</i>
  <i type="int" name="ISIF">     2</i>
  <i type="int" name="ISYM">     0</i>
  <i name="ENCUT">    400.00000000</i>
  <i name="POTIM">      0.02500000</i>
  <i type="string" name="LREAL"> auto</i>
  <v name="ROPT">     -0.00020000     -0.00020000</v>
  <i type="int" name="ISMEAR">     0</i>
  <i name="SIGMA">      0.10000000</i>
  <i type="int" name="NWRITE">     1</i>
  <i type="logical" name="LWAVE"> F  </i>
  <i type="logical" name="LCHARG"> F  </i>
  <i type="logical" name="LVTOT"> F  </i>
  <v type="int" name="KPOINT_BSE">    -1     0     0     0</v>
  <i type="int" name="NELM">   100</i>
 </incar>
 <structure name="primitive_cell" >
  <crystal>
   <varray name="basis" >
    <v>      20.00000000       0.00000000       0.00000000 </v>
    <v>       0.00000000      20.00000000       0.00000000 </v>
    <v>       0.00000000       0.00000000      20.00000000 </v>
   </varray>
   <i name="volume">   8000.00000000 </i>
   <varray name="rec_basis" >
    <v>       0.05000000       0.00000000       0.00000000 </v>
    <v>       0.00000000       0.05000000       0.00000000 </v>
    <v>       0.00000000       0.00000000       0.05000000 </v>
   </varray>
  </crystal>
  <varray name="positions" >
   <v>       0.35059555      -0.40498239       0.41086543 </v>
   <v>       0.45397105      -0.45769304       0.37934703 </v>
   <v>       0.41603084      -0.45809528       0.49701160 </v>
   <v>       0.31782748      -0.40811219      -0.47177397 </v>
   <v>       0.39303065      -0.40663761       0.29641129 </v>
   <v>       0.35195965       0.48919791       0.34432238 </v>
   <v>       0.45090719      -0.33705027       0.37765121 </v>
   <v>       0.31308234       0.48771696       0.46490179 </v>
   <v>       0.41284110      -0.33791770       0.49770400 </v>
   <v>       0.41716471       0.43728441       0.43168409 </v>
   <v>      -0.48514754      -0.39203888       0.46322502 </v>
   <v>      -0.48389777       0.49100055       0.46439627 </v>
   <v>       0.45335450       0.49046312       0.27068606 </v>
   <v>      -0.48496482      -0.40189819       0.29149918 </v>
   <v>       0.41381305      -0.40272439      -0.39586757 </v>
   <v>       0.35160115       0.48832847      -0.41509680 </v>
   <v>       0.32025208       0.38518031       0.39811756 </v>
   <v>      -0.48692809      -0.27730863       0.46387751 </v>
   <v>      -0.48312412       0.43874827       0.35923951 </v>
   <v>       0.45461585       0.43690987      -0.45095531 </v>
   <v>      -0.48449385      -0.45654577      -0.43080793 </v>
   <v>      -0.42270861      -0.45582285       0.37923060 </v>
   <v>       0.35294458       0.38099878      -0.48491775 </v>
   <v>      -0.48568722      -0.33589913      -0.42988760 </v>
   <v>       0.41634413       0.38278048       0.32384759 </v>
   <v>      -0.42275473      -0.33504851       0.37800875 </v>
   <v>      -0.48251067       0.37377222       0.46401456 </v>
   <v>      -0.38462964      -0.45575382       0.49581643 </v>
   <v>      -0.42081477       0.49211839       0.27081487 </v>
   <v>       0.41660206       0.31618169       0.42958118 </v>
   <v>      -0.38433917      -0.33499470       0.49736674 </v>
   <v>       0.45497966       0.49503441      -0.33799775 </v>
   <v>      -0.48222954       0.38794470       0.25639869 </v>
   <v>      -0.36306414      -0.40361433       0.29678873 </v>
   <v>      -0.42204824       0.43935093      -0.45086249 </v>
   <v>      -0.38386632       0.43961384       0.43154867 </v>
   <v>      -0.48320639      -0.40261444      -0.32890828 </v>
   <v>       0.39199795       0.37810961      -0.37216643 </v>
   <v>      -0.48206335       0.31846450       0.35653653 </v>
   <v>       0.45565135       0.31599706      -0.45183376 </v>
   <v>      -0.38298602      -0.40090212      -0.39667295 </v>
   <v>      -0.32062005      -0.39988383       0.41101122 </v>
   <v>       0.39626656       0.42994809      -0.28372647 </v>
   <v>      -0.38079587       0.38541630       0.32407053 </v>
   <v>      -0.42068965       0.49243135      -0.34258968 </v>
   <v>      -0.48354769       0.38396810      -0.36200595 </v>
   <v>      -0.31928663       0.49313160       0.34483779 </v>
   <v>      -0.48012602       0.25876216       0.46229702 </v>
   <v>      -0.28775214      -0.40352046      -0.47178367 </v>
   <v>      -0.42000240       0.31865291      -0.44916523 </v>
   <v>      -0.32021051       0.49301492      -0.41613300 </v>
   <v>      -0.38001336       0.31942327       0.43061121 </v>
   <v>      -0.28065234       0.49278009       0.46432851 </v>
   <v>      -0.31899378       0.38568624      -0.48264137 </v>
   <v>      -0.36103152       0.38849968      -0.36832105 </v>
   <v>      -0.28536260       0.38960072       0.40006729 </v>
  </varray>
 </structure>
 <varray name="primitive_index" >
  <v type="int" >        1 </v>
  <v type="int" >       19 </v>
  <v type="int" >       10 </v>
  <v type="int" >        8 </v>
  <v type="int" >       16 </v>
  <v type="int" >       17 </v>
  <v type="int" >        2 </v>
  <v type="int" >       24 </v>
  <v type="int" >        3 </v>
  <v type="int" >       26 </v>
  <v type="int" >        5 </v>
  <v type="int" >       28 </v>
  <v type="int" >       18 </v>
  <v type="int" >       20 </v>
  <v type="int" >       11 </v>
  <v type="int" >        9 </v>
  <v type="int" >       50 </v>
  <v type="int" >        4 </v>
  <v type="int" >       21 </v>
  <v type="int" >       27 </v>
  <v type="int" >       13 </v>
  <v type="int" >       23 </v>
  <v type="int" >       25 </v>
  <v type="int" >       12 </v>
  <v type="int" >       47 </v>
  <v type="int" >        6 </v>
  <v type="int" >       29 </v>
  <v type="int" >       14 </v>
  <v type="int" >       22 </v>
  <v type="int" >       51 </v>
  <v type="int" >        7 </v>
  <v type="int" >       39 </v>
  <v type="int" >       48 </v>
  <v type="int" >       35 </v>
  <v type="int" >       31 </v>
  <v type="int" >       30 </v>
  <v type="int" >       40 </v>
  <v type="int" >       42 </v>
  <v type="int" >       52 </v>
  <v type="int" >       43 </v>
  <v type="int" >       15 </v>
  <v type="int" >       32 </v>
  <v type="int" >       56 </v>
  <v type="int" >       49 </v>
  <v type="int" >       41 </v>
  <v type="int" >       44 </v>
  <v type="int" >       36 </v>
  <v type="int" >       55 </v>
  <v type="int" >       33 </v>
  <v type="int" >       45 </v>
  <v type="int" >       34 </v>
  <v type="int" >       53 </v>
  <v type="int" >       37 </v>
  <v type="int" >       38 </v>
  <v type="int" >       46 </v>
  <v type="int" >       54 </v>
 </varray>
 <kpoints>
  <generation param="Monkhorst-Pack">
   <v type="int" name="divisions">       1        1        1 </v>
   <v name="usershift">      0.00000000       0.00000000       0.00000000 </v>
   <v name="genvec1">      1.00000000       0.00000000       0.00000000 </v>
   <v name="genvec2">      0.00000000       1.00000000       0.00000000 </v>
   <v name="genvec3">      0.00000000       0.00000000       1.00000000 </v>
   <v name="shift">      0.00000000       0.00000000       0.00000000 </v>
  </generation>
  <varray name="kpointlist" >
   <v>       0.00000000       0.00000000       0.00000000 </v>
  </varray>
  <varray name="weights" >
   <v>       1.00000000 </v>
  </varray>
 </kpoints>
 <parameters>
  <separator name="general" >
   <i type="string" name="SYSTEM">TS_Vibrational_Calculation</i>
   <i type="logical" name="LCOMPAT"> F  </i>
  </separator>
  <separator name="electronic" >
   <i type="string" name="PREC">normal</i>
   <i name="ENMAX">    400.00000000</i>
   <i name="ENAUG">    544.56500000</i>
   <i name="EDIFF">      0.00000100</i>
   <i type="int" name="IALGO">    68</i>
   <i type="int" name="IWAVPR">    11</i>
   <i type="int" name="NBANDS">   380</i>
   <i name="NELECT">    556.00000000</i>
   <i type="int" name="TURBO">     0</i>
   <i type="int" name="IRESTART">     0</i>
   <i type="int" name="NREBOOT">     0</i>
   <i type="int" name="NMIN">     0</i>
   <i name="EREF">      0.00000000</i>
   <separator name="electronic smearing" >
    <i type="int" name="ISMEAR">     0</i>
    <i name="SIGMA">      0.10000000</i>
    <i name="KSPACING">      0.50000000</i>
    <i type="logical" name="KGAMMA"> T  </i>
   </separator>
   <separator name="electronic projectors" >
    <i type="logical" name="LREAL"> T  </i>
    <v name="ROPT">     -0.00020000     -0.00020000</v>
    <i type="int" name="LMAXPAW">  -100</i>
    <i type="int" name="LMAXMIX">     2</i>
    <i type="logical" name="NLSPLINE"> F  </i>
   </separator>
   <separator name="electronic startup" >
    <i type="int" name="ISTART">     0</i>
    <i type="int" name="ICHARG">     2</i>
    <i type="int" name="INIWAV">     1</i>
   </separator>
   <separator name="electronic spin" >
    <i type="int" name="ISPIN">     2</i>
    <i type="logical" name="LNONCOLLINEAR"> F  </i>
    <v name="MAGMOM">      1.00000000      1.00000000      1.00000000      1.00000000      1.00000000      1.00000000      1.00000000      1.00000000      1.00000000      1.00000000      1.00000000      1.00000000      1.00000000      1.00000000      1.00000000      1.00000000      1.00000000      1.00000000      1.00000000      1.00000000
      1.00000000      1.00000000      1.00000000      1.00000000      1.00000000      1.00000000      1.00000000      1.00000000      1.00000000      1.00000000      1.00000000      1.00000000      1.00000000      1.00000000      1.00000000      1.00000000      1.00000000      1.00000000      1.00000000      1.00000000
      1.00000000      1.00000000      1.00000000      1.00000000      1.00000000      1.00000000      1.00000000      1.00000000      1.00000000      1.00000000      1.00000000      1.00000000      1.00000000      1.00000000      1.00000000      1.00000000</v>
    <i name="NUPDOWN">     -1.00000000</i>
    <i type="logical" name="LSORBIT"> F  </i>
    <v name="SAXIS">      0.00000000      0.00000000      1.00000000</v>
    <i type="logical" name="LSPIRAL"> F  </i>
    <v name="QSPIRAL">      0.00000000      0.00000000      0.00000000</v>
    <i type="logical" name="LZEROZ"> F  </i>
   </separator>
   <separator name="electronic exchange-correlation" >
    <i type="logical" name="LASPH"> F  </i>
    <i type="logical" name="LMETAGGA"> F  </i>
   </separator>
   <separator name="electronic convergence" >
    <i type="int" name="NELM">   100</i>
    <i type="int" name="NELMDL">    -8</i>
    <i type="int" name="NELMIN">     2</i>
    <i name="ENINI">    400.00000000</i>
    <separator name="electronic convergence detail" >
     <i type="logical" name="LDIAG"> T  </i>
     <i type="logical" name="LSUBROT"> F  </i>
     <i name="WEIMIN">      0.00100000</i>
     <i name="EBREAK">      0.00000000</i>
     <i name="DEPER">      0.30000000</i>
     <i type="int" name="NRMM">     4</i>
     <i name="TIME">      0.40000000</i>
    </separator>
   </separator>
   <separator name="electronic mixer" >
    <i name="AMIX">      0.40000000</i>
    <i name="BMIX">      1.00000000</i>
    <i name="AMIN">      0.10000000</i>
    <i name="AMIX_MAG">      1.60000000</i>
    <i name="BMIX_MAG">      1.00000000</i>
    <separator name="electronic mixer details" >
     <i type="int" name="IMIX">     4</i>
     <i type="logical" name="MIXFIRST"> F  </i>
     <i type="int" name="MAXMIX">   -45</i>
     <i name="WC">    100.00000000</i>
     <i type="int" name="INIMIX">     1</i>
     <i type="int" name="MIXPRE">     1</i>
     <i type="int" name="MREMOVE">     5</i>
    </separator>
   </separator>
   <separator name="electronic dipolcorrection" >
    <i type="logical" name="LDIPOL"> F  </i>
    <i type="logical" name="LMONO"> F  </i>
    <i type="int" name="IDIPOL">     0</i>
    <i name="EPSILON">      1.00000000</i>
    <v name="DIPOL">   -100.00000000   -100.00000000   -100.00000000</v>
    <i name="EFIELD">      0.00000000</i>
   </separator>
  </separator>
  <separator name="grids" >
   <i type="int" name="NGX">    98</i>
   <i type="int" name="NGY">    98</i>
   <i type="int" name="NGZ">    98</i>
   <i type="int" name="NGXF">   196</i>
   <i type="int" name="NGYF">   196</i>
   <i type="int" name="NGZF">   196</i>
   <i type="logical" name="ADDGRID"> F  </i>
  </separator>
  <separator name="ionic" >
   <i type="int" name="NSW">   709</i>
   <i type="int" name="IBRION">     5</i>
   <i type="int" name="MDALGO">     0</i>
   <i type="int" name="ISIF">     2</i>
   <i name="PSTRESS">      0.00000000</i>
   <i name="EDIFFG">      0.00010000</i>
   <i type="int" name="NFREE">     2</i>
   <i name="POTIM">      0.02500000</i>
   <i name="SMASS">     -3.00000000</i>
   <i name="SCALEE">      1.00000000</i>
  </separator>
  <separator name="ionic md" >
   <i name="TEBEG">      0.00010000</i>
   <i name="TEEND">      0.00010000</i>
   <i type="int" name="NBLOCK">     1</i>
   <i type="int" name="KBLOCK">   709</i>
   <i type="int" name="NPACO">   256</i>
   <i name="APACO">     16.00000000</i>
  </separator>
  <separator name="symmetry" >
   <i type="int" name="ISYM">     0</i>
   <i name="SYMPREC">      0.00001000</i>
  </separator>
  <separator name="dos" >
   <i type="int" name="LORBIT">     0</i>
   <v name="RWIGS">     -1.00000000     -1.00000000</v>
   <i type="int" name="NEDOS">   301</i>
   <i name="EMIN">     10.00000000</i>
   <i name="EMAX">    -10.00000000</i>
   <i name="EFERMI">      0.00000000</i>
  </separator>
  <separator name="writing" >
   <i type="int" name="NWRITE">     1</i>
   <i type="logical" name="LWAVE"> F  </i>
   <i type="logical" name="LDOWNSAMPLE"> F  </i>
   <i type="logical" name="LCHARG"> F  </i>
   <i type="logical" name="LPARD"> F  </i>
   <i type="logical" name="LVTOT"> F  </i>
   <i type="logical" name="LVHAR"> F  </i>
   <i type="logical" name="LELF"> F  </i>
   <i type="logical" name="LOPTICS"> F  </i>
   <v name="STM">      0.00000000      0.00000000      0.00000000      0.00000000      0.00000000      0.00000000      0.00000000</v>
  </separator>
  <separator name="performance" >
   <i type="int" name="NPAR">    20</i>
   <i type="int" name="NSIM">     4</i>
   <i type="int" name="NBLK">    -1</i>
   <i type="logical" name="LPLANE"> T  </i>
   <i type="logical" name="LSCALAPACK"> T  </i>
   <i type="logical" name="LSCAAWARE"> F  </i>
   <i type="logical" name="LSCALU"> F  </i>
   <i type="logical" name="LASYNC"> F  </i>
   <i type="logical" name="LORBITALREAL"> F  </i>
  </separator>
  <separator name="miscellaneous" >
   <i type="int" name="IDIOT">     3</i>
   <i type="int" name="ISPECIAL">     0</i>
   <i type="logical" name="LMUSIC"> F  </i>
   <v name="POMASS">     58.69000000     32.06600000</v>
   <v name="DARWINR">      0.00000000      0.00000000</v>
   <v name="DARWINV">      1.00000000      1.00000000</v>
   <i type="logical" name="LCORR"> T  </i>
  </separator>
  <i type="logical" name="GGA_COMPAT"> T  </i>
  <i type="logical" name="LBERRY"> F  </i>
  <i type="int" name="ICORELEVEL">     0</i>
  <i type="logical" name="LDAU"> F  </i>
  <i type="int" name="I_CONSTRAINED_M">     0</i>
  <separator name="electronic exchange-correlation" >
   <i type="string" name="GGA">--</i>
   <i type="int" name="VOSKOWN">     0</i>
   <i type="logical" name="LHFCALC"> F  </i>
   <i type="string" name="PRECFOCK"></i>
   <i type="logical" name="LSYMGRAD"> F  </i>
   <i type="logical" name="LHFONE"> F  </i>
   <i type="logical" name="LRHFCALC"> F  </i>
   <i type="logical" name="LTHOMAS"> F  </i>
   <i type="logical" name="LMODELHF"> F  </i>
   <i name="ENCUT4O">     -1.00000000</i>
   <i type="int" name="EXXOEP">     0</i>
   <i type="int" name="FOURORBIT">     0</i>
   <i name="AEXX">      0.00000000</i>
   <i name="HFALPHA">      0.00000000</i>
   <i name="MCALPHA">      0.00000000</i>
   <i name="ALDAX">      1.00000000</i>
   <i name="AGGAX">      1.00000000</i>
   <i name="ALDAC">      1.00000000</i>
   <i name="AGGAC">      1.00000000</i>
   <i type="int" name="NKREDX">     1</i>
   <i type="int" name="NKREDY">     1</i>
   <i type="int" name="NKREDZ">     1</i>
   <i type="logical" name="SHIFTRED"> F  </i>
   <i type="logical" name="ODDONLY"> F  </i>
   <i type="logical" name="EVENONLY"> F  </i>
   <i type="int" name="LMAXFOCK">     0</i>
   <i type="int" name="NMAXFOCKAE">     0</i>
   <i type="logical" name="LFOCKAEDFT"> F  </i>
   <i name="HFSCREEN">      0.00000000</i>
   <i name="HFSCREENC">      0.00000000</i>
   <i type="int" name="NBANDSGWLOW">     0</i>
  </separator>
  <separator name="vdW DFT" >
   <i type="logical" name="LUSE_VDW"> F  </i>
   <i name="Zab_VDW">     -0.84910000</i>
   <i name="PARAM1">      0.12340000</i>
   <i name="PARAM2">      1.00000000</i>
   <i name="PARAM3">      0.00000000</i>
  </separator>
  <separator name="model GW" >
   <i type="int" name="MODEL_GW">     0</i>
   <i name="MODEL_EPS0">     85.71428571</i>
   <i name="MODEL_ALPHA">      1.00000000</i>
  </separator>
  <separator name="linear response parameters" >
   <i type="logical" name="LEPSILON"> F  </i>
   <i type="logical" name="LRPA"> F  </i>
   <i type="logical" name="LNABLA"> F  </i>
   <i type="logical" name="LVEL"> F  </i>
   <i type="int" name="KINTER">     0</i>
   <i name="CSHIFT">      0.10000000</i>
   <i name="OMEGAMAX">     -1.00000000</i>
   <i name="DEG_THRESHOLD">      0.00200000</i>
   <i name="RTIME">     -0.10000000</i>
   <i name="WPLASMAI">      0.00000000</i>
   <v name="DFIELD">      0.00000000      0.00000000      0.00000000</v>
   <v name="WPLASMA">      0.00000000      0.00000000      0.00000000      0.00000000      0.00000000      0.00000000      0.00000000      0.00000000      0.00000000</v>
  </separator>
  <separator name="orbital magnetization" >
   <i type="logical" name="NUCIND"> F  </i>
   <v name="MAGPOS">      0.00000000      0.00000000      0.00000000</v>
   <i type="logical" name="LNICSALL"> T  </i>
   <i type="logical" name="ORBITALMAG"> F  </i>
   <i type="logical" name="LMAGBLOCH"> F  </i>
   <i type="logical" name="LCHIMAG"> F  </i>
   <i type="logical" name="LGAUGE"> T  </i>
   <i type="int" name="MAGATOM">     0</i>
   <v name="MAGDIPOL">      0.00000000      0.00000000      0.00000000</v>
   <v name="AVECCONST">      0.00000000      0.00000000      0.00000000</v>
  </separator>
  <separator name="response functions" >
   <i type="logical" name="LADDER"> F  </i>
   <i type="logical" name="LRPAFORCE"> F  </i>
   <i type="logical" name="LFXC"> F  </i>
   <i type="logical" name="LHARTREE"> T  </i>
   <i type="int" name="IBSE">     0</i>
   <v type="int" name="KPOINT">    -1     0     0     0</v>
   <i type="logical" name="LTCTE"> F  </i>
   <i type="logical" name="LTETE"> F  </i>
   <i type="logical" name="LTRIPLET"> F  </i>
   <i type="logical" name="LFXCEPS"> F  </i>
   <i type="logical" name="LFXHEG"> F  </i>
   <i type="int" name="NATURALO">     2</i>
   <i type="logical" name="L2ORDER"> F  </i>
   <i type="logical" name="LMP2LT"> F  </i>
   <i type="logical" name="LUSEW"> F  </i>
   <i name="ENCUTGW">     -2.00000000</i>
   <i name="ENCUTGWSOFT">     -2.00000000</i>
   <i name="ENCUTLF">     -1.00000000</i>
   <i type="int" name="LMAXMP2">    -1</i>
   <i name="SCISSOR">      0.00000000</i>
   <i type="int" name="NOMEGA">     0</i>
   <i type="int" name="NOMEGAR">     0</i>
   <i type="int" name="NBANDSGW">    -1</i>
   <i type="int" name="NBANDSO">    -1</i>
   <i type="int" name="NBANDSV">    -1</i>
   <i type="int" name="NELM">   100</i>
   <i type="int" name="NELMHF">     1</i>
   <i type="int" name="DIM">     3</i>
   <i type="int" name="ANTIRES">     0</i>
   <i name="OMEGAMAX">    -30.00000000</i>
   <i name="OMEGAMIN">    -30.00000000</i>
   <i name="OMEGATL">   -200.00000000</i>
   <i type="int" name="OMEGAGRID">   140</i>
   <i name="CSHIFT">     -0.10000000</i>
   <i type="logical" name="SELFENERGY"> F  </i>
   <i type="logical" name="LSPECTRAL"> F  </i>
   <i type="logical" name="LSPECTRALGW"> F  </i>
   <i type="logical" name="LSINGLES"> F  </i>
   <i type="logical" name="LFERMIGW"> F  </i>
   <i type="logical" name="ODDONLYGW"> F  </i>
   <i type="logical" name="EVENONLYGW"> F  </i>
   <i type="int" name="NKREDLFX">     1</i>
   <i type="int" name="NKREDLFY">     1</i>
   <i type="int" name="NKREDLFZ">     1</i>
   <i type="int" name="MAXMEM">  2800</i>
   <i type="int" name="TELESCOPE">     0</i>
   <i type="int" name="TAUPAR">     1</i>
   <i type="int" name="OMEGAPAR">    -1</i>
   <i name="LAMBDA">      1.00000000</i>
  </separator>
  <separator name="External order field" >
   <i name="OFIELD_KAPPA">      0.00000000</i>
   <v name="OFIELD_K">      0.00000000      0.00000000      0.00000000</v>
   <i name="OFIELD_Q6_NEAR">      0.00000000</i>
   <i name="OFIELD_Q6_FAR">      0.00000000</i>
   <i name="OFIELD_A">      0.00000000</i>
  </separator>
 </parameters>
 <atominfo>
  <atoms>      56 </atoms>
  <types>       2 </types>
  <array name="atoms" >
   <dimension dim="1">ion</dimension>
   <field type="string">element</field>
   <field type="int">atomtype</field>
   <set>
    <rc><c>Ni</c><c>   1</c></rc>
    <rc><c>Ni</c><c>   1</c></rc>
    <rc><c>Ni</c><c>   1</c></rc>
    <rc><c>Ni</c><c>   1</c></rc>
    <rc><c>Ni</c><c>   1</c></rc>
    <rc><c>Ni</c><c>   1</c></rc>
    <rc><c>Ni</c><c>   1</c></rc>
    <rc><c>Ni</c><c>   1</c></rc>
    <rc><c>Ni</c><c>   1</c></rc>
    <rc><c>Ni</c><c>   1</c></rc>
    <rc><c>Ni</c><c>   1</c></rc>
    <rc><c>Ni</c><c>   1</c></rc>
    <rc><c>Ni</c><c>   1</c></rc>
    <rc><c>Ni</c><c>   1</c></rc>
    <rc><c>Ni</c><c>   1</c></rc>
    <rc><c>Ni</c><c>   1</c></rc>
    <rc><c>Ni</c><c>   1</c></rc>
    <rc><c>Ni</c><c>   1</c></rc>
    <rc><c>Ni</c><c>   1</c></rc>
    <rc><c>Ni</c><c>   1</c></rc>
    <rc><c>Ni</c><c>   1</c></rc>
    <rc><c>Ni</c><c>   1</c></rc>
    <rc><c>Ni</c><c>   1</c></rc>
    <rc><c>Ni</c><c>   1</c></rc>
    <rc><c>Ni</c><c>   1</c></rc>
    <rc><c>Ni</c><c>   1</c></rc>
    <rc><c>Ni</c><c>   1</c></rc>
    <rc><c>Ni</c><c>   1</c></rc>
    <rc><c>Ni</c><c>   1</c></rc>
    <rc><c>Ni</c><c>   1</c></rc>
    <rc><c>Ni</c><c>   1</c></rc>
    <rc><c>Ni</c><c>   1</c></rc>
    <rc><c>Ni</c><c>   1</c></rc>
    <rc><c>Ni</c><c>   1</c></rc>
    <rc><c>Ni</c><c>   1</c></rc>
    <rc><c>Ni</c><c>   1</c></rc>
    <rc><c>Ni</c><c>   1</c></rc>
    <rc><c>Ni</c><c>   1</c></rc>
    <rc><c>Ni</c><c>   1</c></rc>
    <rc><c>Ni</c><c>   1</c></rc>
    <rc><c>Ni</c><c>   1</c></rc>
    <rc><c>Ni</c><c>   1</c></rc>
    <rc><c>Ni</c><c>   1</c></rc>
    <rc><c>Ni</c><c>   1</c></rc>
    <rc><c>Ni</c><c>   1</c></rc>
    <rc><c>Ni</c><c>   1</c></rc>
    <rc><c>Ni</c><c>   1</c></rc>
    <rc><c>Ni</c><c>   1</c></rc>
    <rc><c>Ni</c><c>   1</c></rc>
    <rc><c>Ni</c><c>   1</c></rc>
    <rc><c>Ni</c><c>   1</c></rc>
    <rc><c>Ni</c><c>   1</c></rc>
    <rc><c>Ni</c><c>   1</c></rc>
    <rc><c>Ni</c><c>   1</c></rc>
    <rc><c>Ni</c><c>   1</c></rc>
    <rc><c>S </c><c>   2</c></rc>
   </set>
  </array>
  <array name="atomtypes" >
   <dimension dim="1">type</dimension>
   <field type="int">atomspertype</field>
   <field type="string">element</field>
   <field>mass</field>
   <field>valence</field>
   <field type="string">pseudopotential</field>
   <set>
    <rc><c>  55</c><c>Ni</c><c>     58.69000000</c><c>     10.00000000</c><c> PAW_PBE Ni 06Sep2000                   </c></rc>
    <rc><c>   1</c><c>S </c><c>     32.06600000</c><c>      6.00000000</c><c>  PAW_PBE S 17Jan2003                   </c></rc>
   </set>
  </array>
 </atominfo>
 <structure name="initialpos" >
  <crystal>
   <varray name="basis" >
    <v>      20.00000000       0.00000000       0.00000000 </v>
    <v>       0.00000000      20.00000000       0.00000000 </v>
    <v>       0.00000000       0.00000000      20.00000000 </v>
   </varray>
   <i name="volume">   8000.00000000 </i>
   <varray name="rec_basis" >
    <v>       0.05000000       0.00000000       0.00000000 </v>
    <v>       0.00000000       0.05000000       0.00000000 </v>
    <v>       0.00000000       0.00000000       0.05000000 </v>
   </varray>
  </crystal>
  <varray name="positions" >
   <v>       0.35059555       0.59501761       0.41086543 </v>
   <v>       0.45090719       0.66294973       0.37765121 </v>
   <v>       0.41284110       0.66208230       0.49770400 </v>
   <v>       0.51307191       0.72269137       0.46387751 </v>
   <v>       0.51485246       0.60796112       0.46322502 </v>
   <v>       0.57724527       0.66495149       0.37800875 </v>
   <v>       0.61566083       0.66500530       0.49736674 </v>
   <v>       0.31782748       0.59188781       0.52822603 </v>
   <v>       0.35160115       0.48832847       0.58490320 </v>
   <v>       0.41603084       0.54190472       0.49701160 </v>
   <v>       0.41381305       0.59727561       0.60413243 </v>
   <v>       0.51431278       0.66410087       0.57011240 </v>
   <v>       0.51550615       0.54345423       0.56919207 </v>
   <v>       0.61537036       0.54424618       0.49581643 </v>
   <v>       0.61701398       0.59909788       0.60332705 </v>
   <v>       0.39303065       0.59336239       0.29641129 </v>
   <v>       0.35195965       0.48919791       0.34432238 </v>
   <v>       0.45335450       0.49046312       0.27068606 </v>
   <v>       0.45397105       0.54230696       0.37934703 </v>
   <v>       0.51503518       0.59810181       0.29149918 </v>
   <v>       0.51687588       0.43874827       0.35923951 </v>
   <v>       0.57918523       0.49211839       0.27081487 </v>
   <v>       0.57729139       0.54417715       0.37923060 </v>
   <v>       0.31308234       0.48771696       0.46490179 </v>
   <v>       0.35294458       0.38099878       0.51508225 </v>
   <v>       0.41716471       0.43728441       0.43168409 </v>
   <v>       0.45461585       0.43690987       0.54904469 </v>
   <v>       0.51610223       0.49100055       0.46439627 </v>
   <v>       0.51748933       0.37377222       0.46401456 </v>
   <v>       0.61613368       0.43961384       0.43154867 </v>
   <v>       0.57795176       0.43935093       0.54913751 </v>
   <v>       0.67937995       0.60011617       0.41101122 </v>
   <v>       0.71224786       0.59647954       0.52821633 </v>
   <v>       0.67978949       0.49301492       0.58386700 </v>
   <v>       0.63693586       0.59638567       0.29678873 </v>
   <v>       0.68071337       0.49313160       0.34483779 </v>
   <v>       0.71934766       0.49278009       0.46432851 </v>
   <v>       0.68100622       0.38568624       0.51735863 </v>
   <v>       0.45497966       0.49503441       0.66200225 </v>
   <v>       0.51679361       0.59738556       0.67109172 </v>
   <v>       0.57931035       0.49243135       0.65741032 </v>
   <v>       0.39199795       0.37810961       0.62783357 </v>
   <v>       0.45565135       0.31599706       0.54816624 </v>
   <v>       0.51645231       0.38396810       0.63799405 </v>
   <v>       0.57999760       0.31865291       0.55083477 </v>
   <v>       0.63896848       0.38849968       0.63167895 </v>
   <v>       0.41634413       0.38278048       0.32384759 </v>
   <v>       0.51777046       0.38794470       0.25639869 </v>
   <v>       0.61920413       0.38541630       0.32407053 </v>
   <v>       0.32025208       0.38518031       0.39811756 </v>
   <v>       0.41660206       0.31618169       0.42958118 </v>
   <v>       0.51793665       0.31846450       0.35653653 </v>
   <v>       0.61998664       0.31942327       0.43061121 </v>
   <v>       0.71463740       0.38960072       0.40006729 </v>
   <v>       0.51987398       0.25876216       0.46229702 </v>
   <v>       0.39626656       0.42994809       0.71627353 </v>
  </varray>
  <varray name="selective"  type="logical" >
   <v type="logical" >  F  F  F </v>
   <v type="logical" >  F  F  F </v>
   <v type="logical" >  F  F  F </v>
   <v type="logical" >  F  F  F </v>
   <v type="logical" >  F  F  F </v>
   <v type="logical" >  F  F  F </v>
   <v type="logical" >  F  F  F </v>
   <v type="logical" >  F  F  F </v>
   <v type="logical" >  T  T  T </v>
   <v type="logical" >  F  F  F </v>
   <v type="logical" >  F  F  F </v>
   <v type="logical" >  F  F  F </v>
   <v type="logical" >  F  F  F </v>
   <v type="logical" >  F  F  F </v>
   <v type="logical" >  F  F  F </v>
   <v type="logical" >  F  F  F </v>
   <v type="logical" >  F  F  F </v>
   <v type="logical" >  F  F  F </v>
   <v type="logical" >  F  F  F </v>
   <v type="logical" >  F  F  F </v>
   <v type="logical" >  F  F  F </v>
   <v type="logical" >  F  F  F </v>
   <v type="logical" >  F  F  F </v>
   <v type="logical" >  F  F  F </v>
   <v type="logical" >  F  F  F </v>
   <v type="logical" >  F  F  F </v>
   <v type="logical" >  F  F  F </v>
   <v type="logical" >  F  F  F </v>
   <v type="logical" >  F  F  F </v>
   <v type="logical" >  F  F  F </v>
   <v type="logical" >  F  F  F </v>
   <v type="logical" >  F  F  F </v>
   <v type="logical" >  F  F  F </v>
   <v type="logical" >  F  F  F </v>
   <v type="logical" >  F  F  F </v>
   <v type="logical" >  F  F  F </v>
   <v type="logical" >  F  F  F </v>
   <v type="logical" >  F  F  F </v>
   <v type="logical" >  T  T  T </v>
   <v type="logical" >  F  F  F </v>
   <v type="logical" >  F  F  F </v>
   <v type="logical" >  T  T  T </v>
   <v type="logical" >  F  F  F </v>
   <v type="logical" >  T  T  T </v>
   <v type="logical" >  F  F  F </v>
   <v type="logical" >  F  F  F </v>
   <v type="logical" >  F  F  F </v>
   <v type="logical" >  F  F  F </v>
   <v type="logical" >  F  F  F </v>
   <v type="logical" >  F  F  F </v>
   <v type="logical" >  F  F  F </v>
   <v type="logical" >  F  F  F </v>
   <v type="logical" >  F  F  F </v>
   <v type="logical" >  F  F  F </v>
   <v type="logical" >  F  F  F </v>
   <v type="logical" >  T  T  T </v>
  </varray>
  <nose>
   <v>      -3.00000000       0.00000000       0.00010000       0.00010000 </v>
  </nose>
 </structure>
 <calculation>
  <scstep>
   <time name="dav">   23.29   23.37</time>
   <time name="total">   24.30   24.38</time>
   <energy>
    <i name="alphaZ">    387.12086559 </i>
    <i name="ewald"> 182189.62761590 </i>
    <i name="hartreedc">-236952.55219042 </i>
    <i name="XCdc">   1724.63635971 </i>
    <i name="pawpsdc">  47977.39182462 </i>
    <i name="pawaedc"> -51648.67119642 </i>
    <i name="eentropy">     -0.39995671 </i>
    <i name="bandstr">   -397.93489532 </i>
    <i name="atom">  59560.90262231 </i>
    <i name="e_fr_energy">   2840.12104927 </i>
    <i name="e_wo_entrp">   2840.52100597 </i>
    <i name="e_0_energy">   2840.32102762 </i>
   </energy>
  </scstep>
  <scstep>
   <time name="dav">   24.90   24.98</time>
   <time name="total">   24.90   24.99</time>
   <energy>
    <i name="e_fr_energy">   -143.47995917 </i>
    <i name="e_wo_entrp">   -142.89523138 </i>
    <i name="e_0_energy">   -143.18759528 </i>
   </energy>
  </scstep>
  <scstep>
   <time name="dav">   26.79   26.89</time>
   <time name="total">   26.80   26.90</time>
   <energy>
    <i name="e_fr_energy">   -302.89533591 </i>
    <i name="e_wo_entrp">   -302.39857288 </i>
    <i name="e_0_energy">   -302.64695440 </i>
   </energy>
  </scstep>
  <scstep>
   <time name="dav">   25.18   25.27</time>
   <time name="total">   25.19   25.27</time>
   <energy>
    <i name="e_fr_energy">   -306.66081921 </i>
    <i name="e_wo_entrp">   -306.15382786 </i>
    <i name="e_0_energy">   -306.40732354 </i>
   </energy>
  </scstep>
  <scstep>
   <time name="dav">   25.90   25.99</time>
   <time name="total">   25.90   26.00</time>
   <energy>
    <i name="e_fr_energy">   -306.73924716 </i>
    <i name="e_wo_entrp">   -306.23200548 </i>
    <i name="e_0_energy">   -306.48562632 </i>
   </energy>
  </scstep>
  <scstep>
   <time name="dav">   25.97   26.06</time>
   <time name="total">   25.98   26.07</time>
   <energy>
    <i name="e_fr_energy">   -306.74139806 </i>
    <i name="e_wo_entrp">   -306.23414703 </i>
    <i name="e_0_energy">   -306.48777255 </i>
   </energy>
  </scstep>
  <scstep>
   <time name="dav">   29.70   29.81</time>
   <time name="total">   29.71   29.81</time>
   <energy>
    <i name="e_fr_energy">   -306.74151392 </i>
    <i name="e_wo_entrp">   -306.23426229 </i>
    <i name="e_0_energy">   -306.48788811 </i>
   </energy>
  </scstep>
  <scstep>
   <time name="dav">   26.62   26.71</time>
   <time name="total">   27.74   27.83</time>
   <energy>
    <i name="e_fr_energy">   -306.74151642 </i>
    <i name="e_wo_entrp">   -306.23426476 </i>
    <i name="e_0_energy">   -306.48789059 </i>
   </energy>
  </scstep>
  <scstep>
   <time name="diag">    4.82    4.84</time>
   <time name="diis">    9.52    9.55</time>
   <time name="orth">    1.67    1.68</time>
   <time name="total">   18.08   18.15</time>
   <energy>
    <i name="e_fr_energy">   -392.86762189 </i>
    <i name="e_wo_entrp">   -392.62958140 </i>
    <i name="e_0_energy">   -392.74860165 </i>
   </energy>
  </scstep>
  <scstep>
   <time name="diag">    4.83    4.85</time>
   <time name="diis">    9.55    9.58</time>
   <time name="orth">    1.66    1.66</time>
   <time name="total">   18.14   18.19</time>
   <energy>
    <i name="e_fr_energy">   -328.61590910 </i>
    <i name="e_wo_entrp">   -327.84212452 </i>
    <i name="e_0_energy">   -328.22901681 </i>
   </energy>
  </scstep>
  <scstep>
   <time name="diag">    4.83    4.84</time>
   <time name="diis">    9.54    9.57</time>
   <time name="orth">    1.66    1.66</time>
   <time name="total">   18.11   18.17</time>
   <energy>
    <i name="e_fr_energy">   -292.03657305 </i>
    <i name="e_wo_entrp">   -291.64220465 </i>
    <i name="e_0_energy">   -291.83938885 </i>
   </energy>
  </scstep>
  <scstep>
   <time name="diag">    4.83    4.85</time>
   <time name="diis">    9.56    9.59</time>
   <time name="orth">    1.67    1.68</time>
   <time name="total">   18.15   18.21</time>
   <energy>
    <i name="e_fr_energy">   -265.98668294 </i>
    <i name="e_wo_entrp">   -265.23440014 </i>
    <i name="e_0_energy">   -265.61054154 </i>
   </energy>
  </scstep>
  <scstep>
   <time name="diag">    4.83    4.85</time>
   <time name="diis">    9.57    9.61</time>
   <time name="orth">    1.66    1.66</time>
   <time name="total">   18.15   18.21</time>
   <energy>
    <i name="e_fr_energy">   -264.88662789 </i>
    <i name="e_wo_entrp">   -264.24241911 </i>
    <i name="e_0_energy">   -264.56452350 </i>
   </energy>
  </scstep>
  <scstep>
   <time name="diag">    4.85    4.86</time>
   <time name="diis">    9.58    9.61</time>
   <time name="orth">    1.66    1.66</time>
   <time name="total">   18.19   18.25</time>
   <energy>
    <i name="e_fr_energy">   -262.97388990 </i>
    <i name="e_wo_entrp">   -262.44294113 </i>
    <i name="e_0_energy">   -262.70841551 </i>
   </energy>
  </scstep>
  <scstep>
   <time name="diag">    4.83    4.85</time>
   <time name="diis">    9.54    9.58</time>
   <time name="orth">    1.66    1.66</time>
   <time name="total">   18.16   18.21</time>
   <energy>
    <i name="e_fr_energy">   -258.81379485 </i>
    <i name="e_wo_entrp">   -258.21276927 </i>
    <i name="e_0_energy">   -258.51328206 </i>
   </energy>
  </scstep>
  <scstep>
   <time name="diag">    4.82    4.84</time>
   <time name="diis">    9.55    9.58</time>
   <time name="orth">    1.66    1.67</time>
   <time name="total">   18.15   18.21</time>
   <energy>
    <i name="e_fr_energy">   -256.79187443 </i>
    <i name="e_wo_entrp">   -256.24847611 </i>
    <i name="e_0_energy">   -256.52017527 </i>
   </energy>
  </scstep>
  <scstep>
   <time name="diag">    4.84    4.85</time>
   <time name="diis">    9.55    9.58</time>
   <time name="orth">    1.66    1.66</time>
   <time name="total">   18.16   18.22</time>
   <energy>
    <i name="e_fr_energy">   -255.75066794 </i>
    <i name="e_wo_entrp">   -255.19889304 </i>
    <i name="e_0_energy">   -255.47478049 </i>
   </energy>
  </scstep>
  <scstep>
   <time name="diag">    4.83    4.85</time>
   <time name="diis">    9.57    9.60</time>
   <time name="orth">    1.66    1.66</time>
   <time name="total">   18.17   18.23</time>
   <energy>
    <i name="e_fr_energy">   -255.06422250 </i>
    <i name="e_wo_entrp">   -254.47660724 </i>
    <i name="e_0_energy">   -254.77041487 </i>
   </energy>
  </scstep>
  <scstep>
   <time name="diag">    4.83    4.84</time>
   <time name="diis">    9.56    9.59</time>
   <time name="orth">    1.66    1.66</time>
   <time name="total">   18.16   18.22</time>
   <energy>
    <i name="e_fr_energy">   -254.70791328 </i>
    <i name="e_wo_entrp">   -254.07111390 </i>
    <i name="e_0_energy">   -254.38951359 </i>
   </energy>
  </scstep>
  <scstep>
   <time name="diag">    4.89    4.91</time>
   <time name="diis">    9.57    9.61</time>
   <time name="orth">    1.66    1.66</time>
   <time name="total">   18.23   18.29</time>
   <energy>
    <i name="e_fr_energy">   -255.36511590 </i>
    <i name="e_wo_entrp">   -254.71714443 </i>
    <i name="e_0_energy">   -255.04113016 </i>
   </energy>
  </scstep>
  <scstep>
   <time name="diag">    4.85    4.87</time>
   <time name="diis">    9.55    9.59</time>
   <time name="orth">    1.66    1.67</time>
   <time name="total">   18.18   18.24</time>
   <energy>
    <i name="e_fr_energy">   -253.75187152 </i>
    <i name="e_wo_entrp">   -253.06813874 </i>
    <i name="e_0_energy">   -253.41000513 </i>
   </energy>
  </scstep>
  <scstep>
   <time name="diag">    4.87    4.89</time>
   <time name="diis">    9.53    9.57</time>
   <time name="orth">    1.67    1.67</time>
   <time name="total">   18.20   18.26</time>
   <energy>
    <i name="e_fr_energy">   -253.58964552 </i>
    <i name="e_wo_entrp">   -252.92134672 </i>
    <i name="e_0_energy">   -253.25549612 </i>
   </energy>
  </scstep>
  <scstep>
   <time name="diag">    4.86    4.87</time>
   <time name="diis">    9.55    9.59</time>
   <time name="orth">    1.67    1.67</time>
   <time name="total">   18.20   18.26</time>
   <energy>
    <i name="e_fr_energy">   -254.06410990 </i>
    <i name="e_wo_entrp">   -253.38156530 </i>
    <i name="e_0_energy">   -253.72283760 </i>
   </energy>
  </scstep>
  <scstep>
   <time name="diag">    4.83    4.85</time>
   <time name="diis">    9.54    9.58</time>
   <time name="orth">    1.67    1.67</time>
   <time name="total">   18.14   18.20</time>
   <energy>
    <i name="e_fr_energy">   -254.24268284 </i>
    <i name="e_wo_entrp">   -253.55054643 </i>
    <i name="e_0_energy">   -253.89661463 </i>
   </energy>
  </scstep>
  <scstep>
   <time name="diag">    4.86    4.88</time>
   <time name="diis">    9.56    9.60</time>
   <time name="orth">    1.67    1.67</time>
   <time name="total">   18.21   18.26</time>
   <energy>
    <i name="e_fr_energy">   -254.26971680 </i>
    <i name="e_wo_entrp">   -253.58159819 </i>
    <i name="e_0_energy">   -253.92565750 </i>
   </energy>
  </scstep>
  <scstep>
   <time name="diag">    4.85    4.86</time>
   <time name="diis">    9.56    9.60</time>
   <time name="orth">    1.66    1.67</time>
   <time name="total">   18.17   18.25</time>
   <energy>
    <i name="e_fr_energy">   -254.56244632 </i>
    <i name="e_wo_entrp">   -253.86858202 </i>
    <i name="e_0_energy">   -254.21551417 </i>
   </energy>
  </scstep>
  <scstep>
   <time name="diag">    4.85    4.87</time>
   <time name="diis">    9.50    9.54</time>
   <time name="orth">    1.67    1.67</time>
   <time name="total">   18.14   18.20</time>
   <energy>
    <i name="e_fr_energy">   -255.17557606 </i>
    <i name="e_wo_entrp">   -254.48083427 </i>
    <i name="e_0_energy">   -254.82820517 </i>
   </energy>
  </scstep>
  <scstep>
   <time name="diag">    4.84    4.86</time>
   <time name="diis">    9.56    9.60</time>
   <time name="orth">    1.67    1.67</time>
   <time name="total">   18.20   18.26</time>
   <energy>
    <i name="e_fr_energy">   -255.37869503 </i>
    <i name="e_wo_entrp">   -254.68206396 </i>
    <i name="e_0_energy">   -255.03037950 </i>
   </energy>
  </scstep>
  <scstep>
   <time name="diag">    4.84    4.86</time>
   <time name="diis">    9.51    9.54</time>
   <time name="orth">    1.66    1.67</time>
   <time name="total">   18.17   18.23</time>
   <energy>
    <i name="e_fr_energy">   -256.34467682 </i>
    <i name="e_wo_entrp">   -255.65551737 </i>
    <i name="e_0_energy">   -256.00009710 </i>
   </energy>
  </scstep>
  <scstep>
   <time name="diag">    4.86    4.87</time>
   <time name="diis">    9.52    9.55</time>
   <time name="orth">    1.67    1.67</time>
   <time name="total">   18.22   18.28</time>
   <energy>
    <i name="e_fr_energy">   -256.81844834 </i>
    <i name="e_wo_entrp">   -256.13315157 </i>
    <i name="e_0_energy">   -256.47579996 </i>
   </energy>
  </scstep>
  <scstep>
   <time name="diag">    4.84    4.86</time>
   <time name="diis">    9.51    9.55</time>
   <time name="orth">    1.66    1.67</time>
   <time name="total">   18.19   18.25</time>
   <energy>
    <i name="e_fr_energy">   -257.47367542 </i>
    <i name="e_wo_entrp">   -256.79472324 </i>
    <i name="e_0_energy">   -257.13419933 </i>
   </energy>
  </scstep>
  <scstep>
   <time name="diag">    4.84    4.86</time>
   <time name="diis">    9.47    9.51</time>
   <time name="orth">    1.67    1.67</time>
   <time name="total">   18.17   18.23</time>
   <energy>
    <i name="e_fr_energy">   -258.14682210 </i>
    <i name="e_wo_entrp">   -257.47557975 </i>
    <i name="e_0_energy">   -257.81120092 </i>
   </energy>
  </scstep>
  <scstep>
   <time name="diag">    4.92    4.94</time>
   <time name="diis">    9.52    9.55</time>
   <time name="orth">    1.67    1.67</time>
   <time name="total">   18.30   18.36</time>
   <energy>
    <i name="e_fr_energy">   -258.36839513 </i>
    <i name="e_wo_entrp">   -257.69820922 </i>
    <i name="e_0_energy">   -258.03330218 </i>
   </energy>
  </scstep>
  <scstep>
   <time name="diag">    4.83    4.85</time>
   <time name="diis">    9.47    9.50</time>
   <time name="orth">    1.67    1.67</time>
   <time name="total">   18.13   18.19</time>
   <energy>
    <i name="e_fr_energy">   -259.10345502 </i>
    <i name="e_wo_entrp">   -258.43324879 </i>
    <i name="e_0_energy">   -258.76835191 </i>
   </energy>
  </scstep>
  <scstep>
   <time name="diag">    4.83    4.85</time>
   <time name="diis">    9.47    9.50</time>
   <time name="orth">    1.66    1.66</time>
   <time name="total">   18.13   18.19</time>
   <energy>
    <i name="e_fr_energy">   -259.55107936 </i>
    <i name="e_wo_entrp">   -258.88833068 </i>
    <i name="e_0_energy">   -259.21970502 </i>
   </energy>
  </scstep>
  <scstep>
   <time name="diag">    4.83    4.85</time>
   <time name="diis">    9.49    9.52</time>
   <time name="orth">    1.65    1.66</time>
   <time name="total">   18.15   18.21</time>
   <energy>
    <i name="e_fr_energy">   -259.76453235 </i>
    <i name="e_wo_entrp">   -259.10516376 </i>
    <i name="e_0_energy">   -259.43484806 </i>
   </energy>
  </scstep>
  <scstep>
   <time name="diag">    4.82    4.83</time>
   <time name="diis">    9.46    9.50</time>
   <time name="orth">    1.65    1.66</time>
   <time name="total">   18.12   18.18</time>
   <energy>
    <i name="e_fr_energy">   -260.48032774 </i>
    <i name="e_wo_entrp">   -259.82882920 </i>
    <i name="e_0_energy">   -260.15457847 </i>
   </energy>
  </scstep>
  <scstep>
   <time name="diag">    4.82    4.84</time>
   <time name="diis">    9.53    9.56</time>
   <time name="orth">    1.65    1.66</time>
   <time name="total">   18.18   18.24</time>
   <energy>
    <i name="e_fr_energy">   -260.73657150 </i>
    <i name="e_wo_entrp">   -260.08731166 </i>
    <i name="e_0_energy">   -260.41194158 </i>
   </energy>
  </scstep>
  <scstep>
   <time name="diag">    4.84    4.85</time>
   <time name="diis">    9.53    9.56</time>
   <time name="orth">    1.66    1.66</time>
   <time name="total">   18.23   18.29</time>
   <energy>
    <i name="e_fr_energy">   -260.97399648 </i>
    <i name="e_wo_entrp">   -260.32568980 </i>
    <i name="e_0_energy">   -260.64984314 </i>
   </energy>
  </scstep>
  <scstep>
   <time name="diag">    4.86    4.87</time>
   <time name="diis">    9.53    9.56</time>
   <time name="orth">    1.66    1.66</time>
   <time name="total">   18.27   18.33</time>
   <energy>
    <i name="e_fr_energy">   -261.26703938 </i>
    <i name="e_wo_entrp">   -260.62051278 </i>
    <i name="e_0_energy">   -260.94377608 </i>
   </energy>
  </scstep>
  <scstep>
   <time name="diag">    4.85    4.87</time>
   <time name="diis">    9.52    9.56</time>
   <time name="orth">    1.66    1.66</time>
   <time name="total">   18.24   18.30</time>
   <energy>
    <i name="e_fr_energy">   -261.35475442 </i>
    <i name="e_wo_entrp">   -260.70774087 </i>
    <i name="e_0_energy">   -261.03124764 </i>
   </energy>
  </scstep>
  <scstep>
   <time name="diag">    4.85    4.87</time>
   <time name="diis">    9.52    9.56</time>
   <time name="orth">    1.66    1.66</time>
   <time name="total">   18.26   18.32</time>
   <energy>
    <i name="e_fr_energy">   -261.58395071 </i>
    <i name="e_wo_entrp">   -260.93519893 </i>
    <i name="e_0_energy">   -261.25957482 </i>
   </energy>
  </scstep>
  <scstep>
   <time name="diag">    4.85    4.87</time>
   <time name="diis">    9.52    9.55</time>
   <time name="orth">    1.65    1.66</time>
   <time name="total">   18.25   18.31</time>
   <energy>
    <i name="e_fr_energy">   -261.71101091 </i>
    <i name="e_wo_entrp">   -261.06197074 </i>
    <i name="e_0_energy">   -261.38649083 </i>
   </energy>
  </scstep>
  <scstep>
   <time name="diag">    4.85    4.86</time>
   <time name="diis">    9.54    9.57</time>
   <time name="orth">    1.68    1.69</time>
   <time name="total">   18.30   18.36</time>
   <energy>
    <i name="e_fr_energy">   -261.78320031 </i>
    <i name="e_wo_entrp">   -261.13511970 </i>
    <i name="e_0_energy">   -261.45916001 </i>
   </energy>
  </scstep>
  <scstep>
   <time name="diag">    4.85    4.86</time>
   <time name="diis">    9.49    9.52</time>
   <time name="orth">    1.67    1.67</time>
   <time name="total">   18.25   18.30</time>
   <energy>
    <i name="e_fr_energy">   -261.89011752 </i>
    <i name="e_wo_entrp">   -261.24069831 </i>
    <i name="e_0_energy">   -261.56540792 </i>
   </energy>
  </scstep>
  <scstep>
   <time name="diag">    4.86    4.87</time>
   <time name="diis">    9.53    9.56</time>
   <time name="orth">    1.66    1.67</time>
   <time name="total">   18.31   18.37</time>
   <energy>
    <i name="e_fr_energy">   -261.90839557 </i>
    <i name="e_wo_entrp">   -261.25957165 </i>
    <i name="e_0_energy">   -261.58398361 </i>
   </energy>
  </scstep>
  <scstep>
   <time name="diag">    4.85    4.87</time>
   <time name="diis">    9.56    9.59</time>
   <time name="orth">    1.67    1.67</time>
   <time name="total">   18.34   18.40</time>
   <energy>
    <i name="e_fr_energy">   -261.96143682 </i>
    <i name="e_wo_entrp">   -261.31400811 </i>
    <i name="e_0_energy">   -261.63772246 </i>
   </energy>
  </scstep>
  <scstep>
   <time name="diag">    4.85    4.86</time>
   <time name="diis">    9.50    9.54</time>
   <time name="orth">    1.67    1.67</time>
   <time name="total">   18.30   18.36</time>
   <energy>
    <i name="e_fr_energy">   -261.97497049 </i>
    <i name="e_wo_entrp">   -261.32710155 </i>
    <i name="e_0_energy">   -261.65103602 </i>
   </energy>
  </scstep>
  <scstep>
   <time name="diag">    4.86    4.87</time>
   <time name="diis">    9.47    9.58</time>
   <time name="orth">    1.67    1.67</time>
   <time name="total">   18.29   18.42</time>
   <energy>
    <i name="e_fr_energy">   -261.99791133 </i>
    <i name="e_wo_entrp">   -261.34810784 </i>
    <i name="e_0_energy">   -261.67300959 </i>
   </energy>
  </scstep>
  <scstep>
   <time name="diag">    4.84    4.86</time>
   <time name="diis">    9.51    9.54</time>
   <time name="orth">    1.67    1.67</time>
   <time name="total">   18.31   18.37</time>
   <energy>
    <i name="e_fr_energy">   -262.01719120 </i>
    <i name="e_wo_entrp">   -261.36696860 </i>
    <i name="e_0_energy">   -261.69207990 </i>
   </energy>
  </scstep>
  <scstep>
   <time name="diag">    4.84    4.86</time>
   <time name="diis">    9.54    9.58</time>
   <time name="orth">    1.66    1.66</time>
   <time name="total">   18.35   18.41</time>
   <energy>
    <i name="e_fr_energy">   -262.02181850 </i>
    <i name="e_wo_entrp">   -261.37186008 </i>
    <i name="e_0_energy">   -261.69683929 </i>
   </energy>
  </scstep>
  <scstep>
   <time name="diag">    4.85    4.87</time>
   <time name="diis">    9.50    9.53</time>
   <time name="orth">    1.66    1.66</time>
   <time name="total">   18.33   18.39</time>
   <energy>
    <i name="e_fr_energy">   -262.02997611 </i>
    <i name="e_wo_entrp">   -261.37983013 </i>
    <i name="e_0_energy">   -261.70490312 </i>
   </energy>
  </scstep>
  <scstep>
   <time name="diag">    4.84    4.86</time>
   <time name="diis">    9.55    9.59</time>
   <time name="orth">    1.66    1.66</time>
   <time name="total">   18.34   18.40</time>
   <energy>
    <i name="e_fr_energy">   -262.03144776 </i>
    <i name="e_wo_entrp">   -261.38124949 </i>
    <i name="e_0_energy">   -261.70634863 </i>
   </energy>
  </scstep>
  <scstep>
   <time name="diag">    4.84    4.86</time>
   <time name="diis">    9.58    9.62</time>
   <time name="orth">    1.66    1.66</time>
   <time name="total">   18.36   18.42</time>
   <energy>
    <i name="e_fr_energy">   -262.03391175 </i>
    <i name="e_wo_entrp">   -261.38437481 </i>
    <i name="e_0_energy">   -261.70914328 </i>
   </energy>
  </scstep>
  <scstep>
   <time name="diag">    4.85    4.86</time>
   <time name="diis">    9.59    9.63</time>
   <time name="orth">    1.67    1.68</time>
   <time name="total">   18.41   18.47</time>
   <energy>
    <i name="e_fr_energy">   -262.03552290 </i>
    <i name="e_wo_entrp">   -261.38575380 </i>
    <i name="e_0_energy">   -261.71063835 </i>
   </energy>
  </scstep>
  <scstep>
   <time name="diag">    4.86    4.87</time>
   <time name="diis">    9.47    9.50</time>
   <time name="orth">    1.67    1.67</time>
   <time name="total">   18.30   18.35</time>
   <energy>
    <i name="e_fr_energy">   -262.03694800 </i>
    <i name="e_wo_entrp">   -261.38694724 </i>
    <i name="e_0_energy">   -261.71194762 </i>
   </energy>
  </scstep>
  <scstep>
   <time name="diag">    4.86    4.87</time>
   <time name="diis">    9.48    9.51</time>
   <time name="orth">    1.67    1.67</time>
   <time name="total">   18.31   18.38</time>
   <energy>
    <i name="e_fr_energy">   -262.03789844 </i>
    <i name="e_wo_entrp">   -261.38780766 </i>
    <i name="e_0_energy">   -261.71285305 </i>
   </energy>
  </scstep>
  <scstep>
   <time name="diag">    4.86    4.87</time>
   <time name="diis">    9.45    9.49</time>
   <time name="orth">    1.67    1.67</time>
   <time name="total">   18.26   18.32</time>
   <energy>
    <i name="e_fr_energy">   -262.03857331 </i>
    <i name="e_wo_entrp">   -261.38843923 </i>
    <i name="e_0_energy">   -261.71350627 </i>
   </energy>
  </scstep>
  <scstep>
   <time name="diag">    4.87    4.89</time>
   <time name="diis">    9.42    9.48</time>
   <time name="orth">    1.67    1.67</time>
   <time name="total">   18.24   18.33</time>
   <energy>
    <i name="e_fr_energy">   -262.03922791 </i>
    <i name="e_wo_entrp">   -261.38902840 </i>
    <i name="e_0_energy">   -261.71412815 </i>
   </energy>
  </scstep>
  <scstep>
   <time name="diag">    4.84    4.86</time>
   <time name="diis">    9.45    9.49</time>
   <time name="orth">    1.67    1.67</time>
   <time name="total">   18.27   18.33</time>
   <energy>
    <i name="e_fr_energy">   -262.03977395 </i>
    <i name="e_wo_entrp">   -261.38958526 </i>
    <i name="e_0_energy">   -261.71467961 </i>
   </energy>
  </scstep>
  <scstep>
   <time name="diag">    4.85    4.86</time>
   <time name="diis">    9.35    9.38</time>
   <time name="orth">    1.67    1.67</time>
   <time name="total">   18.17   18.23</time>
   <energy>
    <i name="e_fr_energy">   -262.04064232 </i>
    <i name="e_wo_entrp">   -261.39055883 </i>
    <i name="e_0_energy">   -261.71560058 </i>
   </energy>
  </scstep>
  <scstep>
   <time name="diag">    4.87    4.88</time>
   <time name="diis">    8.47    8.50</time>
   <time name="orth">    1.67    1.68</time>
   <time name="total">   17.33   17.39</time>
   <energy>
    <i name="e_fr_energy">   -262.04089193 </i>
    <i name="e_wo_entrp">   -261.39081811 </i>
    <i name="e_0_energy">   -261.71585502 </i>
   </energy>
  </scstep>
  <scstep>
   <time name="diag">    4.86    4.87</time>
   <time name="diis">    8.86    8.89</time>
   <time name="orth">    1.67    1.67</time>
   <time name="total">   17.68   17.73</time>
   <energy>
    <i name="e_fr_energy">   -262.04127381 </i>
    <i name="e_wo_entrp">   -261.39117763 </i>
    <i name="e_0_energy">   -261.71622572 </i>
   </energy>
  </scstep>
  <scstep>
   <time name="diag">    4.86    4.88</time>
   <time name="diis">    7.79    7.82</time>
   <time name="orth">    1.66    1.66</time>
   <time name="total">   16.61   16.66</time>
   <energy>
    <i name="e_fr_energy">   -262.04131313 </i>
    <i name="e_wo_entrp">   -261.39115409 </i>
    <i name="e_0_energy">   -261.71623361 </i>
   </energy>
  </scstep>
  <scstep>
   <time name="diag">    4.84    4.86</time>
   <time name="diis">    8.52    8.55</time>
   <time name="orth">    1.67    1.68</time>
   <time name="total">   17.34   17.40</time>
   <energy>
    <i name="e_fr_energy">   -262.04141696 </i>
    <i name="e_wo_entrp">   -261.39127697 </i>
    <i name="e_0_energy">   -261.71634696 </i>
   </energy>
  </scstep>
  <scstep>
   <time name="diag">    4.85    4.87</time>
   <time name="diis">    6.82    6.84</time>
   <time name="orth">    1.66    1.66</time>
   <time name="total">   15.73   15.78</time>
   <energy>
    <i name="e_fr_energy">   -262.04148369 </i>
    <i name="e_wo_entrp">   -261.39130290 </i>
    <i name="e_0_energy">   -261.71639330 </i>
   </energy>
  </scstep>
  <scstep>
   <time name="diag">    4.86    4.87</time>
   <time name="diis">    6.48    6.50</time>
   <time name="orth">    1.65    1.66</time>
   <time name="total">   15.30   15.35</time>
   <energy>
    <i name="e_fr_energy">   -262.04159264 </i>
    <i name="e_wo_entrp">   -261.39144087 </i>
    <i name="e_0_energy">   -261.71651675 </i>
   </energy>
  </scstep>
  <scstep>
   <time name="diag">    4.87    4.88</time>
   <time name="diis">    6.54    6.56</time>
   <time name="orth">    1.66    1.67</time>
   <time name="total">   15.37   15.41</time>
   <energy>
    <i name="e_fr_energy">   -262.04162738 </i>
    <i name="e_wo_entrp">   -261.39150163 </i>
    <i name="e_0_energy">   -261.71656450 </i>
   </energy>
  </scstep>
  <scstep>
   <time name="diag">    4.85    4.87</time>
   <time name="diis">    6.05    6.07</time>
   <time name="orth">    1.66    1.67</time>
   <time name="total">   14.85   14.89</time>
   <energy>
    <i name="e_fr_energy">   -262.04163353 </i>
    <i name="e_wo_entrp">   -261.39150215 </i>
    <i name="e_0_energy">   -261.71656784 </i>
   </energy>
  </scstep>
  <scstep>
   <time name="diag">    4.87    4.89</time>
   <time name="diis">    6.21    6.23</time>
   <time name="orth">    1.66    1.66</time>
   <time name="total">   15.03   15.07</time>
   <energy>
    <i name="e_fr_energy">   -262.04165854 </i>
    <i name="e_wo_entrp">   -261.39152667 </i>
    <i name="e_0_energy">   -261.71659260 </i>
   </energy>
  </scstep>
  <scstep>
   <time name="diag">    4.85    4.87</time>
   <time name="diis">    6.14    6.16</time>
   <time name="orth">    1.66    1.67</time>
   <time name="total">   14.96   15.01</time>
   <energy>
    <i name="e_fr_energy">   -262.04170075 </i>
    <i name="e_wo_entrp">   -261.39155609 </i>
    <i name="e_0_energy">   -261.71662842 </i>
   </energy>
  </scstep>
  <scstep>
   <time name="diag">    4.88    4.89</time>
   <time name="diis">    6.27    6.29</time>
   <time name="orth">    1.66    1.67</time>
   <time name="total">   15.12   15.17</time>
   <energy>
    <i name="e_fr_energy">   -262.04176413 </i>
    <i name="e_wo_entrp">   -261.39160968 </i>
    <i name="e_0_energy">   -261.71668690 </i>
   </energy>
  </scstep>
  <scstep>
   <time name="diag">    4.87    4.88</time>
   <time name="diis">    6.23    6.25</time>
   <time name="orth">    1.67    1.68</time>
   <time name="total">   15.06   15.11</time>
   <energy>
    <i name="e_fr_energy">   -262.04181260 </i>
    <i name="e_wo_entrp">   -261.39166822 </i>
    <i name="e_0_energy">   -261.71674041 </i>
   </energy>
  </scstep>
  <scstep>
   <time name="diag">    4.86    4.87</time>
   <time name="diis">    6.05    6.07</time>
   <time name="orth">    1.66    1.66</time>
   <time name="total">   14.85   14.89</time>
   <energy>
    <i name="e_fr_energy">   -262.04183123 </i>
    <i name="e_wo_entrp">   -261.39169114 </i>
    <i name="e_0_energy">   -261.71676119 </i>
   </energy>
  </scstep>
  <scstep>
   <time name="diag">    4.84    4.86</time>
   <time name="diis">    6.14    6.16</time>
   <time name="orth">    1.66    1.66</time>
   <time name="total">   14.91   14.96</time>
   <energy>
    <i name="e_fr_energy">   -262.04185261 </i>
    <i name="e_wo_entrp">   -261.39171179 </i>
    <i name="e_0_energy">   -261.71678220 </i>
   </energy>
  </scstep>
  <scstep>
   <time name="diag">    4.86    4.88</time>
   <time name="diis">    5.80    5.82</time>
   <time name="orth">    1.67    1.68</time>
   <time name="total">   14.64   14.69</time>
   <energy>
    <i name="e_fr_energy">   -262.04186314 </i>
    <i name="e_wo_entrp">   -261.39172679 </i>
    <i name="e_0_energy">   -261.71679496 </i>
   </energy>
  </scstep>
  <scstep>
   <time name="diag">    4.85    4.86</time>
   <time name="diis">    5.80    5.82</time>
   <time name="orth">    1.67    1.67</time>
   <time name="total">   14.64   14.69</time>
   <energy>
    <i name="e_fr_energy">   -262.04187371 </i>
    <i name="e_wo_entrp">   -261.39173248 </i>
    <i name="e_0_energy">   -261.71680309 </i>
   </energy>
  </scstep>
  <scstep>
   <time name="diag">    4.85    4.87</time>
   <time name="diis">    5.34    5.35</time>
   <time name="orth">    1.67    1.67</time>
   <time name="total">   14.16   14.21</time>
   <energy>
    <i name="e_fr_energy">   -262.04187831 </i>
    <i name="e_wo_entrp">   -261.39173456 </i>
    <i name="e_0_energy">   -261.71680644 </i>
   </energy>
  </scstep>
  <scstep>
   <time name="diag">    4.86    4.88</time>
   <time name="diis">    5.19    5.21</time>
   <time name="orth">    1.66    1.66</time>
   <time name="total">   14.01   14.05</time>
   <energy>
    <i name="e_fr_energy">   -262.04188267 </i>
    <i name="e_wo_entrp">   -261.39173705 </i>
    <i name="e_0_energy">   -261.71680986 </i>
   </energy>
  </scstep>
  <scstep>
   <time name="diag">    4.87    4.88</time>
   <time name="diis">    4.62    4.64</time>
   <time name="orth">    1.67    1.67</time>
   <time name="total">   13.46   13.50</time>
   <energy>
    <i name="e_fr_energy">   -262.04188462 </i>
    <i name="e_wo_entrp">   -261.39174215 </i>
    <i name="e_0_energy">   -261.71681338 </i>
   </energy>
  </scstep>
  <scstep>
   <time name="diag">    4.85    4.87</time>
   <time name="diis">    4.73    4.74</time>
   <time name="orth">    1.66    1.66</time>
   <time name="total">   13.54   13.58</time>
   <energy>
    <i name="e_fr_energy">   -262.04188646 </i>
    <i name="e_wo_entrp">   -261.39174593 </i>
    <i name="e_0_energy">   -261.71681620 </i>
   </energy>
  </scstep>
  <scstep>
   <time name="diag">    4.87    4.88</time>
   <time name="diis">    4.40    4.41</time>
   <time name="orth">    1.68    1.69</time>
   <time name="total">   13.27   13.31</time>
   <energy>
    <i name="e_fr_energy">   -262.04188810 </i>
    <i name="e_wo_entrp">   -261.39174831 </i>
    <i name="e_0_energy">   -261.71681820 </i>
   </energy>
  </scstep>
  <scstep>
   <time name="diag">    4.86    4.88</time>
   <time name="diis">    4.62    4.63</time>
   <time name="orth">    1.67    1.67</time>
   <time name="total">   13.44   13.48</time>
   <energy>
    <i name="e_fr_energy">   -262.04188985 </i>
    <i name="e_wo_entrp">   -261.39174801 </i>
    <i name="e_0_energy">   -261.71681893 </i>
   </energy>
  </scstep>
  <scstep>
   <time name="diag">    4.85    4.86</time>
   <time name="diis">    4.10    4.11</time>
   <time name="orth">    1.66    1.66</time>
   <time name="total">   11.58   11.61</time>
   <energy>
    <i name="alphaZ">    387.12086559 </i>
    <i name="ewald"> 182189.62761590 </i>
    <i name="hartreedc">-237060.95669896 </i>
    <i name="XCdc">   1682.13637229 </i>
    <i name="pawpsdc">  50099.91665616 </i>
    <i name="pawaedc"> -53857.11291175 </i>
    <i name="eentropy">     -0.65014307 </i>
    <i name="bandstr">  -3263.02626885 </i>
    <i name="atom">  59560.90262231 </i>
    <i name="e_fr_energy">   -262.04189037 </i>
    <i name="e_wo_entrp">   -261.39174730 </i>
    <i name="e_0_energy">   -261.71681883 </i>
   </energy>
  </scstep>
  <structure>
   <crystal>
    <varray name="basis" >
     <v>      20.00000000       0.00000000       0.00000000 </v>
     <v>       0.00000000      20.00000000       0.00000000 </v>
     <v>       0.00000000       0.00000000      20.00000000 </v>
    </varray>
    <i name="volume">   8000.00000000 </i>
    <varray name="rec_basis" >
     <v>       0.05000000       0.00000000       0.00000000 </v>
     <v>       0.00000000       0.05000000       0.00000000 </v>
     <v>       0.00000000       0.00000000       0.05000000 </v>
    </varray>
   </crystal>
   <varray name="positions" >
    <v>       0.35059555       0.59501761       0.41086543 </v>
    <v>       0.45090719       0.66294973       0.37765121 </v>
    <v>       0.41284110       0.66208230       0.49770400 </v>
    <v>       0.51307191       0.72269137       0.46387751 </v>
    <v>       0.51485246       0.60796112       0.46322502 </v>
    <v>       0.57724527       0.66495149       0.37800875 </v>
    <v>       0.61566083       0.66500530       0.49736674 </v>
    <v>       0.31782748       0.59188781       0.52822603 </v>
    <v>       0.35160115       0.48832847       0.58490320 </v>
    <v>       0.41603084       0.54190472       0.49701160 </v>
    <v>       0.41381305       0.59727561       0.60413243 </v>
    <v>       0.51431278       0.66410087       0.57011240 </v>
    <v>       0.51550615       0.54345423       0.56919207 </v>
    <v>       0.61537036       0.54424618       0.49581643 </v>
    <v>       0.61701398       0.59909788       0.60332705 </v>
    <v>       0.39303065       0.59336239       0.29641129 </v>
    <v>       0.35195965       0.48919791       0.34432238 </v>
    <v>       0.45335450       0.49046312       0.27068606 </v>
    <v>       0.45397105       0.54230696       0.37934703 </v>
    <v>       0.51503518       0.59810181       0.29149918 </v>
    <v>       0.51687588       0.43874827       0.35923951 </v>
    <v>       0.57918523       0.49211839       0.27081487 </v>
    <v>       0.57729139       0.54417715       0.37923060 </v>
    <v>       0.31308234       0.48771696       0.46490179 </v>
    <v>       0.35294458       0.38099878       0.51508225 </v>
    <v>       0.41716471       0.43728441       0.43168409 </v>
    <v>       0.45461585       0.43690987       0.54904469 </v>
    <v>       0.51610223       0.49100055       0.46439627 </v>
    <v>       0.51748933       0.37377222       0.46401456 </v>
    <v>       0.61613368       0.43961384       0.43154867 </v>
    <v>       0.57795176       0.43935093       0.54913751 </v>
    <v>       0.67937995       0.60011617       0.41101122 </v>
    <v>       0.71224786       0.59647954       0.52821633 </v>
    <v>       0.67978949       0.49301492       0.58386700 </v>
    <v>       0.63693586       0.59638567       0.29678873 </v>
    <v>       0.68071337       0.49313160       0.34483779 </v>
    <v>       0.71934766       0.49278009       0.46432851 </v>
    <v>       0.68100622       0.38568624       0.51735863 </v>
    <v>       0.45497966       0.49503441       0.66200225 </v>
    <v>       0.51679361       0.59738556       0.67109172 </v>
    <v>       0.57931035       0.49243135       0.65741032 </v>
    <v>       0.39199795       0.37810961       0.62783357 </v>
    <v>       0.45565135       0.31599706       0.54816624 </v>
    <v>       0.51645231       0.38396810       0.63799405 </v>
    <v>       0.57999760       0.31865291       0.55083477 </v>
    <v>       0.63896848       0.38849968       0.63167895 </v>
    <v>       0.41634413       0.38278048       0.32384759 </v>
    <v>       0.51777046       0.38794470       0.25639869 </v>
    <v>       0.61920413       0.38541630       0.32407053 </v>
    <v>       0.32025208       0.38518031       0.39811756 </v>
    <v>       0.41660206       0.31618169       0.42958118 </v>
    <v>       0.51793665       0.31846450       0.35653653 </v>
    <v>       0.61998664       0.31942327       0.43061121 </v>
    <v>       0.71463740       0.38960072       0.40006729 </v>
    <v>       0.51987398       0.25876216       0.46229702 </v>
    <v>       0.39626656       0.42994809       0.71627353 </v>
   </varray>
  </structure>
  <varray name="forces" >
   <v>      -0.02889453       0.04298193       0.01265829 </v>
   <v>       0.01979458       0.02098705      -0.01774753 </v>
   <v>      -0.05561009       0.03877545      -0.03868942 </v>
   <v>       0.00263444       0.13125564       0.00034582 </v>
   <v>      -0.00956556       0.15179843       0.04947482 </v>
   <v>       0.00629402       0.02640364      -0.04636731 </v>
   <v>       0.03454713       0.02310823      -0.05852829 </v>
   <v>      -0.08115883       0.02949417       0.07535135 </v>
   <v>      -0.03185734      -0.00789001       0.01803145 </v>
   <v>      -0.17544773      -0.01079655       0.11683493 </v>
   <v>      -0.00376229       0.00664604      -0.01397575 </v>
   <v>       0.02801029      -0.01148726       0.04664347 </v>
   <v>       0.06907569       0.14311807       0.07252217 </v>
   <v>       0.11508567       0.07618329       0.08104214 </v>
   <v>      -0.04018496       0.03167302       0.02551589 </v>
   <v>      -0.07548200       0.05441568      -0.07482209 </v>
   <v>      -0.04529948      -0.04216758       0.00364156 </v>
   <v>       0.05194248       0.02463247      -0.01917182 </v>
   <v>      -0.08077749       0.09473119      -0.13589108 </v>
   <v>      -0.00568503       0.00998212      -0.02396500 </v>
   <v>       0.01028048      -0.06073079      -0.14989371 </v>
   <v>       0.01318305       0.00973572      -0.02854666 </v>
   <v>       0.05774901       0.05008068      -0.08089941 </v>
   <v>       0.02319139       0.02829425       0.00213182 </v>
   <v>      -0.04500902      -0.07831621       0.01619358 </v>
   <v>      -0.13698056      -0.09700773      -0.07511811 </v>
   <v>      -0.00594885       0.01017501       0.04026642 </v>
   <v>      -0.05012468      -0.05805854       0.03533804 </v>
   <v>      -0.00588566      -0.18000569      -0.03711220 </v>
   <v>       0.16376982      -0.06261614      -0.05556869 </v>
   <v>      -0.00212182      -0.11902646       0.17378820 </v>
   <v>       0.04226899       0.00217014      -0.03659344 </v>
   <v>       0.11119067       0.06487821       0.03164365 </v>
   <v>       0.06874277      -0.03742540      -0.00234081 </v>
   <v>       0.06582125       0.05464829      -0.09626469 </v>
   <v>       0.01855578      -0.00553131      -0.01941183 </v>
   <v>       0.01838383       0.02145806      -0.02257719 </v>
   <v>       0.04181862      -0.00014228       0.03112430 </v>
   <v>       0.03846411       0.01279788      -0.09193850 </v>
   <v>       0.03700715       0.09332460       0.06791428 </v>
   <v>       0.01394740      -0.00361457      -0.00992885 </v>
   <v>       0.00704067      -0.09978167      -0.22053311 </v>
   <v>      -0.05870125      -0.06816462       0.01648274 </v>
   <v>      -0.00040903      -0.01981196       0.02725521 </v>
   <v>       0.01759053       0.03432205       0.00030579 </v>
   <v>       0.01947872      -0.02990716       0.10526017 </v>
   <v>      -0.04142661       0.03633586      -0.04830073 </v>
   <v>      -0.00430982      -0.07834658      -0.12534793 </v>
   <v>       0.01119859       0.04635546      -0.03226549 </v>
   <v>      -0.09366682      -0.04007942      -0.04377441 </v>
   <v>       0.01180858       0.03048005       0.02422447 </v>
   <v>       0.06663596      -0.03317024      -0.01281510 </v>
   <v>      -0.02194212      -0.05746164       0.01273260 </v>
   <v>       0.10321759      -0.06044962      -0.02147990 </v>
   <v>       0.01251168      -0.11062429      -0.00989170 </v>
   <v>      -0.20098940      -0.02862895       0.56303760 </v>
  </varray>
  <varray name="stress" >
   <v>       0.44778357       0.07063571      -0.15068910 </v>
   <v>       0.07063581       0.41298888      -0.06015309 </v>
   <v>      -0.15068899      -0.06015308       0.67493195 </v>
  </varray>
  <energy>
   <i name="e_fr_energy">   -262.04189037 </i>
   <i name="e_wo_entrp">   -261.71681883 </i>
   <i name="e_0_energy">     -0.65014307 </i>
  </energy>
  <time name="totalsc"> 1538.88 1544.04</time>
 </calculation>
 <calculation>
  <scstep>
   <time name="dav">   23.77   23.85</time>
   <time name="total">   25.87   25.96</time>
   <energy>
    <i name="alphaZ">    387.12086559 </i>
    <i name="ewald"> 182234.73347724 </i>
    <i name="hartreedc">-237105.72878183 </i>
    <i name="XCdc">   1682.17924784 </i>
    <i name="pawpsdc">  50099.91413314 </i>
    <i name="pawaedc"> -53857.11030673 </i>
    <i name="eentropy">     -0.65033208 </i>
    <i name="bandstr">  -3263.39875224 </i>
    <i name="atom">  59560.90262231 </i>
    <i name="e_fr_energy">   -262.03782675 </i>
    <i name="e_wo_entrp">   -261.38749467 </i>
    <i name="e_0_energy">   -261.71266071 </i>
   </energy>
  </scstep>
  <scstep>
   <time name="diag">    4.81    4.82</time>
   <time name="diis">    9.54    9.58</time>
   <time name="orth">    1.69    1.70</time>
   <time name="total">   18.15   18.21</time>
   <energy>
    <i name="e_fr_energy">   -262.07684749 </i>
    <i name="e_wo_entrp">   -261.43335403 </i>
    <i name="e_0_energy">   -261.75510076 </i>
   </energy>
  </scstep>
  <scstep>
   <time name="diag">    4.82    4.83</time>
   <time name="diis">    9.58    9.61</time>
   <time name="orth">    1.66    1.66</time>
   <time name="total">   18.15   18.21</time>
   <energy>
    <i name="e_fr_energy">   -262.03907834 </i>
    <i name="e_wo_entrp">   -261.38766750 </i>
    <i name="e_0_energy">   -261.71337292 </i>
   </energy>
  </scstep>
  <scstep>
   <time name="diag">    4.83    4.84</time>
   <time name="diis">    9.60    9.64</time>
   <time name="orth">    1.66    1.66</time>
   <time name="total">   18.18   18.24</time>
   <energy>
    <i name="e_fr_energy">   -262.04123489 </i>
    <i name="e_wo_entrp">   -261.39106128 </i>
    <i name="e_0_energy">   -261.71614809 </i>
   </energy>
  </scstep>
  <scstep>
   <time name="diag">    4.85    4.86</time>
   <time name="diis">    9.56    9.60</time>
   <time name="orth">    1.66    1.66</time>
   <time name="total">   18.16   18.22</time>
   <energy>
    <i name="e_fr_energy">   -262.04265359 </i>
    <i name="e_wo_entrp">   -261.39373882 </i>
    <i name="e_0_energy">   -261.71819621 </i>
   </energy>
  </scstep>
  <scstep>
   <time name="diag">    4.83    4.85</time>
   <time name="diis">    9.56    9.59</time>
   <time name="orth">    1.66    1.66</time>
   <time name="total">   18.14   18.20</time>
   <energy>
    <i name="e_fr_energy">   -262.03872135 </i>
    <i name="e_wo_entrp">   -261.38951454 </i>
    <i name="e_0_energy">   -261.71411795 </i>
   </energy>
  </scstep>
  <scstep>
   <time name="diag">    4.84    4.86</time>
   <time name="diis">    9.57    9.60</time>
   <time name="orth">    1.67    1.68</time>
   <time name="total">   18.19   18.25</time>
   <energy>
    <i name="e_fr_energy">   -262.03919138 </i>
    <i name="e_wo_entrp">   -261.38907236 </i>
    <i name="e_0_energy">   -261.71413187 </i>
   </energy>
  </scstep>
  <scstep>
   <time name="diag">    4.84    4.85</time>
   <time name="diis">    9.57    9.61</time>
   <time name="orth">    1.66    1.67</time>
   <time name="total">   18.17   18.23</time>
   <energy>
    <i name="e_fr_energy">   -262.03975724 </i>
    <i name="e_wo_entrp">   -261.38928420 </i>
    <i name="e_0_energy">   -261.71452072 </i>
   </energy>
  </scstep>
  <scstep>
   <time name="diag">    4.84    4.86</time>
   <time name="diis">    9.52    9.55</time>
   <time name="orth">    1.67    1.67</time>
   <time name="total">   18.14   18.19</time>
   <energy>
    <i name="e_fr_energy">   -262.03934017 </i>
    <i name="e_wo_entrp">   -261.38992453 </i>
    <i name="e_0_energy">   -261.71463235 </i>
   </energy>
  </scstep>
  <scstep>
   <time name="diag">    4.86    4.87</time>
   <time name="diis">    9.52    9.55</time>
   <time name="orth">    1.66    1.66</time>
   <time name="total">   18.14   18.19</time>
   <energy>
    <i name="e_fr_energy">   -262.03918500 </i>
    <i name="e_wo_entrp">   -261.38911668 </i>
    <i name="e_0_energy">   -261.71415084 </i>
   </energy>
  </scstep>
  <scstep>
   <time name="diag">    4.83    4.85</time>
   <time name="diis">    9.53    9.56</time>
   <time name="orth">    1.66    1.66</time>
   <time name="total">   18.13   18.19</time>
   <energy>
    <i name="e_fr_energy">   -262.03930793 </i>
    <i name="e_wo_entrp">   -261.38954254 </i>
    <i name="e_0_energy">   -261.71442523 </i>
   </energy>
  </scstep>
  <scstep>
   <time name="diag">    4.85    4.86</time>
   <time name="diis">    9.49    9.52</time>
   <time name="orth">    1.66    1.66</time>
   <time name="total">   18.10   18.16</time>
   <energy>
    <i name="e_fr_energy">   -262.03929960 </i>
    <i name="e_wo_entrp">   -261.38936485 </i>
    <i name="e_0_energy">   -261.71433222 </i>
   </energy>
  </scstep>
  <scstep>
   <time name="diag">    4.85    4.86</time>
   <time name="diis">    9.48    9.51</time>
   <time name="orth">    1.66    1.66</time>
   <time name="total">   18.08   18.13</time>
   <energy>
    <i name="e_fr_energy">   -262.03926120 </i>
    <i name="e_wo_entrp">   -261.38931202 </i>
    <i name="e_0_energy">   -261.71428661 </i>
   </energy>
  </scstep>
  <scstep>
   <time name="diag">    4.85    4.87</time>
   <time name="diis">    9.44    9.46</time>
   <time name="orth">    1.66    1.66</time>
   <time name="total">   18.07   18.12</time>
   <energy>
    <i name="e_fr_energy">   -262.03928069 </i>
    <i name="e_wo_entrp">   -261.38934433 </i>
    <i name="e_0_energy">   -261.71431251 </i>
   </energy>
  </scstep>
  <scstep>
   <time name="diag">    4.87    4.88</time>
   <time name="diis">    8.94    8.97</time>
   <time name="orth">    1.66    1.66</time>
   <time name="total">   17.57   17.62</time>
   <energy>
    <i name="e_fr_energy">   -262.03928628 </i>
    <i name="e_wo_entrp">   -261.38944516 </i>
    <i name="e_0_energy">   -261.71436572 </i>
   </energy>
  </scstep>
  <scstep>
   <time name="diag">    4.83    4.84</time>
   <time name="diis">    7.95    7.97</time>
   <time name="orth">    1.67    1.67</time>
   <time name="total">   16.57   16.62</time>
   <energy>
    <i name="e_fr_energy">   -262.03928371 </i>
    <i name="e_wo_entrp">   -261.38939911 </i>
    <i name="e_0_energy">   -261.71434141 </i>
   </energy>
  </scstep>
  <scstep>
   <time name="diag">    4.85    4.86</time>
   <time name="diis">    6.46    6.48</time>
   <time name="orth">    1.67    1.67</time>
   <time name="total">   15.10   15.15</time>
   <energy>
    <i name="e_fr_energy">   -262.03928660 </i>
    <i name="e_wo_entrp">   -261.38934570 </i>
    <i name="e_0_energy">   -261.71431615 </i>
   </energy>
  </scstep>
  <scstep>
   <time name="diag">    4.83    4.85</time>
   <time name="diis">    5.82    5.84</time>
   <time name="orth">    1.66    1.67</time>
   <time name="total">   14.44   14.48</time>
   <energy>
    <i name="e_fr_energy">   -262.03928903 </i>
    <i name="e_wo_entrp">   -261.38933255 </i>
    <i name="e_0_energy">   -261.71431079 </i>
   </energy>
  </scstep>
  <scstep>
   <time name="diag">    4.84    4.85</time>
   <time name="diis">    6.04    6.05</time>
   <time name="orth">    1.66    1.66</time>
   <time name="total">   14.67   14.71</time>
   <energy>
    <i name="e_fr_energy">   -262.03929403 </i>
    <i name="e_wo_entrp">   -261.38940549 </i>
    <i name="e_0_energy">   -261.71434976 </i>
   </energy>
  </scstep>
  <scstep>
   <time name="diag">    4.83    4.85</time>
   <time name="diis">    5.82    5.83</time>
   <time name="orth">    1.66    1.66</time>
   <time name="total">   14.44   14.48</time>
   <energy>
    <i name="e_fr_energy">   -262.03929630 </i>
    <i name="e_wo_entrp">   -261.38939417 </i>
    <i name="e_0_energy">   -261.71434524 </i>
   </energy>
  </scstep>
  <scstep>
   <time name="diag">    4.85    4.87</time>
   <time name="diis">    5.81    5.83</time>
   <time name="orth">    1.66    1.66</time>
   <time name="total">   14.47   14.51</time>
   <energy>
    <i name="e_fr_energy">   -262.03929905 </i>
    <i name="e_wo_entrp">   -261.38938806 </i>
    <i name="e_0_energy">   -261.71434356 </i>
   </energy>
  </scstep>
  <scstep>
   <time name="diag">    4.86    4.87</time>
   <time name="diis">    5.86    5.87</time>
   <time name="orth">    1.67    1.67</time>
   <time name="total">   14.53   14.57</time>
   <energy>
    <i name="e_fr_energy">   -262.03930235 </i>
    <i name="e_wo_entrp">   -261.38939667 </i>
    <i name="e_0_energy">   -261.71434951 </i>
   </energy>
  </scstep>
  <scstep>
   <time name="diag">    4.85    4.86</time>
   <time name="diis">    5.64    5.66</time>
   <time name="orth">    1.67    1.67</time>
   <time name="total">   14.31   14.35</time>
   <energy>
    <i name="e_fr_energy">   -262.03930406 </i>
    <i name="e_wo_entrp">   -261.38939361 </i>
    <i name="e_0_energy">   -261.71434883 </i>
   </energy>
  </scstep>
  <scstep>
   <time name="diag">    4.89    4.90</time>
   <time name="diis">    5.94    5.97</time>
   <time name="orth">    1.65    1.66</time>
   <time name="total">   14.64   14.69</time>
   <energy>
    <i name="e_fr_energy">   -262.03930910 </i>
    <i name="e_wo_entrp">   -261.38940048 </i>
    <i name="e_0_energy">   -261.71435479 </i>
   </energy>
  </scstep>
  <scstep>
   <time name="diag">    4.87    4.88</time>
   <time name="diis">    5.72    5.75</time>
   <time name="orth">    1.67    1.67</time>
   <time name="total">   14.42   14.46</time>
   <energy>
    <i name="e_fr_energy">   -262.03931181 </i>
    <i name="e_wo_entrp">   -261.38940318 </i>
    <i name="e_0_energy">   -261.71435749 </i>
   </energy>
  </scstep>
  <scstep>
   <time name="diag">    4.84    4.86</time>
   <time name="diis">    4.66    4.68</time>
   <time name="orth">    1.67    1.67</time>
[...]
       <r>   -15.9413     0.0000     1.0000 </r>
       <r>   -15.8732     0.0000     1.0000 </r>
       <r>   -15.8050     0.0000     1.0000 </r>
       <r>   -15.7369     0.0000     1.0000 </r>
       <r>   -15.6688     0.0000     1.0000 </r>
       <r>   -15.6007     0.0000     1.0000 </r>
       <r>   -15.5326     0.0000     1.0000 </r>
       <r>   -15.4645     0.0000     1.0000 </r>
       <r>   -15.3964     0.0000     1.0000 </r>
       <r>   -15.3283     0.0000     1.0000 </r>
       <r>   -15.2602     0.0000     1.0000 </r>
       <r>   -15.1920     0.0000     1.0000 </r>
       <r>   -15.1239     0.0000     1.0000 </r>
       <r>   -15.0558     0.0000     1.0000 </r>
       <r>   -14.9877     0.0000     1.0000 </r>
       <r>   -14.9196     0.0000     1.0000 </r>
       <r>   -14.8515     0.0000     1.0000 </r>
       <r>   -14.7834     0.0000     1.0000 </r>
       <r>   -14.7153     0.0000     1.0000 </r>
       <r>   -14.6472     0.0000     1.0000 </r>
       <r>   -14.5790     0.0000     1.0000 </r>
       <r>   -14.5109     0.0000     1.0000 </r>
       <r>   -14.4428     0.0000     1.0000 </r>
       <r>   -14.3747     0.0000     1.0000 </r>
       <r>   -14.3066     0.0000     1.0000 </r>
       <r>   -14.2385     0.0000     1.0000 </r>
       <r>   -14.1704     0.0000     1.0000 </r>
       <r>   -14.1023     0.0000     1.0000 </r>
       <r>   -14.0341     0.0000     1.0000 </r>
       <r>   -13.9660     0.0000     1.0000 </r>
       <r>   -13.8979     0.0000     1.0000 </r>
       <r>   -13.8298     0.0000     1.0000 </r>
       <r>   -13.7617     0.0000     1.0000 </r>
       <r>   -13.6936     0.0000     1.0000 </r>
       <r>   -13.6255     0.0000     1.0000 </r>
       <r>   -13.5574     0.0000     1.0000 </r>
       <r>   -13.4893     0.0000     1.0000 </r>
       <r>   -13.4211     0.0000     1.0000 </r>
       <r>   -13.3530     0.0000     1.0000 </r>
       <r>   -13.2849     0.0000     1.0000 </r>
       <r>   -13.2168     0.0000     1.0000 </r>
       <r>   -13.1487     0.0000     1.0000 </r>
       <r>   -13.0806     0.0000     1.0000 </r>
       <r>   -13.0125     0.0000     1.0000 </r>
       <r>   -12.9444     0.0000     1.0000 </r>
       <r>   -12.8763     0.0000     1.0000 </r>
       <r>   -12.8081     0.0000     1.0000 </r>
       <r>   -12.7400     0.0000     1.0000 </r>
       <r>   -12.6719     0.0000     1.0000 </r>
       <r>   -12.6038     0.0000     1.0000 </r>
       <r>   -12.5357     0.0000     1.0000 </r>
       <r>   -12.4676     0.0000     1.0000 </r>
       <r>   -12.3995     0.0001     1.0000 </r>
       <r>   -12.3314     0.0038     1.0003 </r>
       <r>   -12.2633     0.0856     1.0061 </r>
       <r>   -12.1951     0.8113     1.0614 </r>
       <r>   -12.1270     3.2229     1.2809 </r>
       <r>   -12.0589     5.4068     1.6491 </r>
       <r>   -11.9908     3.8430     1.9109 </r>
       <r>   -11.9227     1.1548     1.9895 </r>
       <r>   -11.8546     0.1457     1.9995 </r>
       <r>   -11.7865     0.0077     2.0000 </r>
       <r>   -11.7184     0.0002     2.0000 </r>
       <r>   -11.6502     0.0000     2.0000 </r>
       <r>   -11.5821     0.0000     2.0000 </r>
       <r>   -11.5140     0.0000     2.0000 </r>
       <r>   -11.4459     0.0000     2.0000 </r>
       <r>   -11.3778     0.0000     2.0000 </r>
       <r>   -11.3097     0.0000     2.0000 </r>
       <r>   -11.2416     0.0000     2.0000 </r>
       <r>   -11.1735     0.0000     2.0000 </r>
       <r>   -11.1054     0.0000     2.0000 </r>
       <r>   -11.0372     0.0001     2.0000 </r>
       <r>   -10.9691     0.0059     2.0004 </r>
       <r>   -10.9010     0.1441     2.0102 </r>
       <r>   -10.8329     1.4931     2.1119 </r>
       <r>   -10.7648     6.7895     2.5744 </r>
       <r>   -10.6967    14.0209     3.5293 </r>
       <r>   -10.6286    13.6282     4.4576 </r>
       <r>   -10.5605     6.3786     4.8920 </r>
       <r>   -10.4924     1.4296     4.9894 </r>
       <r>   -10.4242     0.1485     4.9995 </r>
       <r>   -10.3561     0.0068     5.0000 </r>
       <r>   -10.2880     0.0001     5.0000 </r>
       <r>   -10.2199     0.0000     5.0000 </r>
       <r>   -10.1518     0.0000     5.0000 </r>
       <r>   -10.0837     0.0000     5.0000 </r>
       <r>   -10.0156     0.0000     5.0000 </r>
       <r>    -9.9475     0.0000     5.0000 </r>
       <r>    -9.8794     0.0000     5.0000 </r>
       <r>    -9.8112     0.0000     5.0000 </r>
       <r>    -9.7431     0.0001     5.0000 </r>
       <r>    -9.6750     0.0039     5.0003 </r>
       <r>    -9.6069     0.1088     5.0077 </r>
       <r>    -9.5388     1.3379     5.0988 </r>
       <r>    -9.4707     7.5202     5.6110 </r>
       <r>    -9.4026    19.7700     6.9576 </r>
       <r>    -9.3345    24.8126     8.6476 </r>
       <r>    -9.2663    15.6475     9.7134 </r>
       <r>    -9.1982     7.3734    10.2156 </r>
       <r>    -9.1301     5.9699    10.6222 </r>
       <r>    -9.0620     4.0777    10.9000 </r>
       <r>    -8.9939     1.2871    10.9876 </r>
       <r>    -8.9258     0.1721    10.9993 </r>
       <r>    -8.8577     0.0096    11.0000 </r>
       <r>    -8.7896     0.0005    11.0000 </r>
       <r>    -8.7215     0.0108    11.0007 </r>
       <r>    -8.6533     0.2042    11.0147 </r>
       <r>    -8.5852     1.7338    11.1327 </r>
       <r>    -8.5171     6.9603    11.6068 </r>
       <r>    -8.4490    13.8438    12.5497 </r>
       <r>    -8.3809    14.1261    13.5119 </r>
       <r>    -8.3128     9.0727    14.1298 </r>
       <r>    -8.2447     6.9997    14.6066 </r>
       <r>    -8.1766     8.7195    15.2005 </r>
       <r>    -8.1085    22.3130    16.7203 </r>
       <r>    -8.0403    46.0545    19.8571 </r>
       <r>    -7.9722    49.8440    23.2521 </r>
       <r>    -7.9041    33.1530    25.5101 </r>
       <r>    -7.8360    16.5579    26.6379 </r>
       <r>    -7.7679     6.9992    27.1147 </r>
       <r>    -7.6998     6.0261    27.5251 </r>
       <r>    -7.6317     8.2325    28.0858 </r>
       <r>    -7.5636    14.2111    29.0538 </r>
       <r>    -7.4955    24.1805    30.7007 </r>
       <r>    -7.4273    32.7379    32.9306 </r>
       <r>    -7.3592    38.9916    35.5863 </r>
       <r>    -7.2911    34.7744    37.9549 </r>
       <r>    -7.2230    23.2171    39.5362 </r>
       <r>    -7.1549    19.9889    40.8977 </r>
       <r>    -7.0868    29.7291    42.9226 </r>
       <r>    -7.0187    41.3909    45.7418 </r>
       <r>    -6.9506    47.7853    48.9965 </r>
       <r>    -6.8824    47.6381    52.2412 </r>
       <r>    -6.8143    45.3984    55.3334 </r>
       <r>    -6.7462    38.0386    57.9242 </r>
       <r>    -6.6781    29.3731    59.9249 </r>
       <r>    -6.6100    25.7566    61.6792 </r>
       <r>    -6.5419    28.2579    63.6039 </r>
       <r>    -6.4738    26.2044    65.3887 </r>
       <r>    -6.4057    16.9707    66.5446 </r>
       <r>    -6.3376    14.3069    67.5190 </r>
       <r>    -6.2694    29.3618    69.5189 </r>
       <r>    -6.2013    48.0563    72.7921 </r>
       <r>    -6.1332    50.3871    76.2240 </r>
       <r>    -6.0651    44.8552    79.2792 </r>
       <r>    -5.9970    45.3153    82.3657 </r>
       <r>    -5.9289    63.5062    86.6912 </r>
       <r>    -5.8608    77.8106    91.9910 </r>
       <r>    -5.7927    61.3390    96.1689 </r>
       <r>    -5.7246    45.9282    99.2971 </r>
       <r>    -5.6564    55.5793   103.0827 </r>
       <r>    -5.5883    66.8667   107.6371 </r>
       <r>    -5.5202    72.8159   112.5967 </r>
       <r>    -5.4521    88.0122   118.5913 </r>
       <r>    -5.3840    90.4745   124.7536 </r>
       <r>    -5.3159    63.2623   129.0625 </r>
       <r>    -5.2478    42.8818   131.9833 </r>
       <r>    -5.1797    49.9200   135.3834 </r>
       <r>    -5.1116    70.0920   140.1575 </r>
       <r>    -5.0434    75.1487   145.2759 </r>
       <r>    -4.9753    67.9166   149.9018 </r>
       <r>    -4.9072    79.9581   155.3479 </r>
       <r>    -4.8391   106.7144   162.6164 </r>
       <r>    -4.7710   106.9446   169.9005 </r>
       <r>    -4.7029    84.5275   175.6578 </r>
       <r>    -4.6348    73.2951   180.6500 </r>
       <r>    -4.5667    73.1488   185.6323 </r>
       <r>    -4.4985    64.9791   190.0581 </r>
       <r>    -4.4304    54.3650   193.7610 </r>
       <r>    -4.3623    65.4468   198.2187 </r>
       <r>    -4.2942    95.4511   204.7200 </r>
       <r>    -4.2261   113.2731   212.4352 </r>
       <r>    -4.1580   105.7389   219.6372 </r>
       <r>    -4.0899    95.8566   226.1662 </r>
       <r>    -4.0218   109.2329   233.6062 </r>
       <r>    -3.9537   121.9987   241.9157 </r>
       <r>    -3.8855   113.2642   249.6303 </r>
       <r>    -3.8174   109.0382   257.0570 </r>
       <r>    -3.7493   123.0525   265.4383 </r>
       <r>    -3.6812   132.9843   274.4960 </r>
       <r>    -3.6131   105.9404   281.7118 </r>
       <r>    -3.5450    70.9889   286.5469 </r>
       <r>    -3.4769    57.1801   290.4416 </r>
       <r>    -3.4088    46.5643   293.6131 </r>
       <r>    -3.3407    32.9106   295.8547 </r>
       <r>    -3.2725    24.1646   297.5006 </r>
       <r>    -3.2044    18.9709   298.7927 </r>
       <r>    -3.1363    17.6621   299.9957 </r>
       <r>    -3.0682    17.6545   301.1982 </r>
       <r>    -3.0001    15.0393   302.2225 </r>
       <r>    -2.9320     8.7208   302.8165 </r>
       <r>    -2.8639     3.7783   303.0739 </r>
       <r>    -2.7958     4.8639   303.4052 </r>
       <r>    -2.7277     8.5795   303.9895 </r>
       <r>    -2.6595    11.5342   304.7751 </r>
       <r>    -2.5914    13.7037   305.7085 </r>
       <r>    -2.5233    13.7412   306.6445 </r>
       <r>    -2.4552    11.3105   307.4148 </r>
       <r>    -2.3871     8.4491   307.9903 </r>
       <r>    -2.3190     7.7780   308.5201 </r>
       <r>    -2.2509     9.0255   309.1348 </r>
       <r>    -2.1828    11.0642   309.8884 </r>
       <r>    -2.1146    15.1690   310.9216 </r>
       <r>    -2.0465    21.5676   312.3906 </r>
       <r>    -1.9784    24.1564   314.0359 </r>
       <r>    -1.9103    18.1991   315.2755 </r>
       <r>    -1.8422     8.3864   315.8467 </r>
       <r>    -1.7741     2.0492   315.9863 </r>
       <r>    -1.7060     0.6273   316.0290 </r>
       <r>    -1.6379     2.1938   316.1784 </r>
       <r>    -1.5698     4.9795   316.5176 </r>
       <r>    -1.5016     5.0536   316.8618 </r>
       <r>    -1.4335     4.3374   317.1572 </r>
       <r>    -1.3654     9.5095   317.8049 </r>
       <r>    -1.2973    15.7317   318.8764 </r>
       <r>    -1.2292    13.3907   319.7885 </r>
       <r>    -1.1611    11.4201   320.5663 </r>
       <r>    -1.0930    16.3741   321.6816 </r>
       <r>    -1.0249    16.6668   322.8168 </r>
       <r>    -0.9568    12.0233   323.6357 </r>
       <r>    -0.8886    11.9651   324.4507 </r>
       <r>    -0.8205    18.0118   325.6775 </r>
       <r>    -0.7524    22.3919   327.2026 </r>
       <r>    -0.6843    26.1853   328.9862 </r>
       <r>    -0.6162    33.3512   331.2578 </r>
       <r>    -0.5481    31.5756   333.4084 </r>
       <r>    -0.4800    18.9240   334.6974 </r>
       <r>    -0.4119    11.1536   335.4570 </r>
       <r>    -0.3438    11.3052   336.2271 </r>
       <r>    -0.2756     8.1928   336.7851 </r>
       <r>    -0.2075     2.7347   336.9713 </r>
       <r>    -0.1394     0.3957   336.9983 </r>
       <r>    -0.0713     0.0250   337.0000 </r>
       <r>    -0.0032     0.0204   337.0014 </r>
       <r>     0.0649     0.2919   337.0213 </r>
       <r>     0.1330     1.8129   337.1448 </r>
       <r>     0.2011     5.0177   337.4865 </r>
       <r>     0.2693     8.2621   338.0493 </r>
       <r>     0.3374    15.3406   339.0941 </r>
       <r>     0.4055    27.3656   340.9580 </r>
       <r>     0.4736    29.9049   342.9949 </r>
       <r>     0.5417    21.5574   344.4632 </r>
       <r>     0.6098    16.2799   345.5721 </r>
       <r>     0.6779    13.1645   346.4687 </r>
       <r>     0.7460     7.6967   346.9929 </r>
       <r>     0.8141     6.8443   347.4591 </r>
       <r>     0.8823    12.8489   348.3343 </r>
       <r>     0.9504    21.5438   349.8017 </r>
       <r>     1.0185    26.3718   351.5979 </r>
       <r>     1.0866    23.3977   353.1915 </r>
       <r>     1.1547    23.3368   354.7810 </r>
       <r>     1.2228    34.4482   357.1273 </r>
       <r>     1.2909    47.2495   360.3456 </r>
       <r>     1.3590    46.0545   363.4824 </r>
       <r>     1.4271    37.8242   366.0587 </r>
       <r>     1.4953    33.7091   368.3547 </r>
       <r>     1.5634    31.3583   370.4905 </r>
       <r>     1.6315    32.8721   372.7295 </r>
       <r>     1.6996    35.9605   375.1788 </r>
       <r>     1.7677    34.3914   377.5212 </r>
       <r>     1.8358    24.4506   379.1866 </r>
       <r>     1.9039     9.8771   379.8594 </r>
       <r>     1.9720     1.8979   379.9886 </r>
       <r>     2.0401     0.1611   379.9996 </r>
       <r>     2.1083     0.0058   380.0000 </r>
       <r>     2.1764     0.0001   380.0000 </r>
       <r>     2.2445     0.0000   380.0000 </r>
       <r>     2.3126     0.0000   380.0000 </r>
       <r>     2.3807     0.0000   380.0000 </r>
       <r>     2.4488     0.0000   380.0000 </r>
       <r>     2.5169     0.0000   380.0000 </r>
       <r>     2.5850     0.0000   380.0000 </r>
       <r>     2.6532     0.0000   380.0000 </r>
       <r>     2.7213     0.0000   380.0000 </r>
       <r>     2.7894     0.0000   380.0000 </r>
      </set>
     </set>
    </array>
   </total>
  </dos>
 </calculation>
 <structure name="finalpos" >
  <crystal>
   <varray name="basis" >
    <v>      20.00000000       0.00000000       0.00000000 </v>
    <v>       0.00000000      20.00000000       0.00000000 </v>
    <v>       0.00000000       0.00000000      20.00000000 </v>
   </varray>
   <i name="volume">   8000.00000000 </i>
   <varray name="rec_basis" >
    <v>       0.05000000       0.00000000       0.00000000 </v>
    <v>       0.00000000       0.05000000       0.00000000 </v>
    <v>       0.00000000       0.00000000       0.05000000 </v>
   </varray>
  </crystal>
  <varray name="positions" >
   <v>       0.35059555       0.59501761       0.41086543 </v>
   <v>       0.45090719       0.66294973       0.37765121 </v>
   <v>       0.41284110       0.66208230       0.49770400 </v>
   <v>       0.51307191       0.72269137       0.46387751 </v>
   <v>       0.51485246       0.60796112       0.46322502 </v>
   <v>       0.57724527       0.66495149       0.37800875 </v>
   <v>       0.61566083       0.66500530       0.49736674 </v>
   <v>       0.31782748       0.59188781       0.52822603 </v>
   <v>       0.35160115       0.48832847       0.58490320 </v>
   <v>       0.41603084       0.54190472       0.49701160 </v>
   <v>       0.41381305       0.59727561       0.60413243 </v>
   <v>       0.51431278       0.66410087       0.57011240 </v>
   <v>       0.51550615       0.54345423       0.56919207 </v>
   <v>       0.61537036       0.54424618       0.49581643 </v>
   <v>       0.61701398       0.59909788       0.60332705 </v>
   <v>       0.39303065       0.59336239       0.29641129 </v>
   <v>       0.35195965       0.48919791       0.34432238 </v>
   <v>       0.45335450       0.49046312       0.27068606 </v>
   <v>       0.45397105       0.54230696       0.37934703 </v>
   <v>       0.51503518       0.59810181       0.29149918 </v>
   <v>       0.51687588       0.43874827       0.35923951 </v>
   <v>       0.57918523       0.49211839       0.27081487 </v>
   <v>       0.57729139       0.54417715       0.37923060 </v>
   <v>       0.31308234       0.48771696       0.46490179 </v>
   <v>       0.35294458       0.38099878       0.51508225 </v>
   <v>       0.41716471       0.43728441       0.43168409 </v>
   <v>       0.45461585       0.43690987       0.54904469 </v>
   <v>       0.51610223       0.49100055       0.46439627 </v>
   <v>       0.51748933       0.37377222       0.46401456 </v>
   <v>       0.61613368       0.43961384       0.43154867 </v>
   <v>       0.57795176       0.43935093       0.54913751 </v>
   <v>       0.67937995       0.60011617       0.41101122 </v>
   <v>       0.71224786       0.59647954       0.52821633 </v>
   <v>       0.67978949       0.49301492       0.58386700 </v>
   <v>       0.63693586       0.59638567       0.29678873 </v>
   <v>       0.68071337       0.49313160       0.34483779 </v>
   <v>       0.71934766       0.49278009       0.46432851 </v>
   <v>       0.68100622       0.38568624       0.51735863 </v>
   <v>       0.45497966       0.49503441       0.66200225 </v>
   <v>       0.51679361       0.59738556       0.67109172 </v>
   <v>       0.57931035       0.49243135       0.65741032 </v>
   <v>       0.39199795       0.37810961       0.62783357 </v>
   <v>       0.45565135       0.31599706       0.54816624 </v>
   <v>       0.51645231       0.38396810       0.63799405 </v>
   <v>       0.57999760       0.31865291       0.55083477 </v>
   <v>       0.63896848       0.38849968       0.63167895 </v>
   <v>       0.41634413       0.38278048       0.32384759 </v>
   <v>       0.51777046       0.38794470       0.25639869 </v>
   <v>       0.61920413       0.38541630       0.32407053 </v>
   <v>       0.32025208       0.38518031       0.39811756 </v>
   <v>       0.41660206       0.31618169       0.42958118 </v>
   <v>       0.51793665       0.31846450       0.35653653 </v>
   <v>       0.61998664       0.31942327       0.43061121 </v>
   <v>       0.71463740       0.38960072       0.40006729 </v>
   <v>       0.51987398       0.25876216       0.46229702 </v>
   <v>       0.39626656       0.42994809       0.71502353 </v>
  </varray>
  <varray name="selective"  type="logical" >
   <v type="logical" >  F  F  F </v>
   <v type="logical" >  F  F  F </v>
   <v type="logical" >  F  F  F </v>
   <v type="logical" >  F  F  F </v>
   <v type="logical" >  F  F  F </v>
   <v type="logical" >  F  F  F </v>
   <v type="logical" >  F  F  F </v>
   <v type="logical" >  F  F  F </v>
   <v type="logical" >  T  T  T </v>
   <v type="logical" >  F  F  F </v>
   <v type="logical" >  F  F  F </v>
   <v type="logical" >  F  F  F </v>
   <v type="logical" >  F  F  F </v>
   <v type="logical" >  F  F  F </v>
   <v type="logical" >  F  F  F </v>
   <v type="logical" >  F  F  F </v>
   <v type="logical" >  F  F  F </v>
   <v type="logical" >  F  F  F </v>
   <v type="logical" >  F  F  F </v>
   <v type="logical" >  F  F  F </v>
   <v type="logical" >  F  F  F </v>
   <v type="logical" >  F  F  F </v>
   <v type="logical" >  F  F  F </v>
   <v type="logical" >  F  F  F </v>
   <v type="logical" >  F  F  F </v>
   <v type="logical" >  F  F  F </v>
   <v type="logical" >  F  F  F </v>
   <v type="logical" >  F  F  F </v>
   <v type="logical" >  F  F  F </v>
   <v type="logical" >  F  F  F </v>
   <v type="logical" >  F  F  F </v>
   <v type="logical" >  F  F  F </v>
   <v type="logical" >  F  F  F </v>
   <v type="logical" >  F  F  F </v>
   <v type="logical" >  F  F  F </v>
   <v type="logical" >  F  F  F </v>
   <v type="logical" >  F  F  F </v>
   <v type="logical" >  F  F  F </v>
   <v type="logical" >  T  T  T </v>
   <v type="logical" >  F  F  F </v>
   <v type="logical" >  F  F  F </v>
   <v type="logical" >  T  T  T </v>
   <v type="logical" >  F  F  F </v>
   <v type="logical" >  T  T  T </v>
   <v type="logical" >  F  F  F </v>
   <v type="logical" >  F  F  F </v>
   <v type="logical" >  F  F  F </v>
   <v type="logical" >  F  F  F </v>
   <v type="logical" >  F  F  F </v>
   <v type="logical" >  F  F  F </v>
   <v type="logical" >  F  F  F </v>
   <v type="logical" >  F  F  F </v>
   <v type="logical" >  F  F  F </v>
   <v type="logical" >  F  F  F </v>
   <v type="logical" >  F  F  F </v>
   <v type="logical" >  T  T  T </v>
  </varray>
  <nose>
   <v>      -3.00000000       0.00000000       0.00010000       0.00010000 </v>
  </nose>
 </structure>
</modeling>
