 vasp.6.3.2 27Jun22 (build Aug 05 2024 15:42:26) complex                        
  
 executed on             LinuxIFC date 2025.06.04  20:33:56
 running  294 mpi-ranks, with    1 threads/rank
 each image running on   42 cores
 distrk:  each k-point on   42 cores,    1 groups
 distr:  one band on NCORE=   1 cores,   42 groups


--------------------------------------------------------------------------------------------------------


 INCAR:
   ADDGRID = True
   ALGO = Fast
   EDIFF = 1e-06
   EDIFFG = -0.05
   ENCUT = 520.0
   IBRION = 1
   ISIF = 2
   ISMEAR = 0
   ISPIN = 2
   ISYM = 0
   LASPH = True
   LDAU = True
   LDAUJ = 0 0 0 0
   LDAUL = 0 0 2 0
   LDAUPRINT = 1
   LDAUTYPE = 2
   LDAUU = 0 0 4.38 0
   LMAXMIX = 4
   LORBIT = 11
   LREAL = False
   LWAVE = False
   MAGMOM = 93*0.6
   NELM = 100
   NELMIN = 3
   NSW = 450
   POTIM = 0.2
   PREC = Accurate
   SIGMA = 0.05
   IMAGES = 7
   SPRING = -5.0
   ICHAIN = 0
   LCLIMB = .TRUE.
   LNEBCELL = .FALSE.
   IOPT = 3

 POTCAR:   PAW_PBE Li_sv 23Jan2001                
 POTCAR:   PAW_PBE Nb_pv 08Apr2002                
 POTCAR:   PAW_PBE Mo_pv 08Apr2002                
 POTCAR:   PAW_PBE O 08Apr2002                    
 POTCAR:   PAW_PBE Li_sv 23Jan2001                
   VRHFIN =Li: 1s2s2p                                                                               
   LEXCH  = PE                                                                                      
   EATOM  =   202.7858 eV,   14.9043 Ry                                                             
                                                                                                    
   TITEL  = PAW_PBE Li_sv 23Jan2001                                                                 
   LULTRA =        F    use ultrasoft PP ?                                                          
   IUNSCR =        0    unscreen: 0-lin 1-nonlin 2-no                                               
   RPACOR =     .000    partial core radius                                                         
   POMASS =    7.010; ZVAL   =    3.000    mass and valenz                                          
   RCORE  =    2.050    outmost cutoff radius                                                       
   RWIGS  =    2.050; RWIGS  =    1.085    wigner-seitz radius (au A)                               
   ENMAX  =  271.649; ENMIN  =  203.737 eV                                                          
   ICORE  =        2    local potential                                                             
   LCOR   =        T    correct aug charges                                                         
   LPAW   =        T    paw PP                                                                      
   EAUG   =  428.394                                                                                
   RMAX   =    2.797    core radius for proj-oper                                                   
   RAUG   =    1.300    factor for augmentation sphere                                              
   RDEP   =    2.094    radius for radial grids                                                     
   RDEPT  =    1.550    core radius for aug-charge                                                  
   QCUT   =   -4.468; QGAM   =    8.937    optimization parameters                                  
                                                                                                    
   Description                                                                                      
     l     E      TYP  RCUT    TYP  RCUT                                                            
     0   .000     23  1.550                                                                         
     0   .000     23  2.050                                                                         
     0   .000     23  1.550                                                                         
     0   .000     23  2.050                                                                         
     1  -.200     23  2.050                                                                         
     1  1.500     23  2.050                                                                         
     2   .000      7  1.550                                                                         
  local pseudopotential read in
  atomic valenz-charges read in
  non local Contribution for L=           0  read in
    real space projection operators read in
  non local Contribution for L=           0  read in
    real space projection operators read in
  non local Contribution for L=           1  read in
    real space projection operators read in
  non local Contribution for L=           1  read in
    real space projection operators read in
    PAW grid and wavefunctions read in
 
   number of l-projection  operators is LMAX  =           4
   number of lm-projection operators is LMMAX =           8
 
 POTCAR:   PAW_PBE Nb_pv 08Apr2002                
   VRHFIN =Nb: 4p5s4d                                                                               
   LEXCH  = PE                                                                                      
   EATOM  =  1043.3919 eV,   76.6871 Ry                                                             
                                                                                                    
   TITEL  = PAW_PBE Nb_pv 08Apr2002                                                                 
   LULTRA =        F    use ultrasoft PP ?                                                          
   IUNSCR =        1    unscreen: 0-lin 1-nonlin 2-no                                               
   RPACOR =    2.200    partial core radius                                                         
   POMASS =   92.000; ZVAL   =   11.000    mass and valenz                                          
   RCORE  =    2.750    outmost cutoff radius                                                       
   RWIGS  =    2.840; RWIGS  =    1.503    wigner-seitz radius (au A)                               
   ENMAX  =  208.608; ENMIN  =  156.456 eV                                                          
   RCLOC  =    2.201    cutoff for local pot                                                        
   LCOR   =        T    correct aug charges                                                         
   LPAW   =        T    paw PP                                                                      
   EAUG   =  355.067                                                                                
   DEXC   =    -.005                                                                                
   RMAX   =    3.192    core radius for proj-oper                                                   
   RAUG   =    1.300    factor for augmentation sphere                                              
   RDEP   =    2.776    radius for radial grids                                                     
   QCUT   =   -3.916; QGAM   =    7.831    optimization parameters                                  
                                                                                                    
   Description                                                                                      
     l     E      TYP  RCUT    TYP  RCUT                                                            
     1   .000     23  2.600                                                                         
     1  -.100     23  2.600                                                                         
     2   .000     23  2.600                                                                         
     2   .000     23  2.600                                                                         
     0   .000     23  2.750                                                                         
     0  1.500     23  2.750                                                                         
     3   .000      7   .000                                                                         
  local pseudopotential read in
  partial core-charges read in
  atomic valenz-charges read in
  non local Contribution for L=           1  read in
    real space projection operators read in
  non local Contribution for L=           1  read in
    real space projection operators read in
  non local Contribution for L=           2  read in
    real space projection operators read in
  non local Contribution for L=           2  read in
    real space projection operators read in
  non local Contribution for L=           0  read in
    real space projection operators read in
  non local Contribution for L=           0  read in
    real space projection operators read in
    PAW grid and wavefunctions read in
 
   number of l-projection  operators is LMAX  =           6
   number of lm-projection operators is LMMAX =          18
 
 POTCAR:   PAW_PBE Mo_pv 08Apr2002                
   VRHFIN =Mo: 4p5s4d                                                                               
   LEXCH  = PE                                                                                      
   EATOM  =  1284.3009 eV,   94.3935 Ry                                                             
                                                                                                    
   TITEL  = PAW_PBE Mo_pv 08Apr2002                                                                 
   LULTRA =        F    use ultrasoft PP ?                                                          
   IUNSCR =        1    unscreen: 0-lin 1-nonlin 2-no                                               
   RPACOR =    2.200    partial core radius                                                         
   POMASS =   95.940; ZVAL   =   12.000    mass and valenz                                          
   RCORE  =    2.600    outmost cutoff radius                                                       
   RWIGS  =    2.750; RWIGS  =    1.455    wigner-seitz radius (au A)                               
   ENMAX  =  224.584; ENMIN  =  168.438 eV                                                          
   RCLOC  =    1.902    cutoff for local pot                                                        
   LCOR   =        T    correct aug charges                                                         
   LPAW   =        T    paw PP                                                                      
   EAUG   =  392.427                                                                                
   DEXC   =    -.006                                                                                
   RMAX   =    3.077    core radius for proj-oper                                                   
   RAUG   =    1.300    factor for augmentation sphere                                              
   RDEP   =    2.641    radius for radial grids                                                     
   QCUT   =   -4.063; QGAM   =    8.126    optimization parameters                                  
                                                                                                    
   Description                                                                                      
     l     E      TYP  RCUT    TYP  RCUT                                                            
     1   .000     23  2.500                                                                         
     1  -.200     23  2.500                                                                         
     2   .000     23  2.500                                                                         
     2   .000     23  2.500                                                                         
     0   .000     23  2.600                                                                         
     0  1.000     23  2.600                                                                         
     3   .000      7   .000                                                                         
  local pseudopotential read in
  partial core-charges read in
  atomic valenz-charges read in
  non local Contribution for L=           1  read in
    real space projection operators read in
  non local Contribution for L=           1  read in
    real space projection operators read in
  non local Contribution for L=           2  read in
    real space projection operators read in
  non local Contribution for L=           2  read in
    real space projection operators read in
  non local Contribution for L=           0  read in
    real space projection operators read in
  non local Contribution for L=           0  read in
    real space projection operators read in
    PAW grid and wavefunctions read in
 
   number of l-projection  operators is LMAX  =           6
   number of lm-projection operators is LMMAX =          18
 
 POTCAR:   PAW_PBE O 08Apr2002                    
   VRHFIN =O: s2p4                                                                                  
   LEXCH  = PE                                                                                      
   EATOM  =   432.3788 eV,   31.7789 Ry                                                             
                                                                                                    
   TITEL  = PAW_PBE O 08Apr2002                                                                     
   LULTRA =        F    use ultrasoft PP ?                                                          
   IUNSCR =        0    unscreen: 0-lin 1-nonlin 2-no                                               
   RPACOR =     .000    partial core radius                                                         
   POMASS =   16.000; ZVAL   =    6.000    mass and valenz                                          
   RCORE  =    1.520    outmost cutoff radius                                                       
   RWIGS  =    1.550; RWIGS  =     .820    wigner-seitz radius (au A)                               
   ENMAX  =  400.000; ENMIN  =  300.000 eV                                                          
   ICORE  =        2    local potential                                                             
   LCOR   =        T    correct aug charges                                                         
   LPAW   =        T    paw PP                                                                      
   EAUG   =  605.392                                                                                
   DEXC   =     .000                                                                                
   RMAX   =    2.264    core radius for proj-oper                                                   
   RAUG   =    1.300    factor for augmentation sphere                                              
   RDEP   =    1.550    radius for radial grids                                                     
   QCUT   =   -5.520; QGAM   =   11.041    optimization parameters                                  
                                                                                                    
   Description                                                                                      
     l     E      TYP  RCUT    TYP  RCUT                                                            
     0   .000     23  1.200                                                                         
     0  -.700     23  1.200                                                                         
     1   .000     23  1.520                                                                         
     1   .600     23  1.520                                                                         
     2   .000      7  1.500                                                                         
  local pseudopotential read in
  atomic valenz-charges read in
  non local Contribution for L=           0  read in
    real space projection operators read in
  non local Contribution for L=           0  read in
    real space projection operators read in
  non local Contribution for L=           1  read in
    real space projection operators read in
  non local Contribution for L=           1  read in
    real space projection operators read in
    PAW grid and wavefunctions read in
 
   number of l-projection  operators is LMAX  =           4
   number of lm-projection operators is LMMAX =           8
 
 -----------------------------------------------------------------------------
|                                                                             |
|               ----> ADVICE to this user running VASP <----                  |
|                                                                             |
|     You have a (more or less) 'large supercell' and for larger cells it     |
|     might be more efficient to use real-space projection operators.         |
|     Therefore, try LREAL= Auto in the INCAR file.                           |
|     Mind: If you want to do very accurate calculations, keep the            |
|     reciprocal projection scheme (i.e. LREAL=.FALSE.).                      |
|                                                                             |
 -----------------------------------------------------------------------------

 PAW_PBE Li_sv 23Jan2001                :
 energy of atom  1       EATOM= -202.7858
 kinetic energy error for atom=    0.0020 (will be added to EATOM!!)
 PAW_PBE Nb_pv 08Apr2002                :
 energy of atom  2       EATOM=-1043.3919
 kinetic energy error for atom=    0.0011 (will be added to EATOM!!)
 PAW_PBE Mo_pv 08Apr2002                :
 energy of atom  3       EATOM=-1284.3009
 kinetic energy error for atom=    0.0019 (will be added to EATOM!!)
 PAW_PBE O 08Apr2002                    :
 energy of atom  4       EATOM= -432.3788
 kinetic energy error for atom=    0.0208 (will be added to EATOM!!)
 
 
 POSCAR: Li   Nb   Mo   O
  positions in direct lattice
  No initial velocities read in
 exchange correlation table for  LEXCH =        8
   RHO(1)=    0.500       N(1)  =     2000
   RHO(2)=  100.500       N(2)  =     4000
 
 POSCAR: Li   Nb   Mo   O
  positions in direct lattice
  No initial velocities read in
 
 POSCAR: Li   Nb   Mo   O
  positions in direct lattice
  No initial velocities read in
 


--------------------------------------------------------------------------------------------------------


 ion  position               nearest neighbor table
   1  0.348  0.627  0.615-  65 1.68  74 1.71  73 2.07  53 2.14  13 2.68  18 2.70  22 2.73  21 2.86

   2  0.367  0.008  0.046-  42 1.84  34 1.89  33 2.00  33 2.03  90 2.18  86 2.33   9 3.46   9 3.48

   3  0.635  0.008  0.955-  35 1.86  43 1.87  32 2.00  32 2.03  91 2.20  87 2.31   8 3.46   8 3.48

   4  0.866  0.508  0.046-  44 1.85  36 1.88  31 2.00  31 2.03  92 2.19  88 2.33   7 3.46   7 3.48

   5  0.131  0.509  0.955-  45 1.83  37 1.90  30 2.00  30 2.03  93 2.15  89 2.34   6 3.46   6 3.49

   6  0.249  0.004  0.137-  54 1.81  34 1.98  89 2.02  89 2.02  46 2.07  30 2.36   5 3.46   5 3.49

   7  0.753  0.003  0.862-  55 1.81  88 2.01  88 2.02  47 2.02  35 2.02  31 2.35   4 3.46   4 3.48

   8  0.748  0.503  0.138-  56 1.81  36 2.00  87 2.02  87 2.02  48 2.03  32 2.37   3 3.46   3 3.48

   9  0.250  0.503  0.865-  57 1.81  37 1.96  86 2.01  86 2.02  49 2.09  33 2.35   2 3.46   2 3.48

  10  0.129  0.997  0.229-  46 1.84  62 1.90  85 2.00  85 2.03  38 2.16  50 2.32  25 3.44  25 3.46

  11  0.869  0.999  0.767-  63 1.85  47 1.87  84 2.01  84 2.03  39 2.22  51 2.29  24 3.42  24 3.43

  12  0.631  0.499  0.233-  64 1.85  48 1.86  83 2.01  83 2.03  40 2.21  52 2.30  23 3.42  23 3.43

  13  0.370  0.496  0.774-  49 1.82  65 1.90  82 2.01  82 2.04  41 2.13  53 2.40   1 2.68  22 3.52
                            22 3.54
  14  0.419  0.967  0.380-  81 1.85  29 1.93  58 2.02  81 2.05  66 2.07  54 2.14
  15  0.584  0.967  0.618-  80 1.85  29 1.93  67 2.01  80 2.05  59 2.08  55 2.14
  16  0.918  0.467  0.382-  79 1.85  28 1.93  68 2.03  79 2.05  60 2.06  56 2.15
  17  0.082  0.466  0.620-  78 1.85  28 1.93  61 2.02  78 2.05  69 2.07  57 2.13
  18  0.295  0.003  0.465-  66 1.83  62 1.97  73 2.01  73 2.02  74 2.06  70 2.37   1 2.70  21 3.52
                            21 3.52
  19  0.702  0.004  0.526-  67 1.86  75 1.95  72 2.01  72 2.01  63 2.06  71 2.29  20 3.44  20 3.44

  20  0.798  0.504  0.473-  68 1.85  76 1.96  71 2.01  71 2.02  64 2.05  72 2.31  19 3.44  19 3.44

  21  0.200  0.503  0.526-  69 1.83  77 1.92  70 2.02  70 2.02  65 2.13  73 2.39   1 2.86  18 3.52
                            18 3.52
  22  0.468  0.002  0.715-  59 1.83  74 2.00  53 2.01  53 2.02  43 2.04  82 2.38   1 2.73  13 3.52
                            13 3.54
  23  0.537  0.002  0.287-  58 1.86  75 1.93  52 2.01  52 2.01  42 2.10  83 2.29  12 3.42  12 3.43

  24  0.963  0.502  0.712-  61 1.86  76 1.92  51 2.01  51 2.01  45 2.11  84 2.29  11 3.42  11 3.43

  25  0.035  0.501  0.286-  60 1.84  77 1.97  50 2.01  50 2.01  44 2.07  85 2.32  10 3.44  10 3.46

  26  0.999  0.252  1.000-  39 1.78  92 1.79  38 1.80  93 1.80
  27  0.501  0.753  0.000-  40 1.78  91 1.79  90 1.80  41 1.81
  28  0.001  0.491  0.500-  16 1.93  17 1.93
  29  0.500  0.991  0.500-  14 1.93  15 1.93
  30  0.148  0.004  0.991-   5 2.00   5 2.03   6 2.36
  31  0.850  0.004  0.009-   4 2.00   4 2.03   7 2.35
  32  0.649  0.504  0.991-   3 2.00   3 2.03   8 2.37
  33  0.351  0.504  0.009-   2 2.00   2 2.03   9 2.35
  34  0.303  0.003  0.081-   2 1.89   6 1.98
  35  0.696  0.004  0.918-   3 1.86   7 2.02
  36  0.803  0.503  0.082-   4 1.88   8 2.00
  37  0.196  0.502  0.920-   5 1.90   9 1.96
  38  0.033  0.999  0.099-  26 1.80  10 2.16
  39  0.966  0.000  0.902-  26 1.78  11 2.22
  40  0.534  0.502  0.098-  27 1.78  12 2.21
  41  0.466  0.500  0.901-  27 1.81  13 2.13
  42  0.450  0.004  0.156-   2 1.84  23 2.10
  43  0.550  0.003  0.844-   3 1.87  22 2.04
  44  0.950  0.504  0.156-   4 1.85  25 2.07
  45  0.050  0.505  0.844-   5 1.83  24 2.11
  46  0.180  0.002  0.177-  10 1.84   6 2.07
  47  0.820  0.003  0.823-  11 1.87   7 2.02
  48  0.680  0.503  0.177-  12 1.86   8 2.03
  49  0.318  0.500  0.822-  13 1.82   9 2.09
  50  0.049  0.001  0.271-  25 2.01  25 2.01  10 2.32
  51  0.950  0.002  0.730-  24 2.01  24 2.01  11 2.29
  52  0.550  0.502  0.269-  23 2.01  23 2.01  12 2.30
  53  0.450  0.501  0.726-  22 2.01  22 2.02   1 2.14  13 2.40
  54  0.325  0.999  0.250-   6 1.81  14 2.14
  55  0.675  0.999  0.750-   7 1.81  15 2.14
  56  0.826  0.499  0.250-   8 1.81  16 2.15
  57  0.174  0.500  0.751-   9 1.81  17 2.13
  58  0.476  0.999  0.326-  23 1.86  14 2.02
  59  0.524  0.999  0.672-  22 1.83  15 2.08
  60  0.976  0.499  0.327-  25 1.84  16 2.06
  61  0.024  0.498  0.673-  24 1.86  17 2.02
  62  0.206  0.002  0.348-  10 1.90  18 1.97
  63  0.793  0.002  0.651-  11 1.85  19 2.06
  64  0.708  0.502  0.349-  12 1.85  20 2.05
  65  0.297  0.502  0.651-   1 1.68  13 1.90  21 2.13
  66  0.353  0.001  0.424-  18 1.83  14 2.07
  67  0.648  0.999  0.574-  19 1.86  15 2.01
  68  0.853  0.500  0.426-  20 1.85  16 2.03
  69  0.149  0.500  0.577-  21 1.83  17 2.07
  70  0.222  0.003  0.521-  21 2.02  21 2.02  18 2.37
  71  0.779  0.003  0.481-  20 2.01  20 2.02  19 2.29
  72  0.722  0.503  0.518-  19 2.01  19 2.01  20 2.31
  73  0.281  0.503  0.482-  18 2.01  18 2.02   1 2.07  21 2.39
  74  0.377  0.002  0.596-   1 1.71  22 2.00  18 2.06
  75  0.622  0.003  0.404-  23 1.93  19 1.95
  76  0.878  0.503  0.596-  24 1.92  20 1.96
  77  0.122  0.502  0.405-  21 1.92  25 1.97
  78  0.091  0.992  0.631-  17 1.85  17 2.05
  79  0.910  0.993  0.369-  16 1.85  16 2.05
  80  0.590  0.493  0.631-  15 1.85  15 2.05
  81  0.410  0.492  0.369-  14 1.85  14 2.05
  82  0.394  0.000  0.770-  13 2.01  13 2.04  22 2.38
  83  0.606  0.001  0.232-  12 2.01  12 2.03  23 2.29
  84  0.894  0.501  0.768-  11 2.01  11 2.03  24 2.29
  85  0.106  0.500  0.232-  10 2.00  10 2.03  25 2.32
  86  0.275  0.003  0.897-   9 2.01   9 2.02   2 2.33
  87  0.724  0.004  0.103-   8 2.02   8 2.02   3 2.31
  88  0.776  0.504  0.897-   7 2.01   7 2.02   4 2.33
  89  0.224  0.504  0.104-   6 2.02   6 2.02   5 2.34
  90  0.429  0.004  0.987-  27 1.80   2 2.18
  91  0.571  0.004  0.013-  27 1.79   3 2.20
  92  0.928  0.503  0.987-  26 1.79   4 2.19
  93  0.071  0.504  0.013-  26 1.80   5 2.15
 

IMPORTANT INFORMATION: All symmetrisations will be switched off!
NOSYMM: (Re-)initialisation of all symmetry stuff for point group C_1.


----------------------------------------------------------------------------------------

                                     Primitive cell                                     

  volume of cell :    1336.3476

  direct lattice vectors                    reciprocal lattice vectors
    22.785142899  0.000000000  0.000000000     0.043888248  0.000000000  0.028932614
     0.000000000  3.876850367  0.000000000     0.000000000  0.257941346 -0.000000041
    -9.973051630  0.000002413 15.128248185     0.000000000  0.000000000  0.066101507

  length of vectors
    22.785142899  3.876850367 18.119758606     0.052566857  0.257941346  0.066101507

  position of ions in fractional coordinates (direct lattice)
     0.347539082  0.627248205  0.614547887
     0.367161701  0.007783068  0.045673611
     0.634646891  0.008131823  0.955027325
     0.866203659  0.507967541  0.045859588
     0.131370081  0.509277320  0.954928860
     0.248872635  0.003519380  0.137044324
     0.752558106  0.003128549  0.861933734
     0.748236577  0.503205461  0.138145405
     0.249582751  0.503466631  0.864530099
     0.128848308  0.996887829  0.228673984
     0.868907288  0.998709095  0.767009999
     0.631365715  0.498662127  0.232573071
     0.370330969  0.495664526  0.773735375
     0.419000741  0.966670290  0.379700867
     0.584237554  0.967108752  0.617762273
     0.917808159  0.466875704  0.381677126
     0.082064170  0.466485287  0.620486828
     0.295267754  0.003328265  0.465274839
     0.702301415  0.003546342  0.525924815
     0.798422603  0.503640776  0.472551220
     0.199774570  0.503119507  0.526317751
     0.468053966  0.001554193  0.715078717
     0.536594471  0.001904378  0.286822526
     0.963253251  0.501654896  0.712024426
     0.034786399  0.501231231  0.286480102
     0.999120405  0.252268908  0.999807956
     0.500522759  0.753016978  0.000389839
     0.000574593  0.491118490  0.500473051
     0.500478214  0.990922179  0.499585860
     0.148453772  0.004465715  0.991145332
     0.850315473  0.004109432  0.009251154
     0.649267683  0.504351799  0.990651621
     0.350786635  0.504028312  0.008917024
     0.303165478  0.002894522  0.081216530
     0.696379199  0.003783568  0.917805735
     0.803127277  0.503389873  0.081831386
     0.196424288  0.502113893  0.920086286
     0.033408651  0.998805905  0.098507694
     0.965649454  0.000364809  0.902068578
     0.534383131  0.501656262  0.098297100
     0.466133767  0.499747932  0.901085507
     0.449638282  0.004060164  0.155531454
     0.550179468  0.003331368  0.844027510
     0.949574024  0.503552700  0.156061635
     0.050042992  0.505072955  0.844459121
     0.179617095  0.001600317  0.177198290
     0.820303154  0.003232060  0.822854522
     0.679926599  0.503024062  0.177028205
     0.318183591  0.500015093  0.822158293
     0.049230378  0.001119649  0.270624909
     0.950359699  0.001855150  0.730106579
     0.549769072  0.501822983  0.269490521
     0.449772475  0.501416957  0.726073689
     0.325471157  0.999459285  0.249545636
     0.674971162  0.999230555  0.750094700
     0.825512848  0.499190820  0.250007768
     0.173706212  0.499893121  0.751358555
     0.476412427  0.998707233  0.326057217
     0.524304962  0.999480485  0.672334811
     0.976489438  0.499242579  0.327320269
     0.023867310  0.498114612  0.673474858
     0.206270218  0.001840712  0.348313989
     0.792820525  0.001953818  0.651031765
     0.707522010  0.502218122  0.348847348
     0.297429684  0.501981344  0.651413293
     0.352878874  0.000554485  0.424239430
     0.648082850  0.999337336  0.574109446
     0.852947839  0.500215044  0.425616581
     0.149029283  0.500138317  0.577170911
     0.222250701  0.002730036  0.520996751
     0.778766481  0.003094965  0.481047143
     0.721910524  0.502954993  0.518445744
     0.281006905  0.502880141  0.482062743
     0.376958794  0.002374169  0.596434153
     0.621877515  0.002683762  0.403757968
     0.878319936  0.502796713  0.595905690
     0.122272472  0.502312111  0.404799607
     0.091017113  0.992421019  0.630938809
     0.910106002  0.992810905  0.369031737
     0.590188299  0.492708187  0.631065130
     0.409822541  0.492461928  0.368894258
     0.393877830  0.000015835  0.769612803
     0.605842742  0.001255662  0.231652703
     0.894498161  0.501077330  0.768206429
     0.105789537  0.500095704  0.231656197
     0.275293871  0.003047631  0.896844244
     0.724042545  0.003674795  0.102769448
     0.775556796  0.503644809  0.896765740
     0.224213115  0.503555600  0.103954807
     0.429105636  0.004240401  0.987084899
     0.571356317  0.004303852  0.012993618
     0.927920277  0.503040287  0.986654862
     0.070812571  0.504098136  0.013467672

  ion indices of the primitive-cell ions
   primitive index   ion index
                 1           1
                 2           2
                 3           3
                 4           4
                 5           5
                 6           6
                 7           7
                 8           8
                 9           9
                10          10
                11          11
                12          12
                13          13
                14          14
                15          15
                16          16
                17          17
                18          18
                19          19
                20          20
                21          21
                22          22
                23          23
                24          24
                25          25
                26          26
                27          27
                28          28
                29          29
                30          30
                31          31
                32          32
                33          33
                34          34
                35          35
                36          36
                37          37
                38          38
                39          39
                40          40
                41          41
                42          42
                43          43
                44          44
                45          45
                46          46
                47          47
                48          48
                49          49
                50          50
                51          51
                52          52
                53          53
                54          54
                55          55
                56          56
                57          57
                58          58
                59          59
                60          60
                61          61
                62          62
                63          63
                64          64
                65          65
                66          66
                67          67
                68          68
                69          69
                70          70
                71          71
                72          72
                73          73
                74          74
                75          75
                76          76
                77          77
                78          78
                79          79
                80          80
                81          81
                82          82
                83          83
                84          84
                85          85
                86          86
                87          87
                88          88
                89          89
                90          90
                91          91
                92          92
                93          93

----------------------------------------------------------------------------------------

 
 
 KPOINTS: pymatgen with grid density = 1000 / numb

Automatic generation of k-mesh.
 Grid dimensions read from file:
 generate k-points for:    1    6    1

 Generating k-lattice:

  Cartesian coordinates                     Fractional coordinates (reciprocal lattice)
     0.043888248  0.000000000  0.028932614     1.000000000  0.000000000 -0.000000000
     0.000000000  0.042990224 -0.000000007     0.000000000  0.166666667  0.000000000
     0.000000000  0.000000000  0.066101507     0.000000000  0.000000000  1.000000000

  Length of vectors
     0.052566857  0.042990224  0.066101507

  Shift w.r.t. Gamma in fractional coordinates (k-lattice)
     0.000000000  0.000000000  0.000000000

 
 Subroutine IBZKPT returns following result:
 ===========================================
 
 Found      4 irreducible k-points:
 
 Following reciprocal coordinates:
            Coordinates               Weight
  0.000000  0.000000  0.000000      1.000000
  0.000000  0.166667  0.000000      2.000000
  0.000000  0.333333  0.000000      2.000000
  0.000000  0.500000  0.000000      1.000000
 
 Following cartesian coordinates:
            Coordinates               Weight
  0.000000  0.000000  0.000000      1.000000
  0.000000  0.042990 -0.000000      2.000000
  0.000000  0.085980 -0.000000      2.000000
  0.000000  0.128971 -0.000000      1.000000
 


--------------------------------------------------------------------------------------------------------




 Dimension of arrays:
   k-points           NKPTS =      4   k-points in BZ     NKDIM =      4   number of bands    NBANDS=    462
   number of dos      NEDOS =    301   number of ions     NIONS =     93
   non local maximal  LDIM  =      6   non local SUM 2l+1 LMDIM =     18
   total plane-waves  NPLWV = 756000
   max r-space proj   IRMAX =      1   max aug-charges    IRDMAX= 278808
   dimension x,y,z NGX =   180 NGY =   30 NGZ =  140
   dimension x,y,z NGXF=   360 NGYF=   60 NGZF=  280
   support grid    NGXF=   720 NGYF=  120 NGZF=  560
   ions per type =               1  24   2  66
   NGX,Y,Z   is equivalent  to a cutoff of  13.13, 12.86, 12.84 a.u.
   NGXF,Y,Z  is equivalent  to a cutoff of  26.27, 25.73, 25.69 a.u.

 SYSTEM =  unknown system                          
 POSCAR =  Li   Nb   Mo   O                        

 Startparameter for this run:
   NWRITE =      2    write-flag & timer
   PREC   = accura    normal or accurate (medium, high low for compatibility)
   ISTART =      0    job   : 0-new  1-cont  2-samecut
   ICHARG =      2    charge: 1-file 2-atom 10-const
   ISPIN  =      2    spin polarized calculation?
   LNONCOLLINEAR =      F non collinear calculations
   LSORBIT =      F    spin-orbit coupling
   INIWAV =      1    electr: 0-lowe 1-rand  2-diag
   LASPH  =      T    aspherical Exc in radial PAW
 Electronic Relaxation 1
   ENCUT  =  520.0 eV  38.22 Ry    6.18 a.u.  42.37  7.21 33.69*2*pi/ulx,y,z
   ENINI  =  520.0     initial cutoff
   ENAUG  =  605.4 eV  augmentation charge cutoff
   NELM   =    100;   NELMIN=  3; NELMDL= -5     # of ELM steps 
   EDIFF  = 0.1E-05   stopping-criterion for ELM
   LREAL  =      F    real-space projection
   NLSPLINE    = F    spline interpolate recip. space projectors
   LCOMPAT=      F    compatible to vasp.4.4
   GGA_COMPAT  = T    GGA compatible to vasp.4.4-vasp.4.6
   LMAXPAW     = -100 max onsite density
   LMAXMIX     =    4 max onsite mixed and CHGCAR
   VOSKOWN=      0    Vosko Wilk Nusair interpolation
   ROPT   =    0.00000   0.00000   0.00000   0.00000
 Ionic relaxation
   EDIFFG = -.5E-01   stopping-criterion for IOM
   NSW    =    450    number of steps for IOM
   NBLOCK =      1;   KBLOCK =    450    inner block; outer block 
   IBRION =      1    ionic relax: 0-MD 1-quasi-New 2-CG
   NFREE  =      0    steps in history (QN), initial steepest desc. (CG)
   ISIF   =      2    stress and relaxation
   IWAVPR =     11    prediction:  0-non 1-charg 2-wave 3-comb
   ISYM   =      0    0-nonsym 1-usesym 2-fastsym
   LCORR  =      T    Harris-Foulkes like correction to forces

   POTIM  = 0.2000    time-step for ionic-motion
   TEIN   =    0.0    initial temperature
   TEBEG  =    0.0;   TEEND  =   0.0 temperature during run
   SMASS  =  -3.00    Nose mass-parameter (am)
   estimated Nose-frequenzy (Omega)   =  0.10E-29 period in steps = 0.31E+47 mass=  -0.119E-25a.u.
   SCALEE = 1.0000    scale energy and forces
   NPACO  =    256;   APACO  = 10.0  distance and # of slots for P.C.
   PSTRESS=    0.0 pullay stress

  Mass of Ions in am
   POMASS =   7.01 92.00 95.94 16.00
  Ionic Valenz
   ZVAL   =   3.00 11.00 12.00  6.00
  Atomic Wigner-Seitz radii
   RWIGS  =  -1.00 -1.00 -1.00 -1.00
  virtual crystal weights 
   VCA    =   1.00  1.00  1.00  1.00
   NELECT =     687.0000    total number of electrons
   NUPDOWN=      -1.0000    fix difference up-down

 DOS related values:
   EMIN   =  10.00;   EMAX   =-10.00  energy-range for DOS
   EFERMI =   0.00
   ISMEAR =     0;   SIGMA  =   0.05  broadening in eV -4-tet -1-fermi 0-gaus

 Electronic relaxation 2 (details)
   IALGO  =     68    algorithm
   LDIAG  =      T    sub-space diagonalisation (order eigenvalues)
   LSUBROT=      F    optimize rotation matrix (better conditioning)
   TURBO    =      0    0=normal 1=particle mesh
   IRESTART =      0    0=no restart 2=restart with 2 vectors
   NREBOOT  =      0    no. of reboots
   NMIN     =      0    reboot dimension
   EREF     =   0.00    reference energy to select bands
   IMIX   =      4    mixing-type and parameters
     AMIX     =   0.40;   BMIX     =  1.00
     AMIX_MAG =   1.60;   BMIX_MAG =  1.00
     AMIN     =   0.10
     WC   =   100.;   INIMIX=   1;  MIXPRE=   1;  MAXMIX= -45

 Intra band minimization:
   WEIMIN = 0.0010     energy-eigenvalue tresh-hold
   EBREAK =  0.54E-09  absolut break condition
   DEPER  =   0.30     relativ break condition  

   TIME   =   0.40     timestep for ELM

  volume/ion in A,a.u.               =      14.37        96.97
  Fermi-wavevector in a.u.,A,eV,Ry     =   1.311457  2.478294 23.400912  1.719918
  Thomas-Fermi vector in A             =   2.441917
 
 Write flags
   LWAVE        =      F    write WAVECAR
   LDOWNSAMPLE  =      F    k-point downsampling of WAVECAR
   LCHARG       =      T    write CHGCAR
   LVTOT        =      F    write LOCPOT, total local potential
   LVHAR        =      F    write LOCPOT, Hartree potential only
   LELF         =      F    write electronic localiz. function (ELF)
   LORBIT       =     11    0 simple, 1 ext, 2 COOP (PROOUT), +10 PAW based schemes


 Dipole corrections
   LMONO  =      F    monopole corrections only (constant potential shift)
   LDIPOL =      F    correct potential (dipole corrections)
   IDIPOL =      0    1-x, 2-y, 3-z, 4-all directions 
   EPSILON=  1.0000000 bulk dielectric constant

 LDA+U is selected, type is set to LDAUTYPE =  2
   angular momentum for each species LDAUL =     0    0    2    0
   U (eV)           for each species LDAUU =   0.0  0.0  4.4  0.0
   J (eV)           for each species LDAUJ =   0.0  0.0  0.0  0.0
 Exchange correlation treatment:
   GGA     =    --    GGA type
   LEXCH   =     8    internal setting for exchange type
   LIBXC   =     F    Libxc                    
   VOSKOWN =     0    Vosko Wilk Nusair interpolation
   LHFCALC =     F    Hartree Fock is set to
   LHFONE  =     F    Hartree Fock one center treatment
   AEXX    =    0.0000 exact exchange contribution

 Linear response parameters
   LEPSILON=     F    determine dielectric tensor
   LRPA    =     F    only Hartree local field effects (RPA)
   LNABLA  =     F    use nabla operator in PAW spheres
   LVEL    =     F    velocity operator in full k-point grid
   CSHIFT  =0.1000    complex shift for real part using Kramers Kronig
   OMEGAMAX=  -1.0    maximum frequency
   DEG_THRESHOLD= 0.2000000E-02 threshold for treating states as degnerate
   RTIME   =   -0.100 relaxation time in fs
  (WPLASMAI=    0.000 imaginary part of plasma frequency in eV, 0.658/RTIME)
   DFIELD  = 0.0000000 0.0000000 0.0000000 field for delta impulse in time
 
  Optional k-point grid parameters
   LKPOINTS_OPT  =     F    use optional k-point grid
   KPOINTS_OPT_MODE=     1    mode for optional k-point grid
 
 Orbital magnetization related:
   ORBITALMAG=     F  switch on orbital magnetization
   LCHIMAG   =     F  perturbation theory with respect to B field
   DQ        =  0.001000  dq finite difference perturbation B field
   LLRAUG    =     F  two centre corrections for induced B field



--------------------------------------------------------------------------------------------------------


 quasi-Newton-method for relaxation of ions
 charge density and potential will be updated during run
 spin polarized calculation
 RMM-DIIS sequential band-by-band and
  variant of blocked Davidson during initial phase
 perform sub-space diagonalisation
    before iterative eigenvector-optimisation
 modified Broyden-mixing scheme, WC =      100.0
 initial mixing is a Kerker type mixing with AMIX =  0.4000 and BMIX =      1.0000
 Hartree-type preconditioning will be used
 using additional bands          118
 reciprocal scheme for non local part
 use partial core corrections
 calculate Harris-corrections to forces 
   (improved forces if not selfconsistent)
 use gradient corrections 
 use of overlap-Matrix (Vanderbilt PP)
 Gauss-broadening in eV      SIGMA  =   0.05


--------------------------------------------------------------------------------------------------------


  energy-cutoff  :      520.00
  volume of cell :     1336.35
      direct lattice vectors                 reciprocal lattice vectors
    22.785142899  0.000000000  0.000000000     0.043888248  0.000000000  0.028932614
     0.000000000  3.876850367  0.000000000     0.000000000  0.257941346 -0.000000041
    -9.973051630  0.000002413 15.128248185     0.000000000  0.000000000  0.066101507

  length of vectors
    22.785142899  3.876850367 18.119758606     0.052566857  0.257941346  0.066101507


 
 k-points in units of 2pi/SCALE and weight: pymatgen with grid density = 1000 / numb
   0.00000000  0.00000000  0.00000000       0.167
   0.00000000  0.04299022 -0.00000001       0.333
   0.00000000  0.08598045 -0.00000001       0.333
   0.00000000  0.12897067 -0.00000002       0.167
 
 k-points in reciprocal lattice and weights: pymatgen with grid density = 1000 / numb
   0.00000000  0.00000000  0.00000000       0.167
   0.00000000  0.16666667  0.00000000       0.333
   0.00000000  0.33333333  0.00000000       0.333
   0.00000000  0.50000000  0.00000000       0.167
 
 position of ions in fractional coordinates (direct lattice) 
   0.34753908  0.62724820  0.61454789
   0.36716170  0.00778307  0.04567361
   0.63464689  0.00813182  0.95502732
   0.86620366  0.50796754  0.04585959
   0.13137008  0.50927732  0.95492886
   0.24887263  0.00351938  0.13704432
   0.75255811  0.00312855  0.86193373
   0.74823658  0.50320546  0.13814541
   0.24958275  0.50346663  0.86453010
   0.12884831  0.99688783  0.22867398
   0.86890729  0.99870909  0.76701000
   0.63136572  0.49866213  0.23257307
   0.37033097  0.49566453  0.77373537
   0.41900074  0.96667029  0.37970087
   0.58423755  0.96710875  0.61776227
   0.91780816  0.46687570  0.38167713
   0.08206417  0.46648529  0.62048683
   0.29526775  0.00332827  0.46527484
   0.70230142  0.00354634  0.52592481
   0.79842260  0.50364078  0.47255122
   0.19977457  0.50311951  0.52631775
   0.46805397  0.00155419  0.71507872
   0.53659447  0.00190438  0.28682253
   0.96325325  0.50165490  0.71202443
   0.03478640  0.50123123  0.28648010
   0.99912041  0.25226891  0.99980796
   0.50052276  0.75301698  0.00038984
   0.00057459  0.49111849  0.50047305
   0.50047821  0.99092218  0.49958586
   0.14845377  0.00446571  0.99114533
   0.85031547  0.00410943  0.00925115
   0.64926768  0.50435180  0.99065162
   0.35078664  0.50402831  0.00891702
   0.30316548  0.00289452  0.08121653
   0.69637920  0.00378357  0.91780574
   0.80312728  0.50338987  0.08183139
   0.19642429  0.50211389  0.92008629
   0.03340865  0.99880590  0.09850769
   0.96564945  0.00036481  0.90206858
   0.53438313  0.50165626  0.09829710
   0.46613377  0.49974793  0.90108551
   0.44963828  0.00406016  0.15553145
   0.55017947  0.00333137  0.84402751
   0.94957402  0.50355270  0.15606163
   0.05004299  0.50507295  0.84445912
   0.17961709  0.00160032  0.17719829
   0.82030315  0.00323206  0.82285452
   0.67992660  0.50302406  0.17702821
   0.31818359  0.50001509  0.82215829
   0.04923038  0.00111965  0.27062491
   0.95035970  0.00185515  0.73010658
   0.54976907  0.50182298  0.26949052
   0.44977248  0.50141696  0.72607369
   0.32547116  0.99945928  0.24954564
   0.67497116  0.99923055  0.75009470
   0.82551285  0.49919082  0.25000777
   0.17370621  0.49989312  0.75135856
   0.47641243  0.99870723  0.32605722
   0.52430496  0.99948048  0.67233481
   0.97648944  0.49924258  0.32732027
   0.02386731  0.49811461  0.67347486
   0.20627022  0.00184071  0.34831399
   0.79282053  0.00195382  0.65103176
   0.70752201  0.50221812  0.34884735
   0.29742968  0.50198134  0.65141329
   0.35287887  0.00055449  0.42423943
   0.64808285  0.99933734  0.57410945
   0.85294784  0.50021504  0.42561658
   0.14902928  0.50013832  0.57717091
   0.22225070  0.00273004  0.52099675
   0.77876648  0.00309497  0.48104714
   0.72191052  0.50295499  0.51844574
   0.28100690  0.50288014  0.48206274
   0.37695879  0.00237417  0.59643415
   0.62187752  0.00268376  0.40375797
   0.87831994  0.50279671  0.59590569
   0.12227247  0.50231211  0.40479961
   0.09101711  0.99242102  0.63093881
   0.91010600  0.99281090  0.36903174
   0.59018830  0.49270819  0.63106513
   0.40982254  0.49246193  0.36889426
   0.39387783  0.00001584  0.76961280
   0.60584274  0.00125566  0.23165270
   0.89449816  0.50107733  0.76820643
   0.10578954  0.50009570  0.23165620
   0.27529387  0.00304763  0.89684424
   0.72404255  0.00367479  0.10276945
   0.77555680  0.50364481  0.89676574
   0.22421311  0.50355560  0.10395481
   0.42910564  0.00424040  0.98708490
   0.57135632  0.00430385  0.01299362
   0.92792028  0.50304029  0.98665486
   0.07081257  0.50409814  0.01346767
 
 position of ions in cartesian coordinates  (Angst):
   1.78980983  2.43174892  9.29703295
   7.91032655  0.03017390  0.69096172
   4.93598329  0.03152817 14.44789039
  19.27921410  1.96931426  0.69377523
  -6.53026875  1.97439427 14.44640080
   4.30384843  0.01364444  2.07324055
   8.55103435  0.01213100 13.03954744
  15.67094607  1.95085261  2.08989797
  -2.93522467  1.95186688 13.07882591
   0.65524966  3.86478550  3.45943678
  12.14874641  3.87184757 11.60351762
  12.06629479  1.93323901  3.51842314
   0.72154122  1.92161907 11.70526078
   5.76021541  3.74763699  5.74420895
   7.15096110  3.74933741  9.34566099
  17.10590437  1.81000816  5.77410628
  -4.31830334  1.80849515  9.38687873
   2.08750797  0.01290431  7.03879324
  10.75696277  0.01374991  7.95632112
  13.47939539  1.95254107  7.14887214
  -0.69710197  1.95052032  7.96226555
   3.53315955  0.00602710 10.81788830
   9.36588583  0.00738368  4.33912235
  14.84680662  1.94484269 10.77168223
  -2.06446777  1.94319917  4.33394208
  12.79396484  0.97801122 15.12534289
  11.40059470  2.91933415  0.00589758
  -4.97815139  1.90399410  7.57128052
   6.42107204  3.84165822  7.55785887
  -6.50220316  0.01731530 14.99429257
  19.28229733  0.01593167  0.13995375
   4.91383716  1.95529885 14.98682359
   7.90379368  1.95404237  0.13489895
   6.09769209  0.01122183  1.22866383
   6.71377558  0.01467054 13.88479295
  17.48326112  1.95156741  1.23796552
  -4.70051256  1.94662265 13.91929369
  -0.22120143  3.87222128  1.49024885
  13.00608430  0.00141648 13.64671733
  11.19567395  1.94484650  1.48706292
   1.63435221  1.93745013 13.63184519
   8.69394930  0.01574102  2.35291844
   4.11838787  0.01291725 12.76865765
  20.07976908  1.95219885  2.36093914
  -7.28159769  1.95809431 12.77518716
   2.32539348  0.00620462  2.68069971
  10.48435396  0.01253220 12.44834742
  13.72671329  1.95014945  2.67812662
  -0.94956851  1.93848568 12.43781470
  -1.57723498  0.00434136  4.09408079
  14.37269095  0.00719390 11.04523353
   9.83892398  1.94549327  4.07691949
   3.00695972  1.94392027 10.98422297
   4.92717530  3.87475470  3.77518831
   7.89858121  3.87386915 11.34761878
  16.31608782  1.93528872  3.78217956
  -3.53541679  1.93801264 11.36673870
   7.60333976  3.87183929  4.93267451
   5.24113370  3.87483791 10.17124789
  18.98506944  1.93548957  4.95178227
  -6.17277946  1.93111744 10.18849480
   1.22614300  0.00713701  5.26938047
  11.57175556  0.00757623  9.84897011
  12.64191749  1.94702535  5.27744926
   0.28039946  1.94610813  9.85474197
   3.80943384  0.00215068  6.41799939
   9.04103720  3.87428270  8.68527019
  15.18984226  1.93925990  6.43883327
  -2.36050179  1.93896281  8.73158479
  -0.13191351  0.01058520  7.88176815
  12.94679756  0.01199988  7.27740057
  11.27834827  1.94988250  7.84317589
   1.59514585  1.94959222  7.29276482
   2.64079140  0.00920574  9.02300389
  10.14286899  0.01040552  6.10815074
  14.06964705  1.94926906  9.01500917
  -1.25109165  1.94738987  6.12390892
  -4.21854740  3.84746931  9.54499889
  17.05652273  3.84898021  5.58280370
   7.15387960  1.91015744  9.54690991
   5.65886369  1.90920210  5.58072389
   1.29917442  0.00006325 11.64289349
  11.49392908  0.00486857  3.50449958
  12.71990605  1.94260369 11.62161751
   0.10011051  1.93879677  3.50455243
  -2.67166377  0.01181737 13.56768231
  15.47248785  0.01424688  1.55472171
   8.72768141  1.95255773 13.56649467
   4.07198120  1.95220996  1.57265412
  -0.06701543  0.01644178 14.93286533
  12.88884931  0.01668542  0.19657068
  11.30283623  1.95021430 14.92635963
   1.47916077  1.95431308  0.20374229
 


--------------------------------------------------------------------------------------------------------


 k-point   1 :   0.0000 0.0000 0.0000  plane waves:   36029
 k-point   2 :   0.0000 0.1667 0.0000  plane waves:   35947
 k-point   3 :   0.0000 0.3333 0.0000  plane waves:   35982
 k-point   4 :   0.0000 0.5000 0.0000  plane waves:   36018

 maximum and minimum number of plane-waves per node :     36029    35947

 maximum number of plane-waves:     36029
 maximum index in each direction: 
   IXMAX=   42   IYMAX=    7   IZMAX=   33
   IXMIN=  -42   IYMIN=   -7   IZMIN=  -33


 serial   3D FFT for wavefunctions
 parallel 3D FFT for charge:
    minimum data exchange during FFTs selected (reduces bandwidth)


 total amount of memory used by VASP MPI-rank0   321868. kBytes
=======================================================================

   base      :      30000. kBytes
   nonl-proj :     136648. kBytes
   fftplans  :      24917. kBytes
   grid      :      75254. kBytes
   one-center:       2892. kBytes
   wavefun   :      52157. kBytes
 
     INWAV:  cpu time      0.0000: real time      0.0000
 Broyden mixing: mesh for mixing (old mesh)
   NGX = 85   NGY = 15   NGZ = 67
  (NGX  =360   NGY  = 60   NGZ  =280)
  gives a total of  85425 points

 initial charge density was supplied:
 charge density of overlapping atoms calculated
 number of electron     687.0000000 magnetization      55.8000000
 keeping initial charge density in first step


--------------------------------------------------------------------------------------------------------


 Maximum index for augmentation-charges         9938 (set IRDMAX)


--------------------------------------------------------------------------------------------------------


 First call to EWALD:  gamma=   0.161
 Maximum number of real-space cells 2x 7x 2
 Maximum number of reciprocal cells 5x 1x 4

    FEWALD:  cpu time      0.0036: real time      0.0044


--------------------------------------- Iteration      1(   1)  ---------------------------------------


    POTLOK:  cpu time      0.2350: real time      0.2385
    SETDIJ:  cpu time      1.0954: real time      1.1016
atom =   1  type =  1  l = 0
 
 onsite density matrix
 
spin component  1
 
  1.2642
 
spin component  2
 
  0.8428
 
 occupancies and eigenvectors
 
  o =  0.8428  v =  0.0000  1.0000      0.0000  0.0000
  o =  1.2642  v =  1.0000  0.0000      0.0000  0.0000
 
atom =   2  type =  2  l = 0
 
 onsite density matrix
 
spin component  1
 
  0.1347
 
spin component  2
 
  0.1207
 
 occupancies and eigenvectors
 
  o =  0.1207  v =  0.0000  1.0000      0.0000  0.0000
  o =  0.1347  v =  1.0000  0.0000      0.0000  0.0000
 
atom =   3  type =  2  l = 0
 
 onsite density matrix
 
spin component  1
 
  0.1347
 
spin component  2
 
  0.1207
 
 occupancies and eigenvectors
 
  o =  0.1207  v =  0.0000  1.0000      0.0000  0.0000
  o =  0.1347  v =  1.0000  0.0000      0.0000  0.0000
 
atom =   4  type =  2  l = 0
 
 onsite density matrix
 
spin component  1
 
  0.1347
 
spin component  2
 
  0.1207
 
 occupancies and eigenvectors
 
  o =  0.1207  v =  0.0000  1.0000      0.0000  0.0000
  o =  0.1347  v =  1.0000  0.0000      0.0000  0.0000
 
atom =   5  type =  2  l = 0
 
 onsite density matrix
 
spin component  1
 
  0.1347
 
spin component  2
 
  0.1207
 
 occupancies and eigenvectors
 
  o =  0.1207  v =  0.0000  1.0000      0.0000  0.0000
  o =  0.1347  v =  1.0000  0.0000      0.0000  0.0000
 
atom =   6  type =  2  l = 0
 
 onsite density matrix
 
spin component  1
 
  0.1347
 
spin component  2
 
  0.1207
 
 occupancies and eigenvectors
 
  o =  0.1207  v =  0.0000  1.0000      0.0000  0.0000
  o =  0.1347  v =  1.0000  0.0000      0.0000  0.0000
 
atom =   7  type =  2  l = 0
 
 onsite density matrix
 
spin component  1
 
  0.1347
 
spin component  2
 
  0.1207
 
 occupancies and eigenvectors
 
  o =  0.1207  v =  0.0000  1.0000      0.0000  0.0000
  o =  0.1347  v =  1.0000  0.0000      0.0000  0.0000
 
atom =   8  type =  2  l = 0
 
 onsite density matrix
 
spin component  1
 
  0.1347
 
spin component  2
 
  0.1207
 
 occupancies and eigenvectors
 
  o =  0.1207  v =  0.0000  1.0000      0.0000  0.0000
  o =  0.1347  v =  1.0000  0.0000      0.0000  0.0000
 
atom =   9  type =  2  l = 0
 
 onsite density matrix
 
spin component  1
 
  0.1347
 
spin component  2
 
  0.1207
 
 occupancies and eigenvectors
 
  o =  0.1207  v =  0.0000  1.0000      0.0000  0.0000
  o =  0.1347  v =  1.0000  0.0000      0.0000  0.0000
 
atom =  10  type =  2  l = 0
 
 onsite density matrix
 
spin component  1
 
  0.1347
 
spin component  2
 
  0.1207
 
 occupancies and eigenvectors
 
  o =  0.1207  v =  0.0000  1.0000      0.0000  0.0000
  o =  0.1347  v =  1.0000  0.0000      0.0000  0.0000
 
atom =  11  type =  2  l = 0
 
 onsite density matrix
 
spin component  1
 
  0.1347
 
spin component  2
 
  0.1207
 
 occupancies and eigenvectors
 
  o =  0.1207  v =  0.0000  1.0000      0.0000  0.0000
  o =  0.1347  v =  1.0000  0.0000      0.0000  0.0000
 
atom =  12  type =  2  l = 0
 
 onsite density matrix
 
spin component  1
 
  0.1347
 
spin component  2
 
  0.1207
 
 occupancies and eigenvectors
 
  o =  0.1207  v =  0.0000  1.0000      0.0000  0.0000
  o =  0.1347  v =  1.0000  0.0000      0.0000  0.0000
 
atom =  13  type =  2  l = 0
 
 onsite density matrix
 
spin component  1
 
  0.1347
 
spin component  2
 
  0.1207
 
 occupancies and eigenvectors
 
  o =  0.1207  v =  0.0000  1.0000      0.0000  0.0000
  o =  0.1347  v =  1.0000  0.0000      0.0000  0.0000
 
atom =  14  type =  2  l = 0
 
 onsite density matrix
 
spin component  1
 
  0.1347
 
spin component  2
 
  0.1207
 
 occupancies and eigenvectors
 
  o =  0.1207  v =  0.0000  1.0000      0.0000  0.0000
  o =  0.1347  v =  1.0000  0.0000      0.0000  0.0000
 
atom =  15  type =  2  l = 0
 
 onsite density matrix
 
spin component  1
 
  0.1347
 
spin component  2
 
  0.1207
 
 occupancies and eigenvectors
 
  o =  0.1207  v =  0.0000  1.0000      0.0000  0.0000
  o =  0.1347  v =  1.0000  0.0000      0.0000  0.0000
 
atom =  16  type =  2  l = 0
 
 onsite density matrix
 
spin component  1
 
  0.1347
 
spin component  2
 
  0.1207
 
 occupancies and eigenvectors
 
  o =  0.1207  v =  0.0000  1.0000      0.0000  0.0000
  o =  0.1347  v =  1.0000  0.0000      0.0000  0.0000
 
atom =  17  type =  2  l = 0
 
 onsite density matrix
 
spin component  1
 
  0.1347
 
spin component  2
 
  0.1207
 
 occupancies and eigenvectors
 
  o =  0.1207  v =  0.0000  1.0000      0.0000  0.0000
  o =  0.1347  v =  1.0000  0.0000      0.0000  0.0000
 
atom =  18  type =  2  l = 0
 
 onsite density matrix
 
spin component  1
 
  0.1347
 
spin component  2
 
  0.1207
 
 occupancies and eigenvectors
 
  o =  0.1207  v =  0.0000  1.0000      0.0000  0.0000
  o =  0.1347  v =  1.0000  0.0000      0.0000  0.0000
 
atom =  19  type =  2  l = 0
 
 onsite density matrix
 
spin component  1
 
  0.1347
 
spin component  2
 
  0.1207
 
 occupancies and eigenvectors
 
  o =  0.1207  v =  0.0000  1.0000      0.0000  0.0000
  o =  0.1347  v =  1.0000  0.0000      0.0000  0.0000
 
atom =  20  type =  2  l = 0
 
 onsite density matrix
 
spin component  1
 
  0.1347
 
spin component  2
 
  0.1207
 
 occupancies and eigenvectors
 
  o =  0.1207  v =  0.0000  1.0000      0.0000  0.0000
  o =  0.1347  v =  1.0000  0.0000      0.0000  0.0000
 
atom =  21  type =  2  l = 0
 
 onsite density matrix
 
spin component  1
 
  0.1347
 
spin component  2
 
  0.1207
 
 occupancies and eigenvectors
 
  o =  0.1207  v =  0.0000  1.0000      0.0000  0.0000
  o =  0.1347  v =  1.0000  0.0000      0.0000  0.0000
 
atom =  22  type =  2  l = 0
 
 onsite density matrix
 
spin component  1
 
  0.1347
 
spin component  2
 
  0.1207
 
 occupancies and eigenvectors
 
  o =  0.1207  v =  0.0000  1.0000      0.0000  0.0000
  o =  0.1347  v =  1.0000  0.0000      0.0000  0.0000
 
atom =  23  type =  2  l = 0
 
 onsite density matrix
 
spin component  1
 
  0.1347
 
spin component  2
 
  0.1207
 
 occupancies and eigenvectors
 
  o =  0.1207  v =  0.0000  1.0000      0.0000  0.0000
  o =  0.1347  v =  1.0000  0.0000      0.0000  0.0000
 
atom =  24  type =  2  l = 0
 
 onsite density matrix
 
spin component  1
 
  0.1347
 
spin component  2
 
  0.1207
 
 occupancies and eigenvectors
 
  o =  0.1207  v =  0.0000  1.0000      0.0000  0.0000
  o =  0.1347  v =  1.0000  0.0000      0.0000  0.0000
 
atom =  25  type =  2  l = 0
 
 onsite density matrix
 
spin component  1
 
  0.1347
 
spin component  2
 
  0.1207
 
 occupancies and eigenvectors
 
  o =  0.1207  v =  0.0000  1.0000      0.0000  0.0000
  o =  0.1347  v =  1.0000  0.0000      0.0000  0.0000
 
atom =  26  type =  3  l = 2
 
 onsite density matrix
 
spin component  1
 
  0.4151  0.0000  0.0000  0.0000  0.0000
  0.0000  0.4151  0.0000  0.0000  0.0000
  0.0000  0.0000  0.4151  0.0000 -0.0000
  0.0000  0.0000  0.0000  0.4151  0.0000
  0.0000  0.0000 -0.0000  0.0000  0.4151
 
spin component  2
 
  0.3756  0.0000  0.0000  0.0000  0.0000
  0.0000  0.3756  0.0000  0.0000  0.0000
  0.0000  0.0000  0.3756  0.0000 -0.0000
  0.0000  0.0000  0.0000  0.3756  0.0000
  0.0000  0.0000 -0.0000  0.0000  0.3756
 
 occupancies and eigenvectors
 
  o =  0.3756  v =  0.0000  0.0000  0.0000  0.0000  0.0000  0.0000  0.0000  1.0000  0.0000  0.0000      0.0000  0.0000  0.0000  0.0000  0.0000  0.0000  0.0000  0.0000  0.0000  0.0000
  o =  0.3756  v =  0.0000  0.0000  0.0000  0.0000  0.0000  1.0000  0.0000  0.0000  0.0000  0.0000      0.0000  0.0000  0.0000  0.0000  0.0000  0.0000  0.0000  0.0000  0.0000  0.0000
  o =  0.3756  v =  0.0000  0.0000  0.0000  0.0000  0.0000  0.0000  1.0000  0.0000  0.0000  0.0000      0.0000  0.0000  0.0000  0.0000  0.0000  0.0000  0.0000  0.0000  0.0000  0.0000
  o =  0.3756  v =  0.0000  0.0000  0.0000  0.0000  0.0000  0.0000  0.0000  0.0000  1.0000  0.0000      0.0000  0.0000  0.0000  0.0000  0.0000  0.0000  0.0000  0.0000  0.0000  0.0000
  o =  0.3756  v =  0.0000  0.0000  0.0000  0.0000  0.0000  0.0000  0.0000  0.0000  0.0000  1.0000      0.0000  0.0000  0.0000  0.0000  0.0000  0.0000  0.0000  0.0000  0.0000  0.0000
  o =  0.4151  v =  0.0000  0.0000  1.0000  0.0000  0.0000  0.0000  0.0000  0.0000  0.0000  0.0000      0.0000  0.0000  0.0000  0.0000  0.0000  0.0000  0.0000  0.0000  0.0000  0.0000
  o =  0.4151  v =  0.0000  1.0000  0.0000  0.0000  0.0000  0.0000  0.0000  0.0000  0.0000  0.0000      0.0000  0.0000  0.0000  0.0000  0.0000  0.0000  0.0000  0.0000  0.0000  0.0000
  o =  0.4151  v =  1.0000  0.0000  0.0000  0.0000  0.0000  0.0000  0.0000  0.0000  0.0000  0.0000      0.0000  0.0000  0.0000  0.0000  0.0000  0.0000  0.0000  0.0000  0.0000  0.0000
  o =  0.4151  v =  0.0000  0.0000  0.0000  1.0000  0.0000  0.0000  0.0000  0.0000  0.0000  0.0000      0.0000  0.0000  0.0000  0.0000  0.0000  0.0000  0.0000  0.0000  0.0000  0.0000
  o =  0.4151  v =  0.0000  0.0000  0.0000  0.0000  1.0000  0.0000  0.0000  0.0000  0.0000  0.0000      0.0000  0.0000  0.0000  0.0000  0.0000  0.0000  0.0000  0.0000  0.0000  0.0000
 
atom =  27  type =  3  l = 2
 
 onsite density matrix
 
spin component  1
 
  0.4151  0.0000  0.0000  0.0000  0.0000
  0.0000  0.4151  0.0000  0.0000  0.0000
  0.0000  0.0000  0.4151  0.0000 -0.0000
  0.0000  0.0000  0.0000  0.4151  0.0000
  0.0000  0.0000 -0.0000  0.0000  0.4151
 
spin component  2
 
  0.3756  0.0000  0.0000  0.0000  0.0000
  0.0000  0.3756  0.0000  0.0000  0.0000
  0.0000  0.0000  0.3756  0.0000 -0.0000
  0.0000  0.0000  0.0000  0.3756  0.0000
  0.0000  0.0000 -0.0000  0.0000  0.3756
 
 occupancies and eigenvectors
 
  o =  0.3756  v =  0.0000  0.0000  0.0000  0.0000  0.0000  0.0000  0.0000  1.0000  0.0000  0.0000      0.0000  0.0000  0.0000  0.0000  0.0000  0.0000  0.0000  0.0000  0.0000  0.0000
  o =  0.3756  v =  0.0000  0.0000  0.0000  0.0000  0.0000  1.0000  0.0000  0.0000  0.0000  0.0000      0.0000  0.0000  0.0000  0.0000  0.0000  0.0000  0.0000  0.0000  0.0000  0.0000
  o =  0.3756  v =  0.0000  0.0000  0.0000  0.0000  0.0000  0.0000  1.0000  0.0000  0.0000  0.0000      0.0000  0.0000  0.0000  0.0000  0.0000  0.0000  0.0000  0.0000  0.0000  0.0000
  o =  0.3756  v =  0.0000  0.0000  0.0000  0.0000  0.0000  0.0000  0.0000  0.0000  1.0000  0.0000      0.0000  0.0000  0.0000  0.0000  0.0000  0.0000  0.0000  0.0000  0.0000  0.0000
  o =  0.3756  v =  0.0000  0.0000  0.0000  0.0000  0.0000  0.0000  0.0000  0.0000  0.0000  1.0000      0.0000  0.0000  0.0000  0.0000  0.0000  0.0000  0.0000  0.0000  0.0000  0.0000
  o =  0.4151  v =  0.0000  0.0000  1.0000  0.0000  0.0000  0.0000  0.0000  0.0000  0.0000  0.0000      0.0000  0.0000  0.0000  0.0000  0.0000  0.0000  0.0000  0.0000  0.0000  0.0000
  o =  0.4151  v =  0.0000  1.0000  0.0000  0.0000  0.0000  0.0000  0.0000  0.0000  0.0000  0.0000      0.0000  0.0000  0.0000  0.0000  0.0000  0.0000  0.0000  0.0000  0.0000  0.0000
  o =  0.4151  v =  1.0000  0.0000  0.0000  0.0000  0.0000  0.0000  0.0000  0.0000  0.0000  0.0000      0.0000  0.0000  0.0000  0.0000  0.0000  0.0000  0.0000  0.0000  0.0000  0.0000
  o =  0.4151  v =  0.0000  0.0000  0.0000  1.0000  0.0000  0.0000  0.0000  0.0000  0.0000  0.0000      0.0000  0.0000  0.0000  0.0000  0.0000  0.0000  0.0000  0.0000  0.0000  0.0000
  o =  0.4151  v =  0.0000  0.0000  0.0000  0.0000  1.0000  0.0000  0.0000  0.0000  0.0000  0.0000      0.0000  0.0000  0.0000  0.0000  0.0000  0.0000  0.0000  0.0000  0.0000  0.0000
 
atom =  28  type =  4  l = 0
 
 onsite density matrix
 
spin component  1
 
  0.8936
 
spin component  2
 
  0.7311
 
 occupancies and eigenvectors
 
  o =  0.7311  v =  0.0000  1.0000      0.0000  0.0000
  o =  0.8936  v =  1.0000  0.0000      0.0000  0.0000
 
atom =  29  type =  4  l = 0
 
 onsite density matrix
 
spin component  1
 
  0.8936
 
spin component  2
 
  0.7311
 
 occupancies and eigenvectors
 
  o =  0.7311  v =  0.0000  1.0000      0.0000  0.0000
  o =  0.8936  v =  1.0000  0.0000      0.0000  0.0000
 
atom =  30  type =  4  l = 0
 
 onsite density matrix
 
spin component  1
 
  0.8936
 
spin component  2
 
  0.7311
 
 occupancies and eigenvectors
 
  o =  0.7311  v =  0.0000  1.0000      0.0000  0.0000
  o =  0.8936  v =  1.0000  0.0000      0.0000  0.0000
 
atom =  31  type =  4  l = 0
 
 onsite density matrix
 
spin component  1
 
  0.8936
 
spin component  2
 
  0.7311
 
 occupancies and eigenvectors
 
  o =  0.7311  v =  0.0000  1.0000      0.0000  0.0000
  o =  0.8936  v =  1.0000  0.0000      0.0000  0.0000
 
atom =  32  type =  4  l = 0
 
 onsite density matrix
 
spin component  1
 
  0.8936
 
spin component  2
 
  0.7311
 
 occupancies and eigenvectors
 
  o =  0.7311  v =  0.0000  1.0000      0.0000  0.0000
  o =  0.8936  v =  1.0000  0.0000      0.0000  0.0000
 
atom =  33  type =  4  l = 0
 
 onsite density matrix
 
spin component  1
 
  0.8936
 
spin component  2
 
  0.7311
 
 occupancies and eigenvectors
 
  o =  0.7311  v =  0.0000  1.0000      0.0000  0.0000
  o =  0.8936  v =  1.0000  0.0000      0.0000  0.0000
 
atom =  34  type =  4  l = 0
 
 onsite density matrix
 
spin component  1
 
  0.8936
 
spin component  2
 
  0.7311
 
 occupancies and eigenvectors
 
  o =  0.7311  v =  0.0000  1.0000      0.0000  0.0000
  o =  0.8936  v =  1.0000  0.0000      0.0000  0.0000
 
atom =  35  type =  4  l = 0
 
 onsite density matrix
 
spin component  1
 
  0.8936
 
spin component  2
 
  0.7311
 
 occupancies and eigenvectors
 
  o =  0.7311  v =  0.0000  1.0000      0.0000  0.0000
  o =  0.8936  v =  1.0000  0.0000      0.0000  0.0000
 
atom =  36  type =  4  l = 0
 
 onsite density matrix
 
spin component  1
 
  0.8936
 
spin component  2
 
  0.7311
 
 occupancies and eigenvectors
 
  o =  0.7311  v =  0.0000  1.0000      0.0000  0.0000
  o =  0.8936  v =  1.0000  0.0000      0.0000  0.0000
 
atom =  37  type =  4  l = 0
 
 onsite density matrix
 
spin component  1
 
  0.8936
 
spin component  2
 
  0.7311
 
 occupancies and eigenvectors
 
  o =  0.7311  v =  0.0000  1.0000      0.0000  0.0000
  o =  0.8936  v =  1.0000  0.0000      0.0000  0.0000
 
atom =  38  type =  4  l = 0
 
 onsite density matrix
 
spin component  1
 
  0.8936
 
spin component  2
 
  0.7311
 
 occupancies and eigenvectors
 
  o =  0.7311  v =  0.0000  1.0000      0.0000  0.0000
  o =  0.8936  v =  1.0000  0.0000      0.0000  0.0000
 
atom =  39  type =  4  l = 0
 
 onsite density matrix
 
spin component  1
 
  0.8936
 
spin component  2
 
  0.7311
 
 occupancies and eigenvectors
 
  o =  0.7311  v =  0.0000  1.0000      0.0000  0.0000
  o =  0.8936  v =  1.0000  0.0000      0.0000  0.0000
 
atom =  40  type =  4  l = 0
 
 onsite density matrix
 
spin component  1
 
  0.8936
 
spin component  2
 
  0.7311
 
 occupancies and eigenvectors
 
  o =  0.7311  v =  0.0000  1.0000      0.0000  0.0000
  o =  0.8936  v =  1.0000  0.0000      0.0000  0.0000
 
atom =  41  type =  4  l = 0
 
 onsite density matrix
 
spin component  1
 
  0.8936
 
spin component  2
 
  0.7311
 
 occupancies and eigenvectors
 
  o =  0.7311  v =  0.0000  1.0000      0.0000  0.0000
  o =  0.8936  v =  1.0000  0.0000      0.0000  0.0000
 
atom =  42  type =  4  l = 0
 
 onsite density matrix
 
spin component  1
 
  0.8936
 
spin component  2
 
  0.7311
 
 occupancies and eigenvectors
 
  o =  0.7311  v =  0.0000  1.0000      0.0000  0.0000
  o =  0.8936  v =  1.0000  0.0000      0.0000  0.0000
 
atom =  43  type =  4  l = 0
 
 onsite density matrix
 
spin component  1
 
  0.8936
 
spin component  2
 
  0.7311
 
 occupancies and eigenvectors
 
  o =  0.7311  v =  0.0000  1.0000      0.0000  0.0000
  o =  0.8936  v =  1.0000  0.0000      0.0000  0.0000
 
atom =  44  type =  4  l = 0
 
 onsite density matrix
 
spin component  1
 
  0.8936
 
spin component  2
 
  0.7311
 
 occupancies and eigenvectors
 
  o =  0.7311  v =  0.0000  1.0000      0.0000  0.0000
  o =  0.8936  v =  1.0000  0.0000      0.0000  0.0000
 
atom =  45  type =  4  l = 0
 
 onsite density matrix
 
spin component  1
 
  0.8936
 
spin component  2
 
  0.7311
 
 occupancies and eigenvectors
 
  o =  0.7311  v =  0.0000  1.0000      0.0000  0.0000
  o =  0.8936  v =  1.0000  0.0000      0.0000  0.0000
 
atom =  46  type =  4  l = 0
 
 onsite density matrix
 
spin component  1
 
  0.8936
 
spin component  2
 
  0.7311
 
 occupancies and eigenvectors
 
  o =  0.7311  v =  0.0000  1.0000      0.0000  0.0000
  o =  0.8936  v =  1.0000  0.0000      0.0000  0.0000
 
atom =  47  type =  4  l = 0
 
 onsite density matrix
 
spin component  1
 
  0.8936
 
spin component  2
 
  0.7311
 
 occupancies and eigenvectors
 
  o =  0.7311  v =  0.0000  1.0000      0.0000  0.0000
  o =  0.8936  v =  1.0000  0.0000      0.0000  0.0000
 
atom =  48  type =  4  l = 0
 
 onsite density matrix
 
spin component  1
 
  0.8936
 
spin component  2
 
  0.7311
 
 occupancies and eigenvectors
 
  o =  0.7311  v =  0.0000  1.0000      0.0000  0.0000
  o =  0.8936  v =  1.0000  0.0000      0.0000  0.0000
 
atom =  49  type =  4  l = 0
 
 onsite density matrix
 
spin component  1
 
  0.8936
 
spin component  2
 
  0.7311
 
 occupancies and eigenvectors
 
  o =  0.7311  v =  0.0000  1.0000      0.0000  0.0000
  o =  0.8936  v =  1.0000  0.0000      0.0000  0.0000
 
atom =  50  type =  4  l = 0
 
 onsite density matrix
 
spin component  1
 
  0.8936
 
spin component  2
 
  0.7311
 
 occupancies and eigenvectors
 
  o =  0.7311  v =  0.0000  1.0000      0.0000  0.0000
  o =  0.8936  v =  1.0000  0.0000      0.0000  0.0000
 
atom =  51  type =  4  l = 0
 
 onsite density matrix
 
spin component  1
 
  0.8936
 
spin component  2
 
  0.7311
 
 occupancies and eigenvectors
 
  o =  0.7311  v =  0.0000  1.0000      0.0000  0.0000
  o =  0.8936  v =  1.0000  0.0000      0.0000  0.0000
 
atom =  52  type =  4  l = 0
 
 onsite density matrix
 
spin component  1
 
  0.8936
 
spin component  2
 
  0.7311
 
 occupancies and eigenvectors
 
  o =  0.7311  v =  0.0000  1.0000      0.0000  0.0000
  o =  0.8936  v =  1.0000  0.0000      0.0000  0.0000
 
atom =  53  type =  4  l = 0
 
 onsite density matrix
 
spin component  1
 
  0.8936
 
spin component  2
 
  0.7311
 
 occupancies and eigenvectors
 
  o =  0.7311  v =  0.0000  1.0000      0.0000  0.0000
  o =  0.8936  v =  1.0000  0.0000      0.0000  0.0000
 
atom =  54  type =  4  l = 0
 
 onsite density matrix
 
spin component  1
 
  0.8936
 
spin component  2
 
  0.7311
 
 occupancies and eigenvectors
 
  o =  0.7311  v =  0.0000  1.0000      0.0000  0.0000
  o =  0.8936  v =  1.0000  0.0000      0.0000  0.0000
 
atom =  55  type =  4  l = 0
 
 onsite density matrix
 
spin component  1
 
  0.8936
 
spin component  2
 
  0.7311
 
 occupancies and eigenvectors
 
  o =  0.7311  v =  0.0000  1.0000      0.0000  0.0000
  o =  0.8936  v =  1.0000  0.0000      0.0000  0.0000
 
atom =  56  type =  4  l = 0
 
 onsite density matrix
 
spin component  1
 
  0.8936
 
spin component  2
 
  0.7311
 
 occupancies and eigenvectors
 
  o =  0.7311  v =  0.0000  1.0000      0.0000  0.0000
  o =  0.8936  v =  1.0000  0.0000      0.0000  0.0000
 
atom =  57  type =  4  l = 0
 
 onsite density matrix
 
spin component  1
 
  0.8936
 
spin component  2
 
  0.7311
 
 occupancies and eigenvectors
 
  o =  0.7311  v =  0.0000  1.0000      0.0000  0.0000
  o =  0.8936  v =  1.0000  0.0000      0.0000  0.0000
 
atom =  58  type =  4  l = 0
 
 onsite density matrix
 
spin component  1
 
  0.8936
 
spin component  2
 
  0.7311
 
 occupancies and eigenvectors
 
  o =  0.7311  v =  0.0000  1.0000      0.0000  0.0000
  o =  0.8936  v =  1.0000  0.0000      0.0000  0.0000
 
atom =  59  type =  4  l = 0
 
 onsite density matrix
 
spin component  1
 
  0.8936
 
spin component  2
 
  0.7311
 
 occupancies and eigenvectors
 
  o =  0.7311  v =  0.0000  1.0000      0.0000  0.0000
  o =  0.8936  v =  1.0000  0.0000      0.0000  0.0000
 
atom =  60  type =  4  l = 0
 
 onsite density matrix
 
spin component  1
 
  0.8936
 
spin component  2
 
  0.7311
 
 occupancies and eigenvectors
 
  o =  0.7311  v =  0.0000  1.0000      0.0000  0.0000
  o =  0.8936  v =  1.0000  0.0000      0.0000  0.0000
 
atom =  61  type =  4  l = 0
 
 onsite density matrix
 
spin component  1
 
  0.8936
 
spin component  2
 
  0.7311
 
 occupancies and eigenvectors
 
  o =  0.7311  v =  0.0000  1.0000      0.0000  0.0000
  o =  0.8936  v =  1.0000  0.0000      0.0000  0.0000
 
atom =  62  type =  4  l = 0
 
 onsite density matrix
 
spin component  1
 
  0.8936
 
spin component  2
 
  0.7311
 
 occupancies and eigenvectors
 
  o =  0.7311  v =  0.0000  1.0000      0.0000  0.0000
  o =  0.8936  v =  1.0000  0.0000      0.0000  0.0000
 
atom =  63  type =  4  l = 0
 
 onsite density matrix
 
spin component  1
 
  0.8936
 
spin component  2
 
  0.7311
 
 occupancies and eigenvectors
 
  o =  0.7311  v =  0.0000  1.0000      0.0000  0.0000
  o =  0.8936  v =  1.0000  0.0000      0.0000  0.0000
 
atom =  64  type =  4  l = 0
 
 onsite density matrix
 
spin component  1
 
  0.8936
 
spin component  2
 
  0.7311
 
 occupancies and eigenvectors
 
  o =  0.7311  v =  0.0000  1.0000      0.0000  0.0000
  o =  0.8936  v =  1.0000  0.0000      0.0000  0.0000
 
atom =  65  type =  4  l = 0
 
 onsite density matrix
 
spin component  1
 
  0.8936
 
spin component  2
 
  0.7311
 
 occupancies and eigenvectors
 
  o =  0.7311  v =  0.0000  1.0000      0.0000  0.0000
  o =  0.8936  v =  1.0000  0.0000      0.0000  0.0000
 
atom =  66  type =  4  l = 0
 
 onsite density matrix
 
spin component  1
 
  0.8936
 
spin component  2
 
  0.7311
 
 occupancies and eigenvectors
 
  o =  0.7311  v =  0.0000  1.0000      0.0000  0.0000
  o =  0.8936  v =  1.0000  0.0000      0.0000  0.0000
 
atom =  67  type =  4  l = 0
 
 onsite density matrix
 
spin component  1
 
  0.8936
 
spin component  2
 
  0.7311
 
 occupancies and eigenvectors
 
  o =  0.7311  v =  0.0000  1.0000      0.0000  0.0000
  o =  0.8936  v =  1.0000  0.0000      0.0000  0.0000
 
atom =  68  type =  4  l = 0
 
 onsite density matrix
 
spin component  1
 
  0.8936
 
spin component  2
 
  0.7311
 
 occupancies and eigenvectors
 
  o =  0.7311  v =  0.0000  1.0000      0.0000  0.0000
  o =  0.8936  v =  1.0000  0.0000      0.0000  0.0000
 
atom =  69  type =  4  l = 0
 
 onsite density matrix
 
spin component  1
 
  0.8936
 
spin component  2
 
  0.7311
 
 occupancies and eigenvectors
 
  o =  0.7311  v =  0.0000  1.0000      0.0000  0.0000
  o =  0.8936  v =  1.0000  0.0000      0.0000  0.0000
 
atom =  70  type =  4  l = 0
 
 onsite density matrix
 
spin component  1
 
  0.8936
 
spin component  2
 
  0.7311
 
 occupancies and eigenvectors
 
  o =  0.7311  v =  0.0000  1.0000      0.0000  0.0000
  o =  0.8936  v =  1.0000  0.0000      0.0000  0.0000
 
atom =  71  type =  4  l = 0
 
 onsite density matrix
 
spin component  1
 
  0.8936
 
spin component  2
 
  0.7311
 
 occupancies and eigenvectors
 
  o =  0.7311  v =  0.0000  1.0000      0.0000  0.0000
  o =  0.8936  v =  1.0000  0.0000      0.0000  0.0000
 
atom =  72  type =  4  l = 0
 
 onsite density matrix
 
spin component  1
 
  0.8936
 
spin component  2
 
  0.7311
 
 occupancies and eigenvectors
 
  o =  0.7311  v =  0.0000  1.0000      0.0000  0.0000
  o =  0.8936  v =  1.0000  0.0000      0.0000  0.0000
 
atom =  73  type =  4  l = 0
 
 onsite density matrix
 
spin component  1
 
  0.8936
 
spin component  2
 
  0.7311
 
 occupancies and eigenvectors
 
  o =  0.7311  v =  0.0000  1.0000      0.0000  0.0000
  o =  0.8936  v =  1.0000  0.0000      0.0000  0.0000
 
atom =  74  type =  4  l = 0
 
 onsite density matrix
 
spin component  1
 
  0.8936
 
spin component  2
 
  0.7311
 
 occupancies and eigenvectors
 
  o =  0.7311  v =  0.0000  1.0000      0.0000  0.0000
  o =  0.8936  v =  1.0000  0.0000      0.0000  0.0000
 
atom =  75  type =  4  l = 0
 
 onsite density matrix
 
spin component  1
 
  0.8936
 
spin component  2
 
  0.7311
 
 occupancies and eigenvectors
 
  o =  0.7311  v =  0.0000  1.0000      0.0000  0.0000
  o =  0.8936  v =  1.0000  0.0000      0.0000  0.0000
 
atom =  76  type =  4  l = 0
 
 onsite density matrix
 
spin component  1
 
  0.8936
 
spin component  2
 
  0.7311
 
 occupancies and eigenvectors
 
  o =  0.7311  v =  0.0000  1.0000      0.0000  0.0000
  o =  0.8936  v =  1.0000  0.0000      0.0000  0.0000
 
atom =  77  type =  4  l = 0
 
 onsite density matrix
 
spin component  1
 
  0.8936
 
spin component  2
 
  0.7311
 
 occupancies and eigenvectors
 
  o =  0.7311  v =  0.0000  1.0000      0.0000  0.0000
  o =  0.8936  v =  1.0000  0.0000      0.0000  0.0000
 
atom =  78  type =  4  l = 0
 
 onsite density matrix
 
spin component  1
 
  0.8936
 
spin component  2
 
  0.7311
 
 occupancies and eigenvectors
 
  o =  0.7311  v =  0.0000  1.0000      0.0000  0.0000
  o =  0.8936  v =  1.0000  0.0000      0.0000  0.0000
 
atom =  79  type =  4  l = 0
 
 onsite density matrix
 
spin component  1
 
  0.8936
 
spin component  2
 
  0.7311
 
 occupancies and eigenvectors
 
  o =  0.7311  v =  0.0000  1.0000      0.0000  0.0000
  o =  0.8936  v =  1.0000  0.0000      0.0000  0.0000
 
atom =  80  type =  4  l = 0
 
 onsite density matrix
 
spin component  1
 
  0.8936
 
spin component  2
 
  0.7311
 
 occupancies and eigenvectors
 
  o =  0.7311  v =  0.0000  1.0000      0.0000  0.0000
  o =  0.8936  v =  1.0000  0.0000      0.0000  0.0000
 
atom =  81  type =  4  l = 0
 
 onsite density matrix
 
spin component  1
 
  0.8936
 
spin component  2
 
  0.7311
 
 occupancies and eigenvectors
 
  o =  0.7311  v =  0.0000  1.0000      0.0000  0.0000
  o =  0.8936  v =  1.0000  0.0000      0.0000  0.0000
 
atom =  82  type =  4  l = 0
 
 onsite density matrix
 
spin component  1
 
  0.8936
 
spin component  2
 
  0.7311
 
 occupancies and eigenvectors
 
  o =  0.7311  v =  0.0000  1.0000      0.0000  0.0000
  o =  0.8936  v =  1.0000  0.0000      0.0000  0.0000
 
atom =  83  type =  4  l = 0
 
 onsite density matrix
 
spin component  1
 
  0.8936
 
spin component  2
 
  0.7311
 
 occupancies and eigenvectors
 
  o =  0.7311  v =  0.0000  1.0000      0.0000  0.0000
  o =  0.8936  v =  1.0000  0.0000      0.0000  0.0000
 
atom =  84  type =  4  l = 0
 
 onsite density matrix
 
spin component  1
 
  0.8936
 
spin component  2
 
  0.7311
 
 occupancies and eigenvectors
 
  o =  0.7311  v =  0.0000  1.0000      0.0000  0.0000
  o =  0.8936  v =  1.0000  0.0000      0.0000  0.0000
 
atom =  85  type =  4  l = 0
 
 onsite density matrix
 
spin component  1
 
  0.8936
 
spin component  2
 
  0.7311
 
 occupancies and eigenvectors
 
  o =  0.7311  v =  0.0000  1.0000      0.0000  0.0000
  o =  0.8936  v =  1.0000  0.0000      0.0000  0.0000
 
atom =  86  type =  4  l = 0
 
 onsite density matrix
 
spin component  1
 
  0.8936
 
spin component  2
 
  0.7311
 
 occupancies and eigenvectors
 
  o =  0.7311  v =  0.0000  1.0000      0.0000  0.0000
  o =  0.8936  v =  1.0000  0.0000      0.0000  0.0000
 
atom =  87  type =  4  l = 0
 
 onsite density matrix
 
spin component  1
 
  0.8936
 
spin component  2
 
  0.7311
 
 occupancies and eigenvectors
 
  o =  0.7311  v =  0.0000  1.0000      0.0000  0.0000
  o =  0.8936  v =  1.0000  0.0000      0.0000  0.0000
 
atom =  88  type =  4  l = 0
 
 onsite density matrix
 
spin component  1
 
  0.8936
 
spin component  2
 
  0.7311
 
 occupancies and eigenvectors
 
  o =  0.7311  v =  0.0000  1.0000      0.0000  0.0000
  o =  0.8936  v =  1.0000  0.0000      0.0000  0.0000
 
atom =  89  type =  4  l = 0
 
 onsite density matrix
 
spin component  1
 
  0.8936
 
spin component  2
 
  0.7311
 
 occupancies and eigenvectors
 
  o =  0.7311  v =  0.0000  1.0000      0.0000  0.0000
  o =  0.8936  v =  1.0000  0.0000      0.0000  0.0000
 
atom =  90  type =  4  l = 0
 
 onsite density matrix
 
[...]
     -0.02663      0.00131      0.00787         0.021209     -0.001043     -0.006271
     -0.01195      0.00365     -0.00297         0.009513     -0.002905      0.002365
      0.00700      0.01495      0.03888        -0.005574     -0.011903     -0.030965
     -0.01158      0.00788     -0.00385         0.009224     -0.006277      0.003069
     -0.00878      0.03196      0.00902         0.006988     -0.025456     -0.007180
      0.00331      0.00082      0.00218        -0.002632     -0.000655     -0.001738
     -0.00539      0.01120      0.00279         0.004290     -0.008922     -0.002225
     -0.01065      0.00633      0.00557         0.008481     -0.005040     -0.004432
     -0.01253      0.00821      0.00094         0.009982     -0.006535     -0.000745
     -0.00794      0.01516      0.00266         0.006320     -0.012071     -0.002119
     -0.00994      0.00999     -0.00156         0.007918     -0.007957      0.001243
     -0.00810      0.00720      0.01222         0.006452     -0.005735     -0.009732
     -0.01108      0.00912      0.00412         0.008825     -0.007265     -0.003279
     -0.01315      0.00676      0.00176         0.010469     -0.005385     -0.001402
     -0.00989      0.01556      0.00526         0.007872     -0.012390     -0.004192
     -0.01489      0.00639     -0.00669         0.011857     -0.005091      0.005327
     -0.00881      0.00310      0.00004         0.007018     -0.002471     -0.000030
     -0.00263      0.01266      0.00096         0.002098     -0.010083     -0.000767
     -0.01422      0.04518      0.00814         0.011326     -0.035978     -0.006486
     -0.01311      0.00271      0.00732         0.010439     -0.002158     -0.005833
     -0.00552      0.02269      0.00583         0.004397     -0.018068     -0.004642
     -0.00911      0.02397      0.00436         0.007251     -0.019091     -0.003473
     -0.01185      0.00189      0.00484         0.009437     -0.001507     -0.003853
     -0.01239      0.00982     -0.00995         0.009864     -0.007817      0.007924
     -0.01161      0.00346     -0.00340         0.009244     -0.002755      0.002710
     -0.00781      0.00596      0.00505         0.006222     -0.004747     -0.004018
     -0.01878      0.07108     -0.07116         0.014953     -0.056604      0.056670
     -0.00443      0.02525     -0.00501         0.003526     -0.020110      0.003986
     -0.00962      0.00260      0.00272         0.007665     -0.002070     -0.002163
     -0.01879      0.00211      0.00912         0.014965     -0.001684     -0.007264
      0.01588      0.01592      0.03446        -0.012649     -0.012677     -0.027440
     -0.02778      0.00712      0.01546         0.022125     -0.005668     -0.012308
     -0.02764      0.00984      0.00528         0.022009     -0.007835     -0.004207
     -0.00879      0.00430      0.00498         0.006997     -0.003425     -0.003969
     -0.02653     -0.00269      0.00892         0.021124      0.002138     -0.007101
     -0.02389      0.00130      0.01322         0.019023     -0.001034     -0.010532
     -0.06876      0.01123     -0.04028         0.054759     -0.008946      0.032074
     -0.01550      0.00093     -0.00327         0.012343     -0.000738      0.002606
     -0.00671      0.00845      0.00492         0.005344     -0.006732     -0.003915
     -0.00499      0.00690     -0.01570         0.003975     -0.005498      0.012501
     -0.01040      0.00076      0.00228         0.008284     -0.000605     -0.001812
     -0.01012      0.00254      0.00286         0.008057     -0.002026     -0.002278
      0.16627      0.13189     -0.07610        -0.132414     -0.105031      0.060603
     -0.02727     -0.01320      0.07521         0.021717      0.010514     -0.059897
     -0.02093      0.00238      0.01019         0.016667     -0.001895     -0.008115
     -0.00699      0.00052      0.00395         0.005567     -0.000414     -0.003148
      0.01769      0.05079      0.05277        -0.014085     -0.040444     -0.042021
     -0.06097      0.08658     -0.07544         0.048554     -0.068951      0.060074
     -0.01164      0.00094      0.00445         0.009266     -0.000747     -0.003540
     -0.01508      0.00055      0.00707         0.012008     -0.000441     -0.005627
     -0.01961     -0.01293     -0.06402         0.015616      0.010294      0.050979
     -0.17158     -0.02820      0.06373         0.136638      0.022458     -0.050749
     -0.01567      0.00111      0.00804         0.012478     -0.000886     -0.006403
     -0.00772      0.00132      0.00205         0.006146     -0.001055     -0.001632
     -0.02558      0.07288      0.00954         0.020372     -0.058042     -0.007599
     -0.01178      0.00999      0.00262         0.009382     -0.007956     -0.002087
     -0.01408      0.00074      0.00486         0.011213     -0.000589     -0.003873
     -0.05001      0.01235      0.01668         0.039825     -0.009833     -0.013285
     -0.03894      0.00690      0.01431         0.031010     -0.005498     -0.011397
     -0.00469      0.10343      0.08884         0.003736     -0.082369     -0.070746
     -0.01235      0.00376      0.00608         0.009832     -0.002993     -0.004839
     -0.00755      0.00207      0.00172         0.006015     -0.001647     -0.001369
     -0.01071      0.01662     -0.00359         0.008530     -0.013239      0.002860
     -0.00668      0.01476      0.00314         0.005321     -0.011751     -0.002504
     -0.00906      0.01069     -0.00210         0.007219     -0.008510      0.001674
     -0.01248      0.00681     -0.00666         0.009941     -0.005421      0.005301
     -0.00691      0.00586      0.00610         0.005504     -0.004670     -0.004856
     -0.01598      0.02422      0.01177         0.012723     -0.019285     -0.009375
     -0.00124      0.02320      0.00568         0.000985     -0.018475     -0.004521
     -0.01338      0.00506     -0.00634         0.010658     -0.004031      0.005050
     -0.01150      0.00650      0.00424         0.009154     -0.005179     -0.003375
 -----------------------------------------------------------------------------------
 CHAIN + TOTAL  (eV/Angst)
 ----------------------------------------------
      0.02212     -0.03101     -0.00528
      0.00553     -0.00864     -0.00210
      0.00463     -0.00541     -0.00230
      0.00705     -0.00467      0.00010
      0.00432     -0.00440     -0.00117
      0.00606     -0.00310     -0.00074
      0.00406     -0.00387     -0.00075
      0.00627     -0.00409     -0.00368
      0.00460     -0.00866     -0.00330
      0.00643     -0.00795     -0.00125
      0.00343     -0.00234     -0.00170
      0.00668     -0.00216     -0.00427
      0.00760     -0.01012     -0.00427
      0.00677      0.00236     -0.00112
      0.00594     -0.00240     -0.00151
      0.00556     -0.00310     -0.00271
      0.00254     -0.00866     -0.00075
      0.00608     -0.00884     -0.00163
      0.00668     -0.00128     -0.00358
      0.00610     -0.00105     -0.00304
      0.00702     -0.00751      0.00095
      0.00570     -0.01069     -0.00047
      0.00839     -0.00089     -0.00281
      0.00369     -0.00328     -0.00177
      0.00899     -0.00636      0.00081
      0.00689     -0.00364      0.00333
      0.00762     -0.01110     -0.00418
     -0.00000     -0.00468      0.00035
      0.00096      0.00017      0.00051
      0.00514     -0.00615     -0.00196
      0.00491     -0.00430      0.00035
      0.00334     -0.00568     -0.00315
      0.00524     -0.01047     -0.00426
      0.00556     -0.00906     -0.00573
      0.00313     -0.00425     -0.00481
      0.00516     -0.00345     -0.00283
      0.00491     -0.01005     -0.00636
      0.00667     -0.00550     -0.00213
      0.00511     -0.00323     -0.00155
      0.00477     -0.00721     -0.00388
      0.00593     -0.00908     -0.00396
      0.00389     -0.00550     -0.00276
      0.00228     -0.00894     -0.00161
      0.00261     -0.00670      0.00064
      0.00144     -0.00213     -0.00007
      0.00825     -0.00745      0.00233
      0.00626     -0.00265      0.00246
      0.00579     -0.00205     -0.00419
      0.00432     -0.01585     -0.00432
      0.00664     -0.00736     -0.00110
      0.00265     -0.00227     -0.00111
      0.00802     -0.00181     -0.00450
      0.00998     -0.01420     -0.00300
      0.01121      0.00096     -0.00377
      0.00869     -0.00283     -0.00278
      0.00593     -0.00301     -0.00179
      0.00742     -0.00661     -0.00326
      0.01060      0.00322      0.00318
      0.00675     -0.00717      0.00094
      0.00733     -0.00303      0.00450
      0.00524     -0.00692      0.00264
      0.00206     -0.00892     -0.00032
      0.00081     -0.00106      0.00057
      0.00578     -0.00161     -0.00244
      0.01219     -0.00693     -0.00690
      0.00411     -0.00022     -0.00615
      0.00410     -0.00137     -0.00882
      0.00553     -0.00042     -0.00360
      0.00320     -0.01022     -0.00456
      0.00327     -0.00750     -0.00370
      0.00683     -0.00049     -0.00161
      0.00716     -0.00062     -0.00186
      0.00981     -0.01241     -0.00688
      0.00207     -0.01155     -0.00150
      0.01212     -0.00131     -0.00425
      0.00664     -0.00103     -0.00176
      0.00915     -0.00732     -0.00289
      0.00320     -0.00524     -0.00216
      0.00581     -0.00221     -0.00270
      0.00986     -0.00195     -0.00240
      0.01190      0.00097     -0.00388
      0.00548     -0.01006     -0.00175
      0.00738     -0.00227     -0.00474
      0.00358     -0.00217     -0.00095
      0.00599     -0.00762     -0.00164
      0.00507     -0.01133     -0.00350
      0.00485     -0.00443     -0.00376
      0.00433     -0.00391     -0.00082
      0.00625     -0.00609     -0.00149
      0.00336     -0.00956     -0.00474
      0.00320     -0.00721     -0.00337
      0.00490     -0.00319      0.00168
      0.00539     -0.00521      0.00095
 ----------------------------------------------
 Quasi-Newton relaxation of ions (Broydens 2nd method)
  g(Force)  = 0.733E-03   g(Stress)= 0.000E+00

 retain information from N=  4 steps
 eigenvalues of (default step * inverse Hessian matrix)
  average eigenvalue of G=   5.2160
 eigenvalue spectrum of G is  6.2957  6.2957  6.2562  2.0167


--------------------------------------------------------------------------------------------------------


  
 reached required accuracy - stopping structural energy minimisation
     LOOP+:  cpu time    432.6318: real time    435.5296
    4ORBIT:  cpu time      0.0000: real time      0.0000



 total charge

# of ion       s       p       d       tot
------------------------------------------
    1        2.108   0.321   0.000   2.429
    2        0.424   6.573   2.830   9.827
    3        0.422   6.570   2.817   9.810
    4        0.424   6.572   2.830   9.826
    5        0.426   6.577   2.832   9.835
    6        0.422   6.576   2.810   9.808
    7        0.421   6.577   2.805   9.803
    8        0.422   6.576   2.814   9.812
    9        0.425   6.583   2.822   9.830
   10        0.422   6.572   2.830   9.823
   11        0.425   6.572   2.851   9.848
   12        0.425   6.573   2.854   9.852
   13        0.426   6.568   2.872   9.866
   14        0.421   6.611   2.748   9.780
   15        0.420   6.608   2.746   9.774
   16        0.420   6.608   2.743   9.771
   17        0.421   6.612   2.743   9.776
   18        0.420   6.572   2.835   9.827
   19        0.418   6.579   2.777   9.775
   20        0.419   6.579   2.787   9.785
   21        0.419   6.560   2.823   9.803
   22        0.418   6.567   2.810   9.794
   23        0.419   6.577   2.782   9.778
   24        0.420   6.577   2.789   9.786
   25        0.418   6.574   2.780   9.772
   26        0.489   6.631   3.928  11.048
   27        0.489   6.630   3.925  11.044
   28        1.574   3.477   0.000   5.051
   29        1.574   3.475   0.000   5.049
   30        1.565   3.490   0.000   5.055
   31        1.565   3.491   0.000   5.055
   32        1.565   3.490   0.000   5.055
   33        1.565   3.491   0.000   5.056
   34        1.574   3.478   0.000   5.053
   35        1.575   3.473   0.000   5.048
   36        1.575   3.477   0.000   5.052
   37        1.575   3.483   0.000   5.058
   38        1.581   3.455   0.000   5.037
   39        1.584   3.445   0.000   5.029
   40        1.584   3.446   0.000   5.030
   41        1.581   3.457   0.000   5.038
   42        1.577   3.461   0.000   5.038
   43        1.574   3.468   0.000   5.042
   44        1.575   3.464   0.000   5.040
   45        1.577   3.461   0.000   5.038
   46        1.576   3.466   0.000   5.042
   47        1.575   3.474   0.000   5.049
   48        1.575   3.474   0.000   5.049
   49        1.578   3.474   0.000   5.051
   50        1.565   3.490   0.000   5.056
   51        1.565   3.495   0.000   5.060
   52        1.565   3.495   0.000   5.060
   53        1.563   3.501   0.000   5.064
   54        1.580   3.455   0.000   5.034
   55        1.580   3.453   0.000   5.033
   56        1.580   3.451   0.000   5.031
   57        1.579   3.454   0.000   5.033
   58        1.576   3.472   0.000   5.047
   59        1.577   3.462   0.000   5.039
   60        1.577   3.465   0.000   5.042
   61        1.576   3.471   0.000   5.047
   62        1.575   3.477   0.000   5.052
   63        1.577   3.467   0.000   5.044
   64        1.577   3.469   0.000   5.045
   65        1.570   3.483   0.000   5.052
   66        1.577   3.465   0.000   5.042
   67        1.575   3.473   0.000   5.048
   68        1.576   3.471   0.000   5.047
   69        1.577   3.470   0.000   5.047
   70        1.564   3.477   0.000   5.041
   71        1.565   3.494   0.000   5.059
   72        1.566   3.494   0.000   5.060
   73        1.562   3.510   0.000   5.072
   74        1.564   3.490   0.000   5.055
   75        1.575   3.472   0.000   5.047
   76        1.575   3.473   0.000   5.047
   77        1.574   3.472   0.000   5.046
   78        1.581   3.469   0.000   5.050
   79        1.580   3.468   0.000   5.049
   80        1.581   3.469   0.000   5.050
   81        1.581   3.470   0.000   5.051
   82        1.564   3.479   0.000   5.043
   83        1.564   3.497   0.000   5.061
   84        1.564   3.497   0.000   5.060
   85        1.565   3.491   0.000   5.056
   86        1.565   3.490   0.000   5.055
   87        1.565   3.488   0.000   5.053
   88        1.565   3.488   0.000   5.053
   89        1.565   3.488   0.000   5.053
   90        1.581   3.450   0.000   5.031
   91        1.583   3.448   0.000   5.031
   92        1.583   3.450   0.000   5.032
   93        1.582   3.455   0.000   5.037
--------------------------------------------------
tot        117.045 400.785  75.183 593.013



 magnetization (x)

# of ion       s       p       d       tot
------------------------------------------
    1       -0.000  -0.000   0.000  -0.000
    2       -0.000   0.000   0.000   0.000
    3       -0.000   0.000  -0.000  -0.000
    4       -0.000   0.000   0.000   0.000
    5       -0.000  -0.000  -0.000  -0.000
    6        0.000   0.000   0.000   0.000
    7        0.000  -0.000   0.000   0.000
    8        0.000  -0.000   0.000   0.000
    9        0.000   0.000  -0.000  -0.000
   10        0.000  -0.000  -0.000  -0.000
   11       -0.000   0.000  -0.000  -0.000
   12       -0.000  -0.000  -0.000  -0.000
   13        0.000   0.000   0.000   0.000
   14        0.000  -0.000   0.000  -0.000
   15        0.000  -0.000  -0.000  -0.000
   16       -0.000   0.000   0.000   0.000
   17        0.000   0.000  -0.000  -0.000
   18        0.000   0.000  -0.000   0.000
   19       -0.000   0.000   0.000   0.000
   20        0.000   0.000  -0.000  -0.000
   21       -0.000   0.000  -0.000  -0.000
   22        0.000  -0.000  -0.000  -0.000
   23        0.000  -0.000   0.000   0.000
   24        0.000  -0.000  -0.000  -0.000
   25        0.000  -0.000  -0.000  -0.000
   26        0.000  -0.000   0.000   0.000
   27        0.000  -0.000  -0.000  -0.000
   28       -0.000   0.000   0.000   0.000
   29       -0.000  -0.000   0.000  -0.000
   30       -0.000   0.000   0.000   0.000
   31       -0.000  -0.000   0.000  -0.000
   32        0.000   0.000   0.000   0.000
   33       -0.000  -0.000   0.000  -0.000
   34       -0.000  -0.000   0.000  -0.000
   35       -0.000   0.000   0.000   0.000
   36       -0.000  -0.000   0.000  -0.000
   37       -0.000  -0.000   0.000  -0.000
   38        0.000   0.000   0.000   0.000
   39       -0.000  -0.000   0.000  -0.000
   40        0.000   0.000   0.000   0.000
   41        0.000   0.000   0.000   0.000
   42        0.000   0.000   0.000   0.000
   43       -0.000  -0.000   0.000  -0.000
   44       -0.000  -0.000   0.000  -0.000
   45        0.000   0.000   0.000   0.000
   46        0.000   0.000   0.000   0.000
   47        0.000  -0.000   0.000   0.000
   48       -0.000   0.000   0.000   0.000
   49        0.000  -0.000   0.000  -0.000
   50        0.000  -0.000   0.000  -0.000
   51        0.000   0.000   0.000   0.000
   52       -0.000   0.000   0.000   0.000
   53       -0.000  -0.000   0.000  -0.000
   54        0.000   0.000   0.000   0.000
   55       -0.000   0.000   0.000   0.000
   56        0.000  -0.000   0.000  -0.000
   57        0.000  -0.000   0.000  -0.000
   58       -0.000  -0.000   0.000  -0.000
   59        0.000   0.000   0.000   0.000
   60       -0.000  -0.000   0.000  -0.000
   61       -0.000  -0.000   0.000  -0.000
   62       -0.000  -0.000   0.000  -0.000
   63       -0.000   0.000   0.000   0.000
   64        0.000   0.000   0.000   0.000
   65       -0.000   0.000   0.000   0.000
   66       -0.000   0.000   0.000   0.000
   67        0.000  -0.000   0.000  -0.000
   68       -0.000  -0.000   0.000  -0.000
   69        0.000   0.000   0.000   0.000
   70        0.000  -0.000   0.000  -0.000
   71       -0.000   0.000   0.000   0.000
   72        0.000  -0.000   0.000  -0.000
   73       -0.000  -0.000   0.000  -0.000
   74        0.000   0.000   0.000   0.000
   75       -0.000  -0.000   0.000  -0.000
   76        0.000   0.000   0.000   0.000
   77        0.000  -0.000   0.000  -0.000
   78        0.000   0.000   0.000   0.000
   79       -0.000  -0.000   0.000  -0.000
   80       -0.000  -0.000   0.000  -0.000
   81        0.000  -0.000   0.000  -0.000
   82        0.000  -0.000   0.000   0.000
   83       -0.000   0.000   0.000   0.000
   84        0.000   0.000   0.000   0.000
   85        0.000   0.000   0.000   0.000
   86       -0.000   0.000   0.000   0.000
   87       -0.000  -0.000   0.000  -0.000
   88        0.000   0.000   0.000   0.000
   89        0.000   0.000   0.000   0.000
   90        0.000   0.000   0.000   0.000
   91        0.000  -0.000   0.000  -0.000
   92       -0.000   0.000   0.000   0.000
   93       -0.000   0.000   0.000   0.000
--------------------------------------------------
tot         -0.000   0.000  -0.000  -0.000
 

 total amount of memory used by VASP MPI-rank0   321868. kBytes
=======================================================================

   base      :      30000. kBytes
   nonl-proj :     136648. kBytes
   fftplans  :      24917. kBytes
   grid      :      75254. kBytes
   one-center:       2892. kBytes
   wavefun   :      52157. kBytes
 
  
  
 General timing and accounting informations for this job:
 ========================================================
  
                  Total CPU time used (sec):    25656.002
                            User time (sec):    25553.952
                          System time (sec):      102.050
                         Elapsed time (sec):    25833.245
  
                   Maximum memory used (kb):      700520.
                   Average memory used (kb):          N/A
  
                          Minor page faults:       977542
                          Major page faults:         2250
                 Voluntary context switches:         6997
