<?xml version="1.0" encoding="ISO-8859-1"?>
<modeling>
 <generator>
  <i name="program" type="string">vasp </i>
  <i name="version" type="string">6.3.2  </i>
  <i name="subversion" type="string">27Jun22 (build Aug 05 2024 15:42:26) complex                          parallel </i>
  <i name="platform" type="string">LinuxIFC </i>
  <i name="date" type="string">2025 06 04 </i>
  <i name="time" type="string">20:33:56 </i>
 </generator>
 <incar>
  <i type="string" name="PREC">Accurate</i>
  <i type="string" name="ALGO">Fast</i>
  <i type="logical" name="ADDGRID"> T  </i>
  <i type="int" name="ISPIN">     2</i>
  <i type="int" name="NELM">   100</i>
  <i type="int" name="NELMIN">     3</i>
  <i type="int" name="IBRION">     1</i>
  <i name="EDIFF">      0.00000100</i>
  <i name="EDIFFG">     -0.05000000</i>
  <i type="int" name="NSW">   450</i>
  <i type="int" name="ISIF">     2</i>
  <i type="int" name="ISYM">     0</i>
  <i name="ENCUT">    520.00000000</i>
  <i name="POTIM">      0.20000000</i>
  <v name="MAGMOM">      0.60000000      0.60000000      0.60000000      0.60000000      0.60000000      0.60000000      0.60000000      0.60000000      0.60000000      0.60000000      0.60000000      0.60000000      0.60000000      0.60000000      0.60000000      0.60000000      0.60000000      0.60000000      0.60000000      0.60000000
      0.60000000      0.60000000      0.60000000      0.60000000      0.60000000      0.60000000      0.60000000      0.60000000      0.60000000      0.60000000      0.60000000      0.60000000      0.60000000      0.60000000      0.60000000      0.60000000      0.60000000      0.60000000      0.60000000      0.60000000
      0.60000000      0.60000000      0.60000000      0.60000000      0.60000000      0.60000000      0.60000000      0.60000000      0.60000000      0.60000000      0.60000000      0.60000000      0.60000000      0.60000000      0.60000000      0.60000000      0.60000000      0.60000000      0.60000000      0.60000000
      0.60000000      0.60000000      0.60000000      0.60000000      0.60000000      0.60000000      0.60000000      0.60000000      0.60000000      0.60000000      0.60000000      0.60000000      0.60000000      0.60000000      0.60000000      0.60000000      0.60000000      0.60000000      0.60000000      0.60000000
      0.60000000      0.60000000      0.60000000      0.60000000      0.60000000      0.60000000      0.60000000      0.60000000      0.60000000      0.60000000      0.60000000      0.60000000      0.60000000</v>
  <i type="logical" name="LREAL"> F  </i>
  <i type="int" name="ISMEAR">     0</i>
  <i name="SIGMA">      0.05000000</i>
  <i type="int" name="LMAXMIX">     4</i>
  <i type="logical" name="LWAVE"> F  </i>
  <i type="int" name="LORBIT">    11</i>
  <i type="logical" name="LASPH"> T  </i>
  <i type="logical" name="LDAU"> T  </i>
  <i type="int" name="LDAUTYPE">     2</i>
  <v type="int" name="LDAUL">     0     0     2     0</v>
  <v name="LDAUU">      0.00000000      0.00000000      4.38000000      0.00000000</v>
  <v name="LDAUJ">      0.00000000      0.00000000      0.00000000      0.00000000</v>
  <i type="int" name="LDAUPRINT">     1</i>
  <i name="SPRING">     -5.00000000</i>
 </incar>
 <primitive_cell>
  <structure name="primitive_cell" >
   <crystal>
    <varray name="basis" >
     <v>      22.78514290       0.00000000       0.00000000 </v>
     <v>       0.00000000       3.87685037       0.00000000 </v>
     <v>      -9.97305163       0.00000241      15.12824818 </v>
    </varray>
    <i name="volume">   1336.34759474 </i>
    <varray name="rec_basis" >
     <v>       0.04388825       0.00000000       0.02893261 </v>
     <v>       0.00000000       0.25794135      -0.00000004 </v>
     <v>       0.00000000       0.00000000       0.06610151 </v>
    </varray>
   </crystal>
   <varray name="positions" >
    <v>       0.34753908       0.62724820       0.61454789 </v>
    <v>       0.36716170       0.00778307       0.04567361 </v>
    <v>       0.63464689       0.00813182       0.95502732 </v>
    <v>       0.86620366       0.50796754       0.04585959 </v>
    <v>       0.13137008       0.50927732       0.95492886 </v>
    <v>       0.24887263       0.00351938       0.13704432 </v>
    <v>       0.75255811       0.00312855       0.86193373 </v>
    <v>       0.74823658       0.50320546       0.13814541 </v>
    <v>       0.24958275       0.50346663       0.86453010 </v>
    <v>       0.12884831       0.99688783       0.22867398 </v>
    <v>       0.86890729       0.99870909       0.76701000 </v>
    <v>       0.63136572       0.49866213       0.23257307 </v>
    <v>       0.37033097       0.49566453       0.77373537 </v>
    <v>       0.41900074       0.96667029       0.37970087 </v>
    <v>       0.58423755       0.96710875       0.61776227 </v>
    <v>       0.91780816       0.46687570       0.38167713 </v>
    <v>       0.08206417       0.46648529       0.62048683 </v>
    <v>       0.29526775       0.00332827       0.46527484 </v>
    <v>       0.70230142       0.00354634       0.52592481 </v>
    <v>       0.79842260       0.50364078       0.47255122 </v>
    <v>       0.19977457       0.50311951       0.52631775 </v>
    <v>       0.46805397       0.00155419       0.71507872 </v>
    <v>       0.53659447       0.00190438       0.28682253 </v>
    <v>       0.96325325       0.50165490       0.71202443 </v>
    <v>       0.03478640       0.50123123       0.28648010 </v>
    <v>       0.99912041       0.25226891       0.99980796 </v>
    <v>       0.50052276       0.75301698       0.00038984 </v>
    <v>       0.00057459       0.49111849       0.50047305 </v>
    <v>       0.50047821       0.99092218       0.49958586 </v>
    <v>       0.14845377       0.00446571       0.99114533 </v>
    <v>       0.85031547       0.00410943       0.00925115 </v>
    <v>       0.64926768       0.50435180       0.99065162 </v>
    <v>       0.35078664       0.50402831       0.00891702 </v>
    <v>       0.30316548       0.00289452       0.08121653 </v>
    <v>       0.69637920       0.00378357       0.91780574 </v>
    <v>       0.80312728       0.50338987       0.08183139 </v>
    <v>       0.19642429       0.50211389       0.92008629 </v>
    <v>       0.03340865       0.99880590       0.09850769 </v>
    <v>       0.96564945       0.00036481       0.90206858 </v>
    <v>       0.53438313       0.50165626       0.09829710 </v>
    <v>       0.46613377       0.49974793       0.90108551 </v>
    <v>       0.44963828       0.00406016       0.15553145 </v>
    <v>       0.55017947       0.00333137       0.84402751 </v>
    <v>       0.94957402       0.50355270       0.15606163 </v>
    <v>       0.05004299       0.50507295       0.84445912 </v>
    <v>       0.17961709       0.00160032       0.17719829 </v>
    <v>       0.82030315       0.00323206       0.82285452 </v>
    <v>       0.67992660       0.50302406       0.17702821 </v>
    <v>       0.31818359       0.50001509       0.82215829 </v>
    <v>       0.04923038       0.00111965       0.27062491 </v>
    <v>       0.95035970       0.00185515       0.73010658 </v>
    <v>       0.54976907       0.50182298       0.26949052 </v>
    <v>       0.44977248       0.50141696       0.72607369 </v>
    <v>       0.32547116       0.99945928       0.24954564 </v>
    <v>       0.67497116       0.99923055       0.75009470 </v>
    <v>       0.82551285       0.49919082       0.25000777 </v>
    <v>       0.17370621       0.49989312       0.75135856 </v>
    <v>       0.47641243       0.99870723       0.32605722 </v>
    <v>       0.52430496       0.99948048       0.67233481 </v>
    <v>       0.97648944       0.49924258       0.32732027 </v>
    <v>       0.02386731       0.49811461       0.67347486 </v>
    <v>       0.20627022       0.00184071       0.34831399 </v>
    <v>       0.79282053       0.00195382       0.65103176 </v>
    <v>       0.70752201       0.50221812       0.34884735 </v>
    <v>       0.29742968       0.50198134       0.65141329 </v>
    <v>       0.35287887       0.00055449       0.42423943 </v>
    <v>       0.64808285       0.99933734       0.57410945 </v>
    <v>       0.85294784       0.50021504       0.42561658 </v>
    <v>       0.14902928       0.50013832       0.57717091 </v>
    <v>       0.22225070       0.00273004       0.52099675 </v>
    <v>       0.77876648       0.00309497       0.48104714 </v>
    <v>       0.72191052       0.50295499       0.51844574 </v>
    <v>       0.28100690       0.50288014       0.48206274 </v>
    <v>       0.37695879       0.00237417       0.59643415 </v>
    <v>       0.62187752       0.00268376       0.40375797 </v>
    <v>       0.87831994       0.50279671       0.59590569 </v>
    <v>       0.12227247       0.50231211       0.40479961 </v>
    <v>       0.09101711       0.99242102       0.63093881 </v>
    <v>       0.91010600       0.99281090       0.36903174 </v>
    <v>       0.59018830       0.49270819       0.63106513 </v>
    <v>       0.40982254       0.49246193       0.36889426 </v>
    <v>       0.39387783       0.00001584       0.76961280 </v>
    <v>       0.60584274       0.00125566       0.23165270 </v>
    <v>       0.89449816       0.50107733       0.76820643 </v>
    <v>       0.10578954       0.50009570       0.23165620 </v>
    <v>       0.27529387       0.00304763       0.89684424 </v>
    <v>       0.72404255       0.00367479       0.10276945 </v>
    <v>       0.77555680       0.50364481       0.89676574 </v>
    <v>       0.22421311       0.50355560       0.10395481 </v>
    <v>       0.42910564       0.00424040       0.98708490 </v>
    <v>       0.57135632       0.00430385       0.01299362 </v>
    <v>       0.92792028       0.50304029       0.98665486 </v>
    <v>       0.07081257       0.50409814       0.01346767 </v>
   </varray>
  </structure>
  <varray name="primitive_index" >
   <v type="int" >        1 </v>
   <v type="int" >        2 </v>
   <v type="int" >        3 </v>
   <v type="int" >        4 </v>
   <v type="int" >        5 </v>
   <v type="int" >        6 </v>
   <v type="int" >        7 </v>
   <v type="int" >        8 </v>
   <v type="int" >        9 </v>
   <v type="int" >       10 </v>
   <v type="int" >       11 </v>
   <v type="int" >       12 </v>
   <v type="int" >       13 </v>
   <v type="int" >       14 </v>
   <v type="int" >       15 </v>
   <v type="int" >       16 </v>
   <v type="int" >       17 </v>
   <v type="int" >       18 </v>
   <v type="int" >       19 </v>
   <v type="int" >       20 </v>
   <v type="int" >       21 </v>
   <v type="int" >       22 </v>
   <v type="int" >       23 </v>
   <v type="int" >       24 </v>
   <v type="int" >       25 </v>
   <v type="int" >       26 </v>
   <v type="int" >       27 </v>
   <v type="int" >       28 </v>
   <v type="int" >       29 </v>
   <v type="int" >       30 </v>
   <v type="int" >       31 </v>
   <v type="int" >       32 </v>
   <v type="int" >       33 </v>
   <v type="int" >       34 </v>
   <v type="int" >       35 </v>
   <v type="int" >       36 </v>
   <v type="int" >       37 </v>
   <v type="int" >       38 </v>
   <v type="int" >       39 </v>
   <v type="int" >       40 </v>
   <v type="int" >       41 </v>
   <v type="int" >       42 </v>
   <v type="int" >       43 </v>
   <v type="int" >       44 </v>
   <v type="int" >       45 </v>
   <v type="int" >       46 </v>
   <v type="int" >       47 </v>
   <v type="int" >       48 </v>
   <v type="int" >       49 </v>
   <v type="int" >       50 </v>
   <v type="int" >       51 </v>
   <v type="int" >       52 </v>
   <v type="int" >       53 </v>
   <v type="int" >       54 </v>
   <v type="int" >       55 </v>
   <v type="int" >       56 </v>
   <v type="int" >       57 </v>
   <v type="int" >       58 </v>
   <v type="int" >       59 </v>
   <v type="int" >       60 </v>
   <v type="int" >       61 </v>
   <v type="int" >       62 </v>
   <v type="int" >       63 </v>
   <v type="int" >       64 </v>
   <v type="int" >       65 </v>
   <v type="int" >       66 </v>
   <v type="int" >       67 </v>
   <v type="int" >       68 </v>
   <v type="int" >       69 </v>
   <v type="int" >       70 </v>
   <v type="int" >       71 </v>
   <v type="int" >       72 </v>
   <v type="int" >       73 </v>
   <v type="int" >       74 </v>
   <v type="int" >       75 </v>
   <v type="int" >       76 </v>
   <v type="int" >       77 </v>
   <v type="int" >       78 </v>
   <v type="int" >       79 </v>
   <v type="int" >       80 </v>
   <v type="int" >       81 </v>
   <v type="int" >       82 </v>
   <v type="int" >       83 </v>
   <v type="int" >       84 </v>
   <v type="int" >       85 </v>
   <v type="int" >       86 </v>
   <v type="int" >       87 </v>
   <v type="int" >       88 </v>
   <v type="int" >       89 </v>
   <v type="int" >       90 </v>
   <v type="int" >       91 </v>
   <v type="int" >       92 </v>
   <v type="int" >       93 </v>
  </varray>
 </primitive_cell>
 <kpoints>
  <generation param="Gamma">
   <v type="int" name="divisions">       1        6        1 </v>
   <v name="usershift">      0.00000000       0.00000000       0.00000000 </v>
   <v name="genvec1">      1.00000000       0.00000000      -0.00000000 </v>
   <v name="genvec2">      0.00000000       0.16666667       0.00000000 </v>
   <v name="genvec3">      0.00000000       0.00000000       1.00000000 </v>
   <v name="shift">      0.00000000       0.00000000       0.00000000 </v>
  </generation>
  <varray name="kpointlist" >
   <v>       0.00000000       0.00000000       0.00000000 </v>
   <v>       0.00000000       0.16666667       0.00000000 </v>
   <v>       0.00000000       0.33333333       0.00000000 </v>
   <v>       0.00000000       0.50000000       0.00000000 </v>
  </varray>
  <varray name="weights" >
   <v>       0.16666667 </v>
   <v>       0.33333333 </v>
   <v>       0.33333333 </v>
   <v>       0.16666667 </v>
  </varray>
 </kpoints>
 <parameters>
  <separator name="general" >
   <i type="string" name="SYSTEM">unknown system</i>
   <i type="logical" name="LCOMPAT"> F  </i>
  </separator>
  <separator name="electronic" >
   <i type="string" name="PREC">accura</i>
   <i name="ENMAX">    520.00000000</i>
   <i name="ENAUG">    605.39200000</i>
   <i name="EDIFF">      0.00000100</i>
   <i type="int" name="IALGO">    68</i>
   <i type="int" name="IWAVPR">    11</i>
   <i type="int" name="NBANDS">   462</i>
   <i type="int" name="NBANDSLOW">    -1</i>
   <i type="int" name="NBANDSHIGH">    -1</i>
   <i name="NELECT">    687.00000000</i>
   <i type="int" name="TURBO">     0</i>
   <i type="int" name="IRESTART">     0</i>
   <i type="int" name="NREBOOT">     0</i>
   <i type="int" name="NMIN">     0</i>
   <i name="EREF">      0.00000000</i>
   <separator name="electronic smearing" >
    <i type="int" name="ISMEAR">     0</i>
    <i name="SIGMA">      0.05000000</i>
    <i name="KSPACING">      0.50000000</i>
    <i type="logical" name="KGAMMA"> T  </i>
    <i type="logical" name="KBLOWUP"> T  </i>
   </separator>
   <separator name="electronic projectors" >
    <i type="logical" name="LREAL"> F  </i>
    <v name="ROPT">      0.00000000      0.00000000      0.00000000      0.00000000</v>
    <i type="int" name="LMAXPAW">  -100</i>
    <i type="int" name="LMAXMIX">     4</i>
    <i type="logical" name="NLSPLINE"> F  </i>
   </separator>
   <separator name="electronic startup" >
    <i type="int" name="ISTART">     0</i>
    <i type="int" name="ICHARG">     2</i>
    <i type="int" name="INIWAV">     1</i>
   </separator>
   <separator name="electronic spin" >
    <i type="int" name="ISPIN">     2</i>
    <i type="logical" name="LNONCOLLINEAR"> F  </i>
    <v name="MAGMOM">      0.60000000      0.60000000      0.60000000      0.60000000      0.60000000      0.60000000      0.60000000      0.60000000      0.60000000      0.60000000      0.60000000      0.60000000      0.60000000      0.60000000      0.60000000      0.60000000      0.60000000      0.60000000      0.60000000      0.60000000
      0.60000000      0.60000000      0.60000000      0.60000000      0.60000000      0.60000000      0.60000000      0.60000000      0.60000000      0.60000000      0.60000000      0.60000000      0.60000000      0.60000000      0.60000000      0.60000000      0.60000000      0.60000000      0.60000000      0.60000000
      0.60000000      0.60000000      0.60000000      0.60000000      0.60000000      0.60000000      0.60000000      0.60000000      0.60000000      0.60000000      0.60000000      0.60000000      0.60000000      0.60000000      0.60000000      0.60000000      0.60000000      0.60000000      0.60000000      0.60000000
      0.60000000      0.60000000      0.60000000      0.60000000      0.60000000      0.60000000      0.60000000      0.60000000      0.60000000      0.60000000      0.60000000      0.60000000      0.60000000      0.60000000      0.60000000      0.60000000      0.60000000      0.60000000      0.60000000      0.60000000
      0.60000000      0.60000000      0.60000000      0.60000000      0.60000000      0.60000000      0.60000000      0.60000000      0.60000000      0.60000000      0.60000000      0.60000000      0.60000000</v>
    <i name="NUPDOWN">     -1.00000000</i>
    <i type="logical" name="LSORBIT"> F  </i>
    <v name="SAXIS">      0.00000000      0.00000000      1.00000000</v>
    <i type="logical" name="LSPIRAL"> F  </i>
    <v name="QSPIRAL">      0.00000000      0.00000000      0.00000000</v>
    <i type="logical" name="LZEROZ"> F  </i>
   </separator>
   <separator name="electronic exchange-correlation" >
    <i type="logical" name="LASPH"> T  </i>
    <i type="logical" name="LMETAGGA"> F  </i>
   </separator>
   <separator name="electronic convergence" >
    <i type="int" name="NELM">   100</i>
    <i type="int" name="NELMDL">    -5</i>
    <i type="int" name="NELMIN">     3</i>
    <i name="ENINI">    520.00000000</i>
    <separator name="electronic convergence detail" >
     <i type="logical" name="LDIAG"> T  </i>
     <i type="logical" name="LSUBROT"> F  </i>
     <i name="WEIMIN">      0.00100000</i>
     <i name="EBREAK">      0.00000000</i>
     <i name="DEPER">      0.30000000</i>
     <i type="int" name="NRMM">     4</i>
     <i name="TIME">      0.40000000</i>
    </separator>
   </separator>
   <separator name="electronic mixer" >
    <i name="AMIX">      0.40000000</i>
    <i name="BMIX">      1.00000000</i>
    <i name="AMIN">      0.10000000</i>
    <i name="AMIX_MAG">      1.60000000</i>
    <i name="BMIX_MAG">      1.00000000</i>
    <separator name="electronic mixer details" >
     <i type="int" name="IMIX">     4</i>
     <i type="logical" name="MIXFIRST"> F  </i>
     <i type="int" name="MAXMIX">   -45</i>
     <i name="WC">    100.00000000</i>
     <i type="int" name="INIMIX">     1</i>
     <i type="int" name="MIXPRE">     1</i>
     <i type="int" name="MREMOVE">     5</i>
    </separator>
   </separator>
   <separator name="electronic dipolcorrection" >
    <i type="logical" name="LDIPOL"> F  </i>
    <i type="logical" name="LMONO"> F  </i>
    <i type="int" name="IDIPOL">     0</i>
    <i name="EPSILON">      1.00000000</i>
    <v name="DIPOL">   -100.00000000   -100.00000000   -100.00000000</v>
    <i name="EFIELD">      0.00000000</i>
   </separator>
  </separator>
  <separator name="grids" >
   <i type="int" name="NGX">   180</i>
   <i type="int" name="NGY">    30</i>
   <i type="int" name="NGZ">   140</i>
   <i type="int" name="NGXF">   360</i>
   <i type="int" name="NGYF">    60</i>
   <i type="int" name="NGZF">   280</i>
   <i type="logical" name="ADDGRID"> T  </i>
  </separator>
  <separator name="ionic" >
   <i type="int" name="NSW">   450</i>
   <i type="int" name="IBRION">     1</i>
   <i type="int" name="MDALGO">     0</i>
   <i type="int" name="ISIF">     2</i>
   <i name="PSTRESS">      0.00000000</i>
   <i name="EDIFFG">     -0.05000000</i>
   <i type="int" name="NFREE">     0</i>
   <i name="POTIM">      0.20000000</i>
   <i name="SMASS">     -3.00000000</i>
   <i name="SCALEE">      1.00000000</i>
  </separator>
  <separator name="ionic md" >
   <i name="TEBEG">      0.00010000</i>
   <i name="TEEND">      0.00010000</i>
   <i type="int" name="NBLOCK">     1</i>
   <i type="int" name="KBLOCK">   450</i>
   <i type="int" name="NPACO">   256</i>
   <i name="APACO">     10.00000000</i>
  </separator>
  <separator name="symmetry" >
   <i type="int" name="ISYM">     0</i>
   <i name="SYMPREC">      0.00001000</i>
  </separator>
  <separator name="dos" >
   <i type="int" name="LORBIT">    11</i>
   <v name="RWIGS">     -1.00000000     -1.00000000     -1.00000000     -1.00000000</v>
   <i type="int" name="NEDOS">   301</i>
   <i name="EMIN">     10.00000000</i>
   <i name="EMAX">    -10.00000000</i>
   <i name="EFERMI">      0.00000000</i>
  </separator>
  <separator name="writing" >
   <i type="int" name="NWRITE">     2</i>
   <i type="logical" name="LWAVE"> F  </i>
   <i type="logical" name="LDOWNSAMPLE"> F  </i>
   <i type="logical" name="LCHARG"> T  </i>
   <i type="logical" name="LPARD"> F  </i>
   <i type="logical" name="LVTOT"> F  </i>
   <i type="logical" name="LVHAR"> F  </i>
   <i type="logical" name="LELF"> F  </i>
   <i type="logical" name="LOPTICS"> F  </i>
   <v name="STM">      0.00000000      0.00000000      0.00000000      0.00000000      0.00000000      0.00000000      0.00000000</v>
  </separator>
  <separator name="performance" >
   <i type="int" name="NPAR">    42</i>
   <i type="int" name="NSIM">     4</i>
   <i type="int" name="NBLK">    -1</i>
   <i type="logical" name="LPLANE"> T  </i>
   <i type="logical" name="LSCALAPACK"> T  </i>
   <i type="logical" name="LSCAAWARE"> F  </i>
   <i type="logical" name="LSCALU"> F  </i>
   <i type="logical" name="LASYNC"> F  </i>
   <i type="logical" name="LORBITALREAL"> F  </i>
  </separator>
  <separator name="miscellaneous" >
   <i type="int" name="IDIOT">     3</i>
   <i type="int" name="PHON_NSTRUCT">    -1</i>
   <i type="logical" name="LMUSIC"> F  </i>
   <v name="POMASS">      7.01000000     92.00000000     95.94000000     16.00000000</v>
   <v name="DARWINR">      0.00000000      0.00000000      0.00000000      0.00000000</v>
   <v name="DARWINV">      1.00000000      1.00000000      1.00000000      1.00000000</v>
   <i type="logical" name="LCORR"> T  </i>
  </separator>
  <i type="logical" name="GGA_COMPAT"> T  </i>
  <i type="logical" name="LBERRY"> F  </i>
  <i type="int" name="ICORELEVEL">     0</i>
  <i type="logical" name="LDAU"> T  </i>
  <v type="int" name="LDAUTYPE">     2</v>
  <v type="int" name="LDAUL">     0</v>
  <v name="LDAUU">      0.00000000</v>
  <v name="LDAUJ">      0.00000000</v>
  <i type="int" name="LDAUPRINT">     1</i>
  <i type="int" name="I_CONSTRAINED_M">     0</i>
  <separator name="electronic exchange-correlation" >
   <i type="string" name="GGA">--</i>
   <i type="int" name="VOSKOWN">     0</i>
   <i type="logical" name="LHFCALC"> F  </i>
   <i type="string" name="PRECFOCK"></i>
   <i type="logical" name="LSYMGRAD"> F  </i>
   <i type="logical" name="LHFONE"> F  </i>
   <i type="logical" name="LRHFCALC"> F  </i>
   <i type="logical" name="LTHOMAS"> F  </i>
   <i type="logical" name="LMODELHF"> F  </i>
   <i type="logical" name="LFOCKACE"> F  </i>
   <i name="ENCUT4O">     -1.00000000</i>
   <i type="int" name="EXXOEP">     0</i>
   <i type="int" name="FOURORBIT">     0</i>
   <i name="AEXX">      0.00000000</i>
   <i name="HFALPHA">      0.00000000</i>
   <i name="MCALPHA">      0.00000000</i>
   <i name="ALDAX">      1.00000000</i>
   <i name="AGGAX">      1.00000000</i>
   <i name="ALDAC">      1.00000000</i>
   <i name="AGGAC">      1.00000000</i>
   <i type="int" name="NKREDX">     1</i>
   <i type="int" name="NKREDY">     1</i>
   <i type="int" name="NKREDZ">     1</i>
   <i type="logical" name="SHIFTRED"> F  </i>
   <i type="logical" name="ODDONLY"> F  </i>
   <i type="logical" name="EVENONLY"> F  </i>
   <i type="int" name="LMAXFOCK">     0</i>
   <i type="int" name="NMAXFOCKAE">     0</i>
   <i type="logical" name="LFOCKAEDFT"> F  </i>
   <i name="HFSCREEN">      0.00000000</i>
   <i name="HFSCREENC">      0.00000000</i>
   <i type="int" name="NBANDSGWLOW">     0</i>
  </separator>
  <separator name="vdW DFT" >
   <i type="logical" name="LUSE_VDW"> F  </i>
   <i name="Zab_VDW">     -0.84910000</i>
   <i name="PARAM1">      0.12340000</i>
   <i name="PARAM2">      1.00000000</i>
   <i name="PARAM3">      0.00000000</i>
  </separator>
  <separator name="model GW" >
   <i type="int" name="MODEL_GW">     0</i>
   <i name="MODEL_EPS0">      8.62159739</i>
   <i name="MODEL_ALPHA">      1.00000000</i>
  </separator>
  <separator name="linear response parameters" >
   <i type="logical" name="LEPSILON"> F  </i>
   <i type="logical" name="LRPA"> F  </i>
   <i type="logical" name="LNABLA"> F  </i>
   <i type="logical" name="LVEL"> F  </i>
   <i name="CSHIFT">      0.10000000</i>
   <i name="OMEGAMAX">     -1.00000000</i>
   <i name="DEG_THRESHOLD">      0.00200000</i>
   <i name="RTIME">     -0.10000000</i>
   <i name="WPLASMAI">      0.00000000</i>
   <v name="DFIELD">      0.00000000      0.00000000      0.00000000</v>
   <v name="WPLASMA">      0.00000000      0.00000000      0.00000000      0.00000000      0.00000000      0.00000000      0.00000000      0.00000000      0.00000000</v>
  </separator>
  <separator name="orbital magnetization" >
   <i type="logical" name="NUCIND"> F  </i>
   <v name="MAGPOS">      0.00000000      0.00000000      0.00000000</v>
   <i type="logical" name="LNICSALL"> T  </i>
   <i type="logical" name="ORBITALMAG"> F  </i>
   <i type="logical" name="LMAGBLOCH"> F  </i>
   <i type="logical" name="LCHIMAG"> F  </i>
   <i type="logical" name="LGAUGE"> T  </i>
   <i type="int" name="MAGATOM">     0</i>
   <v name="MAGDIPOL">      0.00000000      0.00000000      0.00000000</v>
   <v name="AVECCONST">      0.00000000      0.00000000      0.00000000</v>
  </separator>
  <separator name="response functions" >
   <i type="logical" name="LFINITE_TEMPERATURE"> F  </i>
   <i type="logical" name="LADDER"> F  </i>
   <i type="logical" name="LRPAFORCE"> F  </i>
   <i type="logical" name="LFXC"> F  </i>
   <i type="logical" name="LHARTREE"> T  </i>
   <i type="int" name="IBSE">     0</i>
   <v type="int" name="KPOINT">    -1     0     0     0</v>
   <i type="logical" name="LTCTC"> F  </i>
   <i type="logical" name="LTCTE"> F  </i>
   <i type="logical" name="LTETE"> F  </i>
   <i type="logical" name="LTRIPLET"> F  </i>
   <i type="logical" name="LFXCEPS"> F  </i>
   <i type="logical" name="LFXHEG"> F  </i>
   <i type="int" name="NATURALO">     2</i>
   <i type="logical" name="LHOLEGF"> F  </i>
   <i type="logical" name="L2ORDER"> F  </i>
   <i type="logical" name="LDMP1"> F  </i>
   <i type="logical" name="LMP2LT"> F  </i>
   <i type="logical" name="LSMP2LT"> F  </i>
   <i type="logical" name="LGWLF"> F  </i>
   <i name="ENCUTGW">     -2.00000000</i>
   <i name="ENCUTGWSOFT">     -2.00000000</i>
   <i name="ENCUTLF">     -1.00000000</i>
   <i type="logical" name="LESF_SPLINES"> F  </i>
   <i type="int" name="LMAXMP2">    -1</i>
   <i name="SCISSOR">      0.00000000</i>
   <i type="int" name="NOMEGA">     0</i>
   <i type="int" name="NOMEGAR">     0</i>
   <i type="int" name="NBANDSGW">    -1</i>
   <i type="int" name="NBANDSO">    -1</i>
   <i type="int" name="NBANDSV">    -1</i>
   <i type="int" name="NELMGW">     1</i>
   <i type="int" name="NELMHF">     1</i>
   <i type="int" name="DIM">     3</i>
   <i type="int" name="IESPILON">     4</i>
   <i type="int" name="ANTIRES">     0</i>
   <i name="OMEGAMAX">    -30.00000000</i>
   <i name="OMEGAMIN">    -30.00000000</i>
   <i name="OMEGATL">   -200.00000000</i>
   <i type="int" name="OMEGAGRID">     0</i>
   <i name="CSHIFT">     -0.10000000</i>
   <i type="logical" name="LSELFENERGY"> F  </i>
   <i type="logical" name="LSPECTRAL"> F  </i>
   <i type="logical" name="LSPECTRALGW"> F  </i>
   <i type="logical" name="LSINGLES"> F  </i>
   <i type="logical" name="LFERMIGW"> F  </i>
   <i type="logical" name="ODDONLYGW"> F  </i>
   <i type="logical" name="EVENONLYGW"> F  </i>
   <i type="int" name="NKREDLFX">     1</i>
   <i type="int" name="NKREDLFY">     1</i>
   <i type="int" name="NKREDLFZ">     1</i>
   <i type="int" name="MAXMEM">  2800</i>
   <i type="int" name="TELESCOPE">     0</i>
   <i type="int" name="NTAUPAR">    -1</i>
   <i type="int" name="NOMEGAPAR">    -1</i>
   <i name="DAMP_NEWTON">      0.80000001</i>
   <i name="LAMBDA">      1.00000000</i>
  </separator>
  <separator name="External order field" >
   <i name="OFIELD_KAPPA">      0.00000000</i>
   <v name="OFIELD_K">      0.00000000      0.00000000      0.00000000</v>
   <i name="OFIELD_Q6_NEAR">      0.00000000</i>
   <i name="OFIELD_Q6_FAR">      0.00000000</i>
   <i name="OFIELD_A">      0.00000000</i>
  </separator>
  <separator name="optional k-points parameters" >
   <i type="int" name="KPOINTS_OPT_MODE">     1</i>
   <i type="logical" name="LKPOINTS_OPT"> F  </i>
  </separator>
 </parameters>
 <atominfo>
  <atoms>      93 </atoms>
  <types>       4 </types>
  <array name="atoms" >
   <dimension dim="1">ion</dimension>
   <field type="string">element</field>
   <field type="int">atomtype</field>
   <set>
    <rc><c>Li</c><c>   1</c></rc>
    <rc><c>Nb</c><c>   2</c></rc>
    <rc><c>Nb</c><c>   2</c></rc>
    <rc><c>Nb</c><c>   2</c></rc>
    <rc><c>Nb</c><c>   2</c></rc>
    <rc><c>Nb</c><c>   2</c></rc>
    <rc><c>Nb</c><c>   2</c></rc>
    <rc><c>Nb</c><c>   2</c></rc>
    <rc><c>Nb</c><c>   2</c></rc>
    <rc><c>Nb</c><c>   2</c></rc>
    <rc><c>Nb</c><c>   2</c></rc>
    <rc><c>Nb</c><c>   2</c></rc>
    <rc><c>Nb</c><c>   2</c></rc>
    <rc><c>Nb</c><c>   2</c></rc>
    <rc><c>Nb</c><c>   2</c></rc>
    <rc><c>Nb</c><c>   2</c></rc>
    <rc><c>Nb</c><c>   2</c></rc>
    <rc><c>Nb</c><c>   2</c></rc>
    <rc><c>Nb</c><c>   2</c></rc>
    <rc><c>Nb</c><c>   2</c></rc>
    <rc><c>Nb</c><c>   2</c></rc>
    <rc><c>Nb</c><c>   2</c></rc>
    <rc><c>Nb</c><c>   2</c></rc>
    <rc><c>Nb</c><c>   2</c></rc>
    <rc><c>Nb</c><c>   2</c></rc>
    <rc><c>Mo</c><c>   3</c></rc>
    <rc><c>Mo</c><c>   3</c></rc>
    <rc><c>O </c><c>   4</c></rc>
    <rc><c>O </c><c>   4</c></rc>
    <rc><c>O </c><c>   4</c></rc>
    <rc><c>O </c><c>   4</c></rc>
    <rc><c>O </c><c>   4</c></rc>
    <rc><c>O </c><c>   4</c></rc>
    <rc><c>O </c><c>   4</c></rc>
    <rc><c>O </c><c>   4</c></rc>
    <rc><c>O </c><c>   4</c></rc>
    <rc><c>O </c><c>   4</c></rc>
    <rc><c>O </c><c>   4</c></rc>
    <rc><c>O </c><c>   4</c></rc>
    <rc><c>O </c><c>   4</c></rc>
    <rc><c>O </c><c>   4</c></rc>
    <rc><c>O </c><c>   4</c></rc>
    <rc><c>O </c><c>   4</c></rc>
    <rc><c>O </c><c>   4</c></rc>
    <rc><c>O </c><c>   4</c></rc>
    <rc><c>O </c><c>   4</c></rc>
    <rc><c>O </c><c>   4</c></rc>
    <rc><c>O </c><c>   4</c></rc>
    <rc><c>O </c><c>   4</c></rc>
    <rc><c>O </c><c>   4</c></rc>
    <rc><c>O </c><c>   4</c></rc>
    <rc><c>O </c><c>   4</c></rc>
    <rc><c>O </c><c>   4</c></rc>
    <rc><c>O </c><c>   4</c></rc>
    <rc><c>O </c><c>   4</c></rc>
    <rc><c>O </c><c>   4</c></rc>
    <rc><c>O </c><c>   4</c></rc>
    <rc><c>O </c><c>   4</c></rc>
    <rc><c>O </c><c>   4</c></rc>
    <rc><c>O </c><c>   4</c></rc>
    <rc><c>O </c><c>   4</c></rc>
    <rc><c>O </c><c>   4</c></rc>
    <rc><c>O </c><c>   4</c></rc>
    <rc><c>O </c><c>   4</c></rc>
    <rc><c>O </c><c>   4</c></rc>
    <rc><c>O </c><c>   4</c></rc>
    <rc><c>O </c><c>   4</c></rc>
    <rc><c>O </c><c>   4</c></rc>
    <rc><c>O </c><c>   4</c></rc>
    <rc><c>O </c><c>   4</c></rc>
    <rc><c>O </c><c>   4</c></rc>
    <rc><c>O </c><c>   4</c></rc>
    <rc><c>O </c><c>   4</c></rc>
    <rc><c>O </c><c>   4</c></rc>
    <rc><c>O </c><c>   4</c></rc>
    <rc><c>O </c><c>   4</c></rc>
    <rc><c>O </c><c>   4</c></rc>
    <rc><c>O </c><c>   4</c></rc>
    <rc><c>O </c><c>   4</c></rc>
    <rc><c>O </c><c>   4</c></rc>
    <rc><c>O </c><c>   4</c></rc>
    <rc><c>O </c><c>   4</c></rc>
    <rc><c>O </c><c>   4</c></rc>
    <rc><c>O </c><c>   4</c></rc>
    <rc><c>O </c><c>   4</c></rc>
    <rc><c>O </c><c>   4</c></rc>
    <rc><c>O </c><c>   4</c></rc>
    <rc><c>O </c><c>   4</c></rc>
    <rc><c>O </c><c>   4</c></rc>
    <rc><c>O </c><c>   4</c></rc>
    <rc><c>O </c><c>   4</c></rc>
    <rc><c>O </c><c>   4</c></rc>
    <rc><c>O </c><c>   4</c></rc>
   </set>
  </array>
  <array name="atomtypes" >
   <dimension dim="1">type</dimension>
   <field type="int">atomspertype</field>
   <field type="string">element</field>
   <field>mass</field>
   <field>valence</field>
   <field type="string">pseudopotential</field>
   <set>
    <rc><c>   1</c><c>Li</c><c>      7.01000000</c><c>      3.00000000</c><c> PAW_PBE Li_sv 23Jan2001                </c></rc>
    <rc><c>  24</c><c>Nb</c><c>     92.00000000</c><c>     11.00000000</c><c> PAW_PBE Nb_pv 08Apr2002                </c></rc>
    <rc><c>   2</c><c>Mo</c><c>     95.94000000</c><c>     12.00000000</c><c> PAW_PBE Mo_pv 08Apr2002                </c></rc>
    <rc><c>  66</c><c>O </c><c>     16.00000000</c><c>      6.00000000</c><c> PAW_PBE O 08Apr2002                    </c></rc>
   </set>
  </array>
 </atominfo>
 <structure name="initialpos" >
  <crystal>
   <varray name="basis" >
    <v>      22.78514290       0.00000000       0.00000000 </v>
    <v>       0.00000000       3.87685037       0.00000000 </v>
    <v>      -9.97305163       0.00000241      15.12824818 </v>
   </varray>
   <i name="volume">   1336.34759474 </i>
   <varray name="rec_basis" >
    <v>       0.04388825       0.00000000       0.02893261 </v>
    <v>       0.00000000       0.25794135      -0.00000004 </v>
    <v>       0.00000000       0.00000000       0.06610151 </v>
   </varray>
  </crystal>
  <varray name="positions" >
   <v>       0.34753908       0.62724820       0.61454789 </v>
   <v>       0.36716170       0.00778307       0.04567361 </v>
   <v>       0.63464689       0.00813182       0.95502732 </v>
   <v>       0.86620366       0.50796754       0.04585959 </v>
   <v>       0.13137008       0.50927732       0.95492886 </v>
   <v>       0.24887263       0.00351938       0.13704432 </v>
   <v>       0.75255811       0.00312855       0.86193373 </v>
   <v>       0.74823658       0.50320546       0.13814541 </v>
   <v>       0.24958275       0.50346663       0.86453010 </v>
   <v>       0.12884831       0.99688783       0.22867398 </v>
   <v>       0.86890729       0.99870909       0.76701000 </v>
   <v>       0.63136572       0.49866213       0.23257307 </v>
   <v>       0.37033097       0.49566453       0.77373537 </v>
   <v>       0.41900074       0.96667029       0.37970087 </v>
   <v>       0.58423755       0.96710875       0.61776227 </v>
   <v>       0.91780816       0.46687570       0.38167713 </v>
   <v>       0.08206417       0.46648529       0.62048683 </v>
   <v>       0.29526775       0.00332827       0.46527484 </v>
   <v>       0.70230142       0.00354634       0.52592481 </v>
   <v>       0.79842260       0.50364078       0.47255122 </v>
   <v>       0.19977457       0.50311951       0.52631775 </v>
   <v>       0.46805397       0.00155419       0.71507872 </v>
   <v>       0.53659447       0.00190438       0.28682253 </v>
   <v>       0.96325325       0.50165490       0.71202443 </v>
   <v>       0.03478640       0.50123123       0.28648010 </v>
   <v>       0.99912041       0.25226891       0.99980796 </v>
   <v>       0.50052276       0.75301698       0.00038984 </v>
   <v>       0.00057459       0.49111849       0.50047305 </v>
   <v>       0.50047821       0.99092218       0.49958586 </v>
   <v>       0.14845377       0.00446571       0.99114533 </v>
   <v>       0.85031547       0.00410943       0.00925115 </v>
   <v>       0.64926768       0.50435180       0.99065162 </v>
   <v>       0.35078664       0.50402831       0.00891702 </v>
   <v>       0.30316548       0.00289452       0.08121653 </v>
   <v>       0.69637920       0.00378357       0.91780574 </v>
   <v>       0.80312728       0.50338987       0.08183139 </v>
   <v>       0.19642429       0.50211389       0.92008629 </v>
   <v>       0.03340865       0.99880590       0.09850769 </v>
   <v>       0.96564945       0.00036481       0.90206858 </v>
   <v>       0.53438313       0.50165626       0.09829710 </v>
   <v>       0.46613377       0.49974793       0.90108551 </v>
   <v>       0.44963828       0.00406016       0.15553145 </v>
   <v>       0.55017947       0.00333137       0.84402751 </v>
   <v>       0.94957402       0.50355270       0.15606163 </v>
   <v>       0.05004299       0.50507295       0.84445912 </v>
   <v>       0.17961709       0.00160032       0.17719829 </v>
   <v>       0.82030315       0.00323206       0.82285452 </v>
   <v>       0.67992660       0.50302406       0.17702821 </v>
   <v>       0.31818359       0.50001509       0.82215829 </v>
   <v>       0.04923038       0.00111965       0.27062491 </v>
   <v>       0.95035970       0.00185515       0.73010658 </v>
   <v>       0.54976907       0.50182298       0.26949052 </v>
   <v>       0.44977248       0.50141696       0.72607369 </v>
   <v>       0.32547116       0.99945928       0.24954564 </v>
   <v>       0.67497116       0.99923055       0.75009470 </v>
   <v>       0.82551285       0.49919082       0.25000777 </v>
   <v>       0.17370621       0.49989312       0.75135856 </v>
   <v>       0.47641243       0.99870723       0.32605722 </v>
   <v>       0.52430496       0.99948048       0.67233481 </v>
   <v>       0.97648944       0.49924258       0.32732027 </v>
   <v>       0.02386731       0.49811461       0.67347486 </v>
   <v>       0.20627022       0.00184071       0.34831399 </v>
   <v>       0.79282053       0.00195382       0.65103176 </v>
   <v>       0.70752201       0.50221812       0.34884735 </v>
   <v>       0.29742968       0.50198134       0.65141329 </v>
   <v>       0.35287887       0.00055449       0.42423943 </v>
   <v>       0.64808285       0.99933734       0.57410945 </v>
   <v>       0.85294784       0.50021504       0.42561658 </v>
   <v>       0.14902928       0.50013832       0.57717091 </v>
   <v>       0.22225070       0.00273004       0.52099675 </v>
   <v>       0.77876648       0.00309497       0.48104714 </v>
   <v>       0.72191052       0.50295499       0.51844574 </v>
   <v>       0.28100690       0.50288014       0.48206274 </v>
   <v>       0.37695879       0.00237417       0.59643415 </v>
   <v>       0.62187752       0.00268376       0.40375797 </v>
   <v>       0.87831994       0.50279671       0.59590569 </v>
   <v>       0.12227247       0.50231211       0.40479961 </v>
   <v>       0.09101711       0.99242102       0.63093881 </v>
   <v>       0.91010600       0.99281090       0.36903174 </v>
   <v>       0.59018830       0.49270819       0.63106513 </v>
   <v>       0.40982254       0.49246193       0.36889426 </v>
   <v>       0.39387783       0.00001584       0.76961280 </v>
   <v>       0.60584274       0.00125566       0.23165270 </v>
   <v>       0.89449816       0.50107733       0.76820643 </v>
   <v>       0.10578954       0.50009570       0.23165620 </v>
   <v>       0.27529387       0.00304763       0.89684424 </v>
   <v>       0.72404255       0.00367479       0.10276945 </v>
   <v>       0.77555680       0.50364481       0.89676574 </v>
   <v>       0.22421311       0.50355560       0.10395481 </v>
   <v>       0.42910564       0.00424040       0.98708490 </v>
   <v>       0.57135632       0.00430385       0.01299362 </v>
   <v>       0.92792028       0.50304029       0.98665486 </v>
   <v>       0.07081257       0.50409814       0.01346767 </v>
  </varray>
 </structure>
 <calculation>
  <scstep>
   <time name="dav">   42.00   42.32</time>
   <time name="total">   43.33   43.67</time>
   <energy>
    <i name="alphaZ">   3514.54571391 </i>
    <i name="ewald"> -37005.75136577 </i>
    <i name="hartreedc"> -17973.13444540 </i>
    <i name="XCdc">   2526.92476978 </i>
    <i name="pawpsdc">  35089.64318688 </i>
    <i name="pawaedc"> -34806.48135010 </i>
    <i name="eentropy">     -0.02096593 </i>
    <i name="bandstr">   2055.85167761 </i>
    <i name="atom">  56348.38862387 </i>
    <i name="e_fr_energy">   9749.96584485 </i>
    <i name="e_wo_entrp">   9749.98681078 </i>
    <i name="e_0_energy">   9749.97632781 </i>
   </energy>
  </scstep>
  <scstep>
   <time name="dav">   43.45   43.76</time>
   <time name="total">   43.45   43.76</time>
   <energy>
    <i name="e_fr_energy">    829.56892505 </i>
    <i name="e_wo_entrp">    829.60437550 </i>
    <i name="e_0_energy">    829.58665028 </i>
   </energy>
  </scstep>
  <scstep>
   <time name="dav">   63.13   63.59</time>
   <time name="total">   63.13   63.59</time>
   <energy>
    <i name="e_fr_energy">   -920.56896819 </i>
    <i name="e_wo_entrp">   -920.56036436 </i>
    <i name="e_0_energy">   -920.56466627 </i>
   </energy>
  </scstep>
  <scstep>
   <time name="dav">   60.16   60.59</time>
   <time name="total">   60.16   60.59</time>
   <energy>
    <i name="e_fr_energy">  -1017.41674798 </i>
    <i name="e_wo_entrp">  -1017.40429095 </i>
    <i name="e_0_energy">  -1017.41051947 </i>
   </energy>
  </scstep>
  <scstep>
   <time name="dav">   61.75   62.20</time>
   <time name="total">   63.55   64.01</time>
   <energy>
    <i name="e_fr_energy">  -1018.85866108 </i>
    <i name="e_wo_entrp">  -1018.84594670 </i>
    <i name="e_0_energy">  -1018.85230389 </i>
   </energy>
  </scstep>
  <scstep>
   <time name="diag">    4.48    4.50</time>
   <time name="diis">   44.89   45.21</time>
   <time name="orth">    0.55    0.55</time>
   <time name="total">   53.29   53.66</time>
   <energy>
    <i name="e_fr_energy">   -754.05112601 </i>
    <i name="e_wo_entrp">   -754.04186765 </i>
    <i name="e_0_energy">   -754.04649683 </i>
   </energy>
  </scstep>
  <scstep>
   <time name="diag">    4.95    4.98</time>
   <time name="diis">   39.52   39.79</time>
   <time name="orth">    0.55    0.55</time>
   <time name="total">   48.86   49.19</time>
   <energy>
    <i name="e_fr_energy">   -750.05159340 </i>
    <i name="e_wo_entrp">   -750.04253738 </i>
    <i name="e_0_energy">   -750.04706539 </i>
   </energy>
  </scstep>
  <scstep>
   <time name="diag">    4.96    4.99</time>
   <time name="diis">   40.69   40.97</time>
   <time name="orth">    0.58    0.58</time>
   <time name="total">   49.73   50.06</time>
   <energy>
    <i name="e_fr_energy">   -761.50647309 </i>
    <i name="e_wo_entrp">   -761.49623091 </i>
    <i name="e_0_energy">   -761.50135200 </i>
   </energy>
  </scstep>
  <scstep>
   <time name="diag">    4.94    4.97</time>
   <time name="diis">   37.88   38.18</time>
   <time name="orth">    0.54    0.55</time>
   <time name="total">   46.80   47.15</time>
   <energy>
    <i name="e_fr_energy">   -782.28326634 </i>
    <i name="e_wo_entrp">   -782.27107861 </i>
    <i name="e_0_energy">   -782.27717247 </i>
   </energy>
  </scstep>
  <scstep>
   <time name="diag">    4.97    5.00</time>
   <time name="diis">   40.52   40.80</time>
   <time name="orth">    0.54    0.54</time>
   <time name="total">   49.51   49.84</time>
   <energy>
    <i name="e_fr_energy">   -794.70331931 </i>
    <i name="e_wo_entrp">   -794.68834196 </i>
    <i name="e_0_energy">   -794.69583063 </i>
   </energy>
  </scstep>
  <scstep>
   <time name="diag">    4.94    4.97</time>
   <time name="diis">   40.22   40.49</time>
   <time name="orth">    0.54    0.54</time>
   <time name="total">   49.21   49.54</time>
   <energy>
    <i name="e_fr_energy">   -804.67278074 </i>
    <i name="e_wo_entrp">   -804.65780878 </i>
    <i name="e_0_energy">   -804.66529476 </i>
   </energy>
  </scstep>
  <scstep>
   <time name="diag">    4.98    5.00</time>
   <time name="diis">   41.26   41.55</time>
   <time name="orth">    0.54    0.54</time>
   <time name="total">   50.23   50.57</time>
   <energy>
    <i name="e_fr_energy">   -812.76504357 </i>
    <i name="e_wo_entrp">   -812.75030496 </i>
    <i name="e_0_energy">   -812.75767426 </i>
   </energy>
  </scstep>
  <scstep>
   <time name="diag">    4.95    4.99</time>
   <time name="diis">   40.55   40.83</time>
   <time name="orth">    0.54    0.54</time>
   <time name="total">   49.53   49.87</time>
   <energy>
    <i name="e_fr_energy">   -813.32616978 </i>
    <i name="e_wo_entrp">   -813.31166373 </i>
    <i name="e_0_energy">   -813.31891676 </i>
   </energy>
  </scstep>
  <scstep>
   <time name="diag">    4.95    4.98</time>
   <time name="diis">   40.87   41.17</time>
   <time name="orth">    0.54    0.54</time>
   <time name="total">   49.83   50.18</time>
   <energy>
    <i name="e_fr_energy">   -813.40372861 </i>
    <i name="e_wo_entrp">   -813.38845361 </i>
    <i name="e_0_energy">   -813.39609111 </i>
   </energy>
  </scstep>
  <scstep>
   <time name="diag">    5.00    5.03</time>
   <time name="diis">   42.03   42.31</time>
   <time name="orth">    0.55    0.55</time>
   <time name="total">   51.04   51.37</time>
   <energy>
    <i name="e_fr_energy">   -813.40560822 </i>
    <i name="e_wo_entrp">   -813.38884939 </i>
    <i name="e_0_energy">   -813.39722881 </i>
   </energy>
  </scstep>
  <scstep>
   <time name="diag">    4.93    4.96</time>
   <time name="diis">   39.15   39.42</time>
   <time name="orth">    0.54    0.54</time>
   <time name="total">   48.04   48.37</time>
   <energy>
    <i name="e_fr_energy">   -813.40480335 </i>
    <i name="e_wo_entrp">   -813.38791128 </i>
    <i name="e_0_energy">   -813.39635731 </i>
   </energy>
  </scstep>
  <scstep>
   <time name="diag">    4.95    4.98</time>
   <time name="diis">   40.75   41.04</time>
   <time name="orth">    0.54    0.54</time>
   <time name="total">   49.68   50.03</time>
   <energy>
    <i name="e_fr_energy">   -813.40480643 </i>
    <i name="e_wo_entrp">   -813.38766828 </i>
    <i name="e_0_energy">   -813.39623735 </i>
   </energy>
  </scstep>
  <scstep>
   <time name="diag">    4.94    4.96</time>
   <time name="diis">   43.67   43.98</time>
   <time name="orth">    0.56    0.56</time>
   <time name="total">   52.64   52.99</time>
   <energy>
    <i name="e_fr_energy">   -813.40497223 </i>
    <i name="e_wo_entrp">   -813.38776125 </i>
    <i name="e_0_energy">   -813.39636674 </i>
   </energy>
  </scstep>
  <scstep>
   <time name="diag">    4.95    4.98</time>
   <time name="diis">   45.23   45.55</time>
   <time name="orth">    0.54    0.55</time>
   <time name="total">   54.19   54.56</time>
   <energy>
    <i name="e_fr_energy">   -813.40518349 </i>
    <i name="e_wo_entrp">   -813.38785341 </i>
    <i name="e_0_energy">   -813.39651845 </i>
   </energy>
  </scstep>
  <scstep>
   <time name="diag">    4.97    5.00</time>
   <time name="diis">   42.92   43.21</time>
   <time name="orth">    0.53    0.54</time>
   <time name="total">   51.91   52.25</time>
   <energy>
    <i name="e_fr_energy">   -813.40528037 </i>
    <i name="e_wo_entrp">   -813.38787657 </i>
    <i name="e_0_energy">   -813.39657847 </i>
   </energy>
  </scstep>
  <scstep>
   <time name="diag">    4.91    4.94</time>
   <time name="diis">   40.40   40.65</time>
   <time name="orth">    0.53    0.54</time>
   <time name="total">   49.28   49.58</time>
   <energy>
    <i name="e_fr_energy">   -813.40529470 </i>
    <i name="e_wo_entrp">   -813.38784276 </i>
    <i name="e_0_energy">   -813.39656873 </i>
   </energy>
  </scstep>
  <scstep>
   <time name="diag">    4.93    4.96</time>
   <time name="diis">   41.56   41.81</time>
   <time name="orth">    0.53    0.53</time>
   <time name="total">   50.45   50.76</time>
   <energy>
    <i name="e_fr_energy">   -813.40531329 </i>
    <i name="e_wo_entrp">   -813.38783737 </i>
    <i name="e_0_energy">   -813.39657533 </i>
   </energy>
  </scstep>
  <scstep>
   <time name="diag">    4.93    4.96</time>
   <time name="diis">   37.68   37.91</time>
   <time name="orth">    0.54    0.54</time>
   <time name="total">   46.98   47.27</time>
   <energy>
    <i name="e_fr_energy">   -813.40531449 </i>
    <i name="e_wo_entrp">   -813.38783791 </i>
    <i name="e_0_energy">   -813.39657620 </i>
   </energy>
  </scstep>
  <scstep>
   <time name="diag">    4.89    4.92</time>
   <time name="diis">   36.34   36.56</time>
   <time name="orth">    0.55    0.55</time>
   <time name="total">   45.21   45.48</time>
   <energy>
    <i name="e_fr_energy">   -813.40531893 </i>
    <i name="e_wo_entrp">   -813.38783728 </i>
    <i name="e_0_energy">   -813.39657810 </i>
   </energy>
  </scstep>
  <scstep>
   <time name="diag">    4.96    4.99</time>
   <time name="diis">   32.04   32.24</time>
   <time name="orth">    0.49    0.50</time>
   <time name="total">   40.39   40.63</time>
   <energy>
    <i name="e_fr_energy">   -813.40532031 </i>
    <i name="e_wo_entrp">   -813.38783948 </i>
    <i name="e_0_energy">   -813.39657990 </i>
   </energy>
  </scstep>
  <scstep>
   <time name="diag">    4.76    4.78</time>
   <time name="diis">   28.09   28.27</time>
   <time name="orth">    0.53    0.53</time>
   <time name="total">   34.45   34.66</time>
   <energy>
    <i name="alphaZ">   3514.54571391 </i>
    <i name="ewald"> -37005.75136577 </i>
    <i name="hartreedc"> -18334.88897744 </i>
    <i name="XCdc">   2568.58210187 </i>
    <i name="pawpsdc">  39644.03681985 </i>
    <i name="pawaedc"> -39525.91089836 </i>
    <i name="eentropy">     -0.01748139 </i>
    <i name="bandstr">  -8022.38985699 </i>
    <i name="atom">  56348.38862387 </i>
    <i name="e_fr_energy">   -813.40532044 </i>
    <i name="e_wo_entrp">   -813.38783906 </i>
    <i name="e_0_energy">   -813.39657975 </i>
   </energy>
  </scstep>
  <structure>
   <crystal>
    <varray name="basis" >
     <v>      22.78514290       0.00000000       0.00000000 </v>
     <v>       0.00000000       3.87685037       0.00000000 </v>
     <v>      -9.97305163       0.00000241      15.12824818 </v>
    </varray>
    <i name="volume">   1336.34759474 </i>
    <varray name="rec_basis" >
     <v>       0.04388825       0.00000000       0.02893261 </v>
     <v>       0.00000000       0.25794135      -0.00000004 </v>
     <v>       0.00000000       0.00000000       0.06610151 </v>
    </varray>
   </crystal>
   <varray name="positions" >
    <v>       0.34753908       0.62724820       0.61454789 </v>
    <v>       0.36716170       0.00778307       0.04567361 </v>
    <v>       0.63464689       0.00813182       0.95502732 </v>
    <v>       0.86620366       0.50796754       0.04585959 </v>
    <v>       0.13137008       0.50927732       0.95492886 </v>
    <v>       0.24887263       0.00351938       0.13704432 </v>
    <v>       0.75255811       0.00312855       0.86193373 </v>
    <v>       0.74823658       0.50320546       0.13814541 </v>
    <v>       0.24958275       0.50346663       0.86453010 </v>
    <v>       0.12884831       0.99688783       0.22867398 </v>
    <v>       0.86890729       0.99870909       0.76701000 </v>
    <v>       0.63136572       0.49866213       0.23257307 </v>
    <v>       0.37033097       0.49566453       0.77373537 </v>
    <v>       0.41900074       0.96667029       0.37970087 </v>
    <v>       0.58423755       0.96710875       0.61776227 </v>
    <v>       0.91780816       0.46687570       0.38167713 </v>
    <v>       0.08206417       0.46648529       0.62048683 </v>
    <v>       0.29526775       0.00332827       0.46527484 </v>
    <v>       0.70230142       0.00354634       0.52592481 </v>
    <v>       0.79842260       0.50364078       0.47255122 </v>
    <v>       0.19977457       0.50311951       0.52631775 </v>
    <v>       0.46805397       0.00155419       0.71507872 </v>
    <v>       0.53659447       0.00190438       0.28682253 </v>
    <v>       0.96325325       0.50165490       0.71202443 </v>
    <v>       0.03478640       0.50123123       0.28648010 </v>
    <v>       0.99912041       0.25226891       0.99980796 </v>
    <v>       0.50052276       0.75301698       0.00038984 </v>
    <v>       0.00057459       0.49111849       0.50047305 </v>
    <v>       0.50047821       0.99092218       0.49958586 </v>
    <v>       0.14845377       0.00446571       0.99114533 </v>
    <v>       0.85031547       0.00410943       0.00925115 </v>
    <v>       0.64926768       0.50435180       0.99065162 </v>
    <v>       0.35078664       0.50402831       0.00891702 </v>
    <v>       0.30316548       0.00289452       0.08121653 </v>
    <v>       0.69637920       0.00378357       0.91780574 </v>
    <v>       0.80312728       0.50338987       0.08183139 </v>
    <v>       0.19642429       0.50211389       0.92008629 </v>
    <v>       0.03340865       0.99880590       0.09850769 </v>
    <v>       0.96564945       0.00036481       0.90206858 </v>
    <v>       0.53438313       0.50165626       0.09829710 </v>
    <v>       0.46613377       0.49974793       0.90108551 </v>
    <v>       0.44963828       0.00406016       0.15553145 </v>
    <v>       0.55017947       0.00333137       0.84402751 </v>
    <v>       0.94957402       0.50355270       0.15606163 </v>
    <v>       0.05004299       0.50507295       0.84445912 </v>
    <v>       0.17961709       0.00160032       0.17719829 </v>
    <v>       0.82030315       0.00323206       0.82285452 </v>
    <v>       0.67992660       0.50302406       0.17702821 </v>
    <v>       0.31818359       0.50001509       0.82215829 </v>
    <v>       0.04923038       0.00111965       0.27062491 </v>
    <v>       0.95035970       0.00185515       0.73010658 </v>
    <v>       0.54976907       0.50182298       0.26949052 </v>
    <v>       0.44977248       0.50141696       0.72607369 </v>
    <v>       0.32547116       0.99945928       0.24954564 </v>
    <v>       0.67497116       0.99923055       0.75009470 </v>
    <v>       0.82551285       0.49919082       0.25000777 </v>
    <v>       0.17370621       0.49989312       0.75135856 </v>
    <v>       0.47641243       0.99870723       0.32605722 </v>
    <v>       0.52430496       0.99948048       0.67233481 </v>
    <v>       0.97648944       0.49924258       0.32732027 </v>
    <v>       0.02386731       0.49811461       0.67347486 </v>
    <v>       0.20627022       0.00184071       0.34831399 </v>
    <v>       0.79282053       0.00195382       0.65103176 </v>
    <v>       0.70752201       0.50221812       0.34884735 </v>
    <v>       0.29742968       0.50198134       0.65141329 </v>
    <v>       0.35287887       0.00055449       0.42423943 </v>
    <v>       0.64808285       0.99933734       0.57410945 </v>
    <v>       0.85294784       0.50021504       0.42561658 </v>
    <v>       0.14902928       0.50013832       0.57717091 </v>
    <v>       0.22225070       0.00273004       0.52099675 </v>
    <v>       0.77876648       0.00309497       0.48104714 </v>
    <v>       0.72191052       0.50295499       0.51844574 </v>
    <v>       0.28100690       0.50288014       0.48206274 </v>
    <v>       0.37695879       0.00237417       0.59643415 </v>
    <v>       0.62187752       0.00268376       0.40375797 </v>
    <v>       0.87831994       0.50279671       0.59590569 </v>
    <v>       0.12227247       0.50231211       0.40479961 </v>
    <v>       0.09101711       0.99242102       0.63093881 </v>
    <v>       0.91010600       0.99281090       0.36903174 </v>
    <v>       0.59018830       0.49270819       0.63106513 </v>
    <v>       0.40982254       0.49246193       0.36889426 </v>
    <v>       0.39387783       0.00001584       0.76961280 </v>
    <v>       0.60584274       0.00125566       0.23165270 </v>
    <v>       0.89449816       0.50107733       0.76820643 </v>
    <v>       0.10578954       0.50009570       0.23165620 </v>
    <v>       0.27529387       0.00304763       0.89684424 </v>
    <v>       0.72404255       0.00367479       0.10276945 </v>
    <v>       0.77555680       0.50364481       0.89676574 </v>
    <v>       0.22421311       0.50355560       0.10395481 </v>
    <v>       0.42910564       0.00424040       0.98708490 </v>
    <v>       0.57135632       0.00430385       0.01299362 </v>
    <v>       0.92792028       0.50304029       0.98665486 </v>
    <v>       0.07081257       0.50409814       0.01346767 </v>
   </varray>
  </structure>
  <varray name="forces" >
   <v>       1.15504431      -1.27308005      -0.61783109 </v>
   <v>       0.00070046       0.00159959      -0.00342372 </v>
   <v>      -0.00776829       0.00041799      -0.00967989 </v>
   <v>       0.01140355       0.00176086       0.01559477 </v>
   <v>       0.00150763       0.00157388      -0.00172332 </v>
   <v>      -0.00420201       0.00076175       0.00587825 </v>
   <v>      -0.00296260       0.00026836      -0.00519251 </v>
   <v>      -0.00427986      -0.00005333      -0.00104686 </v>
   <v>       0.00066803      -0.00073140      -0.01196554 </v>
   <v>       0.00699956       0.00122922       0.01357404 </v>
   <v>       0.00201518       0.00171366      -0.00198512 </v>
   <v>      -0.00056429       0.00170081      -0.00146298 </v>
   <v>      -0.27646831      -0.17927447       0.36558189 </v>
   <v>      -0.00662422      -0.00621101       0.01722292 </v>
   <v>      -0.02146128      -0.00549336      -0.00832476 </v>
   <v>      -0.00337174      -0.00287309       0.01034740 </v>
   <v>       0.02635816      -0.00796949       0.00342885 </v>
   <v>       0.15969820       0.28666014      -0.16165061 </v>
   <v>      -0.00083998      -0.00080323       0.00037474 </v>
   <v>       0.00136989      -0.00057826       0.00213579 </v>
   <v>      -0.28736225      -0.10328448      -0.07456358 </v>
   <v>       0.19121632       0.23867014      -0.02878968 </v>
   <v>       0.00068179       0.00102648      -0.00026976 </v>
   <v>       0.00428320       0.00073031      -0.00252255 </v>
   <v>       0.01427828       0.00064098       0.03437455 </v>
   <v>       0.00133740      -0.00216568       0.00780621 </v>
   <v>      -0.00163537       0.00324078      -0.01838523 </v>
   <v>      -0.00460316      -0.00352483      -0.01236971 </v>
   <v>       0.00792527      -0.00205335      -0.00375077 </v>
   <v>      -0.00434380       0.00086497       0.00297969 </v>
   <v>      -0.00355180       0.00052268      -0.00419404 </v>
   <v>      -0.00084145       0.00153807      -0.00104391 </v>
   <v>      -0.00104128       0.00091937       0.00405116 </v>
   <v>      -0.00172141       0.00090306       0.00440175 </v>
   <v>       0.00226665       0.00145589       0.00055502 </v>
   <v>       0.00306939       0.00147874      -0.00388013 </v>
   <v>      -0.00915235       0.00114849       0.00502596 </v>
   <v>      -0.00228482       0.00209462      -0.00058203 </v>
   <v>      -0.00200566      -0.00044829       0.00081304 </v>
   <v>       0.00161347      -0.00114250       0.00186036 </v>
   <v>      -0.00253063      -0.00090927       0.00041238 </v>
   <v>       0.00215300       0.00106481       0.00186497 </v>
   <v>       0.00327425       0.01726031      -0.00068988 </v>
   <v>       0.00183277       0.00133391       0.00478184 </v>
   <v>      -0.00236958       0.00127417       0.00338107 </v>
   <v>       0.00467624       0.00063696      -0.00512679 </v>
   <v>      -0.00264337       0.00111668       0.00029340 </v>
   <v>       0.00714616       0.00144061      -0.00614076 </v>
   <v>       0.02634538      -0.00700016      -0.02014170 </v>
   <v>      -0.00404302       0.00020416      -0.00938106 </v>
   <v>      -0.00081796       0.00076839       0.00204642 </v>
   <v>       0.00139628       0.00071599       0.00009998 </v>
   <v>      -0.25549844       0.23973071      -0.16805490 </v>
   <v>      -0.00402946      -0.00026858      -0.00101393 </v>
   <v>       0.00253083      -0.00092552       0.00374760 </v>
   <v>      -0.00081918      -0.00142795      -0.00162712 </v>
   <v>      -0.00432026      -0.00188172       0.00562103 </v>
   <v>       0.00440307       0.00004226      -0.00321785 </v>
   <v>      -0.01135991       0.00000141       0.01682916 </v>
   <v>      -0.00099395      -0.00099111      -0.00432602 </v>
   <v>      -0.00478767      -0.00037586       0.00362436 </v>
   <v>       0.01444949       0.02083434       0.01722942 </v>
   <v>       0.00142587       0.00030454      -0.00045007 </v>
   <v>       0.00354392       0.00085036      -0.00231534 </v>
   <v>      -1.28813417      -0.29016606       0.46469474 </v>
   <v>      -0.02322223      -0.00302360      -0.00432031 </v>
   <v>       0.00689244      -0.00161379      -0.00029408 </v>
   <v>       0.00535137      -0.00169569      -0.00164927 </v>
   <v>       0.00305557      -0.00233660      -0.00548558 </v>
   <v>       0.07472867      -0.07594185      -0.02393482 </v>
   <v>       0.00128802      -0.00039227       0.00118362 </v>
   <v>      -0.00028504      -0.00028470      -0.00195866 </v>
   <v>      -0.06022072       0.25189181       0.33942537 </v>
   <v>       0.49036255       0.95883002      -0.15459633 </v>
   <v>       0.00404337       0.00058292      -0.00061540 </v>
   <v>      -0.00155229       0.00070308      -0.00099627 </v>
   <v>      -0.00359159      -0.00337230       0.00396539 </v>
   <v>      -0.00992253       0.00260916       0.00353493 </v>
   <v>       0.00174536      -0.00175918      -0.00405743 </v>
   <v>       0.00486515       0.00089590       0.00029206 </v>
   <v>       0.00352703       0.00199267      -0.00609281 </v>
   <v>       0.07803370      -0.08325693       0.02068253 </v>
   <v>       0.00059866       0.00073809      -0.00031704 </v>
   <v>      -0.00216434       0.00043779       0.00051564 </v>
   <v>       0.00082062      -0.00068371      -0.00075725 </v>
   <v>      -0.00610662       0.00019714       0.00979718 </v>
   <v>       0.00102423       0.00143612      -0.00132505 </v>
   <v>       0.00219062       0.00091709       0.00205414 </v>
   <v>       0.00009648       0.00096049       0.00079875 </v>
   <v>      -0.00431971      -0.00010942       0.00169873 </v>
   <v>       0.00326910       0.00290184      -0.00089623 </v>
   <v>      -0.00330979       0.00232514      -0.00184083 </v>
   <v>      -0.00337855       0.00018340       0.00167946 </v>
  </varray>
  <varray name="stress" >
   <v>      10.77129365       3.29980046      -3.25048282 </v>
   <v>       3.29977167       7.87008498      -1.45031000 </v>
   <v>      -3.25046503      -1.45031687       6.52131938 </v>
  </varray>
  <energy>
   <i name="e_fr_energy">   -813.40532044 </i>
   <i name="e_wo_entrp">   -813.38783906 </i>
   <i name="e_0_energy">   -813.39657975 </i>
  </energy>
  <time name="totalsc"> 1474.65 1484.78</time>
 </calculation>
 <calculation>
  <scstep>
   <time name="dav">   47.90   48.25</time>
   <time name="total">   50.86   51.23</time>
   <energy>
    <i name="alphaZ">   3514.54571391 </i>
    <i name="ewald"> -37015.14459511 </i>
    <i name="hartreedc"> -18325.74945968 </i>
    <i name="XCdc">   2568.55491256 </i>
    <i name="pawpsdc">  39644.05362665 </i>
    <i name="pawaedc"> -39525.92752819 </i>
    <i name="eentropy">     -0.01757665 </i>
    <i name="bandstr">  -8022.15167719 </i>
    <i name="atom">  56348.38862387 </i>
    <i name="e_fr_energy">   -813.44795983 </i>
    <i name="e_wo_entrp">   -813.43038319 </i>
    <i name="e_0_energy">   -813.43917151 </i>
   </energy>
  </scstep>
  <scstep>
   <time name="diag">    5.01    5.03</time>
   <time name="diis">   47.26   47.60</time>
   <time name="orth">    0.47    0.48</time>
   <time name="total">   55.72   56.12</time>
   <energy>
    <i name="e_fr_energy">   -813.47124082 </i>
    <i name="e_wo_entrp">   -813.45359898 </i>
    <i name="e_0_energy">   -813.46241990 </i>
   </energy>
  </scstep>
  <scstep>
   <time name="diag">    4.65    4.67</time>
   <time name="diis">   46.75   47.09</time>
   <time name="orth">    0.48    0.48</time>
   <time name="total">   54.94   55.32</time>
   <energy>
    <i name="e_fr_energy">   -813.47629952 </i>
    <i name="e_wo_entrp">   -813.45865091 </i>
    <i name="e_0_energy">   -813.46747521 </i>
   </energy>
  </scstep>
  <scstep>
   <time name="diag">    4.76    4.78</time>
   <time name="diis">   50.93   51.32</time>
   <time name="orth">    0.50    0.51</time>
   <time name="total">   59.58   60.01</time>
   <energy>
    <i name="e_fr_energy">   -813.47670603 </i>
    <i name="e_wo_entrp">   -813.45905619 </i>
    <i name="e_0_energy">   -813.46788111 </i>
   </energy>
  </scstep>
  <scstep>
   <time name="diag">    4.66    4.68</time>
   <time name="diis">   47.76   48.10</time>
   <time name="orth">    0.42    0.43</time>
   <time name="total">   55.74   56.13</time>
   <energy>
    <i name="e_fr_energy">   -813.47664017 </i>
    <i name="e_wo_entrp">   -813.45898654 </i>
    <i name="e_0_energy">   -813.46781335 </i>
   </energy>
  </scstep>
  <scstep>
   <time name="diag">    4.60    4.62</time>
   <time name="diis">   46.56   46.90</time>
   <time name="orth">    0.50    0.50</time>
   <time name="total">   54.45   54.83</time>
   <energy>
    <i name="e_fr_energy">   -813.47665477 </i>
    <i name="e_wo_entrp">   -813.45902257 </i>
    <i name="e_0_energy">   -813.46783867 </i>
   </energy>
  </scstep>
  <scstep>
   <time name="diag">    4.73    4.75</time>
   <time name="diis">   46.56   46.88</time>
   <time name="orth">    0.50    0.50</time>
   <time name="total">   54.60   54.96</time>
   <energy>
    <i name="e_fr_energy">   -813.47664672 </i>
    <i name="e_wo_entrp">   -813.45900354 </i>
    <i name="e_0_energy">   -813.46782513 </i>
   </energy>
  </scstep>
  <scstep>
   <time name="diag">    4.36    4.38</time>
   <time name="diis">   44.32   44.61</time>
   <time name="orth">    0.54    0.54</time>
   <time name="total">   52.17   52.50</time>
   <energy>
    <i name="e_fr_energy">   -813.47664982 </i>
    <i name="e_wo_entrp">   -813.45900831 </i>
    <i name="e_0_energy">   -813.46782907 </i>
   </energy>
  </scstep>
  <scstep>
   <time name="diag">    4.23    4.25</time>
   <time name="diis">   37.33   37.55</time>
   <time name="orth">    0.54    0.54</time>
   <time name="total">   45.39   45.65</time>
   <energy>
    <i name="e_fr_energy">   -813.47665420 </i>
    <i name="e_wo_entrp">   -813.45900958 </i>
    <i name="e_0_energy">   -813.46783189 </i>
   </energy>
  </scstep>
  <scstep>
   <time name="diag">    4.20    4.22</time>
   <time name="diis">   31.43   31.63</time>
   <time name="orth">    0.54    0.54</time>
   <time name="total">   39.58   39.82</time>
   <energy>
    <i name="e_fr_energy">   -813.47665326 </i>
    <i name="e_wo_entrp">   -813.45901242 </i>
    <i name="e_0_energy">   -813.46783284 </i>
   </energy>
  </scstep>
  <scstep>
   <time name="diag">    4.86    4.89</time>
   <time name="diis">   25.53   25.69</time>
   <time name="orth">    0.54    0.55</time>
   <time name="total">   32.27   32.47</time>
   <energy>
    <i name="alphaZ">   3514.54571391 </i>
    <i name="ewald"> -37015.14459511 </i>
    <i name="hartreedc"> -18326.26143638 </i>
    <i name="XCdc">   2568.57495206 </i>
    <i name="pawpsdc">  39646.25750726 </i>
    <i name="pawaedc"> -39528.12202708 </i>
    <i name="eentropy">     -0.01764200 </i>
    <i name="bandstr">  -8021.69775022 </i>
    <i name="atom">  56348.38862387 </i>
    <i name="e_fr_energy">   -813.47665369 </i>
    <i name="e_wo_entrp">   -813.45901169 </i>
    <i name="e_0_energy">   -813.46783269 </i>
   </energy>
  </scstep>
  <structure>
   <crystal>
    <varray name="basis" >
     <v>      22.78514290       0.00000000       0.00000000 </v>
     <v>       0.00000000       3.87685037       0.00000000 </v>
     <v>      -9.97305163       0.00000241      15.12824818 </v>
    </varray>
    <i name="volume">   1336.34759474 </i>
    <varray name="rec_basis" >
     <v>       0.04388825       0.00000000       0.02893261 </v>
     <v>       0.00000000       0.25794135      -0.00000004 </v>
     <v>       0.00000000       0.00000000       0.06610151 </v>
    </varray>
   </crystal>
   <varray name="positions" >
    <v>       0.34750797       0.62760541       0.61421577 </v>
    <v>       0.36715693       0.00778348       0.04568297 </v>
    <v>       0.63461639       0.00812270       0.95499084 </v>
    <v>       0.86618328       0.50797119       0.04583159 </v>
    <v>       0.13137225       0.50929106       0.95493495 </v>
    <v>       0.24886530       0.00352621       0.13706465 </v>
    <v>       0.75253682       0.00313274       0.86191020 </v>
    <v>       0.74821566       0.50320266       0.13813677 </v>
    <v>       0.24958049       0.50345993       0.86452313 </v>
    <v>       0.12889161       0.99691002       0.22874691 </v>
    <v>       0.86891175       0.99871345       0.76701446 </v>
    <v>       0.63136932       0.49866452       0.23258852 </v>
    <v>       0.37033287       0.49478412       0.77425474 </v>
    <v>       0.41900210       0.96663710       0.37971596 </v>
    <v>       0.58420504       0.96708462       0.61773936 </v>
    <v>       0.91779965       0.46687200       0.38168714 </v>
    <v>       0.08209452       0.46647101       0.62047806 </v>
    <v>       0.29536487       0.00475419       0.46514601 </v>
    <v>       0.70230511       0.00354092       0.52593478 </v>
    <v>       0.79843335       0.50363900       0.47257314 </v>
    <v>       0.19943262       0.50259509       0.52612383 </v>
    <v>       0.46816716       0.00272801       0.71499775 </v>
    <v>       0.53659785       0.00190469       0.28682890 </v>
    <v>       0.96327032       0.50165842       0.71203192 </v>
    <v>       0.03475081       0.50124025       0.28643117 </v>
    <v>       0.99913263       0.25224574       0.99983055 </v>
    <v>       0.50052191       0.75303049       0.00038967 </v>
    <v>       0.00055345       0.49109386       0.50045290 </v>
    <v>       0.50049331       0.99092188       0.49956378 </v>
    <v>       0.14845960       0.00447019       0.99115668 </v>
    <v>       0.85029400       0.00410682       0.00921821 </v>
    <v>       0.64925971       0.50435964       0.99064302 </v>
    <v>       0.35079139       0.50403271       0.00893966 </v>
    <v>       0.30317169       0.00290563       0.08124304 </v>
    <v>       0.69637575       0.00379172       0.91779544 </v>
    <v>       0.80311738       0.50339413       0.08180816 </v>
    <v>       0.19641494       0.50211616       0.92008720 </v>
    <v>       0.03341991       0.99882954       0.09851839 </v>
    <v>       0.96564528       0.00034740       0.90207765 </v>
    <v>       0.53438631       0.50165015       0.09831720 </v>
    <v>       0.46614823       0.49976041       0.90109739 </v>
    <v>       0.44964510       0.00405775       0.15554111 </v>
    <v>       0.55017331       0.00340881       0.84401952 </v>
    <v>       0.94955660       0.50355281       0.15603781 </v>
    <v>       0.05004577       0.50508199       0.84446876 </v>
    <v>       0.17962610       0.00161559       0.17721158 </v>
    <v>       0.82028940       0.00323349       0.82284385 </v>
    <v>       0.67992572       0.50302831       0.17702299 </v>
    <v>       0.31824674       0.49999158       0.82221478 </v>
    <v>       0.04920568       0.00112517       0.27060034 </v>
    <v>       0.95036521       0.00185837       0.73011204 </v>
    <v>       0.54977532       0.50182177       0.26950034 </v>
    <v>       0.44949584       0.50259800       0.72593722 </v>
    <v>       0.32546417       0.99946512       0.24955803 </v>
    <v>       0.67495757       0.99923412       0.75008702 </v>
    <v>       0.82550431       0.49918446       0.24999153 </v>
    <v>       0.17373054       0.49988017       0.75135967 </v>
    <v>       0.47640883       0.99870029       0.32604992 </v>
    <v>       0.52425781       0.99947983       0.67229782 </v>
    <v>       0.97647371       0.49924470       0.32729543 </v>
    <v>       0.02387243       0.49812520       0.67348495 </v>
    <v>       0.20630471       0.00194051       0.34836247 </v>
    <v>       0.79282601       0.00195397       0.65103380 </v>
    <v>       0.70752780       0.50221868       0.34885256 </v>
    <v>       0.29656323       0.50052352       0.65206640 </v>
    <v>       0.35289476       0.00054497       0.42429972 </v>
    <v>       0.64809252       0.99932702       0.57411738 </v>
    <v>       0.85294533       0.50020746       0.42560926 </v>
    <v>       0.14899350       0.50012005       0.57710864 </v>
    <v>       0.22232084       0.00234282       0.52102793 </v>
    <v>       0.77876888       0.00309199       0.48105379 </v>
    <v>       0.72191047       0.50295263       0.51844589 </v>
    <v>       0.28109349       0.50412661       0.48246629 </v>
    <v>       0.37723669       0.00713507       0.59627409 </v>
    <v>       0.62187888       0.00268314       0.40376423 </v>
    <v>       0.87832450       0.50279901       0.59590715 </v>
    <v>       0.12224920       0.50229087       0.40477390 </v>
    <v>       0.09101330       0.99244609       0.63095203 </v>
    <v>       0.91010184       0.99280711       0.36901587 </v>
    <v>       0.59018358       0.49271702       0.63106419 </v>
    <v>       0.40980954       0.49247370       0.36889058 </v>
    <v>       0.39389760      -0.00040675       0.76959001 </v>
    <v>       0.60584540       0.00125415       0.23166217 </v>
    <v>       0.89449699       0.50107687       0.76820953 </v>
    <v>       0.10578746       0.50010091       0.23166727 </v>
    <v>       0.27529827       0.00304823       0.89686913 </v>
    <v>       0.72404011       0.00367942       0.10276426 </v>
    <v>       0.77555366       0.50364857       0.89675865 </v>
    <v>       0.22421429       0.50356454       0.10396253 </v>
    <v>       0.42911376       0.00424393       0.98709870 </v>
    <v>       0.57136374       0.00434019       0.01301197 </v>
    <v>       0.92792145       0.50303462       0.98666369 </v>
    <v>       0.07081637       0.50408807       0.01347153 </v>
   </varray>
  </structure>
  <varray name="forces" >
   <v>       0.90617877      -1.24598905      -0.48416473 </v>
   <v>      -0.00240238       0.00104381       0.00728221 </v>
   <v>       0.00155331       0.00067662      -0.00463949 </v>
   <v>       0.00470389       0.00165120       0.00637923 </v>
   <v>      -0.00655515       0.00139108       0.00200732 </v>
   <v>      -0.00284965       0.00077143      -0.00518908 </v>
   <v>      -0.00010266       0.00029283       0.00713536 </v>
   <v>       0.00035007      -0.00003174      -0.00197754 </v>
   <v>      -0.02021577      -0.00000949       0.00803880 </v>
   <v>       0.00201291       0.00166205      -0.01078825 </v>
   <v>      -0.00162783       0.00170744       0.00214900 </v>
   <v>       0.00349784       0.00177685      -0.00256460 </v>
   <v>      -0.04920615      -0.16167749       0.04246220 </v>
   <v>       0.02344037      -0.00469019      -0.00743128 </v>
   <v>       0.00808230      -0.00477299       0.00107642 </v>
   <v>      -0.01216532      -0.00271138       0.00200762 </v>
   <v>       0.00666375      -0.00648202      -0.00238740 </v>
   <v>      -0.00813771       0.27789949      -0.04122790 </v>
   <v>       0.00235784      -0.00048967       0.00007372 </v>
   <v>       0.00098372      -0.00040808       0.00129767 </v>
   <v>      -0.05916474      -0.09236368       0.03069144 </v>
   <v>      -0.01837340       0.22985402       0.01506540 </v>
   <v>       0.00600245       0.00110742      -0.00100125 </v>
   <v>      -0.00160837       0.00081553      -0.00017038 </v>
   <v>      -0.00437719       0.00056406       0.01192582 </v>
   <v>      -0.00421816       0.00106437      -0.00184433 </v>
   <v>       0.00965085       0.00391873       0.00999914 </v>
   <v>       0.00284445      -0.00349269       0.00293570 </v>
   <v>       0.00078513      -0.00159091      -0.00627612 </v>
   <v>      -0.00400876       0.00098705       0.00250873 </v>
   <v>      -0.00274035       0.00062042      -0.00162412 </v>
   <v>      -0.00225442       0.00177315      -0.00242970 </v>
   <v>      -0.00076392       0.00110777      -0.00027653 </v>
   <v>       0.00211771       0.00097589       0.00333593 </v>
   <v>      -0.00043874       0.00139569       0.00038299 </v>
   <v>       0.00367887       0.00142796      -0.00295962 </v>
   <v>       0.00703442       0.00095468      -0.00217139 </v>
   <v>      -0.00123109      -0.00092960       0.00728055 </v>
   <v>      -0.00197665       0.00072578       0.00340188 </v>
   <v>       0.00215614       0.00627604      -0.01072451 </v>
   <v>       0.00766840      -0.00704343       0.04149498 </v>
   <v>      -0.00030915       0.00113846      -0.00243344 </v>
   <v>       0.01222531       0.02835134       0.00362546 </v>
   <v>       0.00714658       0.00138708       0.01667138 </v>
   <v>      -0.00183089       0.00126757       0.00280358 </v>
   <v>      -0.00301601       0.00034176       0.00061694 </v>
   <v>       0.00186412       0.00111622      -0.00264307 </v>
   <v>       0.00100056       0.00140599      -0.00329658 </v>
   <v>      -0.21774517      -0.01018675       0.13566425 </v>
   <v>      -0.00195084      -0.00018792      -0.00552867 </v>
   <v>       0.00023761       0.00079414       0.00146946 </v>
   <v>       0.00119124       0.00059979      -0.00002812 </v>
   <v>      -0.19222884       0.24159216      -0.17693148 </v>
   <v>      -0.00206488      -0.00029685       0.01092682 </v>
   <v>      -0.00377368      -0.00108525      -0.00925666 </v>
   <v>      -0.00035047      -0.00146856      -0.00110947 </v>
   <v>      -0.00163693      -0.00146029       0.00252526 </v>
   <v>      -0.00809163      -0.00052566       0.00316423 </v>
   <v>       0.11838884       0.00254334      -0.01682544 </v>
   <v>       0.00990440      -0.00080860      -0.00562988 </v>
   <v>       0.00708869      -0.00053356      -0.00068917 </v>
   <v>       0.01679479       0.03162464       0.00512458 </v>
   <v>       0.00110385       0.00027814      -0.00092733 </v>
   <v>       0.00340685       0.00072118      -0.00323896 </v>
   <v>      -0.90412925      -0.17629220       0.36906337 </v>
   <v>       0.08920367       0.00148105      -0.06068871 </v>
   <v>      -0.00464899      -0.00197050       0.00200400 </v>
   <v>       0.00368522      -0.00171388      -0.00046082 </v>
   <v>      -0.15312327      -0.00524600       0.02288419 </v>
   <v>       0.04522493      -0.05956976      -0.03179217 </v>
   <v>       0.00179185      -0.00040429       0.00062143 </v>
   <v>       0.00023945      -0.00055530      -0.00172397 </v>
   <v>      -0.02106124       0.25149874       0.29717570 </v>
   <v>       0.39175354       0.76217454      -0.14049086 </v>
   <v>       0.00225803       0.00061182      -0.00120623 </v>
   <v>      -0.00070316       0.00051890      -0.00109858 </v>
   <v>      -0.03489763      -0.00711242      -0.06861172 </v>
   <v>      -0.00748114       0.00088867       0.00348234 </v>
   <v>       0.00317115      -0.00217967      -0.00359619 </v>
   <v>       0.00031638      -0.00052296      -0.00060195 </v>
   <v>      -0.00174213      -0.00055485      -0.00218682 </v>
   <v>       0.05397190      -0.07398325       0.03933342 </v>
   <v>       0.00075739       0.00089590       0.00015427 </v>
   <v>      -0.00157617       0.00053429      -0.00010074 </v>
   <v>       0.00411622       0.00017443       0.00324456 </v>
   <v>      -0.00306684       0.00005412       0.00253482 </v>
   <v>       0.00077336       0.00148415      -0.00036020 </v>
   <v>       0.00184276       0.00088149       0.00045525 </v>
   <v>       0.00011499       0.00095353       0.00197150 </v>
   <v>      -0.00677121       0.00163181      -0.00262420 </v>
   <v>      -0.00480723      -0.00125675      -0.00232888 </v>
   <v>       0.00139359       0.00002786      -0.00077370 </v>
   <v>      -0.00130527       0.00118321       0.00258333 </v>
  </varray>
  <varray name="stress" >
   <v>      11.43076072       2.85200280      -3.40602762 </v>
[...]
        <r>  0.0001  0.0000  0.0001  0.0000  0.0000  0.0000  0.0000  0.0000  0.0000 </r>
        <r>  0.0001  0.0000  0.0014  0.0002  0.0000  0.0000  0.0000  0.0000  0.0000 </r>
        <r>  0.0001  0.0000  0.0012  0.0001  0.0000  0.0000  0.0000  0.0000  0.0000 </r>
        <r>  0.0016  0.0001  0.0123  0.0018  0.0000  0.0000  0.0000  0.0000  0.0000 </r>
        <r>  0.0017  0.0000  0.0117  0.0035  0.0000  0.0000  0.0000  0.0000  0.0000 </r>
        <r>  0.0000  0.0001  0.0008  0.0000  0.0000  0.0000  0.0000  0.0000  0.0000 </r>
        <r>  0.0000  0.0001  0.0005  0.0000  0.0000  0.0000  0.0000  0.0000  0.0000 </r>
        <r>  0.0001  0.0000  0.0012  0.0000  0.0000  0.0000  0.0000  0.0000  0.0000 </r>
        <r>  0.0005  0.0000  0.0040  0.0001  0.0000  0.0000  0.0000  0.0000  0.0000 </r>
        <r>  0.0000  0.0001  0.0003  0.0002  0.0000  0.0000  0.0000  0.0000  0.0000 </r>
        <r>  0.0000  0.0002  0.0004  0.0002  0.0000  0.0000  0.0000  0.0000  0.0000 </r>
        <r>  0.0004  0.0000  0.0044  0.0009  0.0000  0.0000  0.0000  0.0000  0.0000 </r>
        <r>  0.0003  0.0001  0.0040  0.0018  0.0000  0.0000  0.0000  0.0000  0.0000 </r>
        <r>  0.0000  0.0015  0.0000  0.0002  0.0000  0.0000  0.0000  0.0000  0.0000 </r>
        <r>  0.0000  0.0002  0.0000  0.0001  0.0000  0.0000  0.0000  0.0000  0.0000 </r>
        <r>  0.0003  0.0003  0.0002  0.0012  0.0000  0.0000  0.0000  0.0000  0.0000 </r>
        <r>  0.0005  0.0002  0.0000  0.0008  0.0000  0.0000  0.0000  0.0000  0.0000 </r>
        <r>  0.0000  0.0000  0.0001  0.0000  0.0000  0.0000  0.0000  0.0000  0.0000 </r>
        <r>  0.0000  0.0000  0.0001  0.0000  0.0000  0.0000  0.0000  0.0000  0.0000 </r>
        <r>  0.0005  0.0000  0.0048  0.0003  0.0000  0.0000  0.0000  0.0000  0.0000 </r>
        <r>  0.0007  0.0001  0.0051  0.0007  0.0000  0.0000  0.0000  0.0000  0.0000 </r>
        <r>  0.0000  0.0000  0.0001  0.0006  0.0000  0.0000  0.0000  0.0000  0.0000 </r>
        <r>  0.0000  0.0002  0.0002  0.0006  0.0000  0.0000  0.0000  0.0000  0.0000 </r>
        <r>  0.0017  0.0004  0.0040  0.0147  0.0000  0.0000  0.0000  0.0000  0.0000 </r>
        <r>  0.0010  0.0001  0.0033  0.0168  0.0000  0.0000  0.0000  0.0000  0.0000 </r>
        <r>  0.0001  0.0000  0.0017  0.0001  0.0000  0.0000  0.0000  0.0000  0.0000 </r>
        <r>  0.0000  0.0000  0.0013  0.0000  0.0000  0.0000  0.0000  0.0000  0.0000 </r>
        <r>  0.0003  0.0000  0.0193  0.0008  0.0000  0.0000  0.0000  0.0000  0.0000 </r>
        <r>  0.0005  0.0001  0.0207  0.0006  0.0000  0.0000  0.0000  0.0000  0.0000 </r>
        <r>  0.0001  0.0001  0.0001  0.0002  0.0000  0.0000  0.0000  0.0000  0.0000 </r>
        <r>  0.0001  0.0001  0.0000  0.0003  0.0000  0.0000  0.0000  0.0000  0.0000 </r>
        <r>  0.0030  0.0006  0.0007  0.0100  0.0000  0.0000  0.0000  0.0000  0.0000 </r>
        <r>  0.0032  0.0001  0.0005  0.0072  0.0000  0.0000  0.0000  0.0000  0.0000 </r>
        <r>  0.0000  0.0101  0.0000  0.0000  0.0000  0.0000  0.0000  0.0000  0.0000 </r>
        <r>  0.0000  0.0101  0.0000  0.0000  0.0000  0.0000  0.0000  0.0000  0.0000 </r>
        <r>  0.0004  0.0004  0.0000  0.0002  0.0000  0.0000  0.0000  0.0000  0.0000 </r>
        <r>  0.0001  0.0006  0.0000  0.0000  0.0000  0.0000  0.0000  0.0000  0.0000 </r>
        <r>  0.0001  0.0004  0.0000  0.0001  0.0000  0.0000  0.0000  0.0000  0.0000 </r>
        <r>  0.0001  0.0004  0.0001  0.0001  0.0000  0.0000  0.0000  0.0000  0.0000 </r>
        <r>  0.0013  0.0000  0.0000  0.0002  0.0000  0.0000  0.0000  0.0000  0.0000 </r>
        <r>  0.0007  0.0000  0.0009  0.0001  0.0000  0.0000  0.0000  0.0000  0.0000 </r>
        <r>  0.0000  0.0006  0.0001  0.0000  0.0000  0.0000  0.0000  0.0000  0.0000 </r>
        <r>  0.0000  0.0011  0.0001  0.0000  0.0000  0.0000  0.0000  0.0000  0.0000 </r>
        <r>  0.0000  0.0000  0.0000  0.0001  0.0000  0.0000  0.0000  0.0000  0.0000 </r>
        <r>  0.0000  0.0000  0.0000  0.0000  0.0000  0.0000  0.0000  0.0000  0.0000 </r>
        <r>  0.0000  0.0140  0.0000  0.0001  0.0000  0.0000  0.0000  0.0000  0.0000 </r>
        <r>  0.0001  0.0100  0.0000  0.0001  0.0000  0.0000  0.0000  0.0000  0.0000 </r>
        <r>  0.0006  0.0008  0.0005  0.0010  0.0000  0.0000  0.0000  0.0000  0.0000 </r>
        <r>  0.0006  0.0010  0.0002  0.0008  0.0000  0.0000  0.0000  0.0000  0.0000 </r>
        <r>  0.0000  0.0028  0.0001  0.0000  0.0000  0.0000  0.0000  0.0000  0.0000 </r>
        <r>  0.0000  0.0018  0.0000  0.0000  0.0000  0.0000  0.0000  0.0000  0.0000 </r>
        <r>  0.0000  0.0002  0.0001  0.0000  0.0000  0.0000  0.0000  0.0000  0.0000 </r>
        <r>  0.0001  0.0001  0.0003  0.0000  0.0000  0.0000  0.0000  0.0000  0.0000 </r>
        <r>  0.0000  0.0000  0.0003  0.0004  0.0000  0.0000  0.0000  0.0000  0.0000 </r>
        <r>  0.0000  0.0000  0.0004  0.0004  0.0000  0.0000  0.0000  0.0000  0.0000 </r>
        <r>  0.0001  0.0000  0.0001  0.0000  0.0000  0.0000  0.0000  0.0000  0.0000 </r>
        <r>  0.0001  0.0000  0.0002  0.0000  0.0000  0.0000  0.0000  0.0000  0.0000 </r>
       </set>
       <set comment="band 462">
        <r>  0.0008  0.0029  0.0012  0.0072  0.0000  0.0000  0.0000  0.0000  0.0000 </r>
        <r>  0.0001  0.0000  0.0001  0.0003  0.0000  0.0004  0.0003  0.0006  0.0002 </r>
        <r>  0.0001  0.0000  0.0003  0.0001  0.0000  0.0000  0.0001  0.0001  0.0002 </r>
        <r>  0.0002  0.0000  0.0005  0.0000  0.0000  0.0000  0.0003  0.0000  0.0030 </r>
        <r>  0.0000  0.0000  0.0000  0.0003  0.0000  0.0000  0.0009  0.0009  0.0014 </r>
        <r>  0.0001  0.0001  0.0001  0.0001  0.0000  0.0000  0.0001  0.0001  0.0005 </r>
        <r>  0.0000  0.0000  0.0001  0.0000  0.0000  0.0003  0.0001  0.0001  0.0000 </r>
        <r>  0.0000  0.0000  0.0000  0.0000  0.0000  0.0000  0.0002  0.0007  0.0014 </r>
        <r>  0.0000  0.0000  0.0001  0.0002  0.0000  0.0000  0.0000  0.0009  0.0010 </r>
        <r>  0.0000  0.0000  0.0000  0.0000  0.0000  0.0000  0.0001  0.0000  0.0000 </r>
        <r>  0.0000  0.0000  0.0001  0.0000  0.0003  0.0000  0.0003  0.0000  0.0000 </r>
        <r>  0.0002  0.0000  0.0000  0.0002  0.0000  0.0000  0.0004  0.0001  0.0012 </r>
        <r>  0.0000  0.0000  0.0005  0.0000  0.0000  0.0000  0.0009  0.0004  0.0023 </r>
        <r>  0.0014  0.0013  0.0000  0.0001  0.0002  0.0009  0.0009  0.0000  0.0054 </r>
        <r>  0.0015  0.0014  0.0000  0.0001  0.0007  0.0001  0.0003  0.0016  0.0068 </r>
        <r>  0.0009  0.0001  0.0002  0.0000  0.0000  0.0000  0.0012  0.0000  0.0029 </r>
        <r>  0.0003  0.0000  0.0000  0.0000  0.0000  0.0000  0.0001  0.0000  0.0010 </r>
        <r>  0.0002  0.0016  0.0000  0.0002  0.0089  0.0002  0.0000  0.0001  0.0000 </r>
        <r>  0.0003  0.0001  0.0000  0.0006  0.0001  0.0000  0.0000  0.0007  0.0005 </r>
        <r>  0.0000  0.0000  0.0000  0.0000  0.0000  0.0000  0.0004  0.0002  0.0000 </r>
        <r>  0.0003  0.0000  0.0005  0.0001  0.0000  0.0000  0.0047  0.0000  0.0045 </r>
        <r>  0.0003  0.0018  0.0001  0.0007  0.0034  0.0048  0.0028  0.0014  0.0001 </r>
        <r>  0.0002  0.0000  0.0000  0.0003  0.0002  0.0000  0.0015  0.0007  0.0002 </r>
        <r>  0.0000  0.0000  0.0000  0.0000  0.0000  0.0000  0.0001  0.0000  0.0000 </r>
        <r>  0.0000  0.0000  0.0001  0.0000  0.0000  0.0000  0.0025  0.0017  0.0002 </r>
        <r>  0.0001  0.0000  0.0000  0.0001  0.0000  0.0001  0.0000  0.0000  0.0000 </r>
        <r>  0.0003  0.0000  0.0001  0.0000  0.0000  0.0000  0.0000  0.0000  0.0000 </r>
        <r>  0.0002  0.0001  0.0001  0.0000  0.0000  0.0000  0.0000  0.0000  0.0000 </r>
        <r>  0.0007  0.0214  0.0001  0.0001  0.0000  0.0000  0.0000  0.0000  0.0000 </r>
        <r>  0.0000  0.0001  0.0000  0.0000  0.0000  0.0000  0.0000  0.0000  0.0000 </r>
        <r>  0.0000  0.0014  0.0000  0.0000  0.0000  0.0000  0.0000  0.0000  0.0000 </r>
        <r>  0.0001  0.0002  0.0002  0.0000  0.0000  0.0000  0.0000  0.0000  0.0000 </r>
        <r>  0.0001  0.0000  0.0000  0.0000  0.0000  0.0000  0.0000  0.0000  0.0000 </r>
        <r>  0.0000  0.0006  0.0000  0.0003  0.0000  0.0000  0.0000  0.0000  0.0000 </r>
        <r>  0.0000  0.0006  0.0002  0.0000  0.0000  0.0000  0.0000  0.0000  0.0000 </r>
        <r>  0.0000  0.0000  0.0001  0.0005  0.0000  0.0000  0.0000  0.0000  0.0000 </r>
        <r>  0.0000  0.0000  0.0001  0.0010  0.0000  0.0000  0.0000  0.0000  0.0000 </r>
        <r>  0.0000  0.0001  0.0000  0.0000  0.0000  0.0000  0.0000  0.0000  0.0000 </r>
        <r>  0.0000  0.0001  0.0000  0.0000  0.0000  0.0000  0.0000  0.0000  0.0000 </r>
        <r>  0.0000  0.0001  0.0000  0.0000  0.0000  0.0000  0.0000  0.0000  0.0000 </r>
        <r>  0.0003  0.0001  0.0002  0.0000  0.0000  0.0000  0.0000  0.0000  0.0000 </r>
        <r>  0.0001  0.0007  0.0006  0.0001  0.0000  0.0000  0.0000  0.0000  0.0000 </r>
        <r>  0.0002  0.0034  0.0009  0.0000  0.0000  0.0000  0.0000  0.0000  0.0000 </r>
        <r>  0.0001  0.0000  0.0006  0.0000  0.0000  0.0000  0.0000  0.0000  0.0000 </r>
        <r>  0.0000  0.0000  0.0000  0.0002  0.0000  0.0000  0.0000  0.0000  0.0000 </r>
        <r>  0.0000  0.0007  0.0001  0.0000  0.0000  0.0000  0.0000  0.0000  0.0000 </r>
        <r>  0.0000  0.0006  0.0000  0.0000  0.0000  0.0000  0.0000  0.0000  0.0000 </r>
        <r>  0.0000  0.0000  0.0001  0.0003  0.0000  0.0000  0.0000  0.0000  0.0000 </r>
        <r>  0.0001  0.0000  0.0005  0.0000  0.0000  0.0000  0.0000  0.0000  0.0000 </r>
        <r>  0.0000  0.0005  0.0000  0.0000  0.0000  0.0000  0.0000  0.0000  0.0000 </r>
        <r>  0.0000  0.0000  0.0000  0.0000  0.0000  0.0000  0.0000  0.0000  0.0000 </r>
        <r>  0.0001  0.0000  0.0000  0.0005  0.0000  0.0000  0.0000  0.0000  0.0000 </r>
        <r>  0.0030  0.0001  0.0011  0.0045  0.0000  0.0000  0.0000  0.0000  0.0000 </r>
        <r>  0.0003  0.0037  0.0004  0.0001  0.0000  0.0000  0.0000  0.0000  0.0000 </r>
        <r>  0.0001  0.0034  0.0001  0.0001  0.0000  0.0000  0.0000  0.0000  0.0000 </r>
        <r>  0.0002  0.0000  0.0001  0.0000  0.0000  0.0000  0.0000  0.0000  0.0000 </r>
        <r>  0.0000  0.0000  0.0002  0.0000  0.0000  0.0000  0.0000  0.0000  0.0000 </r>
        <r>  0.0002  0.0049  0.0003  0.0009  0.0000  0.0000  0.0000  0.0000  0.0000 </r>
        <r>  0.0005  0.0212  0.0005  0.0020  0.0000  0.0000  0.0000  0.0000  0.0000 </r>
        <r>  0.0002  0.0001  0.0000  0.0000  0.0000  0.0000  0.0000  0.0000  0.0000 </r>
        <r>  0.0000  0.0000  0.0000  0.0001  0.0000  0.0000  0.0000  0.0000  0.0000 </r>
        <r>  0.0000  0.0033  0.0001  0.0000  0.0000  0.0000  0.0000  0.0000  0.0000 </r>
        <r>  0.0000  0.0008  0.0001  0.0002  0.0000  0.0000  0.0000  0.0000  0.0000 </r>
        <r>  0.0000  0.0000  0.0001  0.0000  0.0000  0.0000  0.0000  0.0000  0.0000 </r>
        <r>  0.0002  0.0002  0.0009  0.0000  0.0000  0.0000  0.0000  0.0000  0.0000 </r>
        <r>  0.0004  0.0208  0.0000  0.0007  0.0000  0.0000  0.0000  0.0000  0.0000 </r>
        <r>  0.0004  0.0058  0.0000  0.0018  0.0000  0.0000  0.0000  0.0000  0.0000 </r>
        <r>  0.0001  0.0000  0.0000  0.0001  0.0000  0.0000  0.0000  0.0000  0.0000 </r>
        <r>  0.0000  0.0000  0.0002  0.0000  0.0000  0.0000  0.0000  0.0000  0.0000 </r>
        <r>  0.0000  0.0045  0.0000  0.0000  0.0000  0.0000  0.0000  0.0000  0.0000 </r>
        <r>  0.0000  0.0000  0.0000  0.0001  0.0000  0.0000  0.0000  0.0000  0.0000 </r>
        <r>  0.0002  0.0001  0.0000  0.0004  0.0000  0.0000  0.0000  0.0000  0.0000 </r>
        <r>  0.0032  0.0000  0.0002  0.0046  0.0000  0.0000  0.0000  0.0000  0.0000 </r>
        <r>  0.0000  0.0273  0.0001  0.0014  0.0000  0.0000  0.0000  0.0000  0.0000 </r>
        <r>  0.0002  0.0009  0.0000  0.0004  0.0000  0.0000  0.0000  0.0000  0.0000 </r>
        <r>  0.0000  0.0000  0.0001  0.0001  0.0000  0.0000  0.0000  0.0000  0.0000 </r>
        <r>  0.0001  0.0000  0.0011  0.0000  0.0000  0.0000  0.0000  0.0000  0.0000 </r>
        <r>  0.0000  0.0002  0.0000  0.0000  0.0000  0.0000  0.0000  0.0000  0.0000 </r>
        <r>  0.0000  0.0009  0.0000  0.0000  0.0000  0.0000  0.0000  0.0000  0.0000 </r>
        <r>  0.0037  0.0013  0.0003  0.0009  0.0000  0.0000  0.0000  0.0000  0.0000 </r>
        <r>  0.0035  0.0012  0.0009  0.0001  0.0000  0.0000  0.0000  0.0000  0.0000 </r>
        <r>  0.0000  0.0005  0.0002  0.0000  0.0000  0.0000  0.0000  0.0000  0.0000 </r>
        <r>  0.0000  0.0008  0.0000  0.0000  0.0000  0.0000  0.0000  0.0000  0.0000 </r>
        <r>  0.0001  0.0001  0.0000  0.0001  0.0000  0.0000  0.0000  0.0000  0.0000 </r>
        <r>  0.0001  0.0000  0.0000  0.0001  0.0000  0.0000  0.0000  0.0000  0.0000 </r>
        <r>  0.0000  0.0003  0.0000  0.0000  0.0000  0.0000  0.0000  0.0000  0.0000 </r>
        <r>  0.0000  0.0002  0.0000  0.0000  0.0000  0.0000  0.0000  0.0000  0.0000 </r>
        <r>  0.0001  0.0000  0.0005  0.0001  0.0000  0.0000  0.0000  0.0000  0.0000 </r>
        <r>  0.0001  0.0003  0.0006  0.0000  0.0000  0.0000  0.0000  0.0000  0.0000 </r>
        <r>  0.0001  0.0002  0.0000  0.0001  0.0000  0.0000  0.0000  0.0000  0.0000 </r>
        <r>  0.0000  0.0003  0.0001  0.0000  0.0000  0.0000  0.0000  0.0000  0.0000 </r>
        <r>  0.0000  0.0000  0.0000  0.0002  0.0000  0.0000  0.0000  0.0000  0.0000 </r>
        <r>  0.0001  0.0000  0.0001  0.0003  0.0000  0.0000  0.0000  0.0000  0.0000 </r>
       </set>
      </set>
     </set>
    </set>
   </array>
  </projected>
 </calculation>
 <structure name="finalpos" >
  <crystal>
   <varray name="basis" >
    <v>      22.78514290       0.00000000       0.00000000 </v>
    <v>       0.00000000       3.87685037       0.00000000 </v>
    <v>      -9.97305163       0.00000241      15.12824818 </v>
   </varray>
   <i name="volume">   1336.34759474 </i>
   <varray name="rec_basis" >
    <v>       0.04388825       0.00000000       0.02893261 </v>
    <v>       0.00000000       0.25794135      -0.00000004 </v>
    <v>       0.00000000       0.00000000       0.06610151 </v>
   </varray>
  </crystal>
  <varray name="positions" >
   <v>       0.34928965       0.59872206       0.61176032 </v>
   <v>       0.36742059       0.00488752       0.04589362 </v>
   <v>       0.63404850       0.01164875       0.95434576 </v>
   <v>       0.86604842       0.50718251       0.04554795 </v>
   <v>       0.13104962       0.50840207       0.95536998 </v>
   <v>       0.24908783       0.00311945       0.13692242 </v>
   <v>       0.75242833       0.00261325       0.86183828 </v>
   <v>       0.74808893       0.50397203       0.13778122 </v>
   <v>       0.24922260       0.50132852       0.86505765 </v>
   <v>       0.12911951       0.99722444       0.22908973 </v>
   <v>       0.86893003       0.99871561       0.76728994 </v>
   <v>       0.63162220       0.49894200       0.23247270 </v>
   <v>       0.36912508       0.48068990       0.77518948 </v>
   <v>       0.41935118       0.96959014       0.37908254 </v>
   <v>       0.58425259       0.96791944       0.61750995 </v>
   <v>       0.91766075       0.46652359       0.38180612 </v>
   <v>       0.08157168       0.46305687       0.62081473 </v>
   <v>       0.29564190       0.02810518       0.46468036 </v>
   <v>       0.70261910       0.00398181       0.52603445 </v>
   <v>       0.79858599       0.50372874       0.47276004 </v>
   <v>       0.19833250       0.49825187       0.52597524 </v>
   <v>       0.46781685       0.01926326       0.71431641 </v>
   <v>       0.53725787       0.00289508       0.28675913 </v>
   <v>       0.96315346       0.50126128       0.71256985 </v>
   <v>       0.03436804       0.50110725       0.28596488 </v>
   <v>       0.99923552       0.25123321       1.00030354 </v>
   <v>       0.50057463       0.74994774       0.00014317 </v>
   <v>      -0.00078614       0.48874848       0.50108068 </v>
   <v>       0.49997695       0.99176695       0.49983687 </v>
   <v>       0.14819577       0.00306885       0.99168699 </v>
   <v>       0.85028856       0.00372331       0.00903140 </v>
   <v>       0.64885654       0.50588968       0.98976079 </v>
   <v>       0.35078640       0.50026226       0.00987890 </v>
   <v>       0.30317704      -0.00026782       0.08132641 </v>
   <v>       0.69562129       0.00351494       0.91672461 </v>
   <v>       0.80299110       0.50383048       0.08129161 </v>
   <v>       0.19561053       0.49679669       0.92005013 </v>
   <v>       0.03375390       0.99974150       0.09942706 </v>
   <v>       0.96587196       0.00015402       0.90246402 </v>
   <v>       0.53445596       0.49854002       0.09800705 </v>
   <v>       0.46674718       0.49624578       0.90115509 </v>
   <v>       0.44996205       0.00273979       0.15567319 </v>
   <v>       0.54922076       0.01542290       0.84344090 </v>
   <v>       0.94951417       0.50173156       0.15598210 </v>
   <v>       0.04954401       0.50509419       0.84505214 </v>
   <v>       0.18039453      -0.00052917       0.17848838 </v>
   <v>       0.82060975       0.00317094       0.82335646 </v>
   <v>       0.67991924       0.50388733       0.17650549 </v>
   <v>       0.32062306       0.48375573       0.82846390 </v>
   <v>       0.04895287       0.00069704       0.27041107 </v>
   <v>       0.95020436       0.00166024       0.73043491 </v>
   <v>       0.55025432       0.50208246       0.26922932 </v>
   <v>       0.44617042       0.51705028       0.72258883 </v>
   <v>       0.32598544       1.00069543       0.24920350 </v>
   <v>       0.67550937       0.99900982       0.74959352 </v>
   <v>       0.82539943       0.49899041       0.24947782 </v>
   <v>       0.17448946       0.49864988       0.75100718 </v>
   <v>       0.47717833       1.00205041       0.32623591 </v>
   <v>       0.52612445       1.00653050       0.67444197 </v>
   <v>       0.97701723       0.49948343       0.32801991 </v>
   <v>       0.02410365       0.49635850       0.67473251 </v>
   <v>       0.20625854       0.01448477       0.34952884 </v>
   <v>       0.79284446       0.00195058       0.65117289 </v>
   <v>       0.70767252       0.50199288       0.34862252 </v>
   <v>       0.29272224       0.49906104       0.65525865 </v>
   <v>       0.35156292       0.01439826       0.42122357 </v>
   <v>       0.64784454       1.00080028       0.57332534 </v>
   <v>       0.85246438       0.49999052       0.42491768 </v>
   <v>       0.14495229       0.49411145       0.57316559 </v>
   <v>       0.22293005       0.00461840       0.52240314 </v>
   <v>       0.77899965       0.00316219       0.48110419 </v>
   <v>       0.72216437       0.50316125       0.51838059 </v>
   <v>       0.28282427       0.52346887       0.48586392 </v>
   <v>       0.37859475       0.02992598       0.59473271 </v>
   <v>       0.62248594       0.00261837       0.40347227 </v>
   <v>       0.87850983       0.50283580       0.59592250 </v>
   <v>       0.12264179       0.49987387       0.40404314 </v>
   <v>       0.09045692       0.98933714       0.63194935 </v>
   <v>       0.91021443       0.99235187       0.36837077 </v>
   <v>       0.59088140       0.49398782       0.63040217 </v>
   <v>       0.41070829       0.49606329       0.36814922 </v>
   <v>       0.39303907      -0.00461539       0.76905368 </v>
   <v>       0.60606495       0.00112151       0.23127123 </v>
   <v>       0.89435117       0.50095887       0.76845115 </v>
   <v>       0.10635128       0.50169039       0.23216874 </v>
   <v>       0.27448496      -0.00209343       0.89780102 </v>
   <v>       0.72391283       0.00474260       0.10206912 </v>
   <v>       0.77563607       0.50322217       0.89682920 </v>
   <v>       0.22406708       0.50222991       0.10407378 </v>
   <v>       0.42880829      -0.00108768       0.98678213 </v>
   <v>       0.57147827       0.00173392       0.01293202 </v>
   <v>       0.92815781       0.50354238       0.98690178 </v>
   <v>       0.07086961       0.50402441       0.01432942 </v>
  </varray>
 </structure>
</modeling>
