 vasp.6.5.1 10Mar25 (build Apr 25 2025 15:31:43) complex                        
  
 executed on             LinuxIFC date 2025.12.08  14:54:14
 running  384 mpi-ranks, on   16 nodes
 each image running on   48 cores
 distrk:  each k-point on   24 cores,    2 groups
 distr:  one band on NCORE=   6 cores,    4 groups


--------------------------------------------------------------------------------------------------------


 INCAR:
   SYSTEM = PBE-grap
   NWRITE = 0    write-flag
   ISTART = 0    job   : 0-new, 1-cont, 2-samecut
   ICHARG = 2    charge: 0-wave, 1-file, 2-atom, >10-const
   INIWAV = 1    electr: 0-lowe 1-rand  2-diag
   GGA = PE
   PREC = Normal   low | medium | high
   ENCUT = 370
   NELMDL = -5    number of delayed ELM steps
   NELMIN = 4
   NELM = 150    number of ELM steps
   EDIFF = 1E-05    energy stopping-criterion for ELM
   LREAL = AUTO   real-space projection (.FALSE., .TRUE., On, Auto)
   IALGO = 38    algorithm (8\=CG for small, 48\=RMM for big systems)
   LCHARG = .FALSE.
   LVTOT = .FALSE.
   LWAVE = .FALSE.
   NSW = 1000   max number of geometry steps
   EDIFFG = -0.026   force (eV/A) stopping-criterion for geometry steps
   ISIF = 2     (1:force\=y stress\=trace only ions\=y shape\=n volume\=n)
   ISYM = 0     (1-use symmetry, 0-no symmetry)
   ISMEAR = 0    (-1-Fermi, 1-Methfessel/Paxton)
   SIGMA = 0.41   broadening in eV
   IOPT = 3
   TIMESTEP = 0.05
   ICHAIN = 0     turn on NEB
   LCLIMB = .TRUE.
   POTIM = 0
   IBRION = 3
   IMAGES = 8      image number
   SPRING = -5     spring constant between images
   LPLANE = .TRUE.
   NPAR = 4
   KPAR = 2

 POTCAR:    PAW_PBE Pd 04Jan2005                  
 POTCAR:    PAW_PBE C 08Apr2002                   
 POTCAR:    PAW_PBE O 08Apr2002                   
 POTCAR:    PAW_PBE Pd 04Jan2005                  
  local pseudopotential read in
  partial core-charges read in
  partial kinetic energy density read in
  atomic valenz-charges read in
  non local Contribution for L=           2  read in
    real space projection operators read in
  non local Contribution for L=           2  read in
    real space projection operators read in
  non local Contribution for L=           0  read in
    real space projection operators read in
  non local Contribution for L=           0  read in
    real space projection operators read in
  non local Contribution for L=           1  read in
    real space projection operators read in
  non local Contribution for L=           1  read in
    real space projection operators read in
    PAW grid and wavefunctions read in
 
   number of l-projection  operators is LMAX  =           6
   number of lm-projection operators is LMMAX =          18
 
 POTCAR:    PAW_PBE C 08Apr2002                   
  local pseudopotential read in
  partial core-charges read in
  partial kinetic energy density read in
  atomic valenz-charges read in
  non local Contribution for L=           0  read in
    real space projection operators read in
  non local Contribution for L=           0  read in
    real space projection operators read in
  non local Contribution for L=           1  read in
    real space projection operators read in
  non local Contribution for L=           1  read in
    real space projection operators read in
    PAW grid and wavefunctions read in
 
   number of l-projection  operators is LMAX  =           4
   number of lm-projection operators is LMMAX =           8
 
 POTCAR:    PAW_PBE O 08Apr2002                   
  local pseudopotential read in
  partial core-charges read in
  partial kinetic energy density read in
  kinetic energy density of atom read in
  atomic valenz-charges read in
  non local Contribution for L=           0  read in
    real space projection operators read in
  non local Contribution for L=           0  read in
    real space projection operators read in
  non local Contribution for L=           1  read in
    real space projection operators read in
  non local Contribution for L=           1  read in
    real space projection operators read in
    PAW grid and wavefunctions read in
 
   number of l-projection  operators is LMAX  =           4
   number of lm-projection operators is LMMAX =           8
 
 Optimization of the real space projectors (new method)

 maximal supplied QI-value         = 14.36
 optimisation between [QCUT,QGAM] = [  9.77, 19.68] = [ 26.71,108.41] Ry 
 Optimized for a Real-space Cutoff    1.52 Angstroem

   l    n(q)    QCUT    max X(q) W(low)/X(q) W(high)/X(q)  e(spline) 
   2      8     9.766    59.108    0.18E-03    0.12E-03    0.98E-07
   2      8     9.766    58.101    0.18E-03    0.12E-03    0.10E-06
   0      9     9.766   102.235    0.37E-04    0.68E-04    0.73E-07
   0      9     9.766    58.388    0.33E-04    0.64E-04    0.69E-07
   1      8     9.766    22.191    0.23E-03    0.61E-04    0.11E-06
   1      8     9.766    15.590    0.19E-03    0.52E-04    0.93E-07
 Optimization of the real space projectors (new method)

 maximal supplied QI-value         = 25.13
 optimisation between [QCUT,QGAM] = [  9.80, 19.60] = [ 26.90,107.62] Ry 
 Optimized for a Real-space Cutoff    1.35 Angstroem

   l    n(q)    QCUT    max X(q) W(low)/X(q) W(high)/X(q)  e(spline) 
   0      8     9.802   115.676    0.45E-03    0.67E-03    0.24E-06
   0      8     9.802    87.132    0.44E-03    0.67E-03    0.24E-06
   1      7     9.802     4.429    0.38E-03    0.18E-03    0.24E-06
   1      7     9.802     2.733    0.25E-03    0.72E-04    0.26E-06
 Optimization of the real space projectors (new method)

 maximal supplied QI-value         = 24.76
 optimisation between [QCUT,QGAM] = [  9.65, 19.56] = [ 26.10,107.10] Ry 
 Optimized for a Real-space Cutoff    1.44 Angstroem

   l    n(q)    QCUT    max X(q) W(low)/X(q) W(high)/X(q)  e(spline) 
   0      8     9.655    20.381    0.19E-03    0.21E-03    0.36E-06
   0      8     9.655    15.268    0.21E-03    0.24E-03    0.37E-06
   1      8     9.655     5.964    0.43E-03    0.39E-03    0.31E-06
   1      8     9.655     5.382    0.36E-03    0.33E-03    0.28E-06
  PAW_PBE Pd 04Jan2005                  :
 energy of atom  1       EATOM= -809.7530
 kinetic energy error for atom=    0.0177 (will be added to EATOM!!)
  PAW_PBE C 08Apr2002                   :
 energy of atom  2       EATOM= -147.1560
 kinetic energy error for atom=    0.0545 (will be added to EATOM!!)
  PAW_PBE O 08Apr2002                   :
 energy of atom  3       EATOM= -432.3788
 kinetic energy error for atom=    0.2342 (will be added to EATOM!!)
 
 
 POSCAR: Pd  C  O
  positions in direct lattice
  velocities in cartesian coordinates


 exchange-correlation table for PE
   RHO(1)=    0.500       N(1)  =     2000
   RHO(2)=  100.500       N(2)  =     4000

 VTST: version 4.2, (11/09/24)

 CHAIN: initializing optimizer
 
 OPT: Using Quick-Min optimizer
 OPT: QM, Init
 OPT: QM, MAXMOVE       0.200000
 OPT: QM, TIMESTEP      0.050000
 
 CHAIN: Read ICHAIN            0
 CHAIN: Running the NEB
 NEB:          SPRING     -5.000000
 NEB:          LCLIMB      T
 NEB:     LTANGENTOLD      F
 NEB:           LDNEB      F
 NEB:        LDNEBORG      F
 NEB:        LNEBCELL      F
 NEB:          EFIRST      0.000000
 NEB:           ELAST      0.000000
 
 POSCAR: Pd  C  O
  positions in cartesian coordinates
  No initial velocities read in
 
 POSCAR: Pd  C  O
  positions in cartesian coordinates
  No initial velocities read in
 
 POSCAR: Pd  C  O
  positions in cartesian coordinates
  No initial velocities read in
 
 POSCAR: Pd  C  O
  positions in cartesian coordinates
  No initial velocities read in
 


--------------------------------------------------------------------------------------------------------


 ion  position               nearest neighbor table
   1  0.001  0.997  0.445-  37 2.28   4 2.72  13 2.75  19 2.75  25 2.77  10 2.81   7 2.81   3 2.87
                            27 2.89   9 2.90
   2  0.111  0.223  0.160-  31 2.77  32 2.77  28 2.77   5 2.77   8 2.77  26 2.77  20 2.77  14 2.77
                            11 2.77  12 2.79   3 2.81   9 2.81
   3  0.222  0.113  0.300-  15 2.74  12 2.75   6 2.76   9 2.76  27 2.77  21 2.78   2 2.81   5 2.81
                            20 2.82   4 2.87   1 2.87  13 3.01
   4  0.330  1.000  0.445-  37 2.18   1 2.72  13 2.73  16 2.78   7 2.79  19 2.79  22 2.81   3 2.87
                            21 2.88   6 2.90
   5  0.444  0.223  0.160-  32 2.77  29 2.77  33 2.77   2 2.77  20 2.77  23 2.77   8 2.77  17 2.77
                            14 2.77   6 2.79  15 2.80   3 2.81
   6  0.553  0.110  0.299-  21 2.75   3 2.76  24 2.77  15 2.77  16 2.77  18 2.78  23 2.78   7 2.78
                             9 2.78   5 2.79   8 2.80   4 2.90
   7  0.664  0.998  0.436-   9 2.76  24 2.77  25 2.77  16 2.77   6 2.78  22 2.79  10 2.79   4 2.79
                             1 2.81
   8  0.778  0.223  0.160-  33 2.77  31 2.77  30 2.77   2 2.77  26 2.77  23 2.77  11 2.77   5 2.77
                            17 2.77  18 2.78   6 2.80   9 2.81
   9  0.889  0.112  0.300-  18 2.76  12 2.76  27 2.76   7 2.76   3 2.76   6 2.78  24 2.79  26 2.81
                             2 2.81   8 2.81  10 2.88   1 2.90
  10  0.999  0.334  0.445-  38 2.13  22 2.75  19 2.76  16 2.77  13 2.78   7 2.79   1 2.81   9 2.88
                            12 2.89  18 2.89
  11  0.111  0.557  0.160-  34 2.77  35 2.77  31 2.77  14 2.77  17 2.77  23 2.77  20 2.77   8 2.77
                             2 2.77  18 2.80  21 2.80  12 2.81
  12  0.221  0.444  0.299-  15 2.75   3 2.75   9 2.76  24 2.76  18 2.77  21 2.78   2 2.79  11 2.81
                            14 2.81  22 2.85  10 2.89  13 3.05
  13  0.330  0.328  0.456-  38 2.00  37 2.34   4 2.73   1 2.75  22 2.78  10 2.78  16 2.79  25 2.83
                             3 3.01  15 3.04  12 3.05
  14  0.444  0.557  0.160-  35 2.77  36 2.77  32 2.77  11 2.77  23 2.77  26 2.77   2 2.77  17 2.77
                             5 2.77  24 2.79  15 2.80  12 2.81
  15  0.551  0.443  0.300-   3 2.74  12 2.75  25 2.76  16 2.76   6 2.77  24 2.77  18 2.79  27 2.80
                             5 2.80  14 2.80  17 2.82  13 3.04
  16  0.665  0.332  0.436-  19 2.75  15 2.76  25 2.77  10 2.77   7 2.77  18 2.77   6 2.77   4 2.78
                            13 2.79
  17  0.778  0.557  0.160-  36 2.77  34 2.77  33 2.77  11 2.77  26 2.77  20 2.77  14 2.77   8 2.77
                             5 2.77  27 2.78  18 2.80  15 2.82
  18  0.888  0.443  0.299-   9 2.76  19 2.76  12 2.77  16 2.77   6 2.78   8 2.78  21 2.79  27 2.79
                            15 2.79  11 2.80  17 2.80  10 2.89
  19  0.996  0.664  0.435-  25 2.74   1 2.75  16 2.75  18 2.76  10 2.76  21 2.77  27 2.77   4 2.79
                            22 2.80
  20  0.111  0.890  0.160-  29 2.77  28 2.77  34 2.77  23 2.77  26 2.77  11 2.77  17 2.77   5 2.77
                             2 2.77  27 2.79  21 2.81   3 2.82
  21  0.223  0.778  0.300-  24 2.75   6 2.75  19 2.77  12 2.78   3 2.78  27 2.78  18 2.79  23 2.80
                            11 2.80  20 2.81  22 2.88   4 2.88
  22  0.331  0.662  0.443-  38 2.19  10 2.75  25 2.77  13 2.78   7 2.79  19 2.80   4 2.81  12 2.85
                            24 2.87  21 2.88
  23  0.444  0.890  0.160-  29 2.77  35 2.77  30 2.77  20 2.77  11 2.77  14 2.77   5 2.77   8 2.77
                            26 2.77   6 2.78  24 2.79  21 2.80
  24  0.553  0.777  0.299-  21 2.75  12 2.76   6 2.77   7 2.77  15 2.77  27 2.78  25 2.78   9 2.79
                            14 2.79  23 2.79  26 2.80  22 2.87
  25  0.667  0.666  0.436-  19 2.74  15 2.76   1 2.77  16 2.77   7 2.77  22 2.77  27 2.78  24 2.78
                            13 2.83
  26  0.778  0.890  0.160-  28 2.77  30 2.77  36 2.77  20 2.77  17 2.77   8 2.77   2 2.77  14 2.77
                            23 2.77  27 2.78  24 2.80   9 2.81
  27  0.888  0.779  0.298-   9 2.76   3 2.77  19 2.77  25 2.78  24 2.78  26 2.78  17 2.78  21 2.78
                            20 2.79  18 2.79  15 2.80   1 2.89
  28  1.000  0.001  0.023-  26 2.77  20 2.77   2 2.77  30 2.77  29 2.77  31 2.77  32 2.77  36 2.77
                            34 2.77
  29  0.333  0.001  0.023-  20 2.77  23 2.77   5 2.77  28 2.77  32 2.77  34 2.77  35 2.77  33 2.77
                            30 2.77
  30  0.666  0.001  0.023-  26 2.77   8 2.77  23 2.77  28 2.77  31 2.77  33 2.77  36 2.77  35 2.77
                            29 2.77
  31  1.000  0.334  0.023-   2 2.77   8 2.77  11 2.77  33 2.77  32 2.77  28 2.77  30 2.77  35 2.77
                            34 2.77
  32  0.333  0.334  0.023-   5 2.77   2 2.77  14 2.77  31 2.77  29 2.77  28 2.77  33 2.77  35 2.77
                            36 2.77
  33  0.666  0.334  0.023-   8 2.77   5 2.77  17 2.77  31 2.77  30 2.77  29 2.77  34 2.77  32 2.77
                            36 2.77
  34  1.000  0.668  0.023-  11 2.77  17 2.77  20 2.77  36 2.77  35 2.77  28 2.77  29 2.77  33 2.77
                            31 2.77
  35  0.333  0.668  0.023-  14 2.77  11 2.77  23 2.77  34 2.77  29 2.77  30 2.77  31 2.77  36 2.77
                            32 2.77
  36  0.666  0.668  0.023-  17 2.77  26 2.77  14 2.77  34 2.77  28 2.77  30 2.77  35 2.77  32 2.77
                            33 2.77
  37  0.215  0.077  0.546-  39 1.18   4 2.18   1 2.28  13 2.34
  38  0.217  0.434  0.532-  13 2.00  10 2.13  22 2.19
  39  0.207  0.057  0.617-  37 1.18
 

IMPORTANT INFORMATION: All symmetrisations will be switched off!
NOSYMM: (Re-)initialisation of all symmetry stuff for point group C_1.


----------------------------------------------------------------------------------------

                                     Primitive cell                                     

  volume of cell :     988.1533

  direct lattice vectors                    reciprocal lattice vectors
     8.309900284  0.000000000  0.000000000     0.120338387  0.069477400  0.000000000
    -4.154950142  7.196584749  0.000000000     0.000000000  0.138954801  0.000000000
     0.000000000  0.000000000 16.523500443     0.000000000  0.000000000  0.060519864

  length of vectors
     8.309900284  8.309900284 16.523500443     0.138954801  0.138954801  0.060519864

  position of ions in fractional coordinates (direct lattice)
     0.001358929  0.997045764  0.444989859
     0.110930000  0.223300000  0.160240000
     0.221855315  0.112623665  0.300382548
     0.330070659  0.999846362  0.444738855
     0.444260000  0.223300000  0.160240000
     0.552860320  0.110049368  0.298509150
     0.664383839  0.998462471  0.435982717
     0.777600000  0.223300000  0.160240000
     0.888731819  0.111743801  0.300264352
     0.998826367  0.333688805  0.445084280
     0.110930000  0.556640000  0.160240000
     0.220983553  0.443534497  0.299456373
     0.329903541  0.327969992  0.456240173
     0.444260000  0.556640000  0.160240000
     0.551451302  0.442853458  0.299863757
     0.665270904  0.332347445  0.435636902
     0.777600000  0.556640000  0.160240000
     0.887758465  0.443082029  0.298707993
     0.995652693  0.663935794  0.435112380
     0.110930000  0.889970000  0.160240000
     0.222723410  0.778450460  0.299761231
     0.331431775  0.661786324  0.443448835
     0.444260000  0.889970000  0.160240000
     0.552767151  0.777191530  0.298864480
     0.666784151  0.666352387  0.435713659
     0.777600000  0.889970000  0.160240000
     0.888013197  0.779033415  0.298056555
     0.999820000  0.001080000  0.023370000
     0.333150000  0.001080000  0.023370000
     0.666490000  0.001080000  0.023370000
     0.999820000  0.334410000  0.023370000
     0.333150000  0.334410000  0.023370000
     0.666490000  0.334410000  0.023370000
     0.999820000  0.667750000  0.023370000
     0.333150000  0.667750000  0.023370000
     0.666490000  0.667750000  0.023370000
     0.214501765  0.076684211  0.546115048
     0.217354375  0.433763514  0.531537077
     0.207480142  0.057039218  0.617017912

  ion indices of the primitive-cell ions
   primitive index   ion index
                 1           1
                 2           2
                 3           3
                 4           4
                 5           5
                 6           6
                 7           7
                 8           8
                 9           9
                10          10
                11          11
                12          12
                13          13
                14          14
                15          15
                16          16
                17          17
                18          18
                19          19
                20          20
                21          21
                22          22
                23          23
                24          24
                25          25
                26          26
                27          27
                28          28
                29          29
                30          30
                31          31
                32          32
                33          33
                34          34
                35          35
                36          36
                37          37
                38          38
                39          39

----------------------------------------------------------------------------------------

 
 
 KPOINTS: Automatic mesh                          

Automatic generation of k-mesh.
 Grid dimensions read from file:
 generate k-points for:    4    4    1

 Generating k-lattice:

  Cartesian coordinates                     Fractional coordinates (reciprocal lattice)
     0.030084597  0.017369350  0.000000000     0.250000000  0.000000000  0.000000000
     0.000000000  0.034738700  0.000000000     0.000000000  0.250000000  0.000000000
     0.000000000  0.000000000  0.060519864     0.000000000  0.000000000  1.000000000

  Length of vectors
     0.034738700  0.034738700  0.060519864

  Shift w.r.t. Gamma in fractional coordinates (k-lattice)
     0.500000000  0.500000000  0.000000000

 
 Subroutine IBZKPT returns following result:
 ===========================================
 
 Found     24 irreducible k-points:
 
 Following reciprocal coordinates:
            Coordinates               Weight
  0.125000  0.125000  0.000000      2.000000
 -0.125000  0.250000  0.000000      2.000000
 -0.250000  0.125000  0.000000      2.000000
  0.375000  0.125000  0.000000      2.000000
 -0.125000  0.500000  0.000000      2.000000
  0.500000  0.375000  0.000000      2.000000
 -0.375000  0.500000  0.000000      2.000000
  0.125000  0.375000  0.000000      2.000000
  0.500000 -0.125000  0.000000      2.000000
 -0.375000  0.125000  0.000000      2.000000
 -0.125000 -0.250000  0.000000      2.000000
  0.250000 -0.375000  0.000000      2.000000
  0.375000 -0.250000  0.000000      2.000000
  0.125000 -0.375000  0.000000      2.000000
 -0.250000 -0.125000  0.000000      2.000000
 -0.125000  0.125000  0.000000      2.000000
 -0.125000  0.000000  0.000000      2.000000
  0.000000 -0.125000  0.000000      2.000000
  0.375000  0.375000  0.000000      2.000000
 -0.375000 -0.250000  0.000000      2.000000
  0.250000  0.375000  0.000000      2.000000
 -0.375000  0.375000  0.000000      2.000000
 -0.375000  0.000000  0.000000      2.000000
  0.000000 -0.375000  0.000000      2.000000
 
 Following cartesian coordinates:
            Coordinates               Weight
  0.015042  0.026054  0.000000      2.000000
 -0.015042  0.026054  0.000000      2.000000
 -0.030085  0.000000  0.000000      2.000000
  0.045127  0.043423  0.000000      2.000000
 -0.015042  0.060793  0.000000      2.000000
  0.060169  0.086847  0.000000      2.000000
 -0.045127  0.043423  0.000000      2.000000
  0.015042  0.060793  0.000000      2.000000
  0.060169  0.017369  0.000000      2.000000
 -0.045127 -0.008685  0.000000      2.000000
 -0.015042 -0.043423  0.000000      2.000000
  0.030085 -0.034739  0.000000      2.000000
  0.045127 -0.008685  0.000000      2.000000
  0.015042 -0.043423  0.000000      2.000000
 -0.030085 -0.034739  0.000000      2.000000
 -0.015042  0.008685  0.000000      2.000000
 -0.015042 -0.008685  0.000000      2.000000
  0.000000 -0.017369  0.000000      2.000000
  0.045127  0.078162  0.000000      2.000000
 -0.045127 -0.060793  0.000000      2.000000
  0.030085  0.069477  0.000000      2.000000
 -0.045127  0.026054  0.000000      2.000000
 -0.045127 -0.026054  0.000000      2.000000
  0.000000 -0.052108  0.000000      2.000000
 


--------------------------------------------------------------------------------------------------------




 Dimension of arrays:
   k-points           NKPTS =     24   k-points in BZ     NKDIM =     24   number of bands    NBANDS=    228
   number of dos      NEDOS =    301   number of ions     NIONS =     39
   non local maximal  LDIM  =      6   non local SUM 2l+1 LMDIM =     18
   total plane-waves  NPLWV = 128000
   max r-space proj   IRMAX =   1966   max aug-charges    IRDMAX=   6482
   dimension x,y,z NGX =    40 NGY =   40 NGZ =   80
   dimension x,y,z NGXF=    80 NGYF=   80 NGZF=  160
   support grid    NGXF=    80 NGYF=   80 NGZF=  160
   ions per type =              36   1   2
   NGX,Y,Z   is equivalent  to a cutoff of   8.00,  8.00,  8.05 a.u.
   NGXF,Y,Z  is equivalent  to a cutoff of  16.00, 16.00, 16.10 a.u.

 SYSTEM =  PBE-grap                                
 POSCAR =  Pd  C  O                                

 Startparameter for this run:
   NWRITE =      0    write-flag & timer
   PREC   = normal    normal or accurate (medium, high low for compatibility)
   ISTART =      0    job   : 0-new  1-cont  2-samecut
   ICHARG =      2    charge: 1-file 2-atom 10-const
   ISPIN  =      1    spin polarized calculation?
   LNONCOLLINEAR =      F non collinear calculations
   LSORBIT =      F    spin-orbit coupling
   INIWAV =      1    electr: 0-lowe 1-rand  2-diag
   LASPH  =      F    aspherical Exc in radial PAW
 Electronic Relaxation 1
   ENCUT  =  370.0 eV  27.19 Ry    5.21 a.u.  13.03 13.03 25.92*2*pi/ulx,y,z
   ENINI  =  370.0     initial cutoff
   ENAUG  =  644.9 eV  augmentation charge cutoff
   NELM   =    150;   NELMIN=  4; NELMDL= -5     # of ELM steps 
   EDIFF  = 0.1E-04   stopping-criterion for ELM
   LREAL  =      T    real-space projection
   NLSPLINE    = F    spline interpolate recip. space projectors
   LCOMPAT=      F    compatible to vasp.4.4
   GGA_COMPAT  = T    GGA compatible to vasp.4.4-vasp.4.6
   LMAXPAW     = -100 max onsite density
   LMAXMIX     =    2 max onsite mixed and CHGCAR
   VOSKOWN=      0    Vosko Wilk Nusair interpolation
   ROPT   =   -0.00050  -0.00050  -0.00050
 Ionic relaxation
   EDIFFG = -.3E-01   stopping-criterion for IOM
   NSW    =   1000    number of steps for IOM
   NBLOCK =      1;   KBLOCK =   1000    inner block; outer block 
   IBRION =      3    ionic relax: 0-MD 1-quasi-New 2-CG
   NFREE  =      0    steps in history (QN), initial steepest desc. (CG)
   ISIF   =      2    stress and relaxation
   IWAVPR =     11    prediction:  0-non 1-charg 2-wave 3-comb
   ISYM   =      0    0-nonsym 1-usesym 2-fastsym
   LCORR  =      T    Harris-Foulkes like correction to forces

   POTIM  = 0.0000    time-step for ionic-motion
   TEIN   =    0.0    initial temperature
   TEBEG  =    0.0;   TEEND  =   0.0 temperature during run
   SMASS  =  -3.00    Nose mass-parameter (am)
   estimated Nose-frequenzy (Omega)   =  0.10E-29 period in steps = 0.00E+00 mass=  -0.158E-26a.u.
   SCALEE = 1.0000    scale energy and forces
   NPACO  =    256;   APACO  = 10.0  distance and # of slots for P.C.
   PSTRESS=    0.0 pullay stress

  Mass of Ions in am
   POMASS = 106.42 12.01 16.00
  Ionic Valenz
   ZVAL   =  10.00  4.00  6.00
  Atomic Wigner-Seitz radii
   RWIGS  =  -1.00 -1.00 -1.00
  virtual crystal weights 
   VCA    =   1.00  1.00  1.00
   NELECT =     376.0000    total number of electrons
   NUPDOWN=      -1.0000    fix difference up-down

 DOS related values:
   EMIN   =  10.00;   EMAX   =-10.00  energy-range for DOS
   EFERMI =   0.00;   METHOD = LEGACY      
   ISMEAR =     0;   SIGMA  =   0.41  broadening in eV -4-tet -1-fermi 0-gaus
   EFERMI_NEDOS =   21; number of points for ismear=-14 and -15

 Electronic relaxation 2 (details)
   IALGO  =     38    algorithm
   LDIAG  =      T    sub-space diagonalisation (order eigenvalues)
   LSUBROT=      F    optimize rotation matrix (better conditioning)
   LROBUST=      F    robust break criterion during scf (extrapolated energy error)
   ISEARCH=      0    line search for conjugate gradient (0, 1=use gradient)
   TURBO    =      0    0=normal 1=particle mesh
   IRESTART =      0    0=no restart 2=restart with 2 vectors
   NREBOOT  =      0    no. of reboots
   NMIN     =      0    reboot dimension
   EREF     =   0.00    reference energy to select bands
   IMIX   =      4    mixing-type and parameters
     AMIX     =   0.40;   BMIX     =  1.00
     AMIX_MAG =   1.60;   BMIX_MAG =  1.00
     AMIN     =   0.10
     WC   =   100.;   INIMIX=   1;  MIXPRE=   1;  MAXMIX= -45

 Intra band minimization:
   WEIMIN = 0.0010     energy-eigenvalue tresh-hold
   EBREAK =  0.11E-07  absolut break condition
   DEPER  =   0.30     relativ break condition  

   TIME   =   0.40     timestep for ELM

  volume/ion in A,a.u.               =      25.34       170.98
  Fermi-wavevector in a.u.,A,eV,Ry     =   1.186304  2.241790 19.147714  1.407317
  Thomas-Fermi vector in A             =   2.322480
 
 Write flags
   LWAVE        =      F    write WAVECAR
   LDOWNSAMPLE  =      F    k-point downsampling of WAVECAR
   LCHARG       =      F    write CHGCAR
   LVTOT        =      F    write LOCPOT, total local potential
   LVHAR        =      F    write LOCPOT, Hartree potential only
   WRT_POTENTIAL= false  ! write potential to hdf5 file
   LELF         =      F    write electronic localiz. function (ELF)
   LORBIT       =      0    0 simple, 1 ext, 2 COOP (PROOUT), +10 PAW based schemes


 Python interface
   PLUGINS active      =      F    recompile with -DPLUGINS to activate
 
 Dipole corrections
   LMONO      =      F    monopole corrections only (constant potential shift)
   LDIPOL     =      F    correct potential (dipole corrections)
   IDIPOL     =      0    1-x, 2-y, 3-z, 4-all directions 
   EPSILON    =  1.0000000 bulk dielectric constant
   LVACPOTAV  =      F  vacuum potentials using an averaging scheme for the charge density
   VACPOTFLAT =  0.1000000 required flatness to determine vacuum potential
 
Coulomb truncation method
  LTRUNCATE          =      F  Coulomb kernel truncation to be used

 
 Exchange correlation treatment:
   GGA     = PE    functional components
   XC_C    = 1    coefficients multiplying the functional components
   LIBXC   =     F    Libxc                    
   VOSKOWN =     0    Vosko Wilk Nusair interpolation
   LHFCALC =     F    Hartree Fock is set to
   LHFONE  =     F    Hartree Fock one center treatment
   AEXX    =    0.0000 exact exchange contribution

 Parameters of functionals:
   PE:
     No parameter
 
 Van der Waals corrections
   IVDW    =     0    specifies the selected vdW correction

 Linear response parameters
   LEPSILON=     F    determine dielectric tensor
   LRPA    =     F    only Hartree local field effects (RPA)
   LNABLA  =     F    use nabla operator in PAW spheres
   LVEL    =     F    velocity operator in full k-point grid
   CSHIFT  =0.1000    complex shift for real part using Kramers Kronig
   OMEGAMAX=  -1.0    maximum frequency
   DEG_THRESHOLD= 0.2000000E-02 threshold for treating states as degnerate
   RTIME   =   -0.100 relaxation time in fs
  (WPLASMAI=    0.000 imaginary part of plasma frequency in eV, 0.658/RTIME)
   DFIELD  = 0.0000000 0.0000000 0.0000000 field for delta impulse in time
 
  Optional k-point grid parameters
   LKPOINTS_OPT  =     F    use optional k-point grid
   KPOINTS_OPT_MODE=     1    mode for optional k-point grid
 
 Orbital magnetization related:
   ORBITALMAG=     F  switch on orbital magnetization
   LCHIMAG   =     F  perturbation theory with respect to B field
   DQ        =  0.001000  dq finite difference perturbation B field
   LLRAUG    =     F  two centre corrections for induced B field
   LBONE     =     F  B-component reconstruction in AE one-centre
   LVGVCALC  =     T  calculate vGv susceptibility
   LVGVAPPL  =     F  apply vGv susceptibility instead of pGv for G=0

 Random number generation:
   RANDOM_GENERATOR = DEFAULT
   PCG_SEED         = not used


--------------------------------------------------------------------------------------------------------


 quickmin algorithm: (dynamic with friction)
   using selective dynamics as specified on POSCAR
 charge density and potential will be updated during run
 non-spin polarized calculation
 Variant of blocked Davidson
 Davidson routine will perform the subspace rotation
 perform sub-space diagonalisation
    after iterative eigenvector-optimisation
 modified Broyden-mixing scheme, WC =      100.0
 initial mixing is a Kerker type mixing with AMIX =  0.4000 and BMIX =      1.0000
 Hartree-type preconditioning will be used
 using additional bands           40
 real space projection scheme for non local part
 use partial core corrections
 calculate Harris-corrections to forces 
   (improved forces if not selfconsistent)
 use gradient corrections 
 use of overlap-Matrix (Vanderbilt PP)
 Gauss-broadening in eV      SIGMA  =   0.41


--------------------------------------------------------------------------------------------------------


  energy-cutoff  :      370.00
  volume of cell :      988.15
      direct lattice vectors                 reciprocal lattice vectors
     8.309900284  0.000000000  0.000000000     0.120338387  0.069477400  0.000000000
    -4.154950142  7.196584749  0.000000000     0.000000000  0.138954801  0.000000000
     0.000000000  0.000000000 16.523500443     0.000000000  0.000000000  0.060519864

  length of vectors
     8.309900284  8.309900284 16.523500443     0.138954801  0.138954801  0.060519864


 
 k-points in units of 2pi/SCALE and weight: Automatic mesh                          
   0.01504230  0.02605403  0.00000000       0.042
  -0.01504230  0.02605403  0.00000000       0.042
  -0.03008460  0.00000000  0.00000000       0.042
   0.04512690  0.04342338  0.00000000       0.042
  -0.01504230  0.06079273  0.00000000       0.042
   0.06016919  0.08684675  0.00000000       0.042
  -0.04512690  0.04342338  0.00000000       0.042
   0.01504230  0.06079273  0.00000000       0.042
   0.06016919  0.01736935  0.00000000       0.042
  -0.04512690 -0.00868468  0.00000000       0.042
  -0.01504230 -0.04342338  0.00000000       0.042
   0.03008460 -0.03473870  0.00000000       0.042
   0.04512690 -0.00868468  0.00000000       0.042
   0.01504230 -0.04342338  0.00000000       0.042
  -0.03008460 -0.03473870  0.00000000       0.042
  -0.01504230  0.00868468  0.00000000       0.042
  -0.01504230 -0.00868468  0.00000000       0.042
   0.00000000 -0.01736935  0.00000000       0.042
   0.04512690  0.07816208  0.00000000       0.042
  -0.04512690 -0.06079273  0.00000000       0.042
   0.03008460  0.06947740  0.00000000       0.042
  -0.04512690  0.02605403  0.00000000       0.042
  -0.04512690 -0.02605403  0.00000000       0.042
   0.00000000 -0.05210805  0.00000000       0.042
 
 k-points in reciprocal lattice and weights: Automatic mesh                          
   0.12500000  0.12500000  0.00000000       0.042
  -0.12500000  0.25000000  0.00000000       0.042
  -0.25000000  0.12500000  0.00000000       0.042
   0.37500000  0.12500000  0.00000000       0.042
  -0.12500000  0.50000000  0.00000000       0.042
   0.50000000  0.37500000  0.00000000       0.042
  -0.37500000  0.50000000  0.00000000       0.042
   0.12500000  0.37500000  0.00000000       0.042
   0.50000000 -0.12500000  0.00000000       0.042
  -0.37500000  0.12500000  0.00000000       0.042
  -0.12500000 -0.25000000  0.00000000       0.042
   0.25000000 -0.37500000  0.00000000       0.042
   0.37500000 -0.25000000  0.00000000       0.042
   0.12500000 -0.37500000  0.00000000       0.042
  -0.25000000 -0.12500000  0.00000000       0.042
  -0.12500000  0.12500000  0.00000000       0.042
  -0.12500000  0.00000000  0.00000000       0.042
   0.00000000 -0.12500000  0.00000000       0.042
   0.37500000  0.37500000  0.00000000       0.042
  -0.37500000 -0.25000000  0.00000000       0.042
   0.25000000  0.37500000  0.00000000       0.042
  -0.37500000  0.37500000  0.00000000       0.042
  -0.37500000  0.00000000  0.00000000       0.042
   0.00000000 -0.37500000  0.00000000       0.042
 
 position of ions in fractional coordinates (direct lattice) 
   0.00135893  0.99704576  0.44498986
   0.11093000  0.22330000  0.16024000
   0.22185532  0.11262366  0.30038255
   0.33007066  0.99984636  0.44473886
   0.44426000  0.22330000  0.16024000
   0.55286032  0.11004937  0.29850915
   0.66438384  0.99846247  0.43598272
   0.77760000  0.22330000  0.16024000
   0.88873182  0.11174380  0.30026435
   0.99882637  0.33368881  0.44508428
   0.11093000  0.55664000  0.16024000
   0.22098355  0.44353450  0.29945637
   0.32990354  0.32796999  0.45624017
   0.44426000  0.55664000  0.16024000
   0.55145130  0.44285346  0.29986376
   0.66527090  0.33234744  0.43563690
   0.77760000  0.55664000  0.16024000
   0.88775846  0.44308203  0.29870799
   0.99565269  0.66393579  0.43511238
   0.11093000  0.88997000  0.16024000
   0.22272341  0.77845046  0.29976123
   0.33143178  0.66178632  0.44344883
   0.44426000  0.88997000  0.16024000
   0.55276715  0.77719153  0.29886448
   0.66678415  0.66635239  0.43571366
   0.77760000  0.88997000  0.16024000
   0.88801320  0.77903341  0.29805655
   0.99982000  0.00108000  0.02337000
   0.33315000  0.00108000  0.02337000
   0.66649000  0.00108000  0.02337000
   0.99982000  0.33441000  0.02337000
   0.33315000  0.33441000  0.02337000
   0.66649000  0.33441000  0.02337000
   0.99982000  0.66775000  0.02337000
   0.33315000  0.66775000  0.02337000
   0.66649000  0.66775000  0.02337000
   0.21450176  0.07668421  0.54611505
   0.21735437  0.43376351  0.53153708
   0.20748014  0.05703922  0.61701791
 
 position of ions in cartesian coordinates  (Angst):
  -4.13138287  7.17532434  7.35279013
  -0.00598313  1.60699737  2.64772571
   1.37564983  0.81050575  4.96337117
  -1.41145752  7.19547908  7.34864267
   2.76395593  1.60699737  2.64772571
   4.13696450  0.79197961  4.93241608
   1.37240166  7.18551979  7.20396062
   5.53397809  1.60699737  2.64772571
   6.92098288  0.80417373  4.96141815
   6.91368716  2.40141977  7.35435030
  -1.39099421  4.00590693  2.64772571
  -0.00651243  3.19193359  4.94806751
   1.37876657  2.36026384  7.53868470
   1.37894485  4.00590693  2.64772571
   2.74247129  3.18703244  4.95479892
   4.14744781  2.39176655  7.19824655
   4.14896701  4.00590693  2.64772571
   5.53620058  3.18867737  4.93570165
   5.51515448  4.77807021  7.18957960
  -2.77596374  6.40474453  2.64772571
  -1.38361352  5.60218471  4.95310483
   0.00447582  4.76260137  7.32732702
  -0.00602468  6.40474453  2.64772571
   1.36424785  5.59312471  4.93828737
   2.77224886  4.79546143  7.19951483
   2.76399748  6.40474453  2.64772571
   4.14245612  5.60637999  4.92493762
   8.30391716  0.00777231  0.38615421
   2.76395593  0.00777231  0.38615421
   5.53397809  0.00777231  0.38615421
   6.91894762  2.40660991  0.38615421
   1.37898640  2.40660991  0.38615421
   4.14900856  2.40660991  0.38615421
   5.53393654  4.80551947  0.38615421
  -0.00602468  4.80551947  0.38615421
   2.76399748  4.80551947  0.38615421
   1.46386920  0.55186442  9.02373224
   0.00392741  3.12161589  8.78285312
   1.48714418  0.41048757 10.19529575
 


--------------------------------------------------------------------------------------------------------


 k-point     1 :   0.1250 0.1250 0.0000  plane waves:   15951
 k-point     2 :  -0.1250 0.2500 0.0000  plane waves:   15951
 k-point     3 :  -0.2500 0.1250 0.0000  plane waves:   15951
 k-point     4 :   0.3750 0.1250 0.0000  plane waves:   15982
 k-point     5 :  -0.1250 0.5000 0.0000  plane waves:   15982
 k-point     6 :   0.5000 0.3750 0.0000  plane waves:   15982
 k-point     7 :  -0.3750 0.5000 0.0000  plane waves:   15982
 k-point     8 :   0.1250 0.3750 0.0000  plane waves:   15982
 k-point     9 :   0.5000-0.1250 0.0000  plane waves:   15982
 k-point    10 :  -0.3750 0.1250 0.0000  plane waves:   15967
 k-point    11 :  -0.1250-0.2500 0.0000  plane waves:   15967
 k-point    12 :   0.2500-0.3750 0.0000  plane waves:   15967
 k-point    13 :   0.3750-0.2500 0.0000  plane waves:   15967
 k-point    14 :   0.1250-0.3750 0.0000  plane waves:   15967
 k-point    15 :  -0.2500-0.1250 0.0000  plane waves:   15967
 k-point    16 :  -0.1250 0.1250 0.0000  plane waves:   15947
 k-point    17 :  -0.1250 0.0000 0.0000  plane waves:   15947
 k-point    18 :   0.0000-0.1250 0.0000  plane waves:   15947
 k-point    19 :   0.3750 0.3750 0.0000  plane waves:   16001
 k-point    20 :  -0.3750-0.2500 0.0000  plane waves:   16001
 k-point    21 :   0.2500 0.3750 0.0000  plane waves:   16001
 k-point    22 :  -0.3750 0.3750 0.0000  plane waves:   15956
 k-point    23 :  -0.3750 0.0000 0.0000  plane waves:   15956
 k-point    24 :   0.0000-0.3750 0.0000  plane waves:   15956

 maximum and minimum number of plane-waves per node :      2691     2615

 maximum number of plane-waves:     16001
 maximum index in each direction: 
   IXMAX=   13   IYMAX=   13   IZMAX=   25
   IXMIN=  -13   IYMIN=  -13   IZMIN=  -25


 real space projection operators:
  total allocation   :       9691.48 KBytes
  max/ min on nodes  :       1709.97       1434.33


 parallel 3D FFT for wavefunctions:
    minimum data exchange during FFTs selected (reduces bandwidth)
 parallel 3D FFT for charge:
    minimum data exchange during FFTs selected (reduces bandwidth)


 total amount of memory used by VASP MPI-rank0   101482. kBytes
=======================================================================

   base                                    :      30000. kBytes
   nonlr-proj                              :       3355. kBytes
   fftplans                                :       2350. kBytes
   grid                                    :       4208. kBytes
   one-center                              :        108. kBytes
   wavefun                                 :      61461. kBytes
 
     INWAV:  cpu time      0.0000: real time      0.0002
 Broyden mixing: mesh for mixing (old mesh)
   NGX = 27   NGY = 27   NGZ = 51
  (NGX  = 80   NGY  = 80   NGZ  =160)
  gives a total of  37179 points

 initial charge density was supplied:
 charge density of overlapping atoms calculated
 number of electron     376.0000000 magnetization 
 keeping initial charge density in first step


--------------------------------------------------------------------------------------------------------


 Maximum index for non-local projection operator          384
 Maximum index for augmentation-charges          596 (set IRDMAX)


--------------------------------------------------------------------------------------------------------


 First call to EWALD:  gamma=   0.178
 Maximum number of real-space cells   4x   4x   2
 Maximum number of reciprocal cells   2x   2x   4

    FEWALD:  cpu time      0.0063: real time      0.0064


--------------------------------------- Ionic step        1  -------------------------------------------




--------------------------------------- Iteration      1(   1)  ---------------------------------------


    POTLOK:  cpu time      0.0546: real time      0.0549
    SETDIJ:  cpu time      0.0156: real time      0.0156
     EDDAV:  cpu time     14.1490: real time     14.2376
       DOS:  cpu time      0.0365: real time      0.0366
    --------------------------------------------
      LOOP:  cpu time     14.2556: real time     14.3447

 eigenvalue-minimisations  : 10952
 total energy-change (2. order) : 0.2108468E+04  (-0.1522417E+05)
 number of electron     376.0000000 magnetization 
 augmentation part      376.0000000 magnetization 

 Free energy of the ion-electron system (eV)
  ---------------------------------------------------
  alpha Z        PSCENC =       918.22725072
  Ewald energy   TEWEN  =     22655.23147521
  -Hartree energ DENC   =    -55309.04501027
  -exchange      EXHF   =         0.00000000
  -V(xc)+E(xc)   XCENC  =      -993.38150275
  PAW double counting   =     29844.20032359   -27608.36462881
  entropy T*S    EENTRO =        -1.25504939
  eigenvalues    EBANDS =      2440.99180109
  atomic energy  EATOM  =     30161.86332653
  Solvation  Ediel_sol  =         0.00000000
  ---------------------------------------------------
  free energy    TOTEN  =      2108.46798592 eV

  energy without entropy =     2109.72303532  energy(sigma->0) =     2109.09551062


--------------------------------------------------------------------------------------------------------




--------------------------------------- Iteration      1(   2)  ---------------------------------------


     EDDAV:  cpu time     15.3701: real time     15.4715
       DOS:  cpu time      0.0346: real time      0.0347
    --------------------------------------------
      LOOP:  cpu time     15.4047: real time     15.5062

 eigenvalue-minimisations  : 11860
 total energy-change (2. order) :-0.2199444E+04  (-0.2070756E+04)
 number of electron     376.0000000 magnetization 
 augmentation part      376.0000000 magnetization 

 Free energy of the ion-electron system (eV)
  ---------------------------------------------------
  alpha Z        PSCENC =       918.22725072
  Ewald energy   TEWEN  =     22655.23147521
  -Hartree energ DENC   =    -55309.04501027
  -exchange      EXHF   =         0.00000000
  -V(xc)+E(xc)   XCENC  =      -993.38150275
  PAW double counting   =     29844.20032359   -27608.36462881
  entropy T*S    EENTRO =        -3.34296343
  eigenvalues    EBANDS =       243.63531115
  atomic energy  EATOM  =     30161.86332653
  Solvation  Ediel_sol  =         0.00000000
  ---------------------------------------------------
  free energy    TOTEN  =       -90.97641805 eV

  energy without entropy =      -87.63345462  energy(sigma->0) =      -89.30493634


--------------------------------------------------------------------------------------------------------




--------------------------------------- Iteration      1(   3)  ---------------------------------------


     EDDAV:  cpu time     16.1292: real time     16.2315
       DOS:  cpu time      0.0336: real time      0.0338
    --------------------------------------------
      LOOP:  cpu time     16.1628: real time     16.2652

 eigenvalue-minimisations  : 12360
 total energy-change (2. order) :-0.1188783E+03  (-0.1075662E+03)
 number of electron     376.0000000 magnetization 
 augmentation part      376.0000000 magnetization 

 Free energy of the ion-electron system (eV)
  ---------------------------------------------------
  alpha Z        PSCENC =       918.22725072
  Ewald energy   TEWEN  =     22655.23147521
  -Hartree energ DENC   =    -55309.04501027
  -exchange      EXHF   =         0.00000000
  -V(xc)+E(xc)   XCENC  =      -993.38150275
  PAW double counting   =     29844.20032359   -27608.36462881
  entropy T*S    EENTRO =        -5.16993152
  eigenvalues    EBANDS =       126.58393436
  atomic energy  EATOM  =     30161.86332653
  Solvation  Ediel_sol  =         0.00000000
  ---------------------------------------------------
  free energy    TOTEN  =      -209.85476293 eV

  energy without entropy =     -204.68483141  energy(sigma->0) =     -207.26979717


--------------------------------------------------------------------------------------------------------




--------------------------------------- Iteration      1(   4)  ---------------------------------------


     EDDAV:  cpu time     16.7161: real time     16.8234
       DOS:  cpu time      0.0347: real time      0.0349
    --------------------------------------------
      LOOP:  cpu time     16.7508: real time     16.8583

 eigenvalue-minimisations  : 12648
 total energy-change (2. order) :-0.4053099E+01  (-0.3965675E+01)
 number of electron     376.0000000 magnetization 
 augmentation part      376.0000000 magnetization 

 Free energy of the ion-electron system (eV)
  ---------------------------------------------------
  alpha Z        PSCENC =       918.22725072
  Ewald energy   TEWEN  =     22655.23147521
  -Hartree energ DENC   =    -55309.04501027
  -exchange      EXHF   =         0.00000000
  -V(xc)+E(xc)   XCENC  =      -993.38150275
  PAW double counting   =     29844.20032359   -27608.36462881
  entropy T*S    EENTRO =        -5.24211166
  eigenvalues    EBANDS =       122.60301529
  atomic energy  EATOM  =     30161.86332653
  Solvation  Ediel_sol  =         0.00000000
  ---------------------------------------------------
  free energy    TOTEN  =      -213.90786214 eV

  energy without entropy =     -208.66575048  energy(sigma->0) =     -211.28680631


--------------------------------------------------------------------------------------------------------




--------------------------------------- Iteration      1(   5)  ---------------------------------------


     EDDAV:  cpu time     17.0877: real time     17.1963
       DOS:  cpu time      0.0321: real time      0.0323
    CHARGE:  cpu time      0.2717: real time      0.2727
    MIXING:  cpu time      0.0883: real time      0.0886
    --------------------------------------------
      LOOP:  cpu time     17.4798: real time     17.5899

 eigenvalue-minimisations  : 13032
 total energy-change (2. order) :-0.1286466E+00  (-0.1283842E+00)
 number of electron     376.0000008 magnetization 
 augmentation part      146.2397027 magnetization 

 Broyden mixing:
  rms(total) = 0.41204E+01    rms(broyden)= 0.41198E+01
  rms(prec ) = 0.43077E+01
  weight for this iteration     100.00

 Free energy of the ion-electron system (eV)
  ---------------------------------------------------
  alpha Z        PSCENC =       918.22725072
  Ewald energy   TEWEN  =     22655.23147521
  -Hartree energ DENC   =    -55309.04501027
  -exchange      EXHF   =         0.00000000
  -V(xc)+E(xc)   XCENC  =      -993.38150275
  PAW double counting   =     29844.20032359   -27608.36462881
  entropy T*S    EENTRO =        -5.24361357
  eigenvalues    EBANDS =       122.47587059
  atomic energy  EATOM  =     30161.86332653
  Solvation  Ediel_sol  =         0.00000000
  ---------------------------------------------------
  free energy    TOTEN  =      -214.03650876 eV

  energy without entropy =     -208.79289519  energy(sigma->0) =     -211.41470197


--------------------------------------------------------------------------------------------------------




--------------------------------------- Iteration      1(   6)  ---------------------------------------


    POTLOK:  cpu time      0.0549: real time      0.0576
    SETDIJ:  cpu time      0.0156: real time      0.0157
     EDDAV:  cpu time     15.6751: real time     15.7800
       DOS:  cpu time      0.0323: real time      0.0325
    CHARGE:  cpu time      0.2692: real time      0.2703
    MIXING:  cpu time      0.0880: real time      0.0882
    --------------------------------------------
      LOOP:  cpu time     16.1351: real time     16.2442

 eigenvalue-minimisations  : 11908
 total energy-change (2. order) : 0.6983986E+01  (-0.4755010E+01)
 number of electron     376.0000001 magnetization 
 augmentation part      153.1501558 magnetization 

 Broyden mixing:
  rms(total) = 0.27697E+01    rms(broyden)= 0.27691E+01
  rms(prec ) = 0.31651E+01
  weight for this iteration     100.00

 eigenvalues of (default mixing * dielectric matrix)
  average eigenvalue GAMMA=   0.8918
  0.8918

 Free energy of the ion-electron system (eV)
  ---------------------------------------------------
  alpha Z        PSCENC =       918.22725072
  Ewald energy   TEWEN  =     22655.23147521
  -Hartree energ DENC   =    -55100.12792329
  -exchange      EXHF   =         0.00000000
  -V(xc)+E(xc)   XCENC  =      -998.92910849
  PAW double counting   =     31920.42078893   -29729.31564695
  entropy T*S    EENTRO =        -4.68695970
  eigenvalues    EBANDS =       -29.73572578
  atomic energy  EATOM  =     30161.86332653
  Solvation  Ediel_sol  =         0.00000000
  ---------------------------------------------------
  free energy    TOTEN  =      -207.05252282 eV

  energy without entropy =     -202.36556312  energy(sigma->0) =     -204.70904297


--------------------------------------------------------------------------------------------------------




--------------------------------------- Iteration      1(   7)  ---------------------------------------


    POTLOK:  cpu time      0.0532: real time      0.0536
    SETDIJ:  cpu time      0.0155: real time      0.0155
     EDDAV:  cpu time     16.6603: real time     16.7708
       DOS:  cpu time      0.0351: real time      0.0352
    CHARGE:  cpu time      0.2718: real time      0.2731
    MIXING:  cpu time      0.0879: real time      0.0881
    --------------------------------------------
      LOOP:  cpu time     17.1239: real time     17.2364

 eigenvalue-minimisations  : 13052
 total energy-change (2. order) :-0.1437966E+02  (-0.2498028E+01)
 number of electron     376.0000013 magnetization 
 augmentation part      151.3918211 magnetization 

 Broyden mixing:
  rms(total) = 0.37104E+01    rms(broyden)= 0.37101E+01
  rms(prec ) = 0.60884E+01
  weight for this iteration     100.00

 eigenvalues of (default mixing * dielectric matrix)
  average eigenvalue GAMMA=   0.7760
  1.2835  0.2684

 Free energy of the ion-electron system (eV)
  ---------------------------------------------------
  alpha Z        PSCENC =       918.22725072
  Ewald energy   TEWEN  =     22655.23147521
  -Hartree energ DENC   =    -55152.10824179
  -exchange      EXHF   =         0.00000000
  -V(xc)+E(xc)   XCENC  =     -1000.38300477
  PAW double counting   =     32955.07640071   -30774.63352903
  entropy T*S    EENTRO =        -3.78958250
  eigenvalues    EBANDS =        19.08372504
  atomic energy  EATOM  =     30161.86332653
  Solvation  Ediel_sol  =         0.00000000
  ---------------------------------------------------
  free energy    TOTEN  =      -221.43217988 eV

  energy without entropy =     -217.64259738  energy(sigma->0) =     -219.53738863


--------------------------------------------------------------------------------------------------------




--------------------------------------- Iteration      1(   8)  ---------------------------------------


    POTLOK:  cpu time      0.0540: real time      0.0554
    SETDIJ:  cpu time      0.0153: real time      0.0155
     EDDAV:  cpu time     16.3122: real time     16.4157
       DOS:  cpu time      0.0333: real time      0.0334
    CHARGE:  cpu time      0.2706: real time      0.2717
    MIXING:  cpu time      0.0881: real time      0.0883
    --------------------------------------------
      LOOP:  cpu time     16.7735: real time     16.8800

 eigenvalue-minimisations  : 12616
 total energy-change (2. order) : 0.9599048E+01  (-0.3008342E+01)
 number of electron     376.0000000 magnetization 
 augmentation part      151.9656391 magnetization 

 Broyden mixing:
  rms(total) = 0.23354E+01    rms(broyden)= 0.23349E+01
  rms(prec ) = 0.37713E+01
  weight for this iteration     100.00

 eigenvalues of (default mixing * dielectric matrix)
  average eigenvalue GAMMA=   0.8324
  1.8567  0.4885  0.1521

 Free energy of the ion-electron system (eV)
  ---------------------------------------------------
  alpha Z        PSCENC =       918.22725072
  Ewald energy   TEWEN  =     22655.23147521
  -Hartree energ DENC   =    -55167.82801114
  -exchange      EXHF   =         0.00000000
  -V(xc)+E(xc)   XCENC  =     -1000.91777684
  PAW double counting   =     33589.77547410   -31417.55301868
  entropy T*S    EENTRO =        -4.76967843
  eigenvalues    EBANDS =        54.13782704
  atomic energy  EATOM  =     30161.86332653
  Solvation  Ediel_sol  =         0.00000000
  ---------------------------------------------------
  free energy    TOTEN  =      -211.83313150 eV

  energy without entropy =     -207.06345307  energy(sigma->0) =     -209.44829228


--------------------------------------------------------------------------------------------------------




--------------------------------------- Iteration      1(   9)  ---------------------------------------


    POTLOK:  cpu time      0.0531: real time      0.0535
    SETDIJ:  cpu time      0.0156: real time      0.0157
     EDDAV:  cpu time     17.8639: real time     17.9790
       DOS:  cpu time      0.0352: real time      0.0353
    CHARGE:  cpu time      0.2697: real time      0.2708
    MIXING:  cpu time      0.0883: real time      0.0885
    --------------------------------------------
      LOOP:  cpu time     18.3259: real time     18.4428

 eigenvalue-minimisations  : 14024
 total energy-change (2. order) : 0.2613098E+01  (-0.1469271E+01)
 number of electron     376.0000025 magnetization 
 augmentation part      152.7730478 magnetization 

 Broyden mixing:
  rms(total) = 0.25703E+01    rms(broyden)= 0.25699E+01
  rms(prec ) = 0.36984E+01
  weight for this iteration     100.00

 eigenvalues of (default mixing * dielectric matrix)
  average eigenvalue GAMMA=   0.7050
  1.9617  0.4706  0.2516  0.1363

 Free energy of the ion-electron system (eV)
  ---------------------------------------------------
  alpha Z        PSCENC =       918.22725072
  Ewald energy   TEWEN  =     22655.23147521
  -Hartree energ DENC   =    -55158.73303880
  -exchange      EXHF   =         0.00000000
  -V(xc)+E(xc)   XCENC  =     -1000.67240019
  PAW double counting   =     34655.16334533   -32496.58722023
  entropy T*S    EENTRO =        -4.16715227
  eigenvalues    EBANDS =        60.45437982
  atomic energy  EATOM  =     30161.86332653
  Solvation  Ediel_sol  =         0.00000000
  ---------------------------------------------------
  free energy    TOTEN  =      -209.22003389 eV

  energy without entropy =     -205.05288162  energy(sigma->0) =     -207.13645775


--------------------------------------------------------------------------------------------------------




--------------------------------------- Iteration      1(  10)  ---------------------------------------


    POTLOK:  cpu time      0.0536: real time      0.0546
    SETDIJ:  cpu time      0.0155: real time      0.0156
     EDDAV:  cpu time     15.3413: real time     15.4379
       DOS:  cpu time      0.0340: real time      0.0341
    CHARGE:  cpu time      0.2694: real time      0.2705
    MIXING:  cpu time      0.0883: real time      0.0886
    --------------------------------------------
      LOOP:  cpu time     15.8022: real time     15.9012

 eigenvalue-minimisations  : 11292
 total energy-change (2. order) : 0.5982459E+01  (-0.1366195E+01)
 number of electron     376.0000004 magnetization 
 augmentation part      152.7290856 magnetization 

 Broyden mixing:
  rms(total) = 0.62717E+00    rms(broyden)= 0.62678E+00
  rms(prec ) = 0.94033E+00
  weight for this iteration     100.00

 eigenvalues of (default mixing * dielectric matrix)
  average eigenvalue GAMMA=   0.7383
  2.1222  0.7164  0.4989  0.2235  0.1303

 Free energy of the ion-electron system (eV)
  ---------------------------------------------------
  alpha Z        PSCENC =       918.22725072
  Ewald energy   TEWEN  =     22655.23147521
  -Hartree energ DENC   =    -55158.22007350
  -exchange      EXHF   =         0.00000000
  -V(xc)+E(xc)   XCENC  =     -1000.64956299
  PAW double counting   =     34896.94690548   -32740.64771409
  entropy T*S    EENTRO =        -5.13483762
  eigenvalues    EBANDS =        69.14565508
  atomic energy  EATOM  =     30161.86332653
  Solvation  Ediel_sol  =         0.00000000
  ---------------------------------------------------
  free energy    TOTEN  =      -203.23757518 eV

  energy without entropy =     -198.10273757  energy(sigma->0) =     -200.67015637


--------------------------------------------------------------------------------------------------------




--------------------------------------- Iteration      1(  11)  ---------------------------------------


    POTLOK:  cpu time      0.0531: real time      0.0536
    SETDIJ:  cpu time      0.0155: real time      0.0156
     EDDAV:  cpu time     15.0624: real time     15.1571
       DOS:  cpu time      0.0298: real time      0.0299
    CHARGE:  cpu time      0.2693: real time      0.2703
    MIXING:  cpu time      0.0887: real time      0.0890
    --------------------------------------------
      LOOP:  cpu time     15.5187: real time     15.6153

 eigenvalue-minimisations  : 11516
 total energy-change (2. order) :-0.9856614E+00  (-0.5126731E+00)
 number of electron     376.0000008 magnetization 
 augmentation part      152.9038664 magnetization 

 Broyden mixing:
  rms(total) = 0.12719E+01    rms(broyden)= 0.12717E+01
  rms(prec ) = 0.16726E+01
  weight for this iteration     100.00

 eigenvalues of (default mixing * dielectric matrix)
  average eigenvalue GAMMA=   0.6640
  2.1961  0.7816  0.4728  0.2352  0.1268  0.1716

 Free energy of the ion-electron system (eV)
  ---------------------------------------------------
  alpha Z        PSCENC =       918.22725072
  Ewald energy   TEWEN  =     22655.23147521
  -Hartree energ DENC   =    -55139.15110867
  -exchange      EXHF   =         0.00000000
  -V(xc)+E(xc)   XCENC  =     -1000.28781001
  PAW double counting   =     35132.44141879   -32977.85522077
  entropy T*S    EENTRO =        -4.76647949
  eigenvalues    EBANDS =        50.07391110
  atomic energy  EATOM  =     30161.86332653
  Solvation  Ediel_sol  =         0.00000000
  ---------------------------------------------------
  free energy    TOTEN  =      -204.22323658 eV

  energy without entropy =     -199.45675709  energy(sigma->0) =     -201.83999684


--------------------------------------------------------------------------------------------------------




--------------------------------------- Iteration      1(  12)  ---------------------------------------


    POTLOK:  cpu time      0.0533: real time      0.0553
    SETDIJ:  cpu time      0.0155: real time      0.0155
     EDDAV:  cpu time     14.9306: real time     15.0247
       DOS:  cpu time      0.0343: real time      0.0344
    CHARGE:  cpu time      0.2690: real time      0.2701
    MIXING:  cpu time      0.0890: real time      0.0892
    --------------------------------------------
      LOOP:  cpu time     15.3918: real time     15.4893

 eigenvalue-minimisations  : 11360
 total energy-change (2. order) : 0.1279887E+01  (-0.2076202E+00)
 number of electron     376.0000008 magnetization 
 augmentation part      152.7350610 magnetization 

 Broyden mixing:
  rms(total) = 0.44375E+00    rms(broyden)= 0.44357E+00
  rms(prec ) = 0.58803E+00
  weight for this iteration     100.00

 eigenvalues of (default mixing * dielectric matrix)
  average eigenvalue GAMMA=   0.6453
  2.2069  0.8165  0.4550  0.4550  0.1304  0.2266  0.2266

 Free energy of the ion-electron system (eV)
  ---------------------------------------------------
  alpha Z        PSCENC =       918.22725072
  Ewald energy   TEWEN  =     22655.23147521
  -Hartree energ DENC   =    -55163.57766194
  -exchange      EXHF   =         0.00000000
  -V(xc)+E(xc)   XCENC  =     -1000.27309872
  PAW double counting   =     35286.05833340   -33132.71006532
  entropy T*S    EENTRO =        -5.02914459
  eigenvalues    EBANDS =        77.26623524
  atomic energy  EATOM  =     30161.86332653
  Solvation  Ediel_sol  =         0.00000000
  ---------------------------------------------------
  free energy    TOTEN  =      -202.94334946 eV

  energy without entropy =     -197.91420487  energy(sigma->0) =     -200.42877716


--------------------------------------------------------------------------------------------------------




--------------------------------------- Iteration      1(  13)  ---------------------------------------


    POTLOK:  cpu time      0.0531: real time      0.0534
    SETDIJ:  cpu time      0.0156: real time      0.0156
     EDDAV:  cpu time     14.8236: real time     14.9198
       DOS:  cpu time      0.0346: real time      0.0347
    CHARGE:  cpu time      0.2696: real time      0.2707
    MIXING:  cpu time      0.0892: real time      0.0894
    --------------------------------------------
      LOOP:  cpu time     15.2857: real time     15.3837

 eigenvalue-minimisations  : 11260
 total energy-change (2. order) : 0.3797680E-01  (-0.8390893E-01)
 number of electron     376.0000008 magnetization 
 augmentation part      152.7385090 magnetization 

 Broyden mixing:
  rms(total) = 0.44803E+00    rms(broyden)= 0.44797E+00
  rms(prec ) = 0.56751E+00
  weight for this iteration     100.00

 eigenvalues of (default mixing * dielectric matrix)
  average eigenvalue GAMMA=   0.6770
  2.2279  0.9398  0.9398  0.5275  0.2521  0.2289  0.1301  0.1699

 Free energy of the ion-electron system (eV)
  ---------------------------------------------------
  alpha Z        PSCENC =       918.22725072
  Ewald energy   TEWEN  =     22655.23147521
  -Hartree energ DENC   =    -55158.96748882
  -exchange      EXHF   =         0.00000000
  -V(xc)+E(xc)   XCENC  =     -1000.22293355
  PAW double counting   =     35312.56723387   -33159.24789713
  entropy T*S    EENTRO =        -5.03075198
  eigenvalues    EBANDS =        72.67441248
  atomic energy  EATOM  =     30161.86332653
  Solvation  Ediel_sol  =         0.00000000
  ---------------------------------------------------
  free energy    TOTEN  =      -202.90537266 eV

  energy without entropy =     -197.87462069  energy(sigma->0) =     -200.38999667


--------------------------------------------------------------------------------------------------------




--------------------------------------- Iteration      1(  14)  ---------------------------------------


    POTLOK:  cpu time      0.0535: real time      0.0547
    SETDIJ:  cpu time      0.0156: real time      0.0157
     EDDAV:  cpu time     15.3960: real time     15.4944
       DOS:  cpu time      0.0325: real time      0.0326
    CHARGE:  cpu time      0.2696: real time      0.2706
    MIXING:  cpu time      0.0893: real time      0.0896
    --------------------------------------------
      LOOP:  cpu time     15.8563: real time     15.9576

 eigenvalue-minimisations  : 11892
 total energy-change (2. order) : 0.6079309E-01  (-0.4048921E-01)
 number of electron     376.0000008 magnetization 
 augmentation part      152.6208590 magnetization 

 Broyden mixing:
  rms(total) = 0.25411E+00    rms(broyden)= 0.25403E+00
  rms(prec ) = 0.31395E+00
  weight for this iteration     100.00

 eigenvalues of (default mixing * dielectric matrix)
  average eigenvalue GAMMA=   0.6629
  2.2517  1.0637  1.0637  0.4895  0.2860  0.2860  0.1303  0.2110  0.1844

 Free energy of the ion-electron system (eV)
  ---------------------------------------------------
  alpha Z        PSCENC =       918.22725072
  Ewald energy   TEWEN  =     22655.23147521
  -Hartree energ DENC   =    -55171.26159659
  -exchange      EXHF   =         0.00000000
  -V(xc)+E(xc)   XCENC  =     -1000.24485431
  PAW double counting   =     35337.56873214   -33184.26039584
  entropy T*S    EENTRO =        -5.09736547
  eigenvalues    EBANDS =        85.12884805
  atomic energy  EATOM  =     30161.86332653
  Solvation  Ediel_sol  =         0.00000000
  ---------------------------------------------------
  free energy    TOTEN  =      -202.84457957 eV

  energy without entropy =     -197.74721410  energy(sigma->0) =     -200.29589684


--------------------------------------------------------------------------------------------------------




--------------------------------------- Iteration      1(  15)  ---------------------------------------


    POTLOK:  cpu time      0.0532: real time      0.0534
    SETDIJ:  cpu time      0.0159: real time      0.0160
     EDDAV:  cpu time     14.5966: real time     14.7030
       DOS:  cpu time      0.0351: real time      0.0352
    CHARGE:  cpu time      0.2695: real time      0.2705
    MIXING:  cpu time      0.0898: real time      0.0901
    --------------------------------------------
      LOOP:  cpu time     15.0601: real time     15.1683

 eigenvalue-minimisations  : 11144
 total energy-change (2. order) : 0.4813285E-01  (-0.1685975E-01)
 number of electron     376.0000007 magnetization 
 augmentation part      152.6199460 magnetization 

 Broyden mixing:
  rms(total) = 0.16375E+00    rms(broyden)= 0.16371E+00
  rms(prec ) = 0.20417E+00
  weight for this iteration     100.00

 eigenvalues of (default mixing * dielectric matrix)
  average eigenvalue GAMMA=   0.7083
  2.3544  1.3080  1.3080  0.5253  0.5253  0.3045  0.1303  0.2264  0.2264  0.1748

 Free energy of the ion-electron system (eV)
  ---------------------------------------------------
  alpha Z        PSCENC =       918.22725072
  Ewald energy   TEWEN  =     22655.23147521
  -Hartree energ DENC   =    -55173.83097982
  -exchange      EXHF   =         0.00000000
  -V(xc)+E(xc)   XCENC  =     -1000.21853006
  PAW double counting   =     35341.11526006   -33187.79029790
  entropy T*S    EENTRO =        -5.11205890
  eigenvalues    EBANDS =        87.71810744
  atomic energy  EATOM  =     30161.86332653
  Solvation  Ediel_sol  =         0.00000000
  ---------------------------------------------------
  free energy    TOTEN  =      -202.79644672 eV

  energy without entropy =     -197.68438782  energy(sigma->0) =     -200.24041727


--------------------------------------------------------------------------------------------------------




--------------------------------------- Iteration      1(  16)  ---------------------------------------


    POTLOK:  cpu time      0.0537: real time      0.0556
    SETDIJ:  cpu time      0.0154: real time      0.0155
     EDDAV:  cpu time     15.2254: real time     15.3227
       DOS:  cpu time      0.0345: real time      0.0346
    CHARGE:  cpu time      0.2696: real time      0.2707
    MIXING:  cpu time      0.0901: real time      0.0904
    --------------------------------------------
      LOOP:  cpu time     15.6887: real time     15.7895

 eigenvalue-minimisations  : 11632
 total energy-change (2. order) : 0.2242453E-01  (-0.5650257E-02)
 number of electron     376.0000008 magnetization 
 augmentation part      152.6317788 magnetization 

 Broyden mixing:
  rms(total) = 0.10114E+00    rms(broyden)= 0.10112E+00
  rms(prec ) = 0.12664E+00
  weight for this iteration     100.00

 eigenvalues of (default mixing * dielectric matrix)
  average eigenvalue GAMMA=   0.7002
  2.4190  1.5044  1.2766  0.5493  0.5493  0.3238  0.3238  0.1303  0.2322  0.2165
  0.1766

 Free energy of the ion-electron system (eV)
  ---------------------------------------------------
  alpha Z        PSCENC =       918.22725072
  Ewald energy   TEWEN  =     22655.23147521
  -Hartree energ DENC   =    -55178.99715050
  -exchange      EXHF   =         0.00000000
  -V(xc)+E(xc)   XCENC  =     -1000.13792068
  PAW double counting   =     35337.27871010   -33183.94249456
  entropy T*S    EENTRO =        -5.09712430
  eigenvalues    EBANDS =        92.79990529
  atomic energy  EATOM  =     30161.86332653
  Solvation  Ediel_sol  =         0.00000000
  ---------------------------------------------------
  free energy    TOTEN  =      -202.77402219 eV

  energy without entropy =     -197.67689790  energy(sigma->0) =     -200.22546005


--------------------------------------------------------------------------------------------------------




--------------------------------------- Iteration      1(  17)  ---------------------------------------


    POTLOK:  cpu time      0.0533: real time      0.0536
    SETDIJ:  cpu time      0.0154: real time      0.0155
     EDDAV:  cpu time     14.8684: real time     14.9619
       DOS:  cpu time      0.0324: real time      0.0325
    CHARGE:  cpu time      0.2700: real time      0.2711
    MIXING:  cpu time      0.0904: real time      0.0907
    --------------------------------------------
      LOOP:  cpu time     15.3299: real time     15.4252

 eigenvalue-minimisations  : 11296
 total energy-change (2. order) : 0.7275214E-02  (-0.2770278E-02)
 number of electron     376.0000007 magnetization 
 augmentation part      152.6281202 magnetization 

 Broyden mixing:
  rms(total) = 0.62589E-01    rms(broyden)= 0.62576E-01
  rms(prec ) = 0.83243E-01
  weight for this iteration     100.00

 eigenvalues of (default mixing * dielectric matrix)
  average eigenvalue GAMMA=   0.7217
  2.4167  1.6075  1.3526  0.6904  0.6904  0.5739  0.1303  0.3059  0.1760  0.2725
  0.2223  0.2223

 Free energy of the ion-electron system (eV)
  ---------------------------------------------------
  alpha Z        PSCENC =       918.22725072
  Ewald energy   TEWEN  =     22655.23147521
  -Hartree energ DENC   =    -55182.26413913
  -exchange      EXHF   =         0.00000000
  -V(xc)+E(xc)   XCENC  =     -1000.09648027
  PAW double counting   =     35331.01706604   -33177.62139729
  entropy T*S    EENTRO =        -5.10362479
  eigenvalues    EBANDS =        95.97977601
  atomic energy  EATOM  =     30161.86332653
  Solvation  Ediel_sol  =         0.00000000
  ---------------------------------------------------
  free energy    TOTEN  =      -202.76674698 eV

  energy without entropy =     -197.66312219  energy(sigma->0) =     -200.21493458


--------------------------------------------------------------------------------------------------------




--------------------------------------- Iteration      1(  18)  ---------------------------------------


    POTLOK:  cpu time      0.0533: real time      0.0546
    SETDIJ:  cpu time      0.0154: real time      0.0155
     EDDAV:  cpu time     15.0834: real time     15.1785
       DOS:  cpu time      0.0341: real time      0.0342
    CHARGE:  cpu time      0.2701: real time      0.2711
    MIXING:  cpu time      0.0905: real time      0.0910
    --------------------------------------------
      LOOP:  cpu time     15.5467: real time     15.6449

 eigenvalue-minimisations  : 11460
 total energy-change (2. order) : 0.1917660E-02  (-0.1193122E-02)
 number of electron     376.0000007 magnetization 
 augmentation part      152.6217194 magnetization 

 Broyden mixing:
  rms(total) = 0.41960E-01    rms(broyden)= 0.41951E-01
  rms(prec ) = 0.55302E-01
  weight for this iteration     100.00

 eigenvalues of (default mixing * dielectric matrix)
  average eigenvalue GAMMA=   0.6986
  2.4347  1.5477  1.4052  0.7573  0.7573  0.5435  0.1303  0.3111  0.3111  0.1759
  0.2680  0.2199  0.2199

 Free energy of the ion-electron system (eV)
  ---------------------------------------------------
  alpha Z        PSCENC =       918.22725072
  Ewald energy   TEWEN  =     22655.23147521
  -Hartree energ DENC   =    -55186.64849718
  -exchange      EXHF   =         0.00000000
  -V(xc)+E(xc)   XCENC  =     -1000.06305305
  PAW double counting   =     35317.74816916   -33164.26114469
  entropy T*S    EENTRO =        -5.11332496
  eigenvalues    EBANDS =       100.25096893
  atomic energy  EATOM  =     30161.86332653
  Solvation  Ediel_sol  =         0.00000000
  ---------------------------------------------------
  free energy    TOTEN  =      -202.76482932 eV

  energy without entropy =     -197.65150436  energy(sigma->0) =     -200.20816684


--------------------------------------------------------------------------------------------------------




--------------------------------------- Iteration      1(  19)  ---------------------------------------


    POTLOK:  cpu time      0.0530: real time      0.0533
    SETDIJ:  cpu time      0.0155: real time      0.0155
     EDDAV:  cpu time     14.9396: real time     15.0328
       DOS:  cpu time      0.0333: real time      0.0334
    CHARGE:  cpu time      0.2690: real time      0.2700
    MIXING:  cpu time      0.0911: real time      0.0913
    --------------------------------------------
      LOOP:  cpu time     15.4014: real time     15.4964

 eigenvalue-minimisations  : 11364
 total energy-change (2. order) : 0.1032110E-02  (-0.3663523E-03)
 number of electron     376.0000007 magnetization 
 augmentation part      152.6220752 magnetization 

 Broyden mixing:
  rms(total) = 0.27834E-01    rms(broyden)= 0.27831E-01
  rms(prec ) = 0.40930E-01
  weight for this iteration     100.00

 eigenvalues of (default mixing * dielectric matrix)
  average eigenvalue GAMMA=   0.7222
  2.4947  1.3978  1.3978  1.0762  1.0762  0.5307  0.5307  0.1303  0.3352  0.1759
  0.2810  0.2215  0.2215  0.2407

 Free energy of the ion-electron system (eV)
  ---------------------------------------------------
  alpha Z        PSCENC =       918.22725072
  Ewald energy   TEWEN  =     22655.23147521
  -Hartree energ DENC   =    -55188.18611790
  -exchange      EXHF   =         0.00000000
  -V(xc)+E(xc)   XCENC  =     -1000.05177069
  PAW double counting   =     35314.58197575   -33161.08527365
  entropy T*S    EENTRO =        -5.11462204
  eigenvalues    EBANDS =       101.76995886
  atomic energy  EATOM  =     30161.86332653
  Solvation  Ediel_sol  =         0.00000000
  ---------------------------------------------------
  free energy    TOTEN  =      -202.76379721 eV

  energy without entropy =     -197.64917517  energy(sigma->0) =     -200.20648619


--------------------------------------------------------------------------------------------------------




--------------------------------------- Iteration      1(  20)  ---------------------------------------


    POTLOK:  cpu time      0.0533: real time      0.0546
    SETDIJ:  cpu time      0.0154: real time      0.0154
     EDDAV:  cpu time     15.5026: real time     15.6013
       DOS:  cpu time      0.0323: real time      0.0324
    CHARGE:  cpu time      0.2696: real time      0.2707
    MIXING:  cpu time      0.0916: real time      0.0919
    --------------------------------------------
      LOOP:  cpu time     15.9647: real time     16.0663

 eigenvalue-minimisations  : 11860
 total energy-change (2. order) : 0.2184743E-03  (-0.1736040E-03)
 number of electron     376.0000007 magnetization 
 augmentation part      152.6253903 magnetization 

 Broyden mixing:
  rms(total) = 0.17933E-01    rms(broyden)= 0.17929E-01
  rms(prec ) = 0.24924E-01
  weight for this iteration     100.00

 eigenvalues of (default mixing * dielectric matrix)
  average eigenvalue GAMMA=   0.7489
  2.5702  1.7066  1.7066  1.1660  0.9952  0.5528  0.5528  0.4052  0.1303  0.2981
  0.2981  0.1759  0.2199  0.2199  0.2363

 Free energy of the ion-electron system (eV)
  ---------------------------------------------------
  alpha Z        PSCENC =       918.22725072
  Ewald energy   TEWEN  =     22655.23147521
  -Hartree energ DENC   =    -55191.03427128
  -exchange      EXHF   =         0.00000000
  -V(xc)+E(xc)   XCENC  =     -1000.03126207
  PAW double counting   =     35310.31720461   -33156.83245527
  entropy T*S    EENTRO =        -5.11051186
  eigenvalues    EBANDS =       104.60566468
  atomic energy  EATOM  =     30161.86332653
  Solvation  Ediel_sol  =         0.00000000
  ---------------------------------------------------
  free energy    TOTEN  =      -202.76357874 eV

  energy without entropy =     -197.65306688  energy(sigma->0) =     -200.20832281


--------------------------------------------------------------------------------------------------------




--------------------------------------- Iteration      1(  21)  ---------------------------------------


    POTLOK:  cpu time      0.0532: real time      0.0535
    SETDIJ:  cpu time      0.0157: real time      0.0158
     EDDAV:  cpu time     14.8662: real time     14.9624
       DOS:  cpu time      0.0324: real time      0.0325
    CHARGE:  cpu time      0.2686: real time      0.2696
    MIXING:  cpu time      0.0919: real time      0.0922
    --------------------------------------------
      LOOP:  cpu time     15.3281: real time     15.4261

 eigenvalue-minimisations  : 11344
 total energy-change (2. order) :-0.3892912E-04  (-0.1722242E-03)
 number of electron     376.0000007 magnetization 
 augmentation part      152.6266100 magnetization 

 Broyden mixing:
  rms(total) = 0.12831E-01    rms(broyden)= 0.12826E-01
  rms(prec ) = 0.17229E-01
  weight for this iteration     100.00

 eigenvalues of (default mixing * dielectric matrix)
  average eigenvalue GAMMA=   0.7575
  2.5605  1.8558  1.8558  1.1893  0.9450  0.7225  0.5726  0.5726  0.1303  0.3191
  0.2953  0.1759  0.2546  0.2194  0.2194  0.2320

 Free energy of the ion-electron system (eV)
  ---------------------------------------------------
  alpha Z        PSCENC =       918.22725072
  Ewald energy   TEWEN  =     22655.23147521
  -Hartree energ DENC   =    -55194.06631572
  -exchange      EXHF   =         0.00000000
  -V(xc)+E(xc)   XCENC  =     -1000.00914810
  PAW double counting   =     35303.09188250   -33149.59360899
  entropy T*S    EENTRO =        -5.10892982
  eigenvalues    EBANDS =       107.60044999
  atomic energy  EATOM  =     30161.86332653
  Solvation  Ediel_sol  =         0.00000000
  ---------------------------------------------------
  free energy    TOTEN  =      -202.76361767 eV

  energy without entropy =     -197.65468785  energy(sigma->0) =     -200.20915276


--------------------------------------------------------------------------------------------------------




--------------------------------------- Iteration      1(  22)  ---------------------------------------


    POTLOK:  cpu time      0.0531: real time      0.0544
    SETDIJ:  cpu time      0.0153: real time      0.0154
     EDDAV:  cpu time     15.0548: real time     15.1532
       DOS:  cpu time      0.0304: real time      0.0305
    CHARGE:  cpu time      0.2691: real time      0.2702
    MIXING:  cpu time      0.0928: real time      0.0931
    --------------------------------------------
      LOOP:  cpu time     15.5154: real time     15.6168

 eigenvalue-minimisations  : 11484
 total energy-change (2. order) :-0.7027360E-04  (-0.5713289E-04)
 number of electron     376.0000007 magnetization 
 augmentation part      152.6243965 magnetization 

 Broyden mixing:
  rms(total) = 0.87520E-02    rms(broyden)= 0.87505E-02
  rms(prec ) = 0.11712E-01
  weight for this iteration     100.00

 eigenvalues of (default mixing * dielectric matrix)
  average eigenvalue GAMMA=   0.7541
  2.4132  2.4132  1.2748  1.2748  1.1851  0.8978  0.5841  0.5841  0.1303  0.3294
  0.3294  0.2975  0.1759  0.2631  0.2200  0.2200  0.2275

 Free energy of the ion-electron system (eV)
  ---------------------------------------------------
  alpha Z        PSCENC =       918.22725072
  Ewald energy   TEWEN  =     22655.23147521
  -Hartree energ DENC   =    -55196.21757666
  -exchange      EXHF   =         0.00000000
  -V(xc)+E(xc)   XCENC  =      -999.99653098
  PAW double counting   =     35296.55930920   -33143.03287024
  entropy T*S    EENTRO =        -5.10893313
  eigenvalues    EBANDS =       109.71086141
  atomic energy  EATOM  =     30161.86332653
  Solvation  Ediel_sol  =         0.00000000
  ---------------------------------------------------
  free energy    TOTEN  =      -202.76368794 eV

  energy without entropy =     -197.65475481  energy(sigma->0) =     -200.20922137


--------------------------------------------------------------------------------------------------------




--------------------------------------- Iteration      1(  23)  ---------------------------------------


    POTLOK:  cpu time      0.0533: real time      0.0537
    SETDIJ:  cpu time      0.0154: real time      0.0155
     EDDAV:  cpu time     14.8431: real time     14.9401
       DOS:  cpu time      0.0321: real time      0.0322
    CHARGE:  cpu time      0.2693: real time      0.2704
    MIXING:  cpu time      0.0929: real time      0.0931
    --------------------------------------------
      LOOP:  cpu time     15.3062: real time     15.4050

 eigenvalue-minimisations  : 11328
[...]
   1.00000000000000        1.00000000000000        1.00000000000000     
   1.00000000000000        1.00000000000000        1.00000000000000     
  0.000000000000000E+000  0.000000000000000E+000  0.000000000000000E+000
   1.00000000000000        1.00000000000000        1.00000000000000     
   1.00000000000000        1.00000000000000        1.00000000000000     
  0.000000000000000E+000  0.000000000000000E+000  0.000000000000000E+000
   1.00000000000000        1.00000000000000        1.00000000000000     
   1.00000000000000        1.00000000000000        1.00000000000000     
  0.000000000000000E+000  0.000000000000000E+000  0.000000000000000E+000
   1.00000000000000        1.00000000000000        1.00000000000000     
   1.00000000000000        1.00000000000000        1.00000000000000     
  0.000000000000000E+000  0.000000000000000E+000  0.000000000000000E+000
   1.00000000000000        1.00000000000000        1.00000000000000     
   1.00000000000000        1.00000000000000        1.00000000000000     
  0.000000000000000E+000  0.000000000000000E+000  0.000000000000000E+000
   1.00000000000000        1.00000000000000        1.00000000000000     
   1.00000000000000        1.00000000000000        1.00000000000000     
  0.000000000000000E+000  0.000000000000000E+000  0.000000000000000E+000
   1.00000000000000        1.00000000000000        1.00000000000000     
  0.000000000000000E+000  0.000000000000000E+000  0.000000000000000E+000
  0.000000000000000E+000  0.000000000000000E+000  0.000000000000000E+000
  0.000000000000000E+000  0.000000000000000E+000  0.000000000000000E+000
  0.000000000000000E+000  0.000000000000000E+000  0.000000000000000E+000
  0.000000000000000E+000  0.000000000000000E+000  0.000000000000000E+000
  0.000000000000000E+000  0.000000000000000E+000  0.000000000000000E+000
  0.000000000000000E+000  0.000000000000000E+000  0.000000000000000E+000
  0.000000000000000E+000  0.000000000000000E+000  0.000000000000000E+000
  0.000000000000000E+000  0.000000000000000E+000  0.000000000000000E+000
   1.00000000000000        1.00000000000000        1.00000000000000     
   1.00000000000000        1.00000000000000        1.00000000000000     
   1.00000000000000        1.00000000000000        1.00000000000000     
 NEB: the previous image is higher in energy: F
 NEB: the next image is higher in energy    : F
 NEB: image is at an extrema
 NEB: diff energy (min, max):     0.033661  203.503809

 NEB: Tangent
 ----------------------------------------------
      0.00628      0.06105      0.00176
      0.00000      0.00000      0.00000
      0.01108      0.01275     -0.00757
      0.02711      0.05852      0.00372
      0.00000      0.00000      0.00000
      0.01012      0.01803      0.00651
      0.01676      0.03784      0.00209
      0.00000      0.00000      0.00000
      0.01146      0.01591      0.00323
      0.01786      0.04455      0.00732
      0.00000      0.00000      0.00000
      0.00568      0.01917     -0.01048
      0.03182      0.07293     -0.13220
      0.00000      0.00000      0.00000
      0.01856      0.01931     -0.01168
      0.02284      0.04632      0.00752
      0.00000      0.00000      0.00000
      0.01407      0.02746      0.02504
      0.02294      0.08383      0.11477
      0.00000      0.00000      0.00000
      0.00700      0.01470      0.01616
      0.01720      0.02960      0.02680
      0.00000      0.00000      0.00000
      0.00833      0.01663      0.00242
      0.01875      0.04182     -0.00425
      0.00000      0.00000      0.00000
      0.01693      0.01479      0.00890
      0.00000      0.00000      0.00000
      0.00000      0.00000      0.00000
      0.00000      0.00000      0.00000
      0.00000      0.00000      0.00000
      0.00000      0.00000      0.00000
      0.00000      0.00000      0.00000
      0.00000      0.00000      0.00000
      0.00000      0.00000      0.00000
      0.00000      0.00000      0.00000
      0.01091     -0.73078     -0.00517
      0.10700     -0.04505     -0.02633
      0.03886     -0.61741     -0.00680

 NEB: forces: par spring, perp REAL, dneb     0.086275    0.161385    0.000000
 NEB: distance to prev, next image, angle between     1.425748    1.443003  110.814654
 NEB: projections on to tangent (spring, REAL)     0.086275    0.304443

 stress matrix after NEB project (eV)
     -8.91622      0.14440     -0.41819
      0.14440    -10.29242     -1.40411
     -0.41819     -1.40411     -4.32639
 after stress write
 before force*Free
 force:  -1.826397130752554E-002  1.536247805906534E-002 -4.368854574999738E-002
  0.000000000000000E+000  0.000000000000000E+000  0.000000000000000E+000
 -2.402712613410745E-003  5.743332576163392E-003 -4.636919651363611E-003
 -8.618398351873190E-003  1.504710108817987E-002 -2.303013605786385E-002
  0.000000000000000E+000  0.000000000000000E+000  0.000000000000000E+000
 -7.474456285917944E-004  5.854399386465278E-003 -8.292662059617971E-003
 -5.072463980280029E-003  1.512946596729993E-002 -7.367173615130918E-003
  0.000000000000000E+000  0.000000000000000E+000  0.000000000000000E+000
 -6.268973757214747E-003  8.198849831046849E-003 -1.245053104939452E-002
 -8.767141961724678E-003  1.610956182085102E-002  2.135965672801394E-003
  0.000000000000000E+000  0.000000000000000E+000  0.000000000000000E+000
 -3.687684831417172E-004  1.719761592738743E-003  1.443231226062547E-003
 -7.054031358739013E-003  5.463405669760340E-003  1.682123575977369E-002
  0.000000000000000E+000  0.000000000000000E+000  0.000000000000000E+000
 -4.219695440932805E-003  6.774556389940627E-004  4.327862222667235E-003
 -6.337497331425804E-003  1.025653657003422E-002  3.750856962557503E-003
  0.000000000000000E+000  0.000000000000000E+000  0.000000000000000E+000
 -3.242104861823346E-003  4.302727520003087E-003  6.487697875417970E-003
 -5.373238216499880E-003  1.989974071785286E-002  3.362136984006533E-002
  0.000000000000000E+000  0.000000000000000E+000  0.000000000000000E+000
 -3.632421376053861E-003  1.932469369977218E-003 -1.745420685753412E-003
 -2.145131217894765E-003  1.824481073955949E-002 -1.673511063520754E-002
  0.000000000000000E+000  0.000000000000000E+000  0.000000000000000E+000
  1.068884791591293E-003  3.765707246011740E-003 -4.214940865472909E-003
 -7.390827450164377E-003  3.854108012710054E-003 -2.881584889431727E-005
  0.000000000000000E+000  0.000000000000000E+000  0.000000000000000E+000
 -9.136092128508983E-004 -1.475410794252763E-003 -1.492807697979800E-003
  0.000000000000000E+000  0.000000000000000E+000  0.000000000000000E+000
  0.000000000000000E+000  0.000000000000000E+000  0.000000000000000E+000
  0.000000000000000E+000  0.000000000000000E+000  0.000000000000000E+000
  0.000000000000000E+000  0.000000000000000E+000  0.000000000000000E+000
  0.000000000000000E+000  0.000000000000000E+000  0.000000000000000E+000
  0.000000000000000E+000  0.000000000000000E+000  0.000000000000000E+000
  0.000000000000000E+000  0.000000000000000E+000  0.000000000000000E+000
  0.000000000000000E+000  0.000000000000000E+000  0.000000000000000E+000
  0.000000000000000E+000  0.000000000000000E+000  0.000000000000000E+000
 -2.654865896192385E-002 -9.104449868478182E-002 -0.117068182636562     
 -1.300837994279566E-002  3.109078548675732E-002  5.858200702918570E-003
 -3.803922947742163E-002 -2.816389070947699E-002 -7.674488510565312E-003
 A:    8.30990028380000       0.000000000000000E+000  0.000000000000000E+000
  -4.15495014190000        7.19658474870000       0.000000000000000E+000
  0.000000000000000E+000  0.000000000000000E+000   16.5235004425000     
 B:   0.120338387447258       6.947740038638753E-002  0.000000000000000E+000
  0.000000000000000E+000  0.138954800772775       0.000000000000000E+000
  0.000000000000000E+000  0.000000000000000E+000  6.051986402517384E-002
 force:  -1.130511816493828E-003  2.134690078073552E-003 -2.644024848247428E-003
  0.000000000000000E+000  0.000000000000000E+000  0.000000000000000E+000
  1.098932555492514E-004  7.980636338925730E-004 -2.806257467961822E-004
  8.309306915398008E-006  2.090866933915840E-003 -1.393780702703173E-003
  0.000000000000000E+000  0.000000000000000E+000  0.000000000000000E+000
  3.168020485460313E-004  8.134969003905392E-004 -5.018707802547977E-004
  4.407438288711245E-004  2.102311929284642E-003 -4.458603454375716E-004
  0.000000000000000E+000  0.000000000000000E+000  0.000000000000000E+000
 -1.847634204728906E-004  1.139269544839015E-003 -7.535044461505612E-004
  6.422675048139460E-005  2.238500953353058E-003  1.292683520803793E-004
  0.000000000000000E+000  0.000000000000000E+000  0.000000000000000E+000
  7.510756014519578E-005  2.389691294956824E-004  8.734415755819026E-005
 -4.692875355218413E-004  7.591664463823978E-004  1.018018900916895E-003
  0.000000000000000E+000  0.000000000000000E+000  0.000000000000000E+000
 -4.607234882059918E-004  9.413571334881301E-005  2.619216332355077E-004
 -5.004671146118629E-005  1.425194995707786E-003  2.270013533518567E-004
  0.000000000000000E+000  0.000000000000000E+000  0.000000000000000E+000
 -9.120734834595261E-005  5.978846453215654E-004  3.926345932567048E-004
  7.359754310959883E-004  2.765164506879124E-003  2.034760731060835E-003
  0.000000000000000E+000  0.000000000000000E+000  0.000000000000000E+000
 -3.028567827709328E-004  2.685258963046745E-004 -1.056326225685222E-004
  1.009460389102010E-003  2.535204041452476E-003 -1.012806620089001E-003
  0.000000000000000E+000  0.000000000000000E+000  0.000000000000000E+000
  3.902594222560726E-004  5.232631001381567E-004 -2.550876480525690E-004
 -6.216268517222667E-004  5.355468110628816E-004 -1.743931256854037E-006
  0.000000000000000E+000  0.000000000000000E+000  0.000000000000000E+000
 -2.124499659181327E-004 -2.050154129733945E-004 -9.034451889747029E-005
  0.000000000000000E+000  0.000000000000000E+000  0.000000000000000E+000
  0.000000000000000E+000  0.000000000000000E+000  0.000000000000000E+000
  0.000000000000000E+000  0.000000000000000E+000  0.000000000000000E+000
  0.000000000000000E+000  0.000000000000000E+000  0.000000000000000E+000
  0.000000000000000E+000  0.000000000000000E+000  0.000000000000000E+000
  0.000000000000000E+000  0.000000000000000E+000  0.000000000000000E+000
  0.000000000000000E+000  0.000000000000000E+000  0.000000000000000E+000
  0.000000000000000E+000  0.000000000000000E+000  0.000000000000000E+000
  0.000000000000000E+000  0.000000000000000E+000  0.000000000000000E+000
 -9.520357896465619E-003 -1.265107017620104E-002 -7.084950494838978E-003
  5.946994859734466E-004  4.320213903181450E-003  3.545375099728097E-004
 -6.534333446309897E-003 -3.913507822521585E-003 -4.644590011221716E-004
 Free:    1.00000000000000        1.00000000000000        1.00000000000000     
  0.000000000000000E+000  0.000000000000000E+000  0.000000000000000E+000
   1.00000000000000        1.00000000000000        1.00000000000000     
   1.00000000000000        1.00000000000000        1.00000000000000     
  0.000000000000000E+000  0.000000000000000E+000  0.000000000000000E+000
   1.00000000000000        1.00000000000000        1.00000000000000     
   1.00000000000000        1.00000000000000        1.00000000000000     
  0.000000000000000E+000  0.000000000000000E+000  0.000000000000000E+000
   1.00000000000000        1.00000000000000        1.00000000000000     
   1.00000000000000        1.00000000000000        1.00000000000000     
  0.000000000000000E+000  0.000000000000000E+000  0.000000000000000E+000
   1.00000000000000        1.00000000000000        1.00000000000000     
   1.00000000000000        1.00000000000000        1.00000000000000     
  0.000000000000000E+000  0.000000000000000E+000  0.000000000000000E+000
   1.00000000000000        1.00000000000000        1.00000000000000     
   1.00000000000000        1.00000000000000        1.00000000000000     
  0.000000000000000E+000  0.000000000000000E+000  0.000000000000000E+000
   1.00000000000000        1.00000000000000        1.00000000000000     
   1.00000000000000        1.00000000000000        1.00000000000000     
  0.000000000000000E+000  0.000000000000000E+000  0.000000000000000E+000
   1.00000000000000        1.00000000000000        1.00000000000000     
   1.00000000000000        1.00000000000000        1.00000000000000     
  0.000000000000000E+000  0.000000000000000E+000  0.000000000000000E+000
   1.00000000000000        1.00000000000000        1.00000000000000     
   1.00000000000000        1.00000000000000        1.00000000000000     
  0.000000000000000E+000  0.000000000000000E+000  0.000000000000000E+000
   1.00000000000000        1.00000000000000        1.00000000000000     
  0.000000000000000E+000  0.000000000000000E+000  0.000000000000000E+000
  0.000000000000000E+000  0.000000000000000E+000  0.000000000000000E+000
  0.000000000000000E+000  0.000000000000000E+000  0.000000000000000E+000
  0.000000000000000E+000  0.000000000000000E+000  0.000000000000000E+000
  0.000000000000000E+000  0.000000000000000E+000  0.000000000000000E+000
  0.000000000000000E+000  0.000000000000000E+000  0.000000000000000E+000
  0.000000000000000E+000  0.000000000000000E+000  0.000000000000000E+000
  0.000000000000000E+000  0.000000000000000E+000  0.000000000000000E+000
  0.000000000000000E+000  0.000000000000000E+000  0.000000000000000E+000
   1.00000000000000        1.00000000000000        1.00000000000000     
   1.00000000000000        1.00000000000000        1.00000000000000     
   1.00000000000000        1.00000000000000        1.00000000000000     
 force:  -1.130511816493828E-003  2.134690078073552E-003 -2.644024848247428E-003
  0.000000000000000E+000  0.000000000000000E+000  0.000000000000000E+000
  1.098932555492514E-004  7.980636338925730E-004 -2.806257467961822E-004
  8.309306915398008E-006  2.090866933915840E-003 -1.393780702703173E-003
  0.000000000000000E+000  0.000000000000000E+000  0.000000000000000E+000
  3.168020485460313E-004  8.134969003905392E-004 -5.018707802547977E-004
  4.407438288711245E-004  2.102311929284642E-003 -4.458603454375716E-004
  0.000000000000000E+000  0.000000000000000E+000  0.000000000000000E+000
 -1.847634204728906E-004  1.139269544839015E-003 -7.535044461505612E-004
  6.422675048139460E-005  2.238500953353058E-003  1.292683520803793E-004
  0.000000000000000E+000  0.000000000000000E+000  0.000000000000000E+000
  7.510756014519578E-005  2.389691294956824E-004  8.734415755819026E-005
 -4.692875355218413E-004  7.591664463823978E-004  1.018018900916895E-003
  0.000000000000000E+000  0.000000000000000E+000  0.000000000000000E+000
 -4.607234882059918E-004  9.413571334881301E-005  2.619216332355077E-004
 -5.004671146118629E-005  1.425194995707786E-003  2.270013533518567E-004
  0.000000000000000E+000  0.000000000000000E+000  0.000000000000000E+000
 -9.120734834595261E-005  5.978846453215654E-004  3.926345932567048E-004
  7.359754310959883E-004  2.765164506879124E-003  2.034760731060835E-003
  0.000000000000000E+000  0.000000000000000E+000  0.000000000000000E+000
 -3.028567827709328E-004  2.685258963046745E-004 -1.056326225685222E-004
  1.009460389102010E-003  2.535204041452476E-003 -1.012806620089001E-003
  0.000000000000000E+000  0.000000000000000E+000  0.000000000000000E+000
  3.902594222560726E-004  5.232631001381567E-004 -2.550876480525690E-004
 -6.216268517222667E-004  5.355468110628816E-004 -1.743931256854037E-006
  0.000000000000000E+000  0.000000000000000E+000  0.000000000000000E+000
 -2.124499659181327E-004 -2.050154129733945E-004 -9.034451889747029E-005
  0.000000000000000E+000  0.000000000000000E+000  0.000000000000000E+000
  0.000000000000000E+000  0.000000000000000E+000  0.000000000000000E+000
  0.000000000000000E+000  0.000000000000000E+000  0.000000000000000E+000
  0.000000000000000E+000  0.000000000000000E+000  0.000000000000000E+000
  0.000000000000000E+000  0.000000000000000E+000  0.000000000000000E+000
  0.000000000000000E+000  0.000000000000000E+000  0.000000000000000E+000
  0.000000000000000E+000  0.000000000000000E+000  0.000000000000000E+000
  0.000000000000000E+000  0.000000000000000E+000  0.000000000000000E+000
  0.000000000000000E+000  0.000000000000000E+000  0.000000000000000E+000
 -9.520357896465619E-003 -1.265107017620104E-002 -7.084950494838978E-003
  5.946994859734466E-004  4.320213903181450E-003  3.545375099728097E-004
 -6.534333446309897E-003 -3.913507822521585E-003 -4.644590011221716E-004
 after force*Free
 -1.826397130752554E-002  1.536247805906534E-002 -4.368854574999738E-002
  0.000000000000000E+000  0.000000000000000E+000  0.000000000000000E+000
 -2.402712613410745E-003  5.743332576163392E-003 -4.636919651363610E-003
 -8.618398351873190E-003  1.504710108817986E-002 -2.303013605786385E-002
  0.000000000000000E+000  0.000000000000000E+000  0.000000000000000E+000
 -7.474456285917943E-004  5.854399386465278E-003 -8.292662059617971E-003
 -5.072463980280028E-003  1.512946596729993E-002 -7.367173615130917E-003
  0.000000000000000E+000  0.000000000000000E+000  0.000000000000000E+000
 -6.268973757214746E-003  8.198849831046849E-003 -1.245053104939452E-002
 -8.767141961724678E-003  1.610956182085102E-002  2.135965672801394E-003
  0.000000000000000E+000  0.000000000000000E+000  0.000000000000000E+000
 -3.687684831417172E-004  1.719761592738743E-003  1.443231226062547E-003
 -7.054031358739013E-003  5.463405669760340E-003  1.682123575977368E-002
  0.000000000000000E+000  0.000000000000000E+000  0.000000000000000E+000
 -4.219695440932805E-003  6.774556389940627E-004  4.327862222667235E-003
 -6.337497331425804E-003  1.025653657003422E-002  3.750856962557503E-003
  0.000000000000000E+000  0.000000000000000E+000  0.000000000000000E+000
 -3.242104861823346E-003  4.302727520003087E-003  6.487697875417970E-003
 -5.373238216499880E-003  1.989974071785286E-002  3.362136984006533E-002
  0.000000000000000E+000  0.000000000000000E+000  0.000000000000000E+000
 -3.632421376053861E-003  1.932469369977218E-003 -1.745420685753412E-003
 -2.145131217894765E-003  1.824481073955949E-002 -1.673511063520753E-002
  0.000000000000000E+000  0.000000000000000E+000  0.000000000000000E+000
  1.068884791591293E-003  3.765707246011740E-003 -4.214940865472908E-003
 -7.390827450164377E-003  3.854108012710054E-003 -2.881584889431726E-005
  0.000000000000000E+000  0.000000000000000E+000  0.000000000000000E+000
 -9.136092128508983E-004 -1.475410794252763E-003 -1.492807697979800E-003
  0.000000000000000E+000  0.000000000000000E+000  0.000000000000000E+000
  0.000000000000000E+000  0.000000000000000E+000  0.000000000000000E+000
  0.000000000000000E+000  0.000000000000000E+000  0.000000000000000E+000
  0.000000000000000E+000  0.000000000000000E+000  0.000000000000000E+000
  0.000000000000000E+000  0.000000000000000E+000  0.000000000000000E+000
  0.000000000000000E+000  0.000000000000000E+000  0.000000000000000E+000
  0.000000000000000E+000  0.000000000000000E+000  0.000000000000000E+000
  0.000000000000000E+000  0.000000000000000E+000  0.000000000000000E+000
  0.000000000000000E+000  0.000000000000000E+000  0.000000000000000E+000
 -2.654865896192385E-002 -9.104449868478182E-002 -0.117068182636562     
 -1.300837994279566E-002  3.109078548675732E-002  5.858200702918570E-003
 -3.803922947742162E-002 -2.816389070947698E-002 -7.674488510565312E-003
 before force check
 after force check
 before ML stuff 
  FORCES: max atom, RMS     0.150662    0.029303
  FORCE total and by dimension    0.182999    0.117068
 into some ML stuff
  Stress total and by dimension   14.439011   10.292418
 
 OPT: Flag T
 OPT: QM Step
 another before ML stuff


--------------------------------------------------------------------------------------------------------


      MLFF:  cpu time      1.6648: real time      1.6767
    WAVPRE:  cpu time      0.0237: real time      0.0239
    FEWALD:  cpu time      0.0062: real time      0.0063

 real space projection operators:
  total allocation   :       9688.00 KBytes
  max/ min on nodes  :       1712.42       1434.28

