<?xml version="1.0" encoding="ISO-8859-1"?>
<modeling>
 <generator>
  <i name="program" type="string">vasp </i>
  <i name="version" type="string">6.5.1  </i>
  <i name="subversion" type="string">10Mar25 (build Apr 25 2025 15:31:43) complex                          parallel </i>
  <i name="platform" type="string">LinuxIFC </i>
  <i name="date" type="string">2025 12 08 </i>
  <i name="time" type="string">14:54:14 </i>
 </generator>
 <incar>
  <i type="string" name="SYSTEM">PBE-grap</i>
  <i type="int" name="ISTART">     0</i>
  <i type="string" name="PREC">Normal   low | medium | high</i>
  <i type="int" name="IALGO">    38</i>
  <i type="int" name="ICHARG">     2</i>
  <i type="int" name="INIWAV">     1</i>
  <i type="int" name="NELM">   150</i>
  <i type="int" name="NELMDL">    -5</i>
  <i type="int" name="NELMIN">     4</i>
  <i type="int" name="IBRION">     3</i>
  <i name="EDIFF">      0.00001000</i>
  <i name="EDIFFG">     -0.02600000</i>
  <i type="int" name="NSW">  1000</i>
  <i type="int" name="ISIF">     2</i>
  <i type="int" name="ISYM">     0</i>
  <i name="ENCUT">    370.00000000</i>
  <i name="POTIM">      0.00000000</i>
  <i type="string" name="LREAL">AUTO   real-space projection (.FALSE., .TRUE., On, Auto)</i>
  <i type="logical" name="LPLANE"> T  </i>
  <i type="int" name="ISMEAR">     0</i>
  <i name="SIGMA">      0.41000000</i>
  <i type="int" name="NWRITE">     0</i>
  <i type="logical" name="LWAVE"> F  </i>
  <i type="logical" name="LCHARG"> F  </i>
  <i type="logical" name="LVTOT"> F  </i>
  <i type="string" name="GGA">PE</i>
  <i name="SPRING">     -5.00000000</i>
 </incar>
 <primitive_cell>
  <structure name="primitive_cell" >
   <crystal>
    <varray name="basis" >
     <v>       8.30990028       0.00000000       0.00000000 </v>
     <v>      -4.15495014       7.19658475       0.00000000 </v>
     <v>       0.00000000       0.00000000      16.52350044 </v>
    </varray>
    <i name="volume">    988.15327180 </i>
    <varray name="rec_basis" >
     <v>       0.12033839       0.06947740       0.00000000 </v>
     <v>       0.00000000       0.13895480       0.00000000 </v>
     <v>       0.00000000       0.00000000       0.06051986 </v>
    </varray>
   </crystal>
   <varray name="positions" >
    <v>       0.00135893       0.99704576       0.44498986 </v>
    <v>       0.11093000       0.22330000       0.16024000 </v>
    <v>       0.22185532       0.11262366       0.30038255 </v>
    <v>       0.33007066       0.99984636       0.44473886 </v>
    <v>       0.44426000       0.22330000       0.16024000 </v>
    <v>       0.55286032       0.11004937       0.29850915 </v>
    <v>       0.66438384       0.99846247       0.43598272 </v>
    <v>       0.77760000       0.22330000       0.16024000 </v>
    <v>       0.88873182       0.11174380       0.30026435 </v>
    <v>       0.99882637       0.33368881       0.44508428 </v>
    <v>       0.11093000       0.55664000       0.16024000 </v>
    <v>       0.22098355       0.44353450       0.29945637 </v>
    <v>       0.32990354       0.32796999       0.45624017 </v>
    <v>       0.44426000       0.55664000       0.16024000 </v>
    <v>       0.55145130       0.44285346       0.29986376 </v>
    <v>       0.66527090       0.33234744       0.43563690 </v>
    <v>       0.77760000       0.55664000       0.16024000 </v>
    <v>       0.88775846       0.44308203       0.29870799 </v>
    <v>       0.99565269       0.66393579       0.43511238 </v>
    <v>       0.11093000       0.88997000       0.16024000 </v>
    <v>       0.22272341       0.77845046       0.29976123 </v>
    <v>       0.33143178       0.66178632       0.44344883 </v>
    <v>       0.44426000       0.88997000       0.16024000 </v>
    <v>       0.55276715       0.77719153       0.29886448 </v>
    <v>       0.66678415       0.66635239       0.43571366 </v>
    <v>       0.77760000       0.88997000       0.16024000 </v>
    <v>       0.88801320       0.77903341       0.29805655 </v>
    <v>       0.99982000       0.00108000       0.02337000 </v>
    <v>       0.33315000       0.00108000       0.02337000 </v>
    <v>       0.66649000       0.00108000       0.02337000 </v>
    <v>       0.99982000       0.33441000       0.02337000 </v>
    <v>       0.33315000       0.33441000       0.02337000 </v>
    <v>       0.66649000       0.33441000       0.02337000 </v>
    <v>       0.99982000       0.66775000       0.02337000 </v>
    <v>       0.33315000       0.66775000       0.02337000 </v>
    <v>       0.66649000       0.66775000       0.02337000 </v>
    <v>       0.21450176       0.07668421       0.54611505 </v>
    <v>       0.21735437       0.43376351       0.53153708 </v>
    <v>       0.20748014       0.05703922       0.61701791 </v>
   </varray>
  </structure>
  <varray name="primitive_index" >
   <v type="int" >        1 </v>
   <v type="int" >        2 </v>
   <v type="int" >        3 </v>
   <v type="int" >        4 </v>
   <v type="int" >        5 </v>
   <v type="int" >        6 </v>
   <v type="int" >        7 </v>
   <v type="int" >        8 </v>
   <v type="int" >        9 </v>
   <v type="int" >       10 </v>
   <v type="int" >       11 </v>
   <v type="int" >       12 </v>
   <v type="int" >       13 </v>
   <v type="int" >       14 </v>
   <v type="int" >       15 </v>
   <v type="int" >       16 </v>
   <v type="int" >       17 </v>
   <v type="int" >       18 </v>
   <v type="int" >       19 </v>
   <v type="int" >       20 </v>
   <v type="int" >       21 </v>
   <v type="int" >       22 </v>
   <v type="int" >       23 </v>
   <v type="int" >       24 </v>
   <v type="int" >       25 </v>
   <v type="int" >       26 </v>
   <v type="int" >       27 </v>
   <v type="int" >       28 </v>
   <v type="int" >       29 </v>
   <v type="int" >       30 </v>
   <v type="int" >       31 </v>
   <v type="int" >       32 </v>
   <v type="int" >       33 </v>
   <v type="int" >       34 </v>
   <v type="int" >       35 </v>
   <v type="int" >       36 </v>
   <v type="int" >       37 </v>
   <v type="int" >       38 </v>
   <v type="int" >       39 </v>
  </varray>
 </primitive_cell>
 <kpoints>
  <generation param="Monkhorst-Pack">
   <v type="int" name="divisions">       4        4        1 </v>
   <v name="usershift">      0.00000000       0.00000000       0.00000000 </v>
   <v name="genvec1">      0.25000000       0.00000000       0.00000000 </v>
   <v name="genvec2">      0.00000000       0.25000000       0.00000000 </v>
   <v name="genvec3">      0.00000000       0.00000000       1.00000000 </v>
   <v name="shift">      0.50000000       0.50000000       0.00000000 </v>
  </generation>
  <varray name="kpointlist" >
   <v>       0.12500000       0.12500000       0.00000000 </v>
   <v>      -0.12500000       0.25000000       0.00000000 </v>
   <v>      -0.25000000       0.12500000       0.00000000 </v>
   <v>       0.37500000       0.12500000       0.00000000 </v>
   <v>      -0.12500000       0.50000000       0.00000000 </v>
   <v>       0.50000000       0.37500000       0.00000000 </v>
   <v>      -0.37500000       0.50000000       0.00000000 </v>
   <v>       0.12500000       0.37500000       0.00000000 </v>
   <v>       0.50000000      -0.12500000       0.00000000 </v>
   <v>      -0.37500000       0.12500000       0.00000000 </v>
   <v>      -0.12500000      -0.25000000       0.00000000 </v>
   <v>       0.25000000      -0.37500000       0.00000000 </v>
   <v>       0.37500000      -0.25000000       0.00000000 </v>
   <v>       0.12500000      -0.37500000       0.00000000 </v>
   <v>      -0.25000000      -0.12500000       0.00000000 </v>
   <v>      -0.12500000       0.12500000       0.00000000 </v>
   <v>      -0.12500000       0.00000000       0.00000000 </v>
   <v>       0.00000000      -0.12500000       0.00000000 </v>
   <v>       0.37500000       0.37500000       0.00000000 </v>
   <v>      -0.37500000      -0.25000000       0.00000000 </v>
   <v>       0.25000000       0.37500000       0.00000000 </v>
   <v>      -0.37500000       0.37500000       0.00000000 </v>
   <v>      -0.37500000       0.00000000       0.00000000 </v>
   <v>       0.00000000      -0.37500000       0.00000000 </v>
  </varray>
  <varray name="weights" >
   <v>       0.04166667 </v>
   <v>       0.04166667 </v>
   <v>       0.04166667 </v>
   <v>       0.04166667 </v>
   <v>       0.04166667 </v>
   <v>       0.04166667 </v>
   <v>       0.04166667 </v>
   <v>       0.04166667 </v>
   <v>       0.04166667 </v>
   <v>       0.04166667 </v>
   <v>       0.04166667 </v>
   <v>       0.04166667 </v>
   <v>       0.04166667 </v>
   <v>       0.04166667 </v>
   <v>       0.04166667 </v>
   <v>       0.04166667 </v>
   <v>       0.04166667 </v>
   <v>       0.04166667 </v>
   <v>       0.04166667 </v>
   <v>       0.04166667 </v>
   <v>       0.04166667 </v>
   <v>       0.04166667 </v>
   <v>       0.04166667 </v>
   <v>       0.04166667 </v>
  </varray>
 </kpoints>
 <parameters>
  <separator name="general" >
   <i type="string" name="SYSTEM">PBE-grap</i>
   <i type="logical" name="LCOMPAT"> F  </i>
  </separator>
  <separator name="electronic" >
   <i type="string" name="PREC">normal</i>
   <i name="ENMAX">    370.00000000</i>
   <i name="ENAUG">    644.87300000</i>
   <i name="EDIFF">      0.00001000</i>
   <i type="int" name="IALGO">    38</i>
   <i type="int" name="IWAVPR">    11</i>
   <i type="int" name="NBANDS">   228</i>
   <i type="int" name="NBANDSLOW">    -1</i>
   <i type="int" name="NBANDSHIGH">    -1</i>
   <i name="NELECT">    376.00000000</i>
   <i type="int" name="TURBO">     0</i>
   <i type="int" name="IRESTART">     0</i>
   <i type="int" name="NREBOOT">     0</i>
   <i type="int" name="NMIN">     0</i>
   <i name="EREF">      0.00000000</i>
   <separator name="electronic smearing" >
    <i type="int" name="ISMEAR">     0</i>
    <i name="SIGMA">      0.41000000</i>
    <i name="KSPACING">      0.50000000</i>
    <i type="logical" name="KGAMMA"> T  </i>
    <i type="logical" name="KBLOWUP"> T  </i>
   </separator>
   <separator name="electronic projectors" >
    <i type="logical" name="LREAL"> T  </i>
    <v name="ROPT">     -0.00050000     -0.00050000     -0.00050000</v>
    <i type="int" name="LMAXPAW">  -100</i>
    <i type="int" name="LMAXMIX">     2</i>
    <i type="logical" name="NLSPLINE"> F  </i>
   </separator>
   <separator name="electronic startup" >
    <i type="int" name="ISTART">     0</i>
    <i type="int" name="ICHARG">     2</i>
    <i type="int" name="INIWAV">     1</i>
   </separator>
   <separator name="electronic spin" >
    <i type="int" name="ISPIN">     1</i>
    <i type="logical" name="LNONCOLLINEAR"> F  </i>
    <v name="MAGMOM">      1.00000000      1.00000000      1.00000000      1.00000000      1.00000000      1.00000000      1.00000000      1.00000000      1.00000000      1.00000000      1.00000000      1.00000000      1.00000000      1.00000000      1.00000000      1.00000000      1.00000000      1.00000000      1.00000000      1.00000000
      1.00000000      1.00000000      1.00000000      1.00000000      1.00000000      1.00000000      1.00000000      1.00000000      1.00000000      1.00000000      1.00000000      1.00000000      1.00000000      1.00000000      1.00000000      1.00000000      1.00000000      1.00000000      1.00000000</v>
    <i name="NUPDOWN">     -1.00000000</i>
    <i type="logical" name="LSORBIT"> F  </i>
    <v name="SAXIS">      0.00000000      0.00000000      1.00000000</v>
    <i type="logical" name="LSPIRAL"> F  </i>
    <v name="QSPIRAL">      0.00000000      0.00000000      0.00000000</v>
    <i type="logical" name="LZEROZ"> F  </i>
   </separator>
   <separator name="electronic exchange-correlation" >
    <i type="logical" name="LASPH"> F  </i>
   </separator>
   <separator name="electronic convergence" >
    <i type="int" name="NELM">   150</i>
    <i type="int" name="NELMDL">    -5</i>
    <i type="int" name="NELMIN">     4</i>
    <i name="ENINI">    370.00000000</i>
    <separator name="electronic convergence detail" >
     <i type="logical" name="LDIAG"> T  </i>
     <i type="logical" name="LSUBROT"> F  </i>
     <i type="logical" name="LROBUST"> F  </i>
     <i type="int" name="ISEARCH">     0</i>
     <i name="WEIMIN">      0.00100000</i>
     <i name="EBREAK">      0.00000001</i>
     <i name="DEPER">      0.30000000</i>
     <i type="int" name="NRMM">     4</i>
     <i name="TIME">      0.40000000</i>
    </separator>
   </separator>
   <separator name="electronic mixer" >
    <i name="AMIX">      0.40000000</i>
    <i name="BMIX">      1.00000000</i>
    <i name="AMIN">      0.10000000</i>
    <i name="AMIX_MAG">      1.60000000</i>
    <i name="BMIX_MAG">      1.00000000</i>
    <separator name="electronic mixer details" >
     <i type="int" name="IMIX">     4</i>
     <i type="logical" name="MIXFIRST"> F  </i>
     <i type="int" name="MAXMIX">   -45</i>
     <i name="WC">    100.00000000</i>
     <i type="int" name="INIMIX">     1</i>
     <i type="int" name="MIXPRE">     1</i>
     <i type="int" name="MREMOVE">     5</i>
    </separator>
   </separator>
   <separator name="electronic dipolcorrection" >
    <i type="logical" name="LDIPOL"> F  </i>
    <i type="logical" name="LMONO"> F  </i>
    <i type="int" name="IDIPOL">     0</i>
    <i name="EPSILON">      1.00000000</i>
    <v name="DIPOL">   -100.00000000   -100.00000000   -100.00000000</v>
    <i name="EFIELD">      0.00000000</i>
    <i type="logical" name="LVACPOTAV"> F  </i>
   </separator>
  </separator>
  <separator name="grids" >
   <i type="int" name="NGX">    40</i>
   <i type="int" name="NGY">    40</i>
   <i type="int" name="NGZ">    80</i>
   <i type="int" name="NGXF">    80</i>
   <i type="int" name="NGYF">    80</i>
   <i type="int" name="NGZF">   160</i>
   <i type="logical" name="ADDGRID"> F  </i>
  </separator>
  <separator name="ionic" >
   <i type="int" name="NSW">  1000</i>
   <i type="int" name="IBRION">     3</i>
   <i type="int" name="MDALGO">     0</i>
   <i type="int" name="ISIF">     2</i>
   <i name="PSTRESS">      0.00000000</i>
   <i name="EDIFFG">     -0.02600000</i>
   <i type="int" name="NFREE">     0</i>
   <i name="POTIM">      0.00000000</i>
   <i name="SMASS">     -3.00000000</i>
   <i name="SCALEE">      1.00000000</i>
  </separator>
  <separator name="ionic md" >
   <i name="TEBEG">      0.00010000</i>
   <i name="TEEND">      0.00010000</i>
   <i type="int" name="NBLOCK">     1</i>
   <i type="int" name="KBLOCK">  1000</i>
   <i type="int" name="NPACO">   256</i>
   <i name="APACO">     10.00000000</i>
  </separator>
  <separator name="symmetry" >
   <i type="int" name="ISYM">     0</i>
   <i name="SYMPREC">      0.00001000</i>
  </separator>
  <separator name="dos" >
   <i type="int" name="LORBIT">     0</i>
   <v name="RWIGS">     -1.00000000     -1.00000000     -1.00000000</v>
   <i type="int" name="NEDOS">   301</i>
   <i name="EMIN">     10.00000000</i>
   <i name="EMAX">    -10.00000000</i>
   <i name="EFERMI">      0.00000000</i>
  </separator>
  <separator name="writing" >
   <i type="int" name="NWRITE">     0</i>
   <i type="logical" name="LWAVE"> F  </i>
   <i type="logical" name="LDOWNSAMPLE"> F  </i>
   <i type="logical" name="LCHARG"> F  </i>
   <i type="logical" name="LPARD"> F  </i>
   <i type="logical" name="LVTOT"> F  </i>
   <i type="logical" name="LVHAR"> F  </i>
   <i type="logical" name="LELF"> F  </i>
   <i type="logical" name="LOPTICS"> F  </i>
   <v name="STM">      0.00000000      0.00000000      0.00000000      0.00000000      0.00000000      0.00000000      0.00000000</v>
  </separator>
  <separator name="performance" >
   <i type="int" name="NPAR">     4</i>
   <i type="int" name="NSIM">     4</i>
   <i type="int" name="NBLK">    -1</i>
   <i type="logical" name="LPLANE"> T  </i>
   <i type="logical" name="LSCALAPACK"> T  </i>
   <i type="logical" name="LSCAAWARE"> F  </i>
   <i type="logical" name="LSCALU"> F  </i>
   <i type="logical" name="LASYNC"> F  </i>
   <i type="logical" name="LORBITALREAL"> F  </i>
  </separator>
  <separator name="miscellaneous" >
   <i type="int" name="IDIOT">     3</i>
   <i type="int" name="PHON_NSTRUCT">    -1</i>
   <i type="logical" name="LMUSIC"> F  </i>
   <v name="POMASS">    106.42000000     12.01100000     16.00000000</v>
   <v name="DARWINR">      0.00000000      0.00000000      0.00000000</v>
   <v name="DARWINV">      1.00000000      1.00000000      1.00000000</v>
   <i type="logical" name="LCORR"> T  </i>
  </separator>
  <i type="logical" name="GGA_COMPAT"> T  </i>
  <i type="logical" name="LBERRY"> F  </i>
  <i type="int" name="ICORELEVEL">     0</i>
  <i type="logical" name="LDAU"> F  </i>
  <i type="int" name="I_CONSTRAINED_M">     0</i>
  <separator name="electronic exchange-correlation" >
   <i type="string" name="GGA    ">PE</i>
   <i type="string" name="XC_C">1</i>
   <i type="int" name="VOSKOWN">     0</i>
   <i type="logical" name="LHFCALC"> F  </i>
   <i type="string" name="PRECFOCK"></i>
   <i type="logical" name="LSYMGRAD"> F  </i>
   <i type="logical" name="LHFONE"> F  </i>
   <i type="logical" name="LRHFCALC"> F  </i>
   <i type="logical" name="LTHOMAS"> F  </i>
   <i type="logical" name="LMODELHF"> F  </i>
   <i type="logical" name="LFOCKACE"> F  </i>
   <i name="ENCUT4O">     -1.00000000</i>
   <i type="int" name="EXXOEP">     0</i>
   <i type="int" name="FOURORBIT">     0</i>
   <i name="AEXX">      0.00000000</i>
   <i name="HFALPHA">      0.00000000</i>
   <i name="MCALPHA">      0.00000000</i>
   <i name="ALDAX">      1.00000000</i>
   <i name="AGGAX">      1.00000000</i>
   <i name="AMGGAX">      1.00000000</i>
   <i name="ALDAC">      1.00000000</i>
   <i name="AGGAC">      1.00000000</i>
   <i name="AMGGAC">      1.00000000</i>
   <i type="int" name="NKREDX">     1</i>
   <i type="int" name="NKREDY">     1</i>
   <i type="int" name="NKREDZ">     1</i>
   <i type="logical" name="SHIFTRED"> F  </i>
   <i type="logical" name="ODDONLY"> F  </i>
   <i type="logical" name="EVENONLY"> F  </i>
   <i type="int" name="LMAXFOCK">     0</i>
   <i type="int" name="NMAXFOCKAE">     0</i>
   <i type="logical" name="LFOCKAEDFT"> F  </i>
   <i name="HFSCREEN">      0.00000000</i>
   <i name="HFSCREENC">      0.00000000</i>
   <i type="int" name="NBANDSGWLOW">     0</i>
  </separator>
  <separator name="vdW DFT" >
   <i type="logical" name="LUSE_VDW"> F  </i>
   <i type="int" name="IVDW_NL">    -1</i>
   <i type="logical" name="LSPIN_VDW"> F  </i>
   <i name="ZAB_VDW">     -0.84910000</i>
   <i name="GAMMA_VDW">      1.39626340</i>
   <i name="ALPHA_VDW">      0.00000000</i>
   <i name="PARAM1">      0.12340000</i>
   <i name="PARAM2">      1.00000000</i>
   <i name="BPARAM">      6.30000000</i>
   <i name="CPARAM">      0.00930000</i>
  </separator>
  <separator name="model GW" >
   <i type="int" name="MODEL_GW">     0</i>
   <i name="MODEL_EPS0">     15.20235803</i>
   <i name="MODEL_ALPHA">      1.00000000</i>
  </separator>
  <separator name="linear response parameters" >
   <i type="logical" name="LEPSILON"> F  </i>
   <i type="logical" name="LRPA"> F  </i>
   <i type="logical" name="LNABLA"> F  </i>
   <i type="logical" name="LVEL"> F  </i>
   <i name="CSHIFT">      0.10000000</i>
   <i name="OMEGAMAX">     -1.00000000</i>
   <i name="DEG_THRESHOLD">      0.00200000</i>
   <i name="RTIME">     -0.10000000</i>
   <i name="WPLASMAI">      0.00000000</i>
   <v name="DFIELD">      0.00000000      0.00000000      0.00000000</v>
   <v name="WPLASMA">      0.00000000      0.00000000      0.00000000      0.00000000      0.00000000      0.00000000      0.00000000      0.00000000      0.00000000</v>
  </separator>
  <separator name="orbital magnetization" >
   <i type="logical" name="NUCIND"> F  </i>
   <v name="MAGPOS">      0.00000000      0.00000000      0.00000000</v>
   <i type="logical" name="LNICSALL"> T  </i>
   <i type="logical" name="ORBITALMAG"> F  </i>
   <i type="logical" name="LMAGBLOCH"> F  </i>
   <i type="logical" name="LCHIMAG"> F  </i>
   <i type="logical" name="LGAUGE"> T  </i>
   <i type="int" name="MAGATOM">     0</i>
   <v name="MAGDIPOL">      0.00000000      0.00000000      0.00000000</v>
   <v name="AVECCONST">      0.00000000      0.00000000      0.00000000</v>
  </separator>
  <separator name="response functions" >
   <i type="logical" name="LALL_IN_ONE"> F  </i>
   <i type="int" name="IALL_IN_ONE">    -1</i>
   <i type="int" name="NBANDS_WAVE">    -1</i>
   <i type="logical" name="LFINITE_TEMPERATURE"> F  </i>
   <i type="logical" name="LADDER"> F  </i>
   <i type="logical" name="LRPAFORCE"> F  </i>
   <i type="logical" name="LFXC"> F  </i>
   <i type="logical" name="LHARTREE"> T  </i>
   <i type="int" name="IBSE">     2</i>
   <v type="int" name="KPOINT">    -1     0     0     0</v>
   <i type="logical" name="LTCTC"> F  </i>
   <i type="logical" name="LTCTE"> F  </i>
   <i type="logical" name="LTETE"> F  </i>
   <i type="logical" name="LTRIPLET"> F  </i>
   <i type="logical" name="LFXCEPS"> F  </i>
   <i type="logical" name="LFXHEG"> F  </i>
   <i type="int" name="NATURALO">     2</i>
   <i type="logical" name="LHOLEGF"> F  </i>
   <i type="logical" name="L2ORDER"> F  </i>
   <i type="logical" name="LDMP1"> F  </i>
   <i type="logical" name="LMP2LT"> F  </i>
   <i type="logical" name="LSMP2LT"> F  </i>
   <i type="logical" name="LGWLF"> F  </i>
   <i name="ENCUTGW">     -1.60000002</i>
   <i name="ENCUTGWSOFT">     -1.60000002</i>
   <i name="ENCUTLF">     -1.00000000</i>
   <i type="logical" name="ESF_SPLINES"> F  </i>
   <i name="ESF_CONV">      0.01000000</i>
   <i type="int" name="ESF_NINTER">    15</i>
   <i type="int" name="LMAXMP2">    -1</i>
   <i name="SCISSOR">      0.00000000</i>
   <i type="int" name="NOMEGA">     0</i>
   <i type="int" name="NOMEGAR">     0</i>
   <i type="int" name="NBANDSGW">    -1</i>
   <i type="int" name="NBANDSO">    -1</i>
   <i type="int" name="NBANDSV">    -1</i>
   <i type="int" name="NELMGW">     1</i>
   <i type="int" name="NELMHF">     1</i>
   <i type="int" name="DIM">     3</i>
   <i type="int" name="IESPILON">     4</i>
   <i type="int" name="ANTIRES">     0</i>
   <i name="OMEGAMAX">    -30.00000000</i>
   <i name="OMEGAMIN">    -30.00000000</i>
   <i name="OMEGATL">   -200.00000000</i>
   <i type="int" name="OMEGAGRID">     0</i>
   <i name="CSHIFT">     -0.10000000</i>
   <i type="logical" name="LSELFENERGY"> F  </i>
   <i type="logical" name="LSPECTRAL"> F  </i>
   <i type="logical" name="LSPECTRALGW"> F  </i>
   <i type="logical" name="LSINGLES"> F  </i>
   <i type="logical" name="LFERMIGW"> F  </i>
   <i type="logical" name="ODDONLYGW"> F  </i>
   <i type="logical" name="EVENONLYGW"> F  </i>
   <i type="int" name="NKREDLFX">     1</i>
   <i type="int" name="NKREDLFY">     1</i>
   <i type="int" name="NKREDLFZ">     1</i>
   <i type="int" name="MAXMEM">  2800</i>
   <i type="int" name="TELESCOPE">     0</i>
   <i type="int" name="NTAUPAR">    -1</i>
   <i type="int" name="NOMEGAPAR">    -1</i>
   <i name="DAMP_NEWTON">      0.80000001</i>
   <i name="LAMBDA">      1.00000000</i>
  </separator>
  <separator name="External order field" >
   <i name="OFIELD_KAPPA">      0.00000000</i>
   <v name="OFIELD_K">      0.00000000      0.00000000      0.00000000</v>
   <i name="OFIELD_Q6_NEAR">      0.00000000</i>
   <i name="OFIELD_Q6_FAR">      0.00000000</i>
   <i name="OFIELD_A">      0.00000000</i>
  </separator>
  <separator name="optional k-points parameters" >
   <i type="int" name="KPOINTS_OPT_MODE">     1</i>
   <i type="logical" name="LKPOINTS_OPT"> F  </i>
  </separator>
 </parameters>
 <atominfo>
  <atoms>      39 </atoms>
  <types>       3 </types>
  <array name="atoms" >
   <dimension dim="1">ion</dimension>
   <field type="string">element</field>
   <field type="int">atomtype</field>
   <set>
    <rc><c>Pd</c><c>   1</c></rc>
    <rc><c>Pd</c><c>   1</c></rc>
    <rc><c>Pd</c><c>   1</c></rc>
    <rc><c>Pd</c><c>   1</c></rc>
    <rc><c>Pd</c><c>   1</c></rc>
    <rc><c>Pd</c><c>   1</c></rc>
    <rc><c>Pd</c><c>   1</c></rc>
    <rc><c>Pd</c><c>   1</c></rc>
    <rc><c>Pd</c><c>   1</c></rc>
    <rc><c>Pd</c><c>   1</c></rc>
    <rc><c>Pd</c><c>   1</c></rc>
    <rc><c>Pd</c><c>   1</c></rc>
    <rc><c>Pd</c><c>   1</c></rc>
    <rc><c>Pd</c><c>   1</c></rc>
    <rc><c>Pd</c><c>   1</c></rc>
    <rc><c>Pd</c><c>   1</c></rc>
    <rc><c>Pd</c><c>   1</c></rc>
    <rc><c>Pd</c><c>   1</c></rc>
    <rc><c>Pd</c><c>   1</c></rc>
    <rc><c>Pd</c><c>   1</c></rc>
    <rc><c>Pd</c><c>   1</c></rc>
    <rc><c>Pd</c><c>   1</c></rc>
    <rc><c>Pd</c><c>   1</c></rc>
    <rc><c>Pd</c><c>   1</c></rc>
    <rc><c>Pd</c><c>   1</c></rc>
    <rc><c>Pd</c><c>   1</c></rc>
    <rc><c>Pd</c><c>   1</c></rc>
    <rc><c>Pd</c><c>   1</c></rc>
    <rc><c>Pd</c><c>   1</c></rc>
    <rc><c>Pd</c><c>   1</c></rc>
    <rc><c>Pd</c><c>   1</c></rc>
    <rc><c>Pd</c><c>   1</c></rc>
    <rc><c>Pd</c><c>   1</c></rc>
    <rc><c>Pd</c><c>   1</c></rc>
    <rc><c>Pd</c><c>   1</c></rc>
    <rc><c>Pd</c><c>   1</c></rc>
    <rc><c>C </c><c>   2</c></rc>
    <rc><c>O </c><c>   3</c></rc>
    <rc><c>O </c><c>   3</c></rc>
   </set>
  </array>
  <array name="atomtypes" >
   <dimension dim="1">type</dimension>
   <field type="int">atomspertype</field>
   <field type="string">element</field>
   <field>mass</field>
   <field>valence</field>
   <field type="string">pseudopotential</field>
   <set>
    <rc><c>  36</c><c>Pd</c><c>    106.42000000</c><c>     10.00000000</c><c>  PAW_PBE Pd 04Jan2005                  </c></rc>
    <rc><c>   1</c><c>C </c><c>     12.01100000</c><c>      4.00000000</c><c>  PAW_PBE C 08Apr2002                   </c></rc>
    <rc><c>   2</c><c>O </c><c>     16.00000000</c><c>      6.00000000</c><c>  PAW_PBE O 08Apr2002                   </c></rc>
   </set>
  </array>
 </atominfo>
 <structure name="initialpos" >
  <crystal>
   <varray name="basis" >
    <v>       8.30990028       0.00000000       0.00000000 </v>
    <v>      -4.15495014       7.19658475       0.00000000 </v>
    <v>       0.00000000       0.00000000      16.52350044 </v>
   </varray>
   <i name="volume">    988.15327180 </i>
   <varray name="rec_basis" >
    <v>       0.12033839       0.06947740       0.00000000 </v>
    <v>       0.00000000       0.13895480       0.00000000 </v>
    <v>       0.00000000       0.00000000       0.06051986 </v>
   </varray>
  </crystal>
  <varray name="positions" >
   <v>       0.00135893       0.99704576       0.44498986 </v>
   <v>       0.11093000       0.22330000       0.16024000 </v>
   <v>       0.22185532       0.11262366       0.30038255 </v>
   <v>       0.33007066       0.99984636       0.44473886 </v>
   <v>       0.44426000       0.22330000       0.16024000 </v>
   <v>       0.55286032       0.11004937       0.29850915 </v>
   <v>       0.66438384       0.99846247       0.43598272 </v>
   <v>       0.77760000       0.22330000       0.16024000 </v>
   <v>       0.88873182       0.11174380       0.30026435 </v>
   <v>       0.99882637       0.33368881       0.44508428 </v>
   <v>       0.11093000       0.55664000       0.16024000 </v>
   <v>       0.22098355       0.44353450       0.29945637 </v>
   <v>       0.32990354       0.32796999       0.45624017 </v>
   <v>       0.44426000       0.55664000       0.16024000 </v>
   <v>       0.55145130       0.44285346       0.29986376 </v>
   <v>       0.66527090       0.33234744       0.43563690 </v>
   <v>       0.77760000       0.55664000       0.16024000 </v>
   <v>       0.88775846       0.44308203       0.29870799 </v>
   <v>       0.99565269       0.66393579       0.43511238 </v>
   <v>       0.11093000       0.88997000       0.16024000 </v>
   <v>       0.22272341       0.77845046       0.29976123 </v>
   <v>       0.33143178       0.66178632       0.44344883 </v>
   <v>       0.44426000       0.88997000       0.16024000 </v>
   <v>       0.55276715       0.77719153       0.29886448 </v>
   <v>       0.66678415       0.66635239       0.43571366 </v>
   <v>       0.77760000       0.88997000       0.16024000 </v>
   <v>       0.88801320       0.77903341       0.29805655 </v>
   <v>       0.99982000       0.00108000       0.02337000 </v>
   <v>       0.33315000       0.00108000       0.02337000 </v>
   <v>       0.66649000       0.00108000       0.02337000 </v>
   <v>       0.99982000       0.33441000       0.02337000 </v>
   <v>       0.33315000       0.33441000       0.02337000 </v>
   <v>       0.66649000       0.33441000       0.02337000 </v>
   <v>       0.99982000       0.66775000       0.02337000 </v>
   <v>       0.33315000       0.66775000       0.02337000 </v>
   <v>       0.66649000       0.66775000       0.02337000 </v>
   <v>       0.21450176       0.07668421       0.54611505 </v>
   <v>       0.21735437       0.43376351       0.53153708 </v>
   <v>       0.20748014       0.05703922       0.61701791 </v>
  </varray>
  <varray name="selective"  type="logical" >
   <v type="logical" >  T  T  T </v>
   <v type="logical" >  F  F  F </v>
   <v type="logical" >  T  T  T </v>
   <v type="logical" >  T  T  T </v>
   <v type="logical" >  F  F  F </v>
   <v type="logical" >  T  T  T </v>
   <v type="logical" >  T  T  T </v>
   <v type="logical" >  F  F  F </v>
   <v type="logical" >  T  T  T </v>
   <v type="logical" >  T  T  T </v>
   <v type="logical" >  F  F  F </v>
   <v type="logical" >  T  T  T </v>
   <v type="logical" >  T  T  T </v>
   <v type="logical" >  F  F  F </v>
   <v type="logical" >  T  T  T </v>
   <v type="logical" >  T  T  T </v>
   <v type="logical" >  F  F  F </v>
   <v type="logical" >  T  T  T </v>
   <v type="logical" >  T  T  T </v>
   <v type="logical" >  F  F  F </v>
   <v type="logical" >  T  T  T </v>
   <v type="logical" >  T  T  T </v>
   <v type="logical" >  F  F  F </v>
   <v type="logical" >  T  T  T </v>
   <v type="logical" >  T  T  T </v>
   <v type="logical" >  F  F  F </v>
   <v type="logical" >  T  T  T </v>
   <v type="logical" >  F  F  F </v>
   <v type="logical" >  F  F  F </v>
   <v type="logical" >  F  F  F </v>
   <v type="logical" >  F  F  F </v>
   <v type="logical" >  F  F  F </v>
   <v type="logical" >  F  F  F </v>
   <v type="logical" >  F  F  F </v>
   <v type="logical" >  F  F  F </v>
   <v type="logical" >  F  F  F </v>
   <v type="logical" >  T  T  T </v>
   <v type="logical" >  T  T  T </v>
   <v type="logical" >  T  T  T </v>
  </varray>
  <nose>
   <v>      -3.00000000       0.00000000       0.00010000       0.00010000 </v>
  </nose>
 </structure>
 <calculation>
  <scstep>
   <time name="dav">   14.15   14.24</time>
   <time name="total">   14.26   14.34</time>
   <energy>
    <i name="alphaZ">    918.22725072 </i>
    <i name="ewald">  22655.23147521 </i>
    <i name="hartreedc"> -55309.04501027 </i>
    <i name="XCdc">   -993.38150275 </i>
    <i name="pawpsdc">  29844.20032359 </i>
    <i name="pawaedc"> -27608.36462881 </i>
    <i name="eentropy">     -1.25504939 </i>
    <i name="bandstr">   2440.99180109 </i>
    <i name="atom">  30161.86332653 </i>
    <i name="e_fr_energy">   2108.46798592 </i>
    <i name="e_wo_entrp">   2109.72303532 </i>
    <i name="e_0_energy">   2109.09551062 </i>
   </energy>
  </scstep>
  <scstep>
   <time name="dav">   15.37   15.47</time>
   <time name="total">   15.40   15.51</time>
   <energy>
    <i name="e_fr_energy">    -90.97641805 </i>
    <i name="e_wo_entrp">    -87.63345462 </i>
    <i name="e_0_energy">    -89.30493634 </i>
   </energy>
  </scstep>
  <scstep>
   <time name="dav">   16.13   16.23</time>
   <time name="total">   16.16   16.27</time>
   <energy>
    <i name="e_fr_energy">   -209.85476293 </i>
    <i name="e_wo_entrp">   -204.68483141 </i>
    <i name="e_0_energy">   -207.26979717 </i>
   </energy>
  </scstep>
  <scstep>
   <time name="dav">   16.72   16.82</time>
   <time name="total">   16.75   16.86</time>
   <energy>
    <i name="e_fr_energy">   -213.90786214 </i>
    <i name="e_wo_entrp">   -208.66575048 </i>
    <i name="e_0_energy">   -211.28680631 </i>
   </energy>
  </scstep>
  <scstep>
   <time name="dav">   17.09   17.20</time>
   <time name="total">   17.48   17.59</time>
   <energy>
    <i name="e_fr_energy">   -214.03650876 </i>
    <i name="e_wo_entrp">   -208.79289519 </i>
    <i name="e_0_energy">   -211.41470197 </i>
   </energy>
  </scstep>
  <scstep>
   <time name="dav">   15.68   15.78</time>
   <time name="total">   16.14   16.24</time>
   <energy>
    <i name="e_fr_energy">   -207.05252282 </i>
    <i name="e_wo_entrp">   -202.36556312 </i>
    <i name="e_0_energy">   -204.70904297 </i>
   </energy>
  </scstep>
  <scstep>
   <time name="dav">   16.66   16.77</time>
   <time name="total">   17.12   17.24</time>
   <energy>
    <i name="e_fr_energy">   -221.43217988 </i>
    <i name="e_wo_entrp">   -217.64259738 </i>
    <i name="e_0_energy">   -219.53738863 </i>
   </energy>
  </scstep>
  <scstep>
   <time name="dav">   16.31   16.42</time>
   <time name="total">   16.77   16.88</time>
   <energy>
    <i name="e_fr_energy">   -211.83313150 </i>
    <i name="e_wo_entrp">   -207.06345307 </i>
    <i name="e_0_energy">   -209.44829228 </i>
   </energy>
  </scstep>
  <scstep>
   <time name="dav">   17.86   17.98</time>
   <time name="total">   18.33   18.44</time>
   <energy>
    <i name="e_fr_energy">   -209.22003389 </i>
    <i name="e_wo_entrp">   -205.05288162 </i>
    <i name="e_0_energy">   -207.13645775 </i>
   </energy>
  </scstep>
  <scstep>
   <time name="dav">   15.34   15.44</time>
   <time name="total">   15.80   15.90</time>
   <energy>
    <i name="e_fr_energy">   -203.23757518 </i>
    <i name="e_wo_entrp">   -198.10273757 </i>
    <i name="e_0_energy">   -200.67015637 </i>
   </energy>
  </scstep>
  <scstep>
   <time name="dav">   15.06   15.16</time>
   <time name="total">   15.52   15.62</time>
   <energy>
    <i name="e_fr_energy">   -204.22323658 </i>
    <i name="e_wo_entrp">   -199.45675709 </i>
    <i name="e_0_energy">   -201.83999684 </i>
   </energy>
  </scstep>
  <scstep>
   <time name="dav">   14.93   15.02</time>
   <time name="total">   15.39   15.49</time>
   <energy>
    <i name="e_fr_energy">   -202.94334946 </i>
    <i name="e_wo_entrp">   -197.91420487 </i>
    <i name="e_0_energy">   -200.42877716 </i>
   </energy>
  </scstep>
  <scstep>
   <time name="dav">   14.82   14.92</time>
   <time name="total">   15.29   15.38</time>
   <energy>
    <i name="e_fr_energy">   -202.90537266 </i>
    <i name="e_wo_entrp">   -197.87462069 </i>
    <i name="e_0_energy">   -200.38999667 </i>
   </energy>
  </scstep>
  <scstep>
   <time name="dav">   15.40   15.49</time>
   <time name="total">   15.86   15.96</time>
   <energy>
    <i name="e_fr_energy">   -202.84457957 </i>
    <i name="e_wo_entrp">   -197.74721410 </i>
    <i name="e_0_energy">   -200.29589684 </i>
   </energy>
  </scstep>
  <scstep>
   <time name="dav">   14.60   14.70</time>
   <time name="total">   15.06   15.17</time>
   <energy>
    <i name="e_fr_energy">   -202.79644672 </i>
    <i name="e_wo_entrp">   -197.68438782 </i>
    <i name="e_0_energy">   -200.24041727 </i>
   </energy>
  </scstep>
  <scstep>
   <time name="dav">   15.23   15.32</time>
   <time name="total">   15.69   15.79</time>
   <energy>
    <i name="e_fr_energy">   -202.77402219 </i>
    <i name="e_wo_entrp">   -197.67689790 </i>
    <i name="e_0_energy">   -200.22546005 </i>
   </energy>
  </scstep>
  <scstep>
   <time name="dav">   14.87   14.96</time>
   <time name="total">   15.33   15.43</time>
   <energy>
    <i name="e_fr_energy">   -202.76674698 </i>
    <i name="e_wo_entrp">   -197.66312219 </i>
    <i name="e_0_energy">   -200.21493458 </i>
   </energy>
  </scstep>
  <scstep>
   <time name="dav">   15.08   15.18</time>
   <time name="total">   15.55   15.64</time>
   <energy>
    <i name="e_fr_energy">   -202.76482932 </i>
    <i name="e_wo_entrp">   -197.65150436 </i>
    <i name="e_0_energy">   -200.20816684 </i>
   </energy>
  </scstep>
  <scstep>
   <time name="dav">   14.94   15.03</time>
   <time name="total">   15.40   15.50</time>
   <energy>
    <i name="e_fr_energy">   -202.76379721 </i>
    <i name="e_wo_entrp">   -197.64917517 </i>
    <i name="e_0_energy">   -200.20648619 </i>
   </energy>
  </scstep>
  <scstep>
   <time name="dav">   15.50   15.60</time>
   <time name="total">   15.96   16.07</time>
   <energy>
    <i name="e_fr_energy">   -202.76357874 </i>
    <i name="e_wo_entrp">   -197.65306688 </i>
    <i name="e_0_energy">   -200.20832281 </i>
   </energy>
  </scstep>
  <scstep>
   <time name="dav">   14.87   14.96</time>
   <time name="total">   15.33   15.43</time>
   <energy>
    <i name="e_fr_energy">   -202.76361767 </i>
    <i name="e_wo_entrp">   -197.65468785 </i>
    <i name="e_0_energy">   -200.20915276 </i>
   </energy>
  </scstep>
  <scstep>
   <time name="dav">   15.05   15.15</time>
   <time name="total">   15.52   15.62</time>
   <energy>
    <i name="e_fr_energy">   -202.76368794 </i>
    <i name="e_wo_entrp">   -197.65475481 </i>
    <i name="e_0_energy">   -200.20922137 </i>
   </energy>
  </scstep>
  <scstep>
   <time name="dav">   14.84   14.94</time>
   <time name="total">   15.31   15.40</time>
   <energy>
    <i name="e_fr_energy">   -202.76374688 </i>
    <i name="e_wo_entrp">   -197.65373967 </i>
    <i name="e_0_energy">   -200.20874328 </i>
   </energy>
  </scstep>
  <scstep>
   <time name="dav">   14.54   14.65</time>
   <time name="total">   15.01   15.11</time>
   <energy>
    <i name="e_fr_energy">   -202.76391851 </i>
    <i name="e_wo_entrp">   -197.65445116 </i>
    <i name="e_0_energy">   -200.20918484 </i>
   </energy>
  </scstep>
  <scstep>
   <time name="dav">   15.21   15.31</time>
   <time name="total">   15.67   15.77</time>
   <energy>
    <i name="e_fr_energy">   -202.76401087 </i>
    <i name="e_wo_entrp">   -197.65454588 </i>
    <i name="e_0_energy">   -200.20927838 </i>
   </energy>
  </scstep>
  <scstep>
   <time name="dav">   13.34   13.43</time>
   <time name="total">   13.80   13.89</time>
   <energy>
    <i name="e_fr_energy">   -202.76420120 </i>
    <i name="e_wo_entrp">   -197.65410432 </i>
    <i name="e_0_energy">   -200.20915276 </i>
   </energy>
  </scstep>
  <scstep>
   <time name="dav">   12.50   12.58</time>
   <time name="total">   12.97   13.05</time>
   <energy>
    <i name="e_fr_energy">   -202.76433251 </i>
    <i name="e_wo_entrp">   -197.65398734 </i>
    <i name="e_0_energy">   -200.20915993 </i>
   </energy>
  </scstep>
  <scstep>
   <time name="dav">   11.02   11.09</time>
   <time name="total">   11.48   11.56</time>
   <energy>
    <i name="e_fr_energy">   -202.76444230 </i>
    <i name="e_wo_entrp">   -197.65400048 </i>
    <i name="e_0_energy">   -200.20922139 </i>
   </energy>
  </scstep>
  <scstep>
   <time name="dav">   10.81   10.88</time>
   <time name="total">   11.28   11.35</time>
   <energy>
    <i name="e_fr_energy">   -202.76448726 </i>
    <i name="e_wo_entrp">   -197.65418508 </i>
    <i name="e_0_energy">   -200.20933617 </i>
   </energy>
  </scstep>
  <scstep>
   <time name="dav">   10.77   10.84</time>
   <time name="total">   11.24   11.31</time>
   <energy>
    <i name="e_fr_energy">   -202.76451160 </i>
    <i name="e_wo_entrp">   -197.65412739 </i>
    <i name="e_0_energy">   -200.20931949 </i>
   </energy>
  </scstep>
  <scstep>
   <time name="dav">   10.61   10.68</time>
   <time name="total">   11.08   11.15</time>
   <energy>
    <i name="e_fr_energy">   -202.76452658 </i>
    <i name="e_wo_entrp">   -197.65407681 </i>
    <i name="e_0_energy">   -200.20930169 </i>
   </energy>
  </scstep>
  <scstep>
   <time name="dav">   10.37   10.43</time>
   <time name="total">   10.47   10.54</time>
   <energy>
    <i name="alphaZ">    918.22725072 </i>
    <i name="ewald">  22655.23147521 </i>
    <i name="hartreedc"> -55202.90642146 </i>
    <i name="XCdc">   -999.96219766 </i>
    <i name="pawpsdc">  35289.20490981 </i>
    <i name="pawaedc"> -33135.69073404 </i>
    <i name="eentropy">     -5.11045447 </i>
    <i name="bandstr">    116.37830987 </i>
    <i name="atom">  30161.86332653 </i>
    <i name="e_fr_energy">   -202.76453548 </i>
    <i name="e_wo_entrp">   -197.65408101 </i>
    <i name="e_0_energy">   -200.20930824 </i>
   </energy>
  </scstep>
  <structure>
   <crystal>
    <varray name="basis" >
     <v>       8.30990028       0.00000000       0.00000000 </v>
     <v>      -4.15495014       7.19658475       0.00000000 </v>
     <v>       0.00000000       0.00000000      16.52350044 </v>
    </varray>
    <i name="volume">    988.15327180 </i>
    <varray name="rec_basis" >
     <v>       0.12033839       0.06947740       0.00000000 </v>
     <v>       0.00000000       0.13895480       0.00000000 </v>
     <v>       0.00000000       0.00000000       0.06051986 </v>
    </varray>
   </crystal>
   <varray name="positions" >
    <v>       0.00135893       0.99704576       0.44498986 </v>
    <v>       0.11093000       0.22330000       0.16024000 </v>
    <v>       0.22185532       0.11262366       0.30038255 </v>
    <v>       0.33007066       0.99984636       0.44473886 </v>
    <v>       0.44426000       0.22330000       0.16024000 </v>
    <v>       0.55286032       0.11004937       0.29850915 </v>
    <v>       0.66438384       0.99846247       0.43598272 </v>
    <v>       0.77760000       0.22330000       0.16024000 </v>
    <v>       0.88873182       0.11174380       0.30026435 </v>
    <v>       0.99882637       0.33368881       0.44508428 </v>
    <v>       0.11093000       0.55664000       0.16024000 </v>
    <v>       0.22098355       0.44353450       0.29945637 </v>
    <v>       0.32990354       0.32796999       0.45624017 </v>
    <v>       0.44426000       0.55664000       0.16024000 </v>
    <v>       0.55145130       0.44285346       0.29986376 </v>
    <v>       0.66527090       0.33234744       0.43563690 </v>
    <v>       0.77760000       0.55664000       0.16024000 </v>
    <v>       0.88775846       0.44308203       0.29870799 </v>
    <v>       0.99565269       0.66393579       0.43511238 </v>
    <v>       0.11093000       0.88997000       0.16024000 </v>
    <v>       0.22272341       0.77845046       0.29976123 </v>
    <v>       0.33143178       0.66178632       0.44344883 </v>
    <v>       0.44426000       0.88997000       0.16024000 </v>
    <v>       0.55276715       0.77719153       0.29886448 </v>
    <v>       0.66678415       0.66635239       0.43571366 </v>
    <v>       0.77760000       0.88997000       0.16024000 </v>
    <v>       0.88801320       0.77903341       0.29805655 </v>
    <v>       0.99982000       0.00108000       0.02337000 </v>
    <v>       0.33315000       0.00108000       0.02337000 </v>
    <v>       0.66649000       0.00108000       0.02337000 </v>
    <v>       0.99982000       0.33441000       0.02337000 </v>
    <v>       0.33315000       0.33441000       0.02337000 </v>
    <v>       0.66649000       0.33441000       0.02337000 </v>
    <v>       0.99982000       0.66775000       0.02337000 </v>
    <v>       0.33315000       0.66775000       0.02337000 </v>
    <v>       0.66649000       0.66775000       0.02337000 </v>
    <v>       0.21450176       0.07668421       0.54611505 </v>
    <v>       0.21735437       0.43376351       0.53153708 </v>
    <v>       0.20748014       0.05703922       0.61701791 </v>
   </varray>
  </structure>
  <varray name="forces" >
   <v>       0.10899717       0.00915140       0.42071914 </v>
   <v>      -0.00994138      -0.02243786       0.26861023 </v>
   <v>       0.00482804      -0.00233965       0.10596758 </v>
   <v>      -0.01788323      -0.00960361       0.46279651 </v>
   <v>      -0.02844515       0.01027691       0.23599183 </v>
   <v>      -0.02673666      -0.01939214       0.06662269 </v>
   <v>      -0.00561295      -0.01666232       0.01011700 </v>
   <v>       0.02495128       0.00332133       0.16370974 </v>
   <v>       0.02746962       0.00917504       0.12407448 </v>
   <v>       0.01545923      -0.00964987       0.26630156 </v>
   <v>      -0.00740856      -0.00483170       0.17246291 </v>
   <v>       0.00132143      -0.00482429       0.07502802 </v>
   <v>       0.36043896      -0.19891088       0.27983130 </v>
   <v>      -0.00680584      -0.03455453       0.23418390 </v>
   <v>      -0.00204533      -0.00266422       0.04733859 </v>
   <v>       0.04614413      -0.01039374       0.01840190 </v>
   <v>      -0.01742997      -0.02421997       0.12435677 </v>
   <v>       0.03184176      -0.01835856       0.06598852 </v>
   <v>      -0.01377898      -0.00419700       0.01567172 </v>
   <v>       0.00092932      -0.00100019       0.22660934 </v>
   <v>       0.03304362       0.01952759       0.14106833 </v>
   <v>       0.02045846      -0.10898528       0.33416542 </v>
   <v>      -0.02488372      -0.02540588       0.21855901 </v>
   <v>      -0.02954868      -0.01998231       0.06330719 </v>
   <v>       0.02239958       0.02892681       0.00623761 </v>
   <v>       0.00812945       0.02191439       0.19937278 </v>
   <v>       0.00241452       0.02857005       0.04185082 </v>
   <v>       0.00057831       0.00906946      -0.13468777 </v>
   <v>       0.00390898       0.00566652      -0.14404203 </v>
   <v>      -0.00344700      -0.00085810      -0.14074129 </v>
   <v>       0.01159361      -0.00622617      -0.12684919 </v>
   <v>       0.00131726       0.00018889      -0.14581670 </v>
   <v>      -0.01139093      -0.01028116      -0.12972212 </v>
   <v>       0.01100563       0.00613478      -0.12519979 </v>
   <v>       0.00105805       0.00389713      -0.14892276 </v>
   <v>      -0.01535357      -0.00519575      -0.13758909 </v>
   <v>       0.20676803      -0.49560567      -1.01556415 </v>
   <v>      -0.61881817       0.62109238      -1.31204356 </v>
   <v>      -0.10552631       0.27966817      -0.82816644 </v>
  </varray>
  <varray name="stress" >
   <v>     -22.92425918      -1.42744448      -1.09203741 </v>
   <v>      -1.42744461     -22.16196945       1.92128900 </v>
   <v>      -1.09203734       1.92128870     -22.77926792 </v>
  </varray>
  <energy>
   <i name="e_fr_energy">   -202.76453548 </i>
   <i name="e_wo_entrp">   -197.65408101 </i>
   <i name="e_0_energy">   -200.20930824 </i>
  </energy>
  <time name="totalsc">  600.30  603.72</time>
 </calculation>
 <calculation>
  <scstep>
   <time name="dav">   14.47   14.57</time>
   <time name="total">   14.94   15.03</time>
   <energy>
    <i name="alphaZ">    918.22725072 </i>
    <i name="ewald">  22649.04583357 </i>
    <i name="hartreedc"> -55196.72306600 </i>
    <i name="XCdc">   -999.96400736 </i>
    <i name="pawpsdc">  35289.18472591 </i>
    <i name="pawaedc"> -33135.66942152 </i>
    <i name="eentropy">     -5.10973192 </i>
    <i name="bandstr">    116.37835979 </i>
    <i name="atom">  30161.86332653 </i>
    <i name="e_fr_energy">   -202.76673027 </i>
    <i name="e_wo_entrp">   -197.65699836 </i>
    <i name="e_0_energy">   -200.21186432 </i>
   </energy>
  </scstep>
  <scstep>
   <time name="dav">   14.74   14.84</time>
   <time name="total">   15.20   15.30</time>
   <energy>
    <i name="e_fr_energy">   -202.76677573 </i>
    <i name="e_wo_entrp">   -197.65612521 </i>
    <i name="e_0_energy">   -200.21145047 </i>
   </energy>
  </scstep>
  <scstep>
   <time name="dav">   10.49   10.56</time>
   <time name="total">   10.95   11.02</time>
   <energy>
    <i name="e_fr_energy">   -202.76677337 </i>
    <i name="e_wo_entrp">   -197.65725119 </i>
    <i name="e_0_energy">   -200.21201228 </i>
   </energy>
  </scstep>
  <scstep>
   <time name="dav">    9.94   10.00</time>
   <time name="total">   10.04   10.10</time>
   <energy>
    <i name="alphaZ">    918.22725072 </i>
    <i name="ewald">  22649.04583357 </i>
    <i name="hartreedc"> -55196.73529070 </i>
    <i name="XCdc">   -999.96311235 </i>
    <i name="pawpsdc">  35289.16819832 </i>
    <i name="pawaedc"> -33135.65033860 </i>
    <i name="eentropy">     -5.10989365 </i>
    <i name="bandstr">    116.38725453 </i>
    <i name="atom">  30161.86332653 </i>
    <i name="e_fr_energy">   -202.76677163 </i>
    <i name="e_wo_entrp">   -197.65687799 </i>
    <i name="e_0_energy">   -200.21182481 </i>
   </energy>
  </scstep>
  <structure>
   <crystal>
    <varray name="basis" >
     <v>       8.30990028       0.00000000       0.00000000 </v>
     <v>      -4.15495014       7.19658475       0.00000000 </v>
     <v>       0.00000000       0.00000000      16.52350044 </v>
    </varray>
    <i name="volume">    988.15327180 </i>
    <varray name="rec_basis" >
     <v>       0.12033839       0.06947740       0.00000000 </v>
     <v>       0.00000000       0.13895480       0.00000000 </v>
     <v>       0.00000000       0.00000000       0.06051986 </v>
    </varray>
   </crystal>
   <varray name="positions" >
    <v>       0.00138062       0.99705177       0.44503148 </v>
    <v>       0.11093000       0.22330000       0.16024000 </v>
    <v>       0.22185804       0.11262617       0.30039880 </v>
    <v>       0.33006975       0.99984556       0.44478908 </v>
    <v>       0.44426000       0.22330000       0.16024000 </v>
    <v>       0.55285138       0.11004518       0.29851858 </v>
    <v>       0.66438226       0.99846004       0.43598512 </v>
    <v>       0.77760000       0.22330000       0.16024000 </v>
    <v>       0.88874183       0.11174710       0.30027971 </v>
    <v>       0.99883578       0.33368617       0.44511732 </v>
    <v>       0.11093000       0.55664000       0.16024000 </v>
    <v>       0.22098427       0.44353343       0.29947021 </v>
    <v>       0.32996257       0.32794994       0.45627949 </v>
    <v>       0.44426000       0.55664000       0.16024000 </v>
    <v>       0.55145138       0.44285358       0.29987124 </v>
    <v>       0.66528170       0.33234622       0.43564131 </v>
    <v>       0.77760000       0.55664000       0.16024000 </v>
    <v>       0.88776620       0.44307771       0.29871765 </v>
    <v>       0.99565584       0.66393903       0.43511741 </v>
    <v>       0.11093000       0.88997000       0.16024000 </v>
    <v>       0.22273423       0.77845757       0.29977920 </v>
    <v>       0.33142582       0.66176763       0.44348194 </v>
    <v>       0.44426000       0.88997000       0.16024000 </v>
    <v>       0.55275919       0.77718666       0.29887161 </v>
    <v>       0.66679237       0.66636168       0.43571654 </v>
    <v>       0.77760000       0.88997000       0.16024000 </v>
    <v>       0.88801964       0.77904276       0.29806328 </v>
    <v>       0.99982000       0.00108000       0.02337000 </v>
    <v>       0.33315000       0.00108000       0.02337000 </v>
    <v>       0.66649000       0.00108000       0.02337000 </v>
    <v>       0.99982000       0.33441000       0.02337000 </v>
    <v>       0.33315000       0.33441000       0.02337000 </v>
    <v>       0.66649000       0.33441000       0.02337000 </v>
    <v>       0.99982000       0.66775000       0.02337000 </v>
    <v>       0.33315000       0.66775000       0.02337000 </v>
    <v>       0.66649000       0.66775000       0.02337000 </v>
    <v>       0.21451197       0.07658605       0.54613597 </v>
    <v>       0.21734694       0.43375761       0.53149766 </v>
    <v>       0.20751668       0.05703841       0.61704095 </v>
   </varray>
  </structure>
  <varray name="forces" >
   <v>       0.10721887       0.00854076       0.41788298 </v>
   <v>      -0.00981428      -0.02253861       0.26967692 </v>
   <v>       0.00494443      -0.00294639       0.10546918 </v>
   <v>      -0.01563211      -0.01088516       0.45847529 </v>
   <v>      -0.02839486       0.01009331       0.23672962 </v>
   <v>      -0.02619727      -0.01932466       0.06607558 </v>
   <v>      -0.00544524      -0.01684949       0.01129623 </v>
   <v>       0.02507783       0.00311701       0.16477110 </v>
   <v>       0.02718959       0.00879810       0.12324912 </v>
   <v>       0.01435567      -0.01093303       0.26263068 </v>
   <v>      -0.00724593      -0.00474506       0.17356162 </v>
   <v>       0.00129176      -0.00469900       0.07455832 </v>
   <v>       0.35847633      -0.19730122       0.27268892 </v>
   <v>      -0.00677794      -0.03470575       0.23492292 </v>
   <v>      -0.00165578      -0.00256075       0.04639961 </v>
   <v>       0.04650945      -0.01064410       0.01946732 </v>
   <v>      -0.01722682      -0.02427888       0.12520706 </v>
   <v>       0.03155019      -0.01813327       0.06506262 </v>
   <v>      -0.01321609      -0.00478713       0.01663787 </v>
   <v>       0.00121156      -0.00107564       0.22766730 </v>
   <v>       0.03236340       0.01949058       0.13919514 </v>
   <v>       0.02086210      -0.10493987       0.32884235 </v>
   <v>      -0.02493531      -0.02555310       0.21942325 </v>
   <v>      -0.02903576      -0.01983415       0.06276086 </v>
   <v>       0.02226317       0.02853517       0.00724690 </v>
   <v>       0.00819777       0.02188857       0.20027630 </v>
   <v>       0.00252765       0.02812986       0.04128187 </v>
   <v>       0.00067820       0.00888801      -0.13389657 </v>
   <v>       0.00397817       0.00550644      -0.14305107 </v>
   <v>      -0.00333283      -0.00102786      -0.13986973 </v>
   <v>       0.01168254      -0.00629213      -0.12627274 </v>
   <v>       0.00144652       0.00011931      -0.14492298 </v>
   <v>      -0.01132956      -0.01028906      -0.12885404 </v>
   <v>       0.01107594       0.00602573      -0.12427435 </v>
   <v>       0.00114591       0.00377888      -0.14802224 </v>
   <v>      -0.01522075      -0.00533865      -0.13657647 </v>
   <v>       0.20713963      -0.49351047      -1.01899508 </v>
   <v>      -0.62064741       0.62262281      -1.30506045 </v>
   <v>      -0.10507875       0.27765891      -0.82166121 </v>
  </varray>
  <varray name="stress" >
   <v>     -22.91604076      -1.42947697      -1.09445342 </v>
   <v>      -1.42947702     -22.15533535       1.91378107 </v>
   <v>      -1.09445377       1.91378122     -22.74793883 </v>
  </varray>
  <energy>
   <i name="e_fr_energy">   -202.76677163 </i>
   <i name="e_wo_entrp">   -197.65687799 </i>
   <i name="e_0_energy">   -200.21182481 </i>
  </energy>
  <time name="totalsc">  177.82  178.53</time>
 </calculation>
 <calculation>
  <scstep>
   <time name="dav">   13.99   14.08</time>
   <time name="total">   14.46   14.55</time>
   <energy>
    <i name="alphaZ">    918.22725072 </i>
    <i name="ewald">  22636.75267976 </i>
    <i name="hartreedc"> -55184.47944972 </i>
    <i name="XCdc">   -999.96691132 </i>
    <i name="pawpsdc">  35289.20086002 </i>
    <i name="pawaedc"> -33135.68235299 </i>
    <i name="eentropy">     -5.10873123 </i>
    <i name="bandstr">    116.42231113 </i>
    <i name="atom">  30161.86332653 </i>
    <i name="e_fr_energy">   -202.77101708 </i>
    <i name="e_wo_entrp">   -197.66228585 </i>
    <i name="e_0_energy">   -200.21665146 </i>
   </energy>
  </scstep>
  <scstep>
   <time name="dav">   14.30   14.39</time>
   <time name="total">   14.76   14.86</time>
   <energy>
    <i name="e_fr_energy">   -202.77118984 </i>
    <i name="e_wo_entrp">   -197.66220415 </i>
    <i name="e_0_energy">   -200.21669699 </i>
   </energy>
  </scstep>
  <scstep>
   <time name="dav">   15.02   15.12</time>
   <time name="total">   15.48   15.58</time>
   <energy>
    <i name="e_fr_energy">   -202.77120673 </i>
    <i name="e_wo_entrp">   -197.66304492 </i>
    <i name="e_0_energy">   -200.21712583 </i>
   </energy>
  </scstep>
  <scstep>
   <time name="dav">   12.00   12.07</time>
   <time name="total">   12.46   12.54</time>
   <energy>
    <i name="e_fr_energy">   -202.77118234 </i>
    <i name="e_wo_entrp">   -197.66149546 </i>
    <i name="e_0_energy">   -200.21633890 </i>
   </energy>
  </scstep>
  <scstep>
   <time name="dav">   10.45   10.52</time>
   <time name="total">   10.91   10.98</time>
   <energy>
    <i name="e_fr_energy">   -202.77115723 </i>
    <i name="e_wo_entrp">   -197.66267647 </i>
    <i name="e_0_energy">   -200.21691685 </i>
   </energy>
  </scstep>
  <scstep>
   <time name="dav">   10.02   10.08</time>
   <time name="total">   10.12   10.19</time>
   <energy>
    <i name="alphaZ">    918.22725072 </i>
    <i name="ewald">  22636.75267976 </i>
    <i name="hartreedc"> -55184.57361134 </i>
    <i name="XCdc">   -999.96469742 </i>
    <i name="pawpsdc">  35289.31294175 </i>
    <i name="pawaedc"> -33135.78736940 </i>
    <i name="eentropy">     -5.10928152 </i>
    <i name="bandstr">    116.50760373 </i>
    <i name="atom">  30161.86332653 </i>
    <i name="e_fr_energy">   -202.77115718 </i>
    <i name="e_wo_entrp">   -197.66187566 </i>
    <i name="e_0_energy">   -200.21651642 </i>
   </energy>
  </scstep>
  <structure>
   <crystal>
    <varray name="basis" >
     <v>       8.30990028       0.00000000       0.00000000 </v>
     <v>      -4.15495014       7.19658475       0.00000000 </v>
     <v>       0.00000000       0.00000000      16.52350044 </v>
    </varray>
    <i name="volume">    988.15327180 </i>
    <varray name="rec_basis" >
     <v>       0.12033839       0.06947740       0.00000000 </v>
     <v>       0.00000000       0.13895480       0.00000000 </v>
     <v>       0.00000000       0.00000000       0.06051986 </v>
    </varray>
   </crystal>
   <varray name="positions" >
    <v>       0.00142301       0.99706348       0.44511413 </v>
    <v>       0.11093000       0.22330000       0.16024000 </v>
    <v>       0.22186341       0.11263088       0.30043136 </v>
    <v>       0.33006863       0.99984345       0.44488873 </v>
    <v>       0.44426000       0.22330000       0.16024000 </v>
    <v>       0.55283372       0.11003681       0.29853738 </v>
    <v>       0.66437915       0.99845510       0.43599027 </v>
    <v>       0.77760000       0.22330000       0.16024000 </v>
    <v>       0.88876165       0.11175349       0.30031034 </v>
    <v>       0.99885410       0.33368036       0.44518289 </v>
    <v>       0.11093000       0.55664000       0.16024000 </v>
    <v>       0.22098574       0.44353132       0.29949794 </v>
    <v>       0.33008030       0.32791129       0.45635691 </v>
    <v>       0.44426000       0.55664000       0.16024000 </v>
    <v>       0.55145171       0.44285384       0.29988609 </v>
    <v>       0.66530343       0.33234361       0.43565051 </v>
    <v>       0.77760000       0.55664000       0.16024000 </v>
    <v>       0.88778165       0.44306914       0.29873682 </v>
    <v>       0.99566233       0.66394515       0.43512780 </v>
    <v>       0.11093000       0.88997000       0.16024000 </v>
    <v>       0.22275554       0.77847186       0.29981471 </v>
    <v>       0.33141535       0.66173291       0.44354679 </v>
    <v>       0.44426000       0.88997000       0.16024000 </v>
    <v>       0.55274353       0.77717696       0.29888577 </v>
    <v>       0.66680863       0.66638008       0.43572265 </v>
    <v>       0.77760000       0.88997000       0.16024000 </v>
    <v>       0.88803251       0.77906123       0.29807661 </v>
    <v>       0.99982000       0.00108000       0.02337000 </v>
    <v>       0.33315000       0.00108000       0.02337000 </v>
    <v>       0.66649000       0.00108000       0.02337000 </v>
    <v>       0.99982000       0.33441000       0.02337000 </v>
    <v>       0.33315000       0.33441000       0.02337000 </v>
    <v>       0.66649000       0.33441000       0.02337000 </v>
    <v>       0.99982000       0.66775000       0.02337000 </v>
    <v>       0.33315000       0.66775000       0.02337000 </v>
    <v>       0.66649000       0.66775000       0.02337000 </v>
    <v>       0.21453298       0.07638961       0.54617621 </v>
    <v>       0.21733121       0.43374561       0.53141833 </v>
    <v>       0.20758971       0.05703665       0.61708872 </v>
   </varray>
  </structure>
  <varray name="forces" >
   <v>       0.10432277       0.00918564       0.41676119 </v>
   <v>      -0.00969381      -0.02243715       0.27149760 </v>
   <v>       0.00458929      -0.00422542       0.10419051 </v>
   <v>      -0.01269163      -0.01301659       0.45741175 </v>
   <v>      -0.02855593       0.00989718       0.23821127 </v>
   <v>      -0.02610486      -0.01908915       0.06624277 </v>
   <v>      -0.00508010      -0.01736500       0.01199368 </v>
   <v>       0.02530285       0.00293791       0.16618683 </v>
   <v>       0.02760775       0.00901061       0.12257536 </v>
   <v>       0.00668351      -0.01823828       0.25471386 </v>
   <v>      -0.00688902      -0.00459107       0.17530872 </v>
   <v>       0.00170344      -0.00474139       0.07422605 </v>
   <v>       0.35998529      -0.19686711       0.26759454 </v>
   <v>      -0.00700874      -0.03486495       0.23607041 </v>
   <v>      -0.00123424      -0.00233075       0.04606928 </v>
   <v>       0.04675403      -0.01058374       0.01945277 </v>
   <v>      -0.01697410      -0.02432438       0.12645087 </v>
   <v>       0.03142051      -0.01764200       0.06460121 </v>
   <v>      -0.01382637      -0.00457835       0.01641110 </v>
   <v>       0.00163459      -0.00080630       0.22945426 </v>
   <v>       0.03284812       0.01927323       0.13912060 </v>
   <v>       0.02127032      -0.09847036       0.32401558 </v>
   <v>      -0.02508626      -0.02562726       0.22077089 </v>
   <v>      -0.02854525      -0.01975565       0.06250581 </v>
   <v>       0.02343849       0.02875699       0.00671183 </v>
   <v>       0.00810125       0.02219135       0.20145471 </v>
   <v>       0.00294712       0.02819514       0.04166220 </v>
   <v>       0.00061289       0.00891366      -0.13469730 </v>
   <v>       0.00405363       0.00548866      -0.14400513 </v>
   <v>      -0.00320012      -0.00101043      -0.14067329 </v>
   <v>       0.01173760      -0.00638270      -0.12701155 </v>
   <v>       0.00142741       0.00013179      -0.14584659 </v>
   <v>      -0.01123306      -0.01029289      -0.12973201 </v>
   <v>       0.01113926       0.00598482      -0.12510305 </v>
   <v>       0.00122868       0.00374288      -0.14883833 </v>
   <v>      -0.01517745      -0.00530718      -0.13733531 </v>
   <v>       0.20475657      -0.48803051      -1.02634419 </v>
   <v>      -0.61817295       0.62342027      -1.28937345 </v>
   <v>      -0.10409146       0.27344850      -0.81270542 </v>
  </varray>
  <varray name="stress" >
   <v>     -22.96924610      -1.42776559      -1.11037455 </v>
   <v>      -1.42776568     -22.20858004       1.92107637 </v>
   <v>      -1.11037459       1.92107623     -22.87964318 </v>
  </varray>
  <energy>
   <i name="e_fr_energy">   -202.77115718 </i>
   <i name="e_wo_entrp">   -197.66187566 </i>
   <i name="e_0_energy">   -200.21651642 </i>
  </energy>
  <time name="totalsc">  183.04  183.84</time>
 </calculation>
 <calculation>
  <scstep>
   <time name="dav">   14.11   14.20</time>
   <time name="total">   14.57   14.66</time>
   <energy>
    <i name="alphaZ">    918.22725072 </i>
    <i name="ewald">  22618.39947284 </i>
    <i name="hartreedc"> -55166.21638103 </i>
    <i name="XCdc">   -999.97050567 </i>
    <i name="pawpsdc">  35289.37191026 </i>
    <i name="pawaedc"> -33135.84536302 </i>
    <i name="eentropy">     -5.10654738 </i>
    <i name="bandstr">    116.49956355 </i>
    <i name="atom">  30161.86332653 </i>
    <i name="e_fr_energy">   -202.77727320 </i>
    <i name="e_wo_entrp">   -197.67072581 </i>
    <i name="e_0_energy">   -200.22399950 </i>
   </energy>
  </scstep>
  <scstep>
   <time name="dav">   14.29   14.38</time>
   <time name="total">   14.76   14.85</time>
   <energy>
    <i name="e_fr_energy">   -202.77771276 </i>
    <i name="e_wo_entrp">   -197.66768551 </i>
    <i name="e_0_energy">   -200.22269913 </i>
   </energy>
  </scstep>
  <scstep>
   <time name="dav">   14.95   15.04</time>
   <time name="total">   15.41   15.51</time>
   <energy>
    <i name="e_fr_energy">   -202.77764006 </i>
    <i name="e_wo_entrp">   -197.67144449 </i>
    <i name="e_0_energy">   -200.22454227 </i>
   </energy>
  </scstep>
  <scstep>
   <time name="dav">   15.00   15.10</time>
   <time name="total">   15.47   15.56</time>
   <energy>
    <i name="e_fr_energy">   -202.77764011 </i>
    <i name="e_wo_entrp">   -197.67026985 </i>
    <i name="e_0_energy">   -200.22395498 </i>
   </energy>
  </scstep>
  <scstep>
   <time name="dav">   12.55   12.66</time>
   <time name="total">   13.02   13.12</time>
   <energy>
    <i name="e_fr_energy">   -202.77759353 </i>
    <i name="e_wo_entrp">   -197.66963104 </i>
    <i name="e_0_energy">   -200.22361229 </i>
   </energy>
  </scstep>
  <scstep>
   <time name="dav">   10.22   10.31</time>
   <time name="total">   10.33   10.41</time>
   <energy>
    <i name="alphaZ">    918.22725072 </i>
    <i name="ewald">  22618.39947284 </i>
    <i name="hartreedc"> -55166.24762838 </i>
    <i name="XCdc">   -999.96751020 </i>
    <i name="pawpsdc">  35289.36625614 </i>
    <i name="pawaedc"> -33135.83081078 </i>
    <i name="eentropy">     -5.10743641 </i>
    <i name="bandstr">    116.51949126 </i>
    <i name="atom">  30161.86332653 </i>
    <i name="e_fr_energy">   -202.77758830 </i>
    <i name="e_wo_entrp">   -197.67015189 </i>
    <i name="e_0_energy">   -200.22387009 </i>
   </energy>
  </scstep>
  <structure>
   <crystal>
    <varray name="basis" >
     <v>       8.30990028       0.00000000       0.00000000 </v>
     <v>      -4.15495014       7.19658475       0.00000000 </v>
     <v>       0.00000000       0.00000000      16.52350044 </v>
    </varray>
    <i name="volume">    988.15327180 </i>
    <varray name="rec_basis" >
     <v>       0.12033839       0.06947740       0.00000000 </v>
     <v>       0.00000000       0.13895480       0.00000000 </v>
     <v>       0.00000000       0.00000000       0.06051986 </v>
    </varray>
   </crystal>
   <varray name="positions" >
    <v>       0.00148479       0.99708198       0.44523779 </v>
    <v>       0.11093000       0.22330000       0.16024000 </v>
    <v>       0.22187068       0.11263699       0.30048001 </v>
    <v>       0.33006794       0.99983919       0.44503847 </v>
    <v>       0.44426000       0.22330000       0.16024000 </v>
    <v>       0.55280723       0.11002438       0.29856582 </v>
    <v>       0.66437458       0.99844732       0.43599824 </v>
    <v>       0.77760000       0.22330000       0.16024000 </v>
    <v>       0.88879205       0.11176346       0.30035620 </v>
    <v>       0.99887235       0.33366503       0.44527894 </v>
    <v>       0.11093000       0.55664000       0.16024000 </v>
    <v>       0.22098828       0.44352796       0.29953981 </v>
    <v>       0.33025855       0.32785502       0.45647285 </v>
    <v>       0.44426000       0.55664000       0.16024000 </v>
    <v>       0.55145239       0.44285427       0.29990858 </v>
    <v>       0.66533617       0.33233980       0.43566439 </v>
    <v>       0.77760000       0.55664000       0.16024000 </v>
    <v>       0.88780504       0.44305655       0.29876570 </v>
    <v>       0.99567174       0.66395473       0.43514337 </v>
    <v>       0.11093000       0.88997000       0.16024000 </v>
    <v>       0.22278792       0.77849324       0.29986815 </v>
    <v>       0.33140291       0.66168750       0.44364206 </v>
    <v>       0.44426000       0.88997000       0.16024000 </v>
    <v>       0.55272038       0.77716240       0.29890696 </v>
    <v>       0.66683425       0.66640802       0.43573162 </v>
    <v>       0.77760000       0.88997000       0.16024000 </v>
    <v>       0.88805233       0.77908909       0.29809687 </v>
    <v>       0.99982000       0.00108000       0.02337000 </v>
    <v>       0.33315000       0.00108000       0.02337000 </v>
    <v>       0.66649000       0.00108000       0.02337000 </v>
    <v>       0.99982000       0.33441000       0.02337000 </v>
    <v>       0.33315000       0.33441000       0.02337000 </v>
    <v>       0.66649000       0.33441000       0.02337000 </v>
    <v>       0.99982000       0.66775000       0.02337000 </v>
    <v>       0.33315000       0.66775000       0.02337000 </v>
    <v>       0.66649000       0.66775000       0.02337000 </v>
    <v>       0.21456399       0.07609771       0.54623126 </v>
    <v>       0.21730958       0.43372452       0.53129951 </v>
    <v>       0.20769851       0.05703324       0.61716349 </v>
   </varray>
  </structure>
  <varray name="forces" >
   <v>       0.10188739       0.00830022       0.41100742 </v>
   <v>      -0.00936559      -0.02223575       0.27390504 </v>
   <v>       0.00308694      -0.00598912       0.10191005 </v>
   <v>      -0.00876577      -0.01743729       0.45140090 </v>
   <v>      -0.02861891       0.00967228       0.24030300 </v>
   <v>      -0.02542933      -0.01848843       0.06624649 </v>
   <v>      -0.00464480      -0.01793789       0.01394308 </v>
   <v>       0.02573001       0.00268362       0.16845675 </v>
   <v>       0.02745895       0.00820367       0.12144004 </v>
   <v>       0.00371071      -0.02242310       0.24579668 </v>
   <v>      -0.00625749      -0.00420694       0.17774514 </v>
   <v>       0.00126945      -0.00398888       0.07312352 </v>
   <v>       0.35776111      -0.19620151       0.25463008 </v>
   <v>      -0.00717975      -0.03506023       0.23764482 </v>
   <v>      -0.00013310      -0.00184043       0.04542592 </v>
   <v>       0.04781960      -0.01042609       0.01992013 </v>
   <v>      -0.01646160      -0.02429772       0.12849251 </v>
   <v>       0.03067639      -0.01591165       0.06343857 </v>
   <v>      -0.01347493      -0.00600068       0.01611625 </v>
   <v>       0.00243490      -0.00039106       0.23210276 </v>
   <v>       0.03107592       0.01794234       0.13834956 </v>
   <v>       0.02310336      -0.09460697       0.31915655 </v>
   <v>      -0.02522796      -0.02563887       0.22283676 </v>
   <v>      -0.02728300      -0.01937457       0.06225138 </v>
   <v>       0.02456059       0.02881796       0.00665613 </v>
   <v>       0.00812694       0.02269903       0.20333364 </v>
   <v>       0.00373472       0.02795988       0.04093934 </v>
   <v>       0.00069825       0.00897823      -0.13418911 </v>
   <v>       0.00426160       0.00548624      -0.14375577 </v>
   <v>      -0.00287120      -0.00097767      -0.14020331 </v>
   <v>       0.01198288      -0.00638100      -0.12615429 </v>
   <v>       0.00155186       0.00021845      -0.14519572 </v>
   <v>      -0.01099504      -0.01016196      -0.12940452 </v>
   <v>       0.01136096       0.00600177      -0.12453698 </v>
   <v>       0.00144578       0.00373196      -0.14813554 </v>
   <v>      -0.01495259      -0.00522753      -0.13686528 </v>
   <v>       0.20289315      -0.48224729      -1.02172433 </v>
   <v>      -0.62134690       0.62759268      -1.27260539 </v>
   <v>      -0.10362353       0.26916430      -0.81380228 </v>
  </varray>
  <varray name="stress" >
   <v>     -22.95228489      -1.43013197      -1.11563509 </v>
   <v>      -1.43013198     -22.19591637       1.92599731 </v>
   <v>      -1.11563527       1.92599722     -22.81288840 </v>
  </varray>
  <energy>
   <i name="e_fr_energy">   -202.77758830 </i>
   <i name="e_wo_entrp">   -197.67015189 </i>
   <i name="e_0_energy">   -200.22387009 </i>
  </energy>
  <time name="totalsc">  182.45  183.39</time>
 </calculation>
 <calculation>
  <scstep>
   <time name="dav">   14.17   14.26</time>
   <time name="total">   14.62   14.71</time>
   <energy>
    <i name="alphaZ">    918.22725072 </i>
    <i name="ewald">  22594.25604613 </i>
    <i name="hartreedc"> -55142.17749560 </i>
    <i name="XCdc">   -999.97537385 </i>
    <i name="pawpsdc">  35289.42849243 </i>
    <i name="pawaedc"> -33135.89169221 </i>
    <i name="eentropy">     -5.10431694 </i>
    <i name="bandstr">    116.58841525 </i>
    <i name="atom">  30161.86332653 </i>
    <i name="e_fr_energy">   -202.78534753 </i>
    <i name="e_wo_entrp">   -197.68103060 </i>
    <i name="e_0_energy">   -200.23318906 </i>
   </energy>
  </scstep>
  <scstep>
   <time name="dav">   14.36   14.45</time>
   <time name="total">   14.82   14.92</time>
   <energy>
    <i name="e_fr_energy">   -202.78608037 </i>
    <i name="e_wo_entrp">   -197.67805722 </i>
    <i name="e_0_energy">   -200.23206879 </i>
   </energy>
  </scstep>
  <scstep>
   <time name="dav">   15.17   15.27</time>
   <time name="total">   15.63   15.73</time>
   <energy>
    <i name="e_fr_energy">   -202.78602023 </i>
    <i name="e_wo_entrp">   -197.68252211 </i>
    <i name="e_0_energy">   -200.23427117 </i>
   </energy>
  </scstep>
  <scstep>
   <time name="dav">   15.16   15.26</time>
   <time name="total">   15.62   15.72</time>
   <energy>
    <i name="e_fr_energy">   -202.78599485 </i>
    <i name="e_wo_entrp">   -197.68085139 </i>
    <i name="e_0_energy">   -200.23342312 </i>
   </energy>
  </scstep>
  <scstep>
   <time name="dav">   14.74   14.86</time>
   <time name="total">   15.20   15.32</time>
   <energy>
    <i name="e_fr_energy">   -202.78590010 </i>
    <i name="e_wo_entrp">   -197.68046470 </i>
    <i name="e_0_energy">   -200.23318240 </i>
   </energy>
  </scstep>
  <scstep>
   <time name="dav">   14.31   14.42</time>
   <time name="total">   14.77   14.88</time>
   <energy>
    <i name="e_fr_energy">   -202.78592034 </i>
    <i name="e_wo_entrp">   -197.67994974 </i>
    <i name="e_0_energy">   -200.23293504 </i>
   </energy>
  </scstep>
  <scstep>
   <time name="dav">   12.40   12.50</time>
   <time name="total">   12.86   12.96</time>
   <energy>
    <i name="e_fr_energy">   -202.78589870 </i>
    <i name="e_wo_entrp">   -197.68107391 </i>
    <i name="e_0_energy">   -200.23348631 </i>
   </energy>
  </scstep>
  <scstep>
   <time name="dav">    9.79    9.87</time>
   <time name="total">    9.89    9.97</time>
   <energy>
    <i name="alphaZ">    918.22725072 </i>
    <i name="ewald">  22594.25604613 </i>
    <i name="hartreedc"> -55142.30670695 </i>
    <i name="XCdc">   -999.97092479 </i>
    <i name="pawpsdc">  35289.53112235 </i>
    <i name="pawaedc"> -33135.97972771 </i>
    <i name="eentropy">     -5.10524413 </i>
    <i name="bandstr">    116.69896542 </i>
    <i name="atom">  30161.86332653 </i>
    <i name="e_fr_energy">   -202.78589243 </i>
    <i name="e_wo_entrp">   -197.68064830 </i>
    <i name="e_0_energy">   -200.23327037 </i>
   </energy>
  </scstep>
  <structure>
   <crystal>
    <varray name="basis" >
     <v>       8.30990028       0.00000000       0.00000000 </v>
     <v>      -4.15495014       7.19658475       0.00000000 </v>
     <v>       0.00000000       0.00000000      16.52350044 </v>
    </varray>
    <i name="volume">    988.15327180 </i>
    <varray name="rec_basis" >
     <v>       0.12033839       0.06947740       0.00000000 </v>
     <v>       0.00000000       0.13895480       0.00000000 </v>
     <v>       0.00000000       0.00000000       0.06051986 </v>
    </varray>
   </crystal>
   <varray name="positions" >
    <v>       0.00156473       0.99710600       0.44539991 </v>
    <v>       0.11093000       0.22330000       0.16024000 </v>
    <v>       0.22187770       0.11264346       0.30054452 </v>
    <v>       0.33006763       0.99982957       0.44523653 </v>
    <v>       0.44426000       0.22330000       0.16024000 </v>
    <v>       0.55277266       0.11000847       0.29860421 </v>
    <v>       0.66436868       0.99843651       0.43600996 </v>
    <v>       0.77760000       0.22330000       0.16024000 </v>
    <v>       0.88883229       0.11177591       0.30041729 </v>
    <v>       0.99889352       0.33364079       0.44540457 </v>
    <v>       0.11093000       0.55664000       0.16024000 </v>
    <v>       0.22099164       0.44352422       0.29959604 </v>
    <v>       0.33049521       0.32778343       0.45662396 </v>
    <v>       0.44426000       0.55664000       0.16024000 </v>
    <v>       0.55145439       0.44285518       0.29993900 </v>
    <v>       0.66538119       0.33233506       0.43568345 </v>
    <v>       0.77760000       0.55664000       0.16024000 </v>
    <v>       0.88783685       0.44304172       0.29880423 </v>
    <v>       0.99568407       0.66396587       0.43516420 </v>
    <v>       0.11093000       0.88997000       0.16024000 </v>
    <v>       0.22282825       0.77852032       0.29993954 </v>
    <v>       0.33139032       0.66163219       0.44376680 </v>
    <v>       0.44426000       0.88997000       0.16024000 </v>
    <v>       0.55269097       0.77714326       0.29893525 </v>
    <v>       0.66686997       0.66644567       0.43574374 </v>
    <v>       0.77760000       0.88997000       0.16024000 </v>
    <v>       0.88807982       0.77912617       0.29812371 </v>
    <v>       0.99982000       0.00108000       0.02337000 </v>
    <v>       0.33315000       0.00108000       0.02337000 </v>
    <v>       0.66649000       0.00108000       0.02337000 </v>
    <v>       0.99982000       0.33441000       0.02337000 </v>
    <v>       0.33315000       0.33441000       0.02337000 </v>
    <v>       0.66649000       0.33441000       0.02337000 </v>
    <v>       0.99982000       0.66775000       0.02337000 </v>
    <v>       0.33315000       0.66775000       0.02337000 </v>
    <v>       0.66649000       0.66775000       0.02337000 </v>
    <v>       0.21460516       0.07570997       0.54630530 </v>
    <v>       0.21727848       0.43369223       0.53113840 </v>
    <v>       0.20784296       0.05702921       0.61726225 </v>
   </varray>
  </structure>
  <varray name="forces" >
   <v>       0.10007348       0.00695594       0.40805664 </v>
   <v>      -0.00914106      -0.02230950       0.27779604 </v>
   <v>       0.00428281      -0.00920627       0.10020756 </v>
   <v>      -0.00471154      -0.02124305       0.44593373 </v>
   <v>      -0.02876853       0.00919820       0.24333541 </v>
   <v>      -0.02462094      -0.01623551       0.06349483 </v>
   <v>      -0.00450031      -0.01861959       0.01639248 </v>
   <v>       0.02574461       0.00230360       0.17204360 </v>
   <v>       0.02682461       0.00708258       0.11865368 </v>
   <v>       0.00009744      -0.02746388       0.23580537 </v>
   <v>      -0.00602222      -0.00371442       0.18171722 </v>
   <v>       0.00098313      -0.00318758       0.07177217 </v>
   <v>       0.36235875      -0.19620233       0.23724952 </v>
   <v>      -0.00738637      -0.03535495       0.24045091 </v>
   <v>       0.00023779      -0.00333775       0.04036819 </v>
   <v>       0.04870364      -0.01087250       0.02086603 </v>
   <v>      -0.01608753      -0.02433348       0.13136470 </v>
   <v>       0.02984844      -0.01505753       0.05886969 </v>
   <v>      -0.01333478      -0.00730741       0.01746023 </v>
   <v>       0.00310147      -0.00015054       0.23573632 </v>
   <v>       0.03047382       0.01792152       0.13586829 </v>
   <v>       0.02537931      -0.08660596       0.30821050 </v>
   <v>      -0.02579379      -0.02564797       0.22622168 </v>
   <v>      -0.02628825      -0.01883729       0.06107504 </v>
   <v>       0.02508938       0.02854222       0.00868580 </v>
   <v>       0.00803916       0.02299500       0.20631190 </v>
   <v>       0.00481775       0.02679331       0.03993264 </v>
   <v>       0.00074134       0.00859709      -0.13442679 </v>
   <v>       0.00414015       0.00540362      -0.14317685 </v>
   <v>      -0.00281956      -0.00111382      -0.14035351 </v>
   <v>       0.01179197      -0.00653953      -0.12716620 </v>
   <v>       0.00180951       0.00002190      -0.14565164 </v>
   <v>      -0.01111662      -0.01006616      -0.12903350 </v>
   <v>       0.01110069       0.00603825      -0.12445489 </v>
   <v>       0.00143292       0.00378958      -0.14889382 </v>
   <v>      -0.01465296      -0.00531673      -0.13701489 </v>
   <v>       0.19884102      -0.47329628      -1.01569808 </v>
   <v>      -0.62689292       0.63342119      -1.24397637 </v>
   <v>      -0.10377580       0.26295604      -0.81403362 </v>
[...]
   </varray>
  </structure>
  <varray name="forces" >
   <v>      -0.01920330       0.02747172      -0.04457928 </v>
   <v>      -0.01728413      -0.03106435       0.16787182 </v>
   <v>       0.00106286       0.00814506      -0.00601437 </v>
   <v>      -0.00036166       0.03120454      -0.02445078 </v>
   <v>       0.01302791       0.00445787       0.15926924 </v>
   <v>       0.00216688       0.00897631      -0.00688133 </v>
   <v>      -0.00087447       0.02305224      -0.00661355 </v>
   <v>       0.03233800       0.04809930       0.07278807 </v>
   <v>      -0.00394079       0.01245597      -0.01195393 </v>
   <v>      -0.00334042       0.02569356       0.00424260 </v>
   <v>      -0.04074497       0.02653628       0.17835223 </v>
   <v>       0.00043479       0.00422569      -0.00028598 </v>
   <v>      -0.00241113       0.02258941      -0.00688193 </v>
   <v>       0.02299417       0.01903010       0.13710567 </v>
   <v>      -0.00027268       0.00360896       0.00253659 </v>
   <v>      -0.00217081       0.02105032       0.00484314 </v>
   <v>       0.04347751       0.00702456       0.13085224 </v>
   <v>       0.00102064       0.01038154       0.01222130 </v>
   <v>      -0.00127723       0.04051200       0.06340065 </v>
   <v>       0.01579482      -0.00019097       0.19613273 </v>
   <v>      -0.00177069       0.00477701       0.00192868 </v>
   <v>       0.00233564       0.02403946      -0.01112813 </v>
   <v>      -0.01447402       0.00814838       0.19488873 </v>
   <v>       0.00265373       0.00709622      -0.00350795 </v>
   <v>      -0.00349297       0.01204714      -0.00208973 </v>
   <v>       0.02592660       0.03398779       0.15896732 </v>
   <v>       0.00252940       0.00110743       0.00072117 </v>
   <v>       0.00377782       0.00566896      -0.12900566 </v>
   <v>      -0.00188851      -0.00053853      -0.14022226 </v>
   <v>      -0.00213478      -0.01477539      -0.12176474 </v>
   <v>       0.01339135       0.00407391      -0.12240484 </v>
   <v>      -0.00073191       0.00112332      -0.15341450 </v>
   <v>      -0.01846675       0.00244362      -0.12294476 </v>
   <v>       0.01287003      -0.00160104      -0.13723221 </v>
   <v>       0.00052431      -0.00190887      -0.15453764 </v>
   <v>      -0.01806922      -0.00948910      -0.14277946 </v>
   <v>      -0.02243720      -0.24846748      -0.07153981 </v>
   <v>       0.01030962       0.02422110      -0.00297882 </v>
   <v>      -0.03128842      -0.16521406      -0.06291053 </v>
  </varray>
  <varray name="stress" >
   <v>     -14.48869549       0.23775552      -0.69837805 </v>
   <v>       0.23775551     -16.71232585      -2.25863169 </v>
   <v>      -0.69837793      -2.25863169      -7.16603814 </v>
  </varray>
  <energy>
   <i name="e_fr_energy">   -203.50103577 </i>
   <i name="e_wo_entrp">   -198.56161291 </i>
   <i name="e_0_energy">   -201.03132434 </i>
  </energy>
  <time name="totalsc">  162.13  162.99</time>
 </calculation>
 <calculation>
  <scstep>
   <time name="dav">   14.10   14.21</time>
   <time name="total">   14.56   14.68</time>
   <energy>
    <i name="alphaZ">    918.22725072 </i>
    <i name="ewald">  24192.32985207 </i>
    <i name="hartreedc"> -56728.13934410 </i>
    <i name="XCdc">   -998.42496196 </i>
    <i name="pawpsdc">  35548.13716183 </i>
    <i name="pawaedc"> -33396.88574286 </i>
    <i name="eentropy">     -4.93947362 </i>
    <i name="bandstr">    104.32966009 </i>
    <i name="atom">  30161.86332653 </i>
    <i name="e_fr_energy">   -203.50227129 </i>
    <i name="e_wo_entrp">   -198.56279767 </i>
    <i name="e_0_energy">   -201.03253448 </i>
   </energy>
  </scstep>
  <scstep>
   <time name="dav">   14.53   14.65</time>
   <time name="total">   14.99   15.11</time>
   <energy>
    <i name="e_fr_energy">   -203.50243101 </i>
    <i name="e_wo_entrp">   -198.56346296 </i>
    <i name="e_0_energy">   -201.03294699 </i>
   </energy>
  </scstep>
  <scstep>
   <time name="dav">   14.85   14.97</time>
   <time name="total">   15.31   15.43</time>
   <energy>
    <i name="e_fr_energy">   -203.50243558 </i>
    <i name="e_wo_entrp">   -198.56249378 </i>
    <i name="e_0_energy">   -201.03246468 </i>
   </energy>
  </scstep>
  <scstep>
   <time name="dav">   11.10   11.19</time>
   <time name="total">   11.56   11.65</time>
   <energy>
    <i name="e_fr_energy">   -203.50243527 </i>
    <i name="e_wo_entrp">   -198.56363952 </i>
    <i name="e_0_energy">   -201.03303739 </i>
   </energy>
  </scstep>
  <scstep>
   <time name="dav">   10.59   10.66</time>
   <time name="total">   11.05   11.12</time>
   <energy>
    <i name="e_fr_energy">   -203.50240035 </i>
    <i name="e_wo_entrp">   -198.56275899 </i>
    <i name="e_0_energy">   -201.03257967 </i>
   </energy>
  </scstep>
  <scstep>
   <time name="dav">    9.93    9.99</time>
   <time name="total">   10.04   10.10</time>
   <energy>
    <i name="alphaZ">    918.22725072 </i>
    <i name="ewald">  24192.32985207 </i>
    <i name="hartreedc"> -56728.04664743 </i>
    <i name="XCdc">   -998.42504864 </i>
    <i name="pawpsdc">  35548.32447983 </i>
    <i name="pawaedc"> -33397.07641716 </i>
    <i name="eentropy">     -4.93878875 </i>
    <i name="bandstr">    104.23958590 </i>
    <i name="atom">  30161.86332653 </i>
    <i name="e_fr_energy">   -203.50240693 </i>
    <i name="e_wo_entrp">   -198.56361819 </i>
    <i name="e_0_energy">   -201.03301256 </i>
   </energy>
  </scstep>
  <structure>
   <crystal>
    <varray name="basis" >
     <v>       8.30990028       0.00000000       0.00000000 </v>
     <v>      -4.15495014       7.19658475       0.00000000 </v>
     <v>       0.00000000       0.00000000      16.52350044 </v>
    </varray>
    <i name="volume">    988.15327180 </i>
    <varray name="rec_basis" >
     <v>       0.12033839       0.06947740       0.00000000 </v>
     <v>       0.00000000       0.13895480       0.00000000 </v>
     <v>       0.00000000       0.00000000       0.06051986 </v>
    </varray>
   </crystal>
   <varray name="positions" >
    <v>       0.00292610       1.00638785       0.44149143 </v>
    <v>       0.11093000       0.22330000       0.16024000 </v>
    <v>       0.22450091       0.11450555       0.29889512 </v>
    <v>       0.34345208       1.00932320       0.44057418 </v>
    <v>       0.44426000       0.22330000       0.16024000 </v>
    <v>       0.55702440       0.11391219       0.29830060 </v>
    <v>       0.67059144       1.00563283       0.43617400 </v>
    <v>       0.77760000       0.22330000       0.16024000 </v>
    <v>       0.89130913       0.11438613       0.29959241 </v>
    <v>       0.99610875       0.33713558       0.44130410 </v>
    <v>       0.11093000       0.55664000       0.16024000 </v>
    <v>       0.22355794       0.44722119       0.29735743 </v>
    <v>       0.34368513       0.34164641       0.44044299 </v>
    <v>       0.44426000       0.55664000       0.16024000 </v>
    <v>       0.55654494       0.44661868       0.29832352 </v>
    <v>       0.67249898       0.34109773       0.43595569 </v>
    <v>       0.77760000       0.55664000       0.16024000 </v>
    <v>       0.89208788       0.44881456       0.29985897 </v>
    <v>       1.00659303       0.67966193       0.44448635 </v>
    <v>       0.11093000       0.88997000       0.16024000 </v>
    <v>       0.22423046       0.78058548       0.29978869 </v>
    <v>       0.34307934       0.67713221       0.44122181 </v>
    <v>       0.44426000       0.88997000       0.16024000 </v>
    <v>       0.55640804       0.78066372       0.29849553 </v>
    <v>       0.67389919       0.67375843       0.43512985 </v>
    <v>       0.77760000       0.88997000       0.16024000 </v>
    <v>       0.89175445       0.78099774       0.29810001 </v>
    <v>       0.99982000       0.00108000       0.02337000 </v>
    <v>       0.33315000       0.00108000       0.02337000 </v>
    <v>       0.66649000       0.00108000       0.02337000 </v>
    <v>       0.99982000       0.33441000       0.02337000 </v>
    <v>       0.33315000       0.33441000       0.02337000 </v>
    <v>       0.66649000       0.33441000       0.02337000 </v>
    <v>       0.99982000       0.66775000       0.02337000 </v>
    <v>       0.33315000       0.66775000       0.02337000 </v>
    <v>       0.66649000       0.66775000       0.02337000 </v>
    <v>       0.13800027      -0.06570683       0.52338221 </v>
    <v>       0.22271677       0.44892280       0.51103462 </v>
    <v>       0.14616962      -0.05330952       0.59516223 </v>
   </varray>
  </structure>
  <varray name="forces" >
   <v>      -0.02020623       0.02849980      -0.04498160 </v>
   <v>      -0.01711509      -0.03085205       0.16659108 </v>
   <v>       0.00071093       0.00821163      -0.00657544 </v>
   <v>       0.00049217       0.03145280      -0.02392377 </v>
   <v>       0.01291812       0.00471396       0.15828314 </v>
   <v>       0.00163237       0.00950606      -0.00655118 </v>
   <v>      -0.00092309       0.02252788      -0.00692964 </v>
   <v>       0.03216657       0.04857449       0.07125939 </v>
   <v>      -0.00411889       0.01241577      -0.01239818 </v>
   <v>      -0.00265330       0.02682793       0.00460345 </v>
   <v>      -0.04085610       0.02641478       0.17799605 </v>
   <v>       0.00104983       0.00553465      -0.00007643 </v>
   <v>      -0.00465873       0.02358251      -0.00722990 </v>
   <v>       0.02302270       0.01892520       0.13647058 </v>
   <v>      -0.00018153       0.00492651       0.00195119 </v>
   <v>      -0.00092140       0.02023554       0.00526100 </v>
   <v>       0.04345082       0.00679351       0.13071615 </v>
   <v>       0.00067017       0.01009166       0.01185731 </v>
   <v>      -0.00160743       0.03907645       0.06261100 </v>
   <v>       0.01576119      -0.00018417       0.19531035 </v>
   <v>      -0.00209441       0.00484946       0.00170110 </v>
   <v>       0.00207849       0.02281066      -0.00952482 </v>
   <v>      -0.01455235       0.00801870       0.19362934 </v>
   <v>       0.00347759       0.00694175      -0.00345989 </v>
   <v>      -0.00319820       0.01209264      -0.00177940 </v>
   <v>       0.02603905       0.03389474       0.15767511 </v>
   <v>       0.00251196       0.00130130       0.00030788 </v>
   <v>       0.00381786       0.00557958      -0.12806819 </v>
   <v>      -0.00190356      -0.00062340      -0.13929179 </v>
   <v>      -0.00209008      -0.01488878      -0.12068719 </v>
   <v>       0.01336479       0.00410216      -0.12159510 </v>
   <v>      -0.00070999       0.00112352      -0.15283188 </v>
   <v>      -0.01842412       0.00250753      -0.12202646 </v>
   <v>       0.01287532      -0.00164362      -0.13588625 </v>
   <v>       0.00054031      -0.00192913      -0.15347485 </v>
   <v>      -0.01802855      -0.00950059      -0.14162856 </v>
   <v>      -0.02251361      -0.24780645      -0.04916959 </v>
   <v>       0.01122893       0.02344962      -0.00617531 </v>
   <v>      -0.03105250      -0.16755461      -0.08195869 </v>
  </varray>
  <varray name="stress" >
   <v>     -14.43304675       0.23803604      -0.69284636 </v>
   <v>       0.23803608     -16.66389453      -2.27295217 </v>
   <v>      -0.69284665      -2.27295190      -7.06023044 </v>
  </varray>
  <energy>
   <i name="e_fr_energy">   -203.50240693 </i>
   <i name="e_wo_entrp">   -198.56361819 </i>
   <i name="e_0_energy">   -201.03301256 </i>
  </energy>
  <time name="totalsc">  166.10  166.96</time>
 </calculation>
 <calculation>
  <scstep>
   <time name="dav">   14.11   14.20</time>
   <time name="total">   14.57   14.67</time>
   <energy>
    <i name="alphaZ">    918.22725072 </i>
    <i name="ewald">  24197.25668686 </i>
    <i name="hartreedc"> -56732.92001226 </i>
    <i name="XCdc">   -998.41838866 </i>
    <i name="pawpsdc">  35548.29006243 </i>
    <i name="pawaedc"> -33397.04231401 </i>
    <i name="eentropy">     -4.93925268 </i>
    <i name="bandstr">    104.17900208 </i>
    <i name="atom">  30161.86332653 </i>
    <i name="e_fr_energy">   -203.50363900 </i>
    <i name="e_wo_entrp">   -198.56438631 </i>
    <i name="e_0_energy">   -201.03401265 </i>
   </energy>
  </scstep>
  <scstep>
   <time name="dav">   14.56   14.65</time>
   <time name="total">   15.02   15.11</time>
   <energy>
    <i name="e_fr_energy">   -203.50383270 </i>
    <i name="e_wo_entrp">   -198.56526562 </i>
    <i name="e_0_energy">   -201.03454916 </i>
   </energy>
  </scstep>
  <scstep>
   <time name="dav">   14.77   14.86</time>
   <time name="total">   15.23   15.33</time>
   <energy>
    <i name="e_fr_energy">   -203.50384462 </i>
    <i name="e_wo_entrp">   -198.56359646 </i>
    <i name="e_0_energy">   -201.03372054 </i>
   </energy>
  </scstep>
  <scstep>
   <time name="dav">   12.39   12.47</time>
   <time name="total">   12.85   12.93</time>
   <energy>
    <i name="e_fr_energy">   -203.50383197 </i>
    <i name="e_wo_entrp">   -198.56547771 </i>
    <i name="e_0_energy">   -201.03465484 </i>
   </energy>
  </scstep>
  <scstep>
   <time name="dav">   10.46   10.53</time>
   <time name="total">   10.92   10.99</time>
   <energy>
    <i name="e_fr_energy">   -203.50381478 </i>
    <i name="e_wo_entrp">   -198.56461560 </i>
    <i name="e_0_energy">   -201.03421519 </i>
   </energy>
  </scstep>
  <scstep>
   <time name="dav">   10.07   10.13</time>
   <time name="total">   10.17   10.24</time>
   <energy>
    <i name="alphaZ">    918.22725072 </i>
    <i name="ewald">  24197.25668686 </i>
    <i name="hartreedc"> -56733.03963204 </i>
    <i name="XCdc">   -998.41678719 </i>
    <i name="pawpsdc">  35549.72090810 </i>
    <i name="pawaedc"> -33398.47499364 </i>
    <i name="eentropy">     -4.93932705 </i>
    <i name="bandstr">    104.29875864 </i>
    <i name="atom">  30161.86332653 </i>
    <i name="e_fr_energy">   -203.50380907 </i>
    <i name="e_wo_entrp">   -198.56448202 </i>
    <i name="e_0_energy">   -201.03414554 </i>
   </energy>
  </scstep>
  <structure>
   <crystal>
    <varray name="basis" >
     <v>       8.30990028       0.00000000       0.00000000 </v>
     <v>      -4.15495014       7.19658475       0.00000000 </v>
     <v>       0.00000000       0.00000000      16.52350044 </v>
    </varray>
    <i name="volume">    988.15327180 </i>
    <varray name="rec_basis" >
     <v>       0.12033839       0.06947740       0.00000000 </v>
     <v>       0.00000000       0.13895480       0.00000000 </v>
     <v>       0.00000000       0.00000000       0.06051986 </v>
    </varray>
   </crystal>
   <varray name="positions" >
    <v>       0.00288295       1.00644969       0.44141298 </v>
    <v>       0.11093000       0.22330000       0.16024000 </v>
    <v>       0.22450623       0.11452744       0.29888652 </v>
    <v>       0.34347186       1.00939889       0.44053144 </v>
    <v>       0.44426000       0.22330000       0.16024000 </v>
    <v>       0.55703394       0.11393477       0.29828688 </v>
    <v>       0.67060488       1.00569047       0.43616124 </v>
    <v>       0.77760000       0.22330000       0.16024000 </v>
    <v>       0.89130458       0.11442205       0.29956978 </v>
    <v>       0.99612115       0.33720465       0.44130938 </v>
    <v>       0.11093000       0.55664000       0.16024000 </v>
    <v>       0.22356034       0.44722705       0.29736114 </v>
    <v>       0.34366209       0.34167872       0.44047891 </v>
    <v>       0.44426000       0.55664000       0.16024000 </v>
    <v>       0.55653247       0.44662201       0.29833118 </v>
    <v>       0.67249987       0.34113913       0.43596204 </v>
    <v>       0.77760000       0.55664000       0.16024000 </v>
    <v>       0.89208843       0.44883155       0.29987031 </v>
    <v>       1.00661313       0.67974661       0.44455260 </v>
    <v>       0.11093000       0.88997000       0.16024000 </v>
    <v>       0.22422161       0.78059237       0.29978571 </v>
    <v>       0.34310681       0.67719789       0.44119552 </v>
    <v>       0.44426000       0.88997000       0.16024000 </v>
    <v>       0.55642072       0.78067730       0.29848866 </v>
    <v>       0.67388096       0.67377128       0.43512833 </v>
    <v>       0.77760000       0.88997000       0.16024000 </v>
    <v>       0.89174712       0.78099047       0.29809728 </v>
    <v>       0.99982000       0.00108000       0.02337000 </v>
    <v>       0.33315000       0.00108000       0.02337000 </v>
    <v>       0.66649000       0.00108000       0.02337000 </v>
    <v>       0.99982000       0.33441000       0.02337000 </v>
    <v>       0.33315000       0.33441000       0.02337000 </v>
    <v>       0.66649000       0.33441000       0.02337000 </v>
    <v>       0.99982000       0.66775000       0.02337000 </v>
    <v>       0.33315000       0.66775000       0.02337000 </v>
    <v>       0.66649000       0.66775000       0.02337000 </v>
    <v>       0.13773016      -0.06607631       0.52329906 </v>
    <v>       0.22274296       0.44905382       0.51103358 </v>
    <v>       0.14596146      -0.05345565       0.59502297 </v>
   </varray>
  </structure>
  <varray name="forces" >
   <v>      -0.01689469       0.02868088      -0.04330415 </v>
   <v>      -0.01689456      -0.03032138       0.16643504 </v>
   <v>       0.00001420       0.00852408      -0.00628898 </v>
   <v>      -0.00270286       0.02781369      -0.02221778 </v>
   <v>       0.01285561       0.00521161       0.15822544 </v>
   <v>       0.00146031       0.00978848      -0.00687212 </v>
   <v>      -0.00141572       0.02338394      -0.00691077 </v>
   <v>       0.03199697       0.04924848       0.07039945 </v>
   <v>      -0.00376847       0.01167030      -0.01174485 </v>
   <v>      -0.00487132       0.02582819       0.00373220 </v>
   <v>      -0.04081655       0.02628799       0.17909121 </v>
   <v>       0.00087041       0.00590228      -0.00084254 </v>
   <v>      -0.00011240       0.02137377      -0.01202117 </v>
   <v>       0.02305408       0.01879480       0.13707840 </v>
   <v>      -0.00017139       0.00489007       0.00177882 </v>
   <v>      -0.00135364       0.02036254       0.00539057 </v>
   <v>       0.04337669       0.00658312       0.13178043 </v>
   <v>      -0.00017245       0.01029353       0.01195142 </v>
   <v>      -0.00036878       0.03818914       0.05866013 </v>
   <v>       0.01575842       0.00003377       0.19544841 </v>
   <v>      -0.00210535       0.00513998       0.00178022 </v>
   <v>       0.00160838       0.02470320      -0.01088835 </v>
   <v>      -0.01455007       0.00809332       0.19346008 </v>
   <v>       0.00288687       0.00739379      -0.00368720 </v>
   <v>      -0.00329923       0.01297743      -0.00095652 </v>
   <v>       0.02619707       0.03396763       0.15732232 </v>
   <v>       0.00278050       0.00175225       0.00044951 </v>
   <v>       0.00393465       0.00589777      -0.12868269 </v>
   <v>      -0.00180261      -0.00036348      -0.13976212 </v>
   <v>      -0.00209511      -0.01471068      -0.12140507 </v>
   <v>       0.01346292       0.00411327      -0.12168684 </v>
   <v>      -0.00065322       0.00114182      -0.15235979 </v>
   <v>      -0.01838562       0.00243642      -0.12229511 </v>
   <v>       0.01299995      -0.00161991      -0.13707348 </v>
   <v>       0.00066777      -0.00189392      -0.15416532 </v>
   <v>      -0.01809718      -0.00949238      -0.14257787 </v>
   <v>      -0.02416899      -0.25047612      -0.11819652 </v>
   <v>       0.01033646       0.02126310       0.00011465 </v>
   <v>      -0.02956101      -0.16286277      -0.00915907 </v>
  </varray>
  <varray name="stress" >
   <v>     -14.45663375       0.23412942      -0.67804156 </v>
   <v>       0.23412952     -16.68797655      -2.27660823 </v>
   <v>      -0.67804165      -2.27660801      -7.01473920 </v>
  </varray>
  <energy>
   <i name="e_fr_energy">   -203.50380907 </i>
   <i name="e_wo_entrp">   -198.56448202 </i>
   <i name="e_0_energy">   -201.03414554 </i>
  </energy>
