PBE-grap                                
           1
     8.309900    0.000000    0.000000
    -4.154950    7.196585    0.000000
     0.000000    0.000000   16.523500
   Pd   C    O 
    36     1     2
Direct configuration=     1
   0.00138062  0.99705177  0.44503148
   0.11093000  0.22330000  0.16024000
   0.22185804  0.11262617  0.30039880
   0.33006975  0.99984556  0.44478908
   0.44426000  0.22330000  0.16024000
   0.55285138  0.11004518  0.29851858
   0.66438226  0.99846004  0.43598512
   0.77760000  0.22330000  0.16024000
   0.88874183  0.11174710  0.30027971
   0.99883578  0.33368617  0.44511732
   0.11093000  0.55664000  0.16024000
   0.22098427  0.44353343  0.29947021
   0.32996257  0.32794994  0.45627949
   0.44426000  0.55664000  0.16024000
   0.55145138  0.44285358  0.29987124
   0.66528170  0.33234622  0.43564131
   0.77760000  0.55664000  0.16024000
   0.88776620  0.44307771  0.29871765
   0.99565584  0.66393903  0.43511741
   0.11093000  0.88997000  0.16024000
   0.22273423  0.77845757  0.29977920
   0.33142582  0.66176763  0.44348194
   0.44426000  0.88997000  0.16024000
   0.55275919  0.77718666  0.29887161
   0.66679237  0.66636168  0.43571654
   0.77760000  0.88997000  0.16024000
   0.88801964  0.77904276  0.29806328
   0.99982000  0.00108000  0.02337000
   0.33315000  0.00108000  0.02337000
   0.66649000  0.00108000  0.02337000
   0.99982000  0.33441000  0.02337000
   0.33315000  0.33441000  0.02337000
   0.66649000  0.33441000  0.02337000
   0.99982000  0.66775000  0.02337000
   0.33315000  0.66775000  0.02337000
   0.66649000  0.66775000  0.02337000
   0.21451197  0.07658605  0.54613597
   0.21734694  0.43375761  0.53149766
   0.20751668  0.05703841  0.61704095
Direct configuration=     2
   0.00142301  0.99706348  0.44511413
   0.11093000  0.22330000  0.16024000
   0.22186341  0.11263088  0.30043136
   0.33006863  0.99984345  0.44488873
   0.44426000  0.22330000  0.16024000
   0.55283372  0.11003681  0.29853738
   0.66437915  0.99845510  0.43599027
   0.77760000  0.22330000  0.16024000
   0.88876165  0.11175349  0.30031034
   0.99885410  0.33368036  0.44518289
   0.11093000  0.55664000  0.16024000
   0.22098574  0.44353132  0.29949794
   0.33008030  0.32791129  0.45635691
   0.44426000  0.55664000  0.16024000
   0.55145171  0.44285384  0.29988609
   0.66530343  0.33234361  0.43565051
   0.77760000  0.55664000  0.16024000
   0.88778165  0.44306914  0.29873682
   0.99566233  0.66394515  0.43512780
   0.11093000  0.88997000  0.16024000
   0.22275554  0.77847186  0.29981471
   0.33141535  0.66173291  0.44354679
   0.44426000  0.88997000  0.16024000
   0.55274353  0.77717696  0.29888577
   0.66680863  0.66638008  0.43572265
   0.77760000  0.88997000  0.16024000
   0.88803251  0.77906123  0.29807661
   0.99982000  0.00108000  0.02337000
   0.33315000  0.00108000  0.02337000
   0.66649000  0.00108000  0.02337000
   0.99982000  0.33441000  0.02337000
   0.33315000  0.33441000  0.02337000
   0.66649000  0.33441000  0.02337000
   0.99982000  0.66775000  0.02337000
   0.33315000  0.66775000  0.02337000
   0.66649000  0.66775000  0.02337000
   0.21453298  0.07638961  0.54617621
   0.21733121  0.43374561  0.53141833
   0.20758971  0.05703665  0.61708872
Direct configuration=     3
   0.00148479  0.99708198  0.44523779
   0.11093000  0.22330000  0.16024000
   0.22187068  0.11263699  0.30048001
   0.33006794  0.99983919  0.44503847
   0.44426000  0.22330000  0.16024000
   0.55280723  0.11002438  0.29856582
   0.66437458  0.99844732  0.43599824
   0.77760000  0.22330000  0.16024000
   0.88879205  0.11176346  0.30035620
   0.99887235  0.33366503  0.44527894
   0.11093000  0.55664000  0.16024000
   0.22098828  0.44352796  0.29953981
   0.33025855  0.32785502  0.45647285
   0.44426000  0.55664000  0.16024000
   0.55145239  0.44285427  0.29990858
   0.66533617  0.33233980  0.43566439
   0.77760000  0.55664000  0.16024000
   0.88780504  0.44305655  0.29876570
   0.99567174  0.66395473  0.43514337
   0.11093000  0.88997000  0.16024000
   0.22278792  0.77849324  0.29986815
   0.33140291  0.66168750  0.44364206
   0.44426000  0.88997000  0.16024000
   0.55272038  0.77716240  0.29890696
   0.66683425  0.66640802  0.43573162
   0.77760000  0.88997000  0.16024000
   0.88805233  0.77908909  0.29809687
   0.99982000  0.00108000  0.02337000
   0.33315000  0.00108000  0.02337000
   0.66649000  0.00108000  0.02337000
   0.99982000  0.33441000  0.02337000
   0.33315000  0.33441000  0.02337000
   0.66649000  0.33441000  0.02337000
   0.99982000  0.66775000  0.02337000
   0.33315000  0.66775000  0.02337000
   0.66649000  0.66775000  0.02337000
   0.21456399  0.07609771  0.54623126
   0.21730958  0.43372452  0.53129951
   0.20769851  0.05703324  0.61716349
Direct configuration=     4
   0.00156473  0.99710600  0.44539991
   0.11093000  0.22330000  0.16024000
   0.22187770  0.11264346  0.30054452
   0.33006763  0.99982957  0.44523653
   0.44426000  0.22330000  0.16024000
   0.55277266  0.11000847  0.29860421
   0.66436868  0.99843651  0.43600996
   0.77760000  0.22330000  0.16024000
   0.88883229  0.11177591  0.30041729
   0.99889352  0.33364079  0.44540457
   0.11093000  0.55664000  0.16024000
   0.22099164  0.44352422  0.29959604
   0.33049521  0.32778343  0.45662396
   0.44426000  0.55664000  0.16024000
   0.55145439  0.44285518  0.29993900
   0.66538119  0.33233506  0.43568345
   0.77760000  0.55664000  0.16024000
   0.88783685  0.44304172  0.29880423
   0.99568407  0.66396587  0.43516420
   0.11093000  0.88997000  0.16024000
   0.22282825  0.77852032  0.29993954
   0.33139032  0.66163219  0.44376680
   0.44426000  0.88997000  0.16024000
   0.55269097  0.77714326  0.29893525
   0.66686997  0.66644567  0.43574374
   0.77760000  0.88997000  0.16024000
   0.88807982  0.77912617  0.29812371
   0.99982000  0.00108000  0.02337000
   0.33315000  0.00108000  0.02337000
   0.66649000  0.00108000  0.02337000
   0.99982000  0.33441000  0.02337000
   0.33315000  0.33441000  0.02337000
   0.66649000  0.33441000  0.02337000
   0.99982000  0.66775000  0.02337000
   0.33315000  0.66775000  0.02337000
   0.66649000  0.66775000  0.02337000
   0.21460516  0.07570997  0.54630530
   0.21727848  0.43369223  0.53113840
   0.20784296  0.05702921  0.61726225
Direct configuration=     5
   0.00166258  0.99713452  0.44560179
   0.11093000  0.22330000  0.16024000
   0.22188622  0.11264713  0.30062560
   0.33006831  0.99981456  0.44548365
   0.44426000  0.22330000  0.16024000
   0.55273183  0.10999225  0.29865081
   0.66436100  0.99842238  0.43602636
   0.77760000  0.22330000  0.16024000
   0.88888145  0.11179002  0.30049255
   0.99891519  0.33360479  0.44555883
   0.11093000  0.55664000  0.16024000
   0.22099603  0.44352042  0.29966707
   0.33080168  0.32769726  0.45680606
   0.44426000  0.55664000  0.16024000
   0.55145509  0.44285303  0.29997448
   0.66543843  0.33232854  0.43570850
   0.77760000  0.55664000  0.16024000
   0.88787658  0.44302382  0.29885008
   0.99569903  0.66397812  0.43519176
   0.11093000  0.88997000  0.16024000
   0.22287827  0.77855496  0.30002789
   0.33138383  0.66157738  0.44391528
   0.44426000  0.88997000  0.16024000
   0.55265564  0.77711992  0.29897003
   0.66691551  0.66649287  0.43576082
   0.77760000  0.88997000  0.16024000
   0.88811525  0.77917089  0.29815692
   0.99982000  0.00108000  0.02337000
   0.33315000  0.00108000  0.02337000
   0.66649000  0.00108000  0.02337000
   0.99982000  0.33441000  0.02337000
   0.33315000  0.33441000  0.02337000
   0.66649000  0.33441000  0.02337000
   0.99982000  0.66775000  0.02337000
   0.33315000  0.66775000  0.02337000
   0.66649000  0.66775000  0.02337000
   0.21465470  0.07522978  0.54639769
   0.21723258  0.43364628  0.53093735
   0.20802077  0.05702513  0.61738408
Direct configuration=     6
   0.00177911  0.99716695  0.44584160
   0.11093000  0.22330000  0.16024000
   0.22189921  0.11265262  0.30072375
   0.33007297  0.99978816  0.44577919
   0.44426000  0.22330000  0.16024000
   0.55268416  0.10997404  0.29870728
   0.66435419  0.99840616  0.43604750
   0.77760000  0.22330000  0.16024000
   0.88893990  0.11180492  0.30058275
   0.99893228  0.33355193  0.44573740
   0.11093000  0.55664000  0.16024000
   0.22100021  0.44351336  0.29975283
   0.33117802  0.32759816  0.45701256
   0.44426000  0.55664000  0.16024000
   0.55145660  0.44285111  0.30001708
   0.66550927  0.33232144  0.43574033
   0.77760000  0.55664000  0.16024000
   0.88792286  0.44300440  0.29890484
   0.99571738  0.66399136  0.43522642
   0.11093000  0.88997000  0.16024000
   0.22293715  0.77859709  0.30013423
   0.33137912  0.66151848  0.44408606
   0.44426000  0.88997000  0.16024000
   0.55261601  0.77709222  0.29900799
   0.66697055  0.66654809  0.43578177
   0.77760000  0.88997000  0.16024000
   0.88815798  0.77922273  0.29819605
   0.99982000  0.00108000  0.02337000
   0.33315000  0.00108000  0.02337000
   0.66649000  0.00108000  0.02337000
   0.99982000  0.33441000  0.02337000
   0.33315000  0.33441000  0.02337000
   0.66649000  0.33441000  0.02337000
   0.99982000  0.66775000  0.02337000
   0.33315000  0.66775000  0.02337000
   0.66649000  0.66775000  0.02337000
   0.21471092  0.07465722  0.54650726
   0.21716950  0.43357939  0.53069642
   0.20823199  0.05702408  0.61752852
Direct configuration=     7
   0.00190018  0.99719673  0.44611560
   0.11093000  0.22330000  0.16024000
   0.22191318  0.11265878  0.30084087
   0.33008802  0.99974674  0.44612290
   0.44426000  0.22330000  0.16024000
   0.55263038  0.10995344  0.29877296
   0.66434823  0.99838630  0.43607475
   0.77760000  0.22330000  0.16024000
   0.88900440  0.11182027  0.30068733
   0.99894022  0.33347739  0.44593599
   0.11093000  0.55664000  0.16024000
   0.22100899  0.44350547  0.29985390
   0.33163255  0.32749061  0.45723748
   0.44426000  0.55664000  0.16024000
   0.55146173  0.44285092  0.30006745
   0.66559219  0.33231195  0.43577756
   0.77760000  0.55664000  0.16024000
   0.88797735  0.44298608  0.29896765
   0.99573806  0.66400583  0.43526824
   0.11093000  0.88997000  0.16024000
   0.22300062  0.77864487  0.30025693
   0.33138617  0.66146425  0.44427299
   0.44426000  0.88997000  0.16024000
   0.55257414  0.77706191  0.29905132
   0.66703931  0.66661474  0.43580839
   0.77760000  0.88997000  0.16024000
   0.88820956  0.77928167  0.29824145
   0.99982000  0.00108000  0.02337000
   0.33315000  0.00108000  0.02337000
   0.66649000  0.00108000  0.02337000
   0.99982000  0.33441000  0.02337000
   0.33315000  0.33441000  0.02337000
   0.66649000  0.33441000  0.02337000
   0.99982000  0.66775000  0.02337000
   0.33315000  0.66775000  0.02337000
   0.66649000  0.66775000  0.02337000
   0.21477329  0.07398974  0.54663375
   0.21708120  0.43348194  0.53041708
   0.20847604  0.05703082  0.61769302
Direct configuration=     8
   0.00203938  0.99722928  0.44642576
   0.11093000  0.22330000  0.16024000
   0.22193196  0.11266898  0.30097558
   0.33011477  0.99968700  0.44651332
   0.44426000  0.22330000  0.16024000
   0.55257215  0.10993301  0.29884818
   0.66434115  0.99836251  0.43610993
   0.77760000  0.22330000  0.16024000
   0.88907653  0.11183971  0.30079841
   0.99893245  0.33337584  0.44615233
   0.11093000  0.55664000  0.16024000
   0.22101878  0.44349580  0.29997251
   0.33218281  0.32738324  0.45746857
   0.44426000  0.55664000  0.16024000
   0.55147010  0.44285097  0.30012500
   0.66569077  0.33230013  0.43582229
   0.77760000  0.55664000  0.16024000
   0.88803844  0.44296739  0.29903818
   0.99576204  0.66402052  0.43532054
   0.11093000  0.88997000  0.16024000
   0.22307056  0.77869740  0.30039330
   0.33141070  0.66142672  0.44447010
   0.44426000  0.88997000  0.16024000
   0.55253204  0.77702764  0.29909861
   0.66712231  0.66669172  0.43584117
   0.77760000  0.88997000  0.16024000
   0.88826925  0.77934754  0.29829159
   0.99982000  0.00108000  0.02337000
   0.33315000  0.00108000  0.02337000
   0.66649000  0.00108000  0.02337000
   0.99982000  0.33441000  0.02337000
   0.33315000  0.33441000  0.02337000
   0.66649000  0.33441000  0.02337000
   0.99982000  0.66775000  0.02337000
   0.33315000  0.66775000  0.02337000
   0.66649000  0.66775000  0.02337000
   0.21483825  0.07323271  0.54677247
   0.21695926  0.43334127  0.53010197
   0.20875107  0.05705097  0.61787739
Direct configuration=     9
   0.00219773  0.99726866  0.44676697
   0.11093000  0.22330000  0.16024000
   0.22195348  0.11267592  0.30112998
   0.33015483  0.99960153  0.44694329
   0.44426000  0.22330000  0.16024000
   0.55250784  0.10991226  0.29893125
   0.66433399  0.99833570  0.43615285
   0.77760000  0.22330000  0.16024000
   0.88915881  0.11186211  0.30092169
   0.99890313  0.33323563  0.44638236
   0.11093000  0.55664000  0.16024000
   0.22103550  0.44348301  0.30010670
   0.33282204  0.32728390  0.45769225
   0.44426000  0.55664000  0.16024000
   0.55149203  0.44286055  0.30018668
   0.66581264  0.33228819  0.43587910
   0.77760000  0.55664000  0.16024000
   0.88810535  0.44294370  0.29911495
   0.99579024  0.66403657  0.43538439
   0.11093000  0.88997000  0.16024000
   0.22314574  0.77875413  0.30054188
   0.33145143  0.66140635  0.44467149
   0.44426000  0.88997000  0.16024000
   0.55249281  0.77699259  0.29915080
   0.66721664  0.66677630  0.43587975
   0.77760000  0.88997000  0.16024000
   0.88833512  0.77941690  0.29834954
   0.99982000  0.00108000  0.02337000
   0.33315000  0.00108000  0.02337000
   0.66649000  0.00108000  0.02337000
   0.99982000  0.33441000  0.02337000
   0.33315000  0.33441000  0.02337000
   0.66649000  0.33441000  0.02337000
   0.99982000  0.66775000  0.02337000
   0.33315000  0.66775000  0.02337000
   0.66649000  0.66775000  0.02337000
   0.21489598  0.07237621  0.54692759
   0.21678818  0.43314083  0.52974720
   0.20906166  0.05709839  0.61807165
Direct configuration=    10
   0.00237272  0.99730548  0.44714367
   0.11093000  0.22330000  0.16024000
   0.22197665  0.11268060  0.30130186
   0.33021260  0.99949696  0.44741662
   0.44426000  0.22330000  0.16024000
   0.55244065  0.10989256  0.29901891
   0.66432917  0.99830232  0.43620557
   0.77760000  0.22330000  0.16024000
   0.88924006  0.11187626  0.30105724
   0.99885145  0.33305759  0.44661752
   0.11093000  0.55664000  0.16024000
   0.22104907  0.44347348  0.30024575
   0.33358491  0.32719200  0.45788640
   0.44426000  0.55664000  0.16024000
   0.55152435  0.44287328  0.30025571
   0.66596035  0.33227787  0.43594579
   0.77760000  0.55664000  0.16024000
   0.88817601  0.44292203  0.29919920
   0.99582269  0.66404647  0.43545904
   0.11093000  0.88997000  0.16024000
   0.22322141  0.77882122  0.30069797
   0.33151329  0.66140057  0.44487303
   0.44426000  0.88997000  0.16024000
   0.55246028  0.77696250  0.29920206
   0.66733631  0.66687867  0.43592697
   0.77760000  0.88997000  0.16024000
   0.88840112  0.77948755  0.29841190
   0.99982000  0.00108000  0.02337000
   0.33315000  0.00108000  0.02337000
   0.66649000  0.00108000  0.02337000
   0.99982000  0.33441000  0.02337000
   0.33315000  0.33441000  0.02337000
   0.66649000  0.33441000  0.02337000
   0.99982000  0.66775000  0.02337000
   0.33315000  0.66775000  0.02337000
   0.66649000  0.66775000  0.02337000
   0.21493892  0.07142764  0.54707376
   0.21655400  0.43286483  0.52936614
   0.20940037  0.05718572  0.61827722
Direct configuration=    11
   0.00257909  0.99735050  0.44755412
   0.11093000  0.22330000  0.16024000
   0.22199696  0.11267718  0.30149266
   0.33028593  0.99933983  0.44792368
   0.44426000  0.22330000  0.16024000
   0.55237449  0.10986941  0.29911794
   0.66432390  0.99825561  0.43626961
   0.77760000  0.22330000  0.16024000
   0.88932323  0.11187273  0.30120385
   0.99878752  0.33284322  0.44685005
   0.11093000  0.55664000  0.16024000
   0.22106216  0.44346565  0.30040067
   0.33444582  0.32714617  0.45803233
   0.44426000  0.55664000  0.16024000
   0.55156875  0.44288785  0.30032880
   0.66614346  0.33226564  0.43602509
   0.77760000  0.55664000  0.16024000
   0.88825985  0.44290775  0.29929116
   0.99585885  0.66405337  0.43554705
   0.11093000  0.88997000  0.16024000
   0.22328675  0.77888719  0.30086468
   0.33160338  0.66142063  0.44507364
   0.44426000  0.88997000  0.16024000
   0.55243583  0.77693130  0.29925326
   0.66748443  0.66700071  0.43598503
   0.77760000  0.88997000  0.16024000
   0.88846911  0.77956015  0.29847182
   0.99982000  0.00108000  0.02337000
   0.33315000  0.00108000  0.02337000
   0.66649000  0.00108000  0.02337000
   0.99982000  0.33441000  0.02337000
   0.33315000  0.33441000  0.02337000
   0.66649000  0.33441000  0.02337000
   0.99982000  0.66775000  0.02337000
   0.33315000  0.66775000  0.02337000
   0.66649000  0.66775000  0.02337000
   0.21495767  0.07038281  0.54719784
   0.21625422  0.43252518  0.52895117
   0.20976467  0.05730438  0.61847317
Direct configuration=    12
   0.00283148  0.99739422  0.44800410
   0.11093000  0.22330000  0.16024000
   0.22201408  0.11266143  0.30169872
   0.33042153  0.99911733  0.44845295
   0.44426000  0.22330000  0.16024000
   0.55231375  0.10985090  0.29922352
   0.66432084  0.99819145  0.43634504
   0.77760000  0.22330000  0.16024000
   0.88939846  0.11186150  0.30135193
   0.99866414  0.33257242  0.44704411
   0.11093000  0.55664000  0.16024000
   0.22108476  0.44346714  0.30055551
   0.33535183  0.32714816  0.45812609
   0.44426000  0.55664000  0.16024000
   0.55162699  0.44289753  0.30039688
   0.66634641  0.33223245  0.43611695
   0.77760000  0.55664000  0.16024000
   0.88832814  0.44289016  0.29937989
   0.99589883  0.66405007  0.43564722
   0.11093000  0.88997000  0.16024000
   0.22335960  0.77895562  0.30103620
   0.33171556  0.66143071  0.44528301
   0.44426000  0.88997000  0.16024000
   0.55241906  0.77690555  0.29930728
   0.66766374  0.66713874  0.43605043
   0.77760000  0.88997000  0.16024000
   0.88855022  0.77963791  0.29853550
   0.99982000  0.00108000  0.02337000
   0.33315000  0.00108000  0.02337000
   0.66649000  0.00108000  0.02337000
   0.99982000  0.33441000  0.02337000
   0.33315000  0.33441000  0.02337000
   0.66649000  0.33441000  0.02337000
   0.99982000  0.66775000  0.02337000
   0.33315000  0.66775000  0.02337000
   0.66649000  0.66775000  0.02337000
   0.21494278  0.06923049  0.54740759
   0.21596056  0.43229354  0.52853189
   0.21014121  0.05743002  0.61851059
Direct configuration=    13
   0.00294801  0.99740990  0.44822103
   0.11093000  0.22330000  0.16024000
   0.22201475  0.11263803  0.30179524
   0.33050653  0.99897773  0.44869889
   0.44426000  0.22330000  0.16024000
   0.55228938  0.10983780  0.29927171
   0.66432383  0.99814725  0.43638823
   0.77760000  0.22330000  0.16024000
   0.88943406  0.11185260  0.30142317
   0.99858662  0.33242055  0.44710683
   0.11093000  0.55664000  0.16024000
   0.22110020  0.44346916  0.30062210
   0.33576395  0.32719468  0.45813430
   0.44426000  0.55664000  0.16024000
   0.55165672  0.44290259  0.30042579
   0.66645537  0.33222576  0.43616222
   0.77760000  0.55664000  0.16024000
   0.88836760  0.44289253  0.29941754
   0.99592140  0.66404073  0.43569889
   0.11093000  0.88997000  0.16024000
   0.22339178  0.77898578  0.30111711
   0.33177425  0.66143164  0.44537306
   0.44426000  0.88997000  0.16024000
   0.55241421  0.77689110  0.29933201
   0.66776344  0.66720611  0.43608150
   0.77760000  0.88997000  0.16024000
   0.88859372  0.77966827  0.29856909
   0.99982000  0.00108000  0.02337000
   0.33315000  0.00108000  0.02337000
   0.66649000  0.00108000  0.02337000
   0.99982000  0.33441000  0.02337000
   0.33315000  0.33441000  0.02337000
   0.66649000  0.33441000  0.02337000
   0.99982000  0.66775000  0.02337000
   0.33315000  0.66775000  0.02337000
   0.66649000  0.66775000  0.02337000
   0.21494864  0.06874513  0.54701020
   0.21584342  0.43221360  0.52833403
   0.21028297  0.05740360  0.61899428
Direct configuration=    14
   0.00296253  0.99741280  0.44824338
   0.11093000  0.22330000  0.16024000
   0.22201505  0.11263557  0.30180354
   0.33051493  0.99896506  0.44872228
   0.44426000  0.22330000  0.16024000
   0.55228763  0.10983664  0.29927586
   0.66432429  0.99814375  0.43639203
   0.77760000  0.22330000  0.16024000
   0.88943717  0.11185193  0.30142921
   0.99857968  0.33240708  0.44711188
   0.11093000  0.55664000  0.16024000
   0.22110148  0.44346926  0.30062749
   0.33579757  0.32719471  0.45813608
   0.44426000  0.55664000  0.16024000
   0.55165978  0.44290287  0.30042824
   0.66646593  0.33222519  0.43616610
   0.77760000  0.55664000  0.16024000
   0.88837081  0.44289249  0.29942078
   0.99592364  0.66403937  0.43570346
   0.11093000  0.88997000  0.16024000
   0.22339391  0.77898782  0.30112404
   0.33177902  0.66143009  0.44538099
   0.44426000  0.88997000  0.16024000
   0.55241401  0.77688991  0.29933424
   0.66777297  0.66721177  0.43608396
   0.77760000  0.88997000  0.16024000
   0.88859738  0.77967054  0.29857207
   0.99982000  0.00108000  0.02337000
   0.33315000  0.00108000  0.02337000
   0.66649000  0.00108000  0.02337000
   0.99982000  0.33441000  0.02337000
   0.33315000  0.33441000  0.02337000
   0.66649000  0.33441000  0.02337000
   0.99982000  0.66775000  0.02337000
   0.33315000  0.66775000  0.02337000
   0.66649000  0.66775000  0.02337000
   0.21493364  0.06867654  0.54714152
   0.21583147  0.43221303  0.52831224
   0.21030662  0.05742996  0.61885600
Direct configuration=    15
   0.00299760  0.99741954  0.44829800
   0.11093000  0.22330000  0.16024000
   0.22201583  0.11262953  0.30182529
   0.33053548  0.99893553  0.44878175
   0.44426000  0.22330000  0.16024000
   0.55228273  0.10983330  0.29928679
   0.66432578  0.99813531  0.43640145
   0.77760000  0.22330000  0.16024000
   0.88944510  0.11185017  0.30144492
   0.99856252  0.33237280  0.44712562
   0.11093000  0.55664000  0.16024000
   0.22110469  0.44346947  0.30064145
   0.33589013  0.32720076  0.45813537
   0.44426000  0.55664000  0.16024000
   0.55166745  0.44290358  0.30043485
   0.66649303  0.33222379  0.43617638
   0.77760000  0.55664000  0.16024000
   0.88837917  0.44289218  0.29942933
   0.99592971  0.66403667  0.43571509
   0.11093000  0.88997000  0.16024000
   0.22339950  0.77899344  0.30114176
   0.33179245  0.66143009  0.44539973
   0.44426000  0.88997000  0.16024000
   0.55241347  0.77688696  0.29933980
   0.66779782  0.66722723  0.43609066
   0.77760000  0.88997000  0.16024000
   0.88860677  0.77967643  0.29857977
   0.99982000  0.00108000  0.02337000
   0.33315000  0.00108000  0.02337000
   0.66649000  0.00108000  0.02337000
   0.99982000  0.33441000  0.02337000
   0.33315000  0.33441000  0.02337000
   0.66649000  0.33441000  0.02337000
   0.99982000  0.66775000  0.02337000
   0.33315000  0.66775000  0.02337000
   0.66649000  0.66775000  0.02337000
   0.21490338  0.06851657  0.54734102
   0.21579630  0.43219491  0.52825696
   0.21035930  0.05748357  0.61864343
Direct configuration=    16
   0.00303494  0.99742770  0.44835706
   0.11093000  0.22330000  0.16024000
   0.22201706  0.11262300  0.30184999
   0.33055890  0.99890609  0.44884943
   0.44426000  0.22330000  0.16024000
   0.55227604  0.10982921  0.29929995
   0.66432846  0.99812684  0.43641212
   0.77760000  0.22330000  0.16024000
   0.88945464  0.11184782  0.30146336
   0.99854742  0.33233593  0.44714334
   0.11093000  0.55664000  0.16024000
   0.22110772  0.44346896  0.30065719
   0.33600557  0.32721765  0.45812652
   0.44426000  0.55664000  0.16024000
   0.55167599  0.44290406  0.30044295
   0.66652519  0.33222264  0.43618874
   0.77760000  0.55664000  0.16024000
   0.88838884  0.44289163  0.29943971
   0.99593695  0.66403395  0.43572866
   0.11093000  0.88997000  0.16024000
   0.22340595  0.77900027  0.30116199
   0.33180821  0.66143229  0.44541976
   0.44426000  0.88997000  0.16024000
   0.55241310  0.77688356  0.29934617
   0.66782743  0.66724635  0.43609841
   0.77760000  0.88997000  0.16024000
   0.88861785  0.77968366  0.29858874
   0.99982000  0.00108000  0.02337000
   0.33315000  0.00108000  0.02337000
   0.66649000  0.00108000  0.02337000
   0.99982000  0.33441000  0.02337000
   0.33315000  0.33441000  0.02337000
   0.66649000  0.33441000  0.02337000
   0.99982000  0.66775000  0.02337000
   0.33315000  0.66775000  0.02337000
   0.66649000  0.66775000  0.02337000
   0.21488449  0.06836307  0.54732303
   0.21574766  0.43215155  0.52819308
   0.21040440  0.05751410  0.61865622
Direct configuration=    17
   0.00308463  0.99743919  0.44843472
   0.11093000  0.22330000  0.16024000
   0.22201789  0.11261430  0.30188193
   0.33058961  0.99886968  0.44894082
   0.44426000  0.22330000  0.16024000
   0.55226677  0.10982358  0.29931764
   0.66433257  0.99811717  0.43642648
   0.77760000  0.22330000  0.16024000
   0.88946686  0.11184534  0.30148759
   0.99852845  0.33228720  0.44716741
   0.11093000  0.55664000  0.16024000
   0.22111170  0.44346822  0.30067740
   0.33616365  0.32724139  0.45810986
   0.44426000  0.55664000  0.16024000
   0.55168734  0.44290468  0.30045388
   0.66656845  0.33222125  0.43620525
   0.77760000  0.55664000  0.16024000
   0.88840156  0.44289063  0.29945353
   0.99594696  0.66403091  0.43574689
   0.11093000  0.88997000  0.16024000
   0.22341489  0.77900999  0.30118849
   0.33183003  0.66143787  0.44544410
   0.44426000  0.88997000  0.16024000
   0.55241282  0.77687924  0.29935428
   0.66786762  0.66727293  0.43610857
   0.77760000  0.88997000  0.16024000
   0.88863247  0.77969338  0.29860060
   0.99982000  0.00108000  0.02337000
   0.33315000  0.00108000  0.02337000
   0.66649000  0.00108000  0.02337000
   0.99982000  0.33441000  0.02337000
   0.33315000  0.33441000  0.02337000
   0.66649000  0.33441000  0.02337000
   0.99982000  0.66775000  0.02337000
   0.33315000  0.66775000  0.02337000
   0.66649000  0.66775000  0.02337000
   0.21485235  0.06815052  0.54731257
   0.21567397  0.43208276  0.52810405
   0.21046604  0.05757021  0.61864583
Direct configuration=    18
   0.00314877  0.99745288  0.44853244
   0.11093000  0.22330000  0.16024000
   0.22201844  0.11260316  0.30192181
   0.33062878  0.99882500  0.44905686
   0.44426000  0.22330000  0.16024000
   0.55225481  0.10981656  0.29934006
   0.66433765  0.99810464  0.43644464
   0.77760000  0.22330000  0.16024000
   0.88948167  0.11184161  0.30151781
   0.99850474  0.33222510  0.44719720
   0.11093000  0.55664000  0.16024000
   0.22111736  0.44346791  0.30070146
   0.33636364  0.32727793  0.45808329
   0.44426000  0.55664000  0.16024000
   0.55170180  0.44290582  0.30046769
   0.66662354  0.33222010  0.43622595
   0.77760000  0.55664000  0.16024000
   0.88841818  0.44288957  0.29947020
   0.99595925  0.66402742  0.43576956
   0.11093000  0.88997000  0.16024000
   0.22342580  0.77902255  0.30122139
   0.33185802  0.66144656  0.44547335
   0.44426000  0.88997000  0.16024000
   0.55241278  0.77687417  0.29936406
   0.66791836  0.66730677  0.43612085
   0.77760000  0.88997000  0.16024000
   0.88865043  0.77970563  0.29861540
   0.99982000  0.00108000  0.02337000
   0.33315000  0.00108000  0.02337000
   0.66649000  0.00108000  0.02337000
   0.99982000  0.33441000  0.02337000
   0.33315000  0.33441000  0.02337000
   0.66649000  0.33441000  0.02337000
   0.99982000  0.66775000  0.02337000
   0.33315000  0.66775000  0.02337000
   0.66649000  0.66775000  0.02337000
   0.21480731  0.06788825  0.54727711
   0.21557961  0.43198611  0.52798841
   0.21054079  0.05764519  0.61864172
Direct configuration=    19
   0.00322373  0.99746653  0.44865022
   0.11093000  0.22330000  0.16024000
   0.22201768  0.11258869  0.30196936
   0.33067689  0.99877114  0.44919475
   0.44426000  0.22330000  0.16024000
   0.55224182  0.10981054  0.29936707
   0.66434471  0.99808911  0.43646658
   0.77760000  0.22330000  0.16024000
   0.88949935  0.11183687  0.30155370
   0.99847271  0.33214789  0.44723014
   0.11093000  0.55664000  0.16024000
   0.22112326  0.44346719  0.30072831
   0.33660030  0.32732427  0.45804559
   0.44426000  0.55664000  0.16024000
   0.55171904  0.44290660  0.30048380
   0.66669026  0.33221861  0.43625107
   0.77760000  0.55664000  0.16024000
   0.88843835  0.44288870  0.29948984
   0.99597539  0.66402267  0.43579653
   0.11093000  0.88997000  0.16024000
   0.22343949  0.77903778  0.30126040
   0.33189225  0.66145715  0.44550720
   0.44426000  0.88997000  0.16024000
   0.55241282  0.77686699  0.29937527
   0.66798155  0.66734890  0.43613506
   0.77760000  0.88997000  0.16024000
   0.88867211  0.77972027  0.29863238
   0.99982000  0.00108000  0.02337000
   0.33315000  0.00108000  0.02337000
   0.66649000  0.00108000  0.02337000
   0.99982000  0.33441000  0.02337000
   0.33315000  0.33441000  0.02337000
   0.66649000  0.33441000  0.02337000
   0.99982000  0.66775000  0.02337000
   0.33315000  0.66775000  0.02337000
   0.66649000  0.66775000  0.02337000
   0.21474485  0.06756575  0.54725718
   0.21546625  0.43187109  0.52784849
   0.21063005  0.05774580  0.61859984
Direct configuration=    20
   0.00331359  0.99748236  0.44878442
   0.11093000  0.22330000  0.16024000
   0.22201781  0.11257184  0.30202139
   0.33073466  0.99870746  0.44935041
   0.44426000  0.22330000  0.16024000
   0.55222753  0.10980273  0.29939817
   0.66435282  0.99806982  0.43649241
   0.77760000  0.22330000  0.16024000
   0.88951816  0.11183084  0.30159477
   0.99842723  0.33205267  0.44726296
   0.11093000  0.55664000  0.16024000
   0.22113055  0.44346709  0.30075764
   0.33687000  0.32738151  0.45798803
   0.44426000  0.55664000  0.16024000
   0.55174065  0.44290819  0.30050192
   0.66676735  0.33221589  0.43627975
   0.77760000  0.55664000  0.16024000
   0.88846157  0.44288727  0.29951139
   0.99599353  0.66401770  0.43582719
   0.11093000  0.88997000  0.16024000
   0.22345564  0.77905443  0.30130335
   0.33193555  0.66147521  0.44554332
   0.44426000  0.88997000  0.16024000
   0.55241439  0.77685829  0.29938663
   0.66805623  0.66739847  0.43615018
   0.77760000  0.88997000  0.16024000
   0.88869684  0.77973570  0.29865148
   0.99982000  0.00108000  0.02337000