 vasp.6.2.0 18Jan21 (build Jan 15 2025 16:08:48) gamma-only                     
  
 executed on             LinuxIFC date 2025.03.07  10:53:52
 running on   96 total cores
 each image running on   24 cores
 distrk:  each k-point on   24 cores,    1 groups
 distr:  one band on NCORE=   6 cores,    4 groups


--------------------------------------------------------------------------------------------------------


 INCAR:
   SYSTEM = LiMox
   LWAVE = .FALSE.
   LCHARG = .FALSE.
   ISTART = 0
   ISMEAR = 0
   SIGMA = 0.05
   ICHARG = 2
   IBRION = 2
   POTIM = 0.2
   ISIF = 2
   NSW = 1200
   NELM = 800
   NELMIN = 2
   ISYM = 0
   ISPIN = 2
   IDIPOL = 3
   LMAXMIX = 4
   ADDGRID = .TRUE.
   ALGO = VeryFast
   NELMDL = 10
   AMIX = 0.2
   BMIX = 0.00001
   AMIX_MAG = 0.8
   BMIX_MAG = 0.00001
   LREAL = Auto
   PREC = Accurate
   EDIFF = 1E-06
   EDIFFG = -0.03
   ENCUT = 400.0
   GGA = PE
   NEDOS = 903
   NPAR = 4
   NNODE = 8
   NCORE = 8
   NWRITE = 0
   IMAGES = 4
   SPRING = -5
   ICHAIN = 0
   LCLIMB = TRUE
   IOPT = 0

 POTCAR:    PAW_PBE Mo 08Apr2002                  
 POTCAR:    PAW_PBE S 06Sep2000                   
 POTCAR:    PAW_PBE Li 17Jan2003                  
 -----------------------------------------------------------------------------
|                                                                             |
|           W    W    AA    RRRRR   N    N  II  N    N   GGGG   !!!           |
|           W    W   A  A   R    R  NN   N  II  NN   N  G    G  !!!           |
|           W    W  A    A  R    R  N N  N  II  N N  N  G       !!!           |
|           W WW W  AAAAAA  RRRRR   N  N N  II  N  N N  G  GGG   !            |
|           WW  WW  A    A  R   R   N   NN  II  N   NN  G    G                |
|           W    W  A    A  R    R  N    N  II  N    N   GGGG   !!!           |
|                                                                             |
|     You use a magnetic or noncollinear calculation, but did not specify     |
|     the initial magnetic moment with the MAGMOM tag. Note that a            |
|     default of 1 will be used for all atoms. This ferromagnetic setup       |
|     may break the symmetry of the crystal, in particular it may rule        |
|     out finding an antiferromagnetic solution. Thence, we recommend         |
|     setting the initial magnetic moment manually or verifying carefully     |
|     that this magnetic setup is desired.                                    |
|                                                                             |
 -----------------------------------------------------------------------------

 -----------------------------------------------------------------------------
|                                                                             |
|           W    W    AA    RRRRR   N    N  II  N    N   GGGG   !!!           |
|           W    W   A  A   R    R  NN   N  II  NN   N  G    G  !!!           |
|           W    W  A    A  R    R  N N  N  II  N N  N  G       !!!           |
|           W WW W  AAAAAA  RRRRR   N  N N  II  N  N N  G  GGG   !            |
|           WW  WW  A    A  R   R   N   NN  II  N   NN  G    G                |
|           W    W  A    A  R    R  N    N  II  N    N   GGGG   !!!           |
|                                                                             |
|     The value NCORE = 8 specified in the INCAR file was overwritten,        |
|     because it was not compatible with the 24 processes available:          |
|     NCORE = 6                                                               |
|     was used instead, please check that this makes sense for your           |
|     machine.                                                                |
|                                                                             |
 -----------------------------------------------------------------------------

 POTCAR:    PAW_PBE Mo 08Apr2002                  
  local pseudopotential read in
  partial core-charges read in
  partial kinetic energy density read in
  atomic valenz-charges read in
  non local Contribution for L=           2  read in
    real space projection operators read in
  non local Contribution for L=           2  read in
    real space projection operators read in
  non local Contribution for L=           0  read in
    real space projection operators read in
  non local Contribution for L=           0  read in
    real space projection operators read in
  non local Contribution for L=           1  read in
    real space projection operators read in
  non local Contribution for L=           1  read in
    real space projection operators read in
    PAW grid and wavefunctions read in
 
   number of l-projection  operators is LMAX  =           6
   number of lm-projection operators is LMMAX =          18
 
 POTCAR:    PAW_PBE S 06Sep2000                   
  local pseudopotential read in
  partial core-charges read in
  partial kinetic energy density read in
  atomic valenz-charges read in
  non local Contribution for L=           0  read in
    real space projection operators read in
  non local Contribution for L=           0  read in
    real space projection operators read in
  non local Contribution for L=           1  read in
    real space projection operators read in
  non local Contribution for L=           1  read in
    real space projection operators read in
    PAW grid and wavefunctions read in
 
   number of l-projection  operators is LMAX  =           4
   number of lm-projection operators is LMMAX =           8
 
 POTCAR:    PAW_PBE Li 17Jan2003                  
  local pseudopotential read in
  partial core-charges read in
  partial kinetic energy density read in
  atomic valenz-charges read in
  non local Contribution for L=           0  read in
    real space projection operators read in
  non local Contribution for L=           0  read in
    real space projection operators read in
  non local Contribution for L=           1  read in
    real space projection operators read in
    PAW grid and wavefunctions read in
 
   number of l-projection  operators is LMAX  =           3
   number of lm-projection operators is LMMAX =           5
 
 Optimization of the real space projectors (new method)

 maximal supplied QI-value         = 13.61
 optimisation between [QCUT,QGAM] = [ 10.20, 20.41] = [ 29.16,116.64] Ry 
 Optimized for a Real-space Cutoff    1.65 Angstroem

   l    n(q)    QCUT    max X(q) W(low)/X(q) W(high)/X(q)  e(spline) 
   2      9    10.205    80.908    0.21E-03    0.30E-03    0.60E-06
   2      9    10.205    79.000    0.21E-03    0.30E-03    0.60E-06
   0     10    10.205    52.066    0.39E-04    0.38E-04    0.19E-06
   0     10    10.205    24.514    0.33E-04    0.32E-04    0.16E-06
   1     10    10.205    16.033    0.64E-04    0.17E-03    0.19E-06
   1     10    10.205    11.179    0.49E-04    0.13E-03    0.15E-06
 Optimization of the real space projectors (new method)

 maximal supplied QI-value         = 19.84
 optimisation between [QCUT,QGAM] = [ 10.12, 20.44] = [ 28.68,116.96] Ry 
 Optimized for a Real-space Cutoff    1.42 Angstroem

   l    n(q)    QCUT    max X(q) W(low)/X(q) W(high)/X(q)  e(spline) 
   0      9    10.119   187.594    0.52E-04    0.93E-04    0.64E-07
   0      9    10.119   164.243    0.51E-04    0.92E-04    0.63E-07
   1      8    10.119    67.533    0.16E-03    0.17E-03    0.23E-06
   1      8    10.119    50.729    0.16E-03    0.16E-03    0.23E-06
 Optimization of the real space projectors (new method)

 maximal supplied QI-value         = 18.33
 optimisation between [QCUT,QGAM] = [ 10.08, 20.35] = [ 28.46,115.93] Ry 
 Optimized for a Real-space Cutoff    1.30 Angstroem

   l    n(q)    QCUT    max X(q) W(low)/X(q) W(high)/X(q)  e(spline) 
   0      8    10.082    33.825    0.15E-03    0.68E-04    0.45E-07
   0      8    10.082     8.944    0.11E-03    0.57E-04    0.35E-07
   1      7    10.082     4.214    0.54E-04    0.21E-03    0.44E-07
  PAW_PBE Mo 08Apr2002                  :
 energy of atom  1       EATOM= -217.5176
 kinetic energy error for atom=    0.0025 (will be added to EATOM!!)
  PAW_PBE S 06Sep2000                   :
 energy of atom  2       EATOM= -276.8230
 kinetic energy error for atom=    0.0046 (will be added to EATOM!!)
  PAW_PBE Li 17Jan2003                  :
 energy of atom  3       EATOM=   -5.3001
 kinetic energy error for atom=    0.0000 (will be added to EATOM!!)
 
 
 POSCAR: Mo  S Li
  positions in cartesian coordinates
  No initial velocities read in
 exchange correlation table for  LEXCH =        8
   RHO(1)=    0.500       N(1)  =     2000
   RHO(2)=  100.500       N(2)  =     4000

 VTST: version 4.0, (05/15/20)

 CHAIN: initializing optimizer
 
 OPT: Using VASP Conjugate-Gradient optimizer
 CHAIN: Read ICHAIN            0
 CHAIN: Running the NEB
 NEB:          SPRING     -5.000000
 NEB:          LCLIMB      T
 NEB:     LTANGENTOLD      F
 NEB:           LDNEB      F
 NEB:        LDNEBORG      F
 NEB:        LNEBCELL      F
 NEB:          EFIRST      0.000000
 NEB:           ELAST      0.000000
 
 POSCAR: Mo  S Li
  positions in cartesian coordinates
  No initial velocities read in
 
 POSCAR: Mo  S Li
  positions in cartesian coordinates
  No initial velocities read in
 
 POSCAR: Mo  S Li
  positions in cartesian coordinates
  No initial velocities read in
 
 POSCAR: Mo  S Li
  positions in cartesian coordinates
  No initial velocities read in
 


--------------------------------------------------------------------------------------------------------


 ion  position               nearest neighbor table
   1  0.537  0.088  0.673- 135 2.30  52 2.33  99 2.35 209 2.39 174 2.57 203 2.61  36 2.75  25 2.82

   2  0.864  0.423  0.656-  95 2.12 112 2.38 131 2.39  64 2.40 211 2.45 149 2.46 191 2.86  19 3.26

   3  0.761  0.562  0.012- 115 2.33 187 2.38 221 2.40  58 2.45 256 2.46 249 2.53  12 2.96  47 3.01

   4  0.897  0.796  0.839- 217 2.13 178 2.26 201 2.30 177 2.43 167 2.94  13 2.96  17 3.31  22 3.46

   5  0.279  0.462  0.164- 165 2.34 146 2.39  71 2.39 128 2.42 219 2.42 106 2.45 120 2.47  28 2.67

   6  0.535  0.532  0.376- 157 2.31 109 2.34  89 2.40 244 2.44 183 2.51 142 2.55  30 2.71  20 3.11

   7  0.645  0.913  0.740- 108 2.34 204 2.37 224 2.40 223 2.42 214 2.49 175 2.54  37 3.14  36 3.28

   8  0.061  0.977  0.739- 132 2.22 153 2.35 248 2.39 156 2.44 102 2.51 240 2.59 197 2.64  10 2.89

   9  0.763  0.246  0.137-  77 2.27  79 2.29  76 2.31  78 2.34 145 2.44  14 2.78
  10  0.973  0.907  0.735-  94 2.37 182 2.38 132 2.44 248 2.47 177 2.49 156 2.51  17 2.73   8 2.89
                            22 2.92
  11  0.366  0.964  0.084- 230 2.22  53 2.38  59 2.40  97 2.46 105 2.49 220 2.49  16 2.84
  12  0.703  0.507  0.117- 221 2.24 207 2.30  91 2.33 115 2.34  84 2.38   3 2.96
  13  0.907  0.683  0.737- 228 2.32 130 2.38 178 2.42  66 2.44 201 2.47 246 2.66  34 2.76   4 2.96

  14  0.877  0.264  0.190-  78 2.29 122 2.29  79 2.36 253 2.41 252 2.43 181 2.54   9 2.78
  15  0.185  0.542  0.555-  57 2.23 199 2.29 159 2.42  80 2.47 243 2.48 161 2.57  40 2.74
  16  0.418  0.920  0.961- 220 2.34 105 2.36 241 2.38 232 2.50 198 2.56 230 2.59  11 2.84  32 2.86
                            39 2.92
  17  0.884  0.933  0.765- 167 2.23 236 2.31  94 2.35 177 2.36 193 2.49  10 2.73  22 2.96   4 3.31

  18  0.627  0.071  0.230- 137 2.39 133 2.44 136 2.45 234 2.45  56 2.46 147 2.52  38 2.73  27 2.93
                            24 2.99  32 3.08
  19  0.728  0.385  0.567-  64 2.32 168 2.39  73 2.43 216 2.47 227 2.48 191 2.51 112 2.70  30 2.86
                             2 3.26
  20  0.586  0.490  0.225- 143 2.32 212 2.43 207 2.45  89 2.46 183 2.48 168 2.54 255 2.57  30 2.81
                             6 3.11
  21  0.350  0.087  0.316- 121 2.22  59 2.26  54 2.36 203 2.43 124 2.48  48 2.81  52 3.05
  22  0.848  0.854  0.536- 238 2.32 182 2.33  94 2.43 167 2.44 201 2.59  62 2.72  10 2.92  17 2.96
                             4 3.46
  23  0.211  0.684  0.495- 205 2.29 161 2.35  68 2.41 192 2.45  88 2.54  80 2.57  45 2.69  41 2.85
                           257 3.08
  24  0.490  0.104  0.074- 213 2.38 137 2.43 210 2.45 218 2.45 136 2.50 105 2.59  26 2.82  32 2.97
                            44 2.99  18 2.99
  25  0.602  0.081  0.568- 224 2.38  52 2.39  99 2.40 206 2.42 111 2.57 136 2.67   1 2.82  36 2.86
                            37 2.98
  26  0.481  0.194  0.920- 213 2.28 210 2.39 174 2.41 235 2.46 170 2.49 154 2.60  44 2.72  24 2.82
                            27 3.07
  27  0.626  0.175  0.107-  56 2.38 145 2.47  76 2.51 174 2.53 133 2.54 154 2.59 213 2.63  38 2.81
                            18 2.93  26 3.07
  28  0.257  0.352  0.076- 165 2.29 123 2.47 200 2.47 104 2.47 120 2.48  71 2.49 146 2.60   5 2.67
                            43 3.21
  29  0.835  0.968  0.036- 113 2.15 117 2.28 175 2.34 141 2.43 193 2.56  37 2.91
  30  0.606  0.436  0.444-  89 2.35 157 2.37 168 2.40  73 2.44 227 2.49 255 2.50   6 2.71  20 2.81
                            19 2.86
  31  0.339  0.777  0.254- 176 2.31 148 2.39 231 2.39 251 2.43  98 2.53  93 2.59 245 2.60  35 2.79

  32  0.528  0.986  0.174-  82 2.38 136 2.39 241 2.42 137 2.42 105 2.42  97 2.53  39 2.82  16 2.86
                            24 2.97  18 3.08
  33  0.018  0.193  0.948- 164 2.17  96 2.35 101 2.42 188 2.54 126 2.56  61 2.57 184 2.63  42 2.85

  34  0.870  0.677  0.475- 233 2.13 130 2.31 228 2.36 254 2.38  62 2.47  13 2.76
  35  0.211  0.750  0.045- 251 2.21 231 2.33 155 2.37 185 2.41 169 2.42  93 2.45  31 2.79
  36  0.520  0.992  0.519- 224 2.33 135 2.37  52 2.41 223 2.45  97 2.48 124 2.74   1 2.75  25 2.86
                             7 3.28
  37  0.720  0.027  0.813- 111 2.22 117 2.31 175 2.32  99 2.40 224 2.68  29 2.91  25 2.98   7 3.14

  38  0.738  0.124  0.336- 160 2.31  56 2.34 133 2.34 125 2.43 145 2.44 234 2.54  18 2.73  27 2.81

  39  0.516  0.874  0.233- 241 2.40  82 2.42 150 2.44  60 2.45 220 2.45  97 2.49 166 2.58  32 2.82
                            16 2.92
  40  0.190  0.466  0.722- 159 2.37  57 2.40 103 2.44  83 2.46 243 2.52 146 2.55  86 2.59  15 2.74

  41  0.345  0.669  0.683- 161 2.30 192 2.32  92 2.38 242 2.39 151 2.44  50 2.63  23 2.85  45 2.89
                           257 2.99
  42  0.104  0.177  0.892- 247 2.30 188 2.42 240 2.44 101 2.44 195 2.46  61 2.57  33 2.85  43 2.91
                            48 3.41
  43  0.218  0.223  0.953- 247 2.29  74 2.36 195 2.37 200 2.43 104 2.50 123 2.62  42 2.91  48 3.01
                            28 3.21
  44  0.377  0.181  0.901- 218 2.25 210 2.31 152 2.32 235 2.36 170 2.61  26 2.72  24 2.99
  45  0.280  0.765  0.697- 205 2.30 192 2.31 139 2.37 151 2.48 144 2.51 198 2.66  23 2.69  41 2.89

  46  0.209  0.247  0.312- 225 2.23 129 2.35  72 2.40 188 2.47 123 2.49 180 2.57  48 2.87
  47  0.866  0.580  1.000- 256 2.20 249 2.22  67 2.32 246 2.38  63 2.44   3 3.01
  48  0.253  0.169  0.206- 195 2.36  54 2.39 121 2.45 123 2.47 225 2.54 188 2.60  21 2.81  46 2.87
                            43 3.01  42 3.41
  49  0.225  0.884  0.253- 194 2.09  93 2.12
  50  0.415  0.584  0.696-  92 2.04 162 2.31  41 2.63
  51  0.050  0.779  0.330- 229 2.08 138 2.09
  52  0.490  0.088  0.441-   1 2.33  25 2.39  36 2.41  21 3.05
  53  0.311  0.929  0.158- 176 2.07  11 2.38
  54  0.365  0.186  0.364- 186 2.21  21 2.36  48 2.39
  55  0.037  0.470  0.646-  83 2.05 100 2.05
  56  0.670  0.084  0.111-  38 2.34  27 2.38  18 2.46
  57  0.098  0.503  0.507-  15 2.23  40 2.40
  58  0.690  0.633  0.841- 208 2.07   3 2.45
  59  0.345  0.057  0.135-  21 2.26  11 2.40
  60  0.603  0.807  0.309- 150 2.00  39 2.45
  61  0.081  0.275  0.952- 184 2.09  33 2.57  42 2.57
  62  0.836  0.770  0.362- 254 2.05  34 2.47  22 2.72
  63  0.961  0.544  0.038-  67 2.05  47 2.44
  64  0.774  0.473  0.607-  19 2.32   2 2.40
  65  0.177  0.055  0.415-  90 2.07 202 2.09
  66  0.984  0.605  0.816- 196 2.03  13 2.44
  67  0.949  0.525  0.177-  63 2.05  47 2.32
  68  0.140  0.736  0.286-  88 2.03  23 2.41
  69  0.676  0.224  0.683- 206 2.05 158 2.06
  70  0.015  0.061  0.405- 237 1.99 116 2.11
  71  0.223  0.400  0.200- 120 2.08   5 2.39  28 2.49
  72  0.156  0.224  0.402- 180 2.05  46 2.40
  73  0.694  0.428  0.690- 227 2.04  19 2.43  30 2.44
  74  0.248  0.161  0.849- 152 2.08  43 2.36
  75  0.555  0.736  0.914- 163 2.03  87 2.21
  76  0.665  0.200  0.981-   9 2.31  27 2.51
  77  0.739  0.339  0.077- 122 2.13   9 2.27
  78  0.866  0.240  0.348-  14 2.29   9 2.34
  79  0.789  0.208  0.009-   9 2.29  14 2.36
  80  0.115  0.618  0.393- 119 2.12  15 2.47  23 2.57
  81  0.403  0.624  0.305-  98 2.12 142 2.13
  82  0.609  0.936  0.376-  32 2.38  39 2.42 224 2.49
  83  0.126  0.503  0.788-  55 2.05  40 2.46
  84  0.601  0.463  0.953- 143 2.04  12 2.38
  85  0.272  0.471  0.457- 199 1.96
  86  0.259  0.393  0.709- 172 2.03  40 2.59 159 2.68
  87  0.563  0.644  0.876- 162 1.96  75 2.21
  88  0.168  0.661  0.250-  68 2.03 257 2.41  23 2.54
  89  0.643  0.528  0.463-  30 2.35   6 2.40  20 2.46
  90  0.222  0.023  0.608- 239 2.04  65 2.07
  91  0.805  0.468  0.271- 187 2.04  12 2.33
  92  0.403  0.657  0.598-  50 2.04  41 2.38 257 2.61
  93  0.248  0.796  0.263-  49 2.12  35 2.45  31 2.59
  94  0.875  0.955  0.573-  17 2.35  10 2.37  22 2.43
  95  0.896  0.492  0.610-   2 2.12
  96  0.015  0.259  0.090- 180 2.11  33 2.35
  97  0.480  0.961  0.285-  11 2.46  36 2.48  39 2.49  32 2.53
  98  0.434  0.711  0.352- 148 2.00  81 2.12  31 2.53
  99  0.648  0.092  0.806-   1 2.35  25 2.40  37 2.40
 100  0.054  0.383  0.646-  55 2.05 103 2.06
 101  0.989  0.188  0.721- 184 2.15  33 2.42  42 2.44
 102  0.988  0.062  0.631- 240 2.08 237 2.19   8 2.51
 103  0.129  0.377  0.642- 100 2.06  40 2.44
 104  0.316  0.279  0.049- 200 2.08  28 2.47  43 2.50
 105  0.418  0.018  0.015-  16 2.36  32 2.42  11 2.49  24 2.59
 106  0.257  0.559  0.082- 128 2.08   5 2.45
 107  0.431  0.856  0.621- 245 1.99 114 2.21
 108  0.635  0.914  0.910- 214 2.05   7 2.34 135 2.78
 109  0.567  0.616  0.510- 142 2.03   6 2.34
 110  0.482  0.331  0.727- 171 2.01 140 2.13
 111  0.720  0.084  0.675-  37 2.22  25 2.57
 112  0.780  0.377  0.442- 131 2.04   2 2.38  19 2.70
 113  0.817  0.919  0.148-  29 2.15
 114  0.359  0.872  0.647- 232 2.04 198 2.09 107 2.21
 115  0.690  0.486  0.916-   3 2.33  12 2.34
 116  0.053  0.145  0.452- 250 2.01  70 2.11
 117  0.799  0.057  0.040-  29 2.28  37 2.31
 118  0.595  0.779  0.554- 166 2.06 204 2.06
 119  0.054  0.648  0.433- 229 2.03  80 2.12
 120  0.170  0.422  0.995-  71 2.08   5 2.47  28 2.48
 121  0.256  0.068  0.255-  21 2.22  48 2.45
 122  0.829  0.352  0.128-  77 2.13  14 2.29 252 2.78
 123  0.237  0.273  0.167-  28 2.47  48 2.47  46 2.49  43 2.62
 124  0.400  0.997  0.441- 203 2.07  21 2.48  36 2.74
 125  0.842  0.137  0.562- 160 2.02  38 2.43
 126  0.904  0.207  0.857- 215 2.03  33 2.56
 127  0.100  0.531  0.061- 196 1.94
 128  0.266  0.548  0.256- 106 2.08 219 2.08   5 2.42 257 2.77
 129  0.258  0.326  0.465- 172 2.11  46 2.35
 130  0.830  0.620  0.549-  34 2.31  13 2.38
 131  0.866  0.336  0.550- 112 2.04   2 2.39
 132  0.986  0.921  0.562-   8 2.22  10 2.44
 133  0.662  0.165  0.348-  38 2.34  18 2.44  27 2.54 213 2.57
 134  0.495  0.270  0.492- 186 2.02 171 2.15
 135  0.544  0.995  0.736-   1 2.30  36 2.37 108 2.78
 136  0.567  0.072  0.316-  32 2.39  18 2.45  24 2.50  25 2.67
 137  0.535  0.030  0.016-  18 2.39  32 2.42  24 2.43
 138  0.025  0.835  0.425- 189 2.03  51 2.09
 139  0.224  0.850  0.587- 144 2.03  45 2.37
 140  0.578  0.305  0.885- 154 2.06 110 2.13
 141  0.946  0.939  0.203- 189 2.11  29 2.43 193 2.73
 142  0.489  0.586  0.475- 109 2.03  81 2.13   6 2.55
 143  0.546  0.453  0.009-  84 2.04  20 2.32
 144  0.242  0.845  0.770- 139 2.03  45 2.51 230 2.56
 145  0.731  0.223  0.272-   9 2.44  38 2.44  27 2.47
 146  0.273  0.435  0.970-   5 2.39  40 2.55  28 2.60
 147  0.686  0.977  0.297- 234 2.10 173 2.10  18 2.52
 148  0.393  0.745  0.169-  98 2.00  31 2.39
 149  0.966  0.397  0.879- 211 2.04   2 2.46
 150  0.517  0.771  0.192-  60 2.00  39 2.44
 151  0.349  0.694  0.877- 242 2.07  41 2.44  45 2.48
 152  0.270  0.202  0.739-  74 2.08  44 2.32
 153  0.159  0.939  0.816- 197 2.04   8 2.35
 154  0.568  0.272  0.019- 140 2.06  27 2.59  26 2.60
 155  0.106  0.782  0.945- 169 2.07  35 2.37
 156  0.040  0.989  0.900- 248 2.04   8 2.44  10 2.51
 157  0.530  0.454  0.475-   6 2.31  30 2.37
 158  0.747  0.225  0.669-  69 2.06 216 2.07
 159  0.281  0.506  0.768- 243 2.08  40 2.37  15 2.42  86 2.68
 160  0.837  0.094  0.412- 125 2.02  38 2.31
 161  0.269  0.598  0.573-  41 2.30  23 2.35  15 2.57 257 2.98
 162  0.515  0.596  0.907-  87 1.96  50 2.31 212 2.79
 163  0.575  0.764  0.796-  75 2.03 226 2.06
 164  0.014  0.104  0.980-  33 2.17
 165  0.355  0.388  0.254-  28 2.29   5 2.34
 166  0.516  0.828  0.415- 118 2.06 223 2.20  39 2.58
 167  0.798  0.877  0.637-  17 2.23  22 2.44   4 2.94
 168  0.642  0.395  0.326-  19 2.39  30 2.40  20 2.54 255 2.69
 169  0.115  0.745  0.805- 185 2.06 155 2.07  35 2.42
 170  0.381  0.245  0.743- 235 2.07  26 2.49  44 2.61
 171  0.485  0.348  0.575- 110 2.01 134 2.15
 172  0.203  0.349  0.524-  86 2.03 129 2.11
 173  0.743  0.960  0.241- 238 2.09 147 2.10
 174  0.539  0.141  0.860- 209 2.10  26 2.41  27 2.53   1 2.57
 175  0.753  0.936  0.809-  37 2.32  29 2.34   7 2.54
 176  0.370  0.872  0.311-  53 2.07  31 2.31
 177  0.973  0.874  0.919-  17 2.36   4 2.43  10 2.49
 178  0.977  0.732  0.961-   4 2.26  13 2.42
 179  0.757  0.653  0.688- 208 2.03 246 2.11
 180  0.107  0.287  0.261-  72 2.05  96 2.11  46 2.57
 181  0.925  0.179  0.149- 215 2.10 250 2.16  14 2.54
 182  0.947  0.817  0.616- 228 2.30  22 2.33  10 2.38
 183  0.509  0.568  0.160- 212 2.11  20 2.48   6 2.51 244 2.67
 184  0.985  0.275  0.776-  61 2.09 101 2.15  33 2.63
 185  0.156  0.667  0.891- 169 2.06  35 2.41
 186  0.414  0.238  0.314- 134 2.02  54 2.21
 187  0.846  0.511  0.208-  91 2.04   3 2.38
 188  0.138  0.176  0.122-  42 2.42  46 2.47  33 2.54  48 2.60
 189  0.936  0.863  0.271- 138 2.03 141 2.11
 190  0.424  0.429  0.109- 244 2.06 255 2.08
 191  0.832  0.349  0.779- 211 2.12  19 2.51   2 2.86
 192  0.293  0.745  0.535-  45 2.31  41 2.32  23 2.45 257 2.68
 193  0.902  0.987  0.962- 236 2.09  17 2.49  29 2.56 141 2.73
 194  0.133  0.881  0.190- 222 2.06  49 2.09
 195  0.205  0.127  0.985-  48 2.36  43 2.37  42 2.46
 196  0.048  0.598  0.023- 127 1.94  66 2.03
 197  0.117  0.972  0.629- 153 2.04 239 2.16   8 2.64
 198  0.385  0.826  0.815- 114 2.09  16 2.56  45 2.66
 199  0.190  0.480  0.416-  85 1.96  15 2.29
 200  0.231  0.306  0.865- 104 2.08  43 2.43  28 2.47
 201  0.830  0.762  0.614-   4 2.30  13 2.47  22 2.59
 202  0.096  0.004  0.276- 222 2.05  65 2.09
 203  0.418  0.070  0.561- 124 2.07  21 2.43   1 2.61
 204  0.667  0.838  0.642- 118 2.06   7 2.37
 205  0.197  0.714  0.649-  23 2.29  45 2.30
 206  0.597  0.181  0.518-  69 2.05  25 2.42
 207  0.688  0.508  0.277-  12 2.30  20 2.45
 208  0.728  0.691  0.788- 179 2.03  58 2.07
 209  0.523  0.187  0.701- 174 2.10   1 2.39
 210  0.412  0.113  0.823-  44 2.31  26 2.39  24 2.45
 211  0.895  0.420  0.887- 149 2.04 191 2.12   2 2.45
 212  0.592  0.591  0.193- 183 2.11  20 2.43 162 2.79
 213  0.546  0.193  0.155-  26 2.28  24 2.38 133 2.57  27 2.63
 214  0.702  0.856  0.951- 108 2.05 226 2.18   7 2.49
 215  0.889  0.150  0.951- 126 2.03 181 2.10
 216  0.734  0.281  0.530- 158 2.07  19 2.47
 217  0.853  0.799  0.930-   4 2.13
 218  0.425  0.156  0.118-  44 2.25  24 2.45
 219  0.356  0.512  0.382- 128 2.08   5 2.42
 220  0.400  0.864  0.085-  16 2.34  39 2.45  11 2.49
 221  0.718  0.601  0.117-  12 2.24   3 2.40
 222  0.123  0.920  0.325- 202 2.05 194 2.06
 223  0.533  0.890  0.573- 166 2.20   7 2.42  36 2.45
 224  0.619  0.981  0.573-  36 2.33  25 2.38   7 2.40  82 2.49  37 2.68
 225  0.284  0.181  0.443-  46 2.23  48 2.54
 226  0.673  0.767  0.917- 163 2.06 214 2.18
 227  0.651  0.351  0.594-  73 2.04  19 2.48  30 2.49
 228  0.962  0.722  0.673- 182 2.30  13 2.32  34 2.36
 229  0.999  0.704  0.280- 119 2.03  51 2.08
 230  0.301  0.940  0.860-  11 2.22 144 2.56  16 2.59
 231  0.287  0.689  0.219-  35 2.33 257 2.34  31 2.39
 232  0.388  0.951  0.740- 114 2.04  16 2.50
 233  0.914  0.620  0.423-  34 2.13
 234  0.728  0.043  0.449- 147 2.10  18 2.45  38 2.54
 235  0.426  0.271  0.945- 170 2.07  44 2.36  26 2.46
 236  0.865  0.028  0.781- 193 2.09  17 2.31
 237  0.946  0.073  0.417-  70 1.99 102 2.19
 238  0.769  0.876  0.306- 173 2.09  22 2.32
 239  0.174  0.047  0.681-  90 2.04 197 2.16
 240  0.083  0.086  0.765- 102 2.08  42 2.44   8 2.59
 241  0.525  0.898  0.061-  16 2.38  39 2.40  32 2.42
 242  0.434  0.697  0.914- 151 2.07  41 2.39
 243  0.234  0.567  0.798- 159 2.08  15 2.48  40 2.52
 244  0.426  0.514  0.167- 190 2.06   6 2.44 183 2.67
 245  0.412  0.780  0.522- 107 1.99  31 2.60
 246  0.855  0.637  0.834- 179 2.11  47 2.38  13 2.66
 247  0.114  0.237  0.766-  43 2.29  42 2.30
 248  0.090  0.917  0.920- 156 2.04   8 2.39  10 2.47
 249  0.845  0.638  0.110-  47 2.22   3 2.53
 250  0.026  0.170  0.271- 116 2.01 181 2.16
 251  0.264  0.810  0.020-  35 2.21  31 2.43
 252  0.951  0.331  0.216- 253 2.02  14 2.43 122 2.78
 253  0.987  0.285  0.384- 252 2.02  14 2.41
 254  0.767  0.710  0.282-  62 2.05  34 2.38
 255  0.517  0.408  0.196- 190 2.08  30 2.50  20 2.57 168 2.69
 256  0.784  0.523  0.862-  47 2.20   3 2.46
 257  0.282  0.654  0.383- 231 2.34  88 2.41  92 2.61 192 2.68 128 2.77 161 2.98  41 2.99  23 3.08

 

IMPORTANT INFORMATION: All symmetrisations will be switched off!
NOSYMM: (Re-)initialisation of all symmetry stuff for point group C_1.


----------------------------------------------------------------------------------------

                                     Primitive cell                                     

  volume of cell :    6163.4969

  direct lattice vectors                    reciprocal lattice vectors
    27.120398187  0.402360350 -2.402807027     0.039265674 -0.000001116  0.027010185
     0.301744657 23.362465222 -0.437691370    -0.000563784  0.042826122  0.000808004
    -7.129577944 -0.289405483 10.364511012     0.009079162  0.001808280  0.102778985

  length of vectors
    27.229604721 23.368513107 12.583231926     0.047658611  0.042837453  0.103195062

  position of ions in fractional coordinates (direct lattice)
     0.536568821  0.087821728  0.673179053
     0.864153364  0.422626632  0.656081592
     0.760969537  0.561694569  0.011916340
     0.897268296  0.796424287  0.838603405
     0.278942644  0.461501673  0.163552294
     0.534989583  0.531536958  0.376087013
     0.645425407  0.913031178  0.739947629
     0.060664781  0.976903513  0.738607696
     0.762503958  0.245713023  0.136615733
     0.973209753  0.907461392  0.734659886
     0.365511532  0.964034814  0.083951544
     0.703198427  0.507135590  0.116508700
     0.906839728  0.683265473  0.736642641
     0.876779667  0.263742726  0.189675112
     0.184716253  0.541686154  0.555248910
     0.417662964  0.919651223  0.961080701
     0.884107064  0.932906658  0.765270666
     0.626607003  0.070994191  0.230108947
     0.727907174  0.384616953  0.566848142
     0.586462336  0.490142970  0.225209301
     0.350390176  0.086957405  0.316068242
     0.848405440  0.853594191  0.535581843
     0.210843847  0.683853636  0.494953920
     0.490071339  0.104068501  0.073781362
     0.602378577  0.081271153  0.568469943
     0.481426533  0.193619392  0.919694296
     0.626266175  0.174571010  0.107329335
     0.256785977  0.351993871  0.075605829
     0.834882680  0.968038996  0.035685423
     0.606083614  0.435511914  0.443664289
     0.339177597  0.776990758  0.253609272
     0.527607583  0.985740841  0.174342752
     0.018436449  0.193082639  0.947877787
     0.869708599  0.677071003  0.474836940
     0.210731324  0.749871376  0.044658628
     0.519996203  0.991707273  0.519369067
     0.720254589  0.027465810  0.812931716
     0.738228645  0.123961203  0.335938347
     0.516471149  0.873899684  0.232688564
     0.189551318  0.466363863  0.722019579
     0.345433402  0.669023790  0.682619918
     0.104348139  0.176748125  0.891823354
     0.218285084  0.222541544  0.952824375
     0.377175986  0.180989777  0.901052120
     0.280029644  0.764882935  0.696778451
     0.208949957  0.246733137  0.311974816
     0.866112846  0.579811014  0.999711168
     0.252947774  0.168847212  0.205562198
     0.224811153  0.883661352  0.253223130
     0.414543095  0.584147449  0.695818255
     0.049663043  0.779177663  0.330273811
     0.490033656  0.088425861  0.441124409
     0.310642321  0.929298121  0.158157490
     0.364923608  0.186468332  0.364215489
     0.036938934  0.469543218  0.645874452
     0.670281077  0.084161940  0.111497474
     0.098449706  0.502941487  0.506654612
     0.690480260  0.633457821  0.841208024
     0.344585159  0.057302453  0.134822524
     0.602967322  0.806522561  0.309494455
     0.080932296  0.274947722  0.952487883
     0.836406727  0.770409922  0.362107978
     0.961038135  0.544002043  0.037845715
     0.774354878  0.473269442  0.607439952
     0.177358493  0.055259751  0.415031558
     0.983561530  0.605183180  0.815790556
     0.948725768  0.524538135  0.176624773
     0.139949695  0.735560321  0.285946110
     0.675678968  0.223857842  0.683073509
     0.015358188  0.061226216  0.405188902
     0.222909806  0.399940512  0.200263821
     0.156474764  0.224010810  0.401631052
     0.693947224  0.427529554  0.690279461
     0.248495933  0.161209245  0.848522518
     0.555092457  0.735786222  0.913618077
     0.665460945  0.200148310  0.980873914
     0.738541132  0.338757743  0.076669419
     0.865890433  0.240387895  0.348093436
     0.789416009  0.207519531  0.009293572
     0.115426064  0.617562738  0.392879457
     0.403153543  0.624219909  0.305370540
     0.608768685  0.936044943  0.376429319
     0.126499398  0.503384154  0.788151976
     0.601403993  0.463107823  0.953181507
     0.272473487  0.471042330  0.457086940
     0.258913593  0.392794976  0.709321386
     0.562866142  0.643673196  0.876344197
     0.168202795  0.661027295  0.250341871
     0.642882737  0.528216244  0.462670846
     0.221541187  0.023488187  0.608198093
     0.804568418  0.467910567  0.270520212
     0.402753034  0.657134249  0.598499205
     0.248011622  0.795701264  0.263321765
     0.874923096  0.954700673  0.572618324
     0.896156980  0.491705458  0.609943566
     0.015252885  0.258909620  0.090238737
     0.479903595  0.961298287  0.285229274
     0.433682902  0.710980407  0.351636678
     0.647737383  0.091913514  0.805533170
     0.054111970  0.383489587  0.646033064
     0.988689943  0.187584416  0.721072309
     0.987705698  0.061571929  0.631267297
     0.128642302  0.377407401  0.642118020
     0.315935533  0.278931714  0.049227467
     0.418037959  0.017972195  0.014907049
     0.257232124  0.559376142  0.082366013
     0.431355258  0.855957519  0.620921853
     0.634716391  0.914203405  0.910306595
     0.567185909  0.616486836  0.509840808
     0.482259301  0.330653446  0.726515649
     0.720006048  0.084037555  0.675185576
     0.779878349  0.376734712  0.441841733
     0.816782683  0.919078596  0.148453155
     0.358939022  0.872010588  0.646915660
     0.689593871  0.485646833  0.915601513
     0.053381028  0.144779009  0.451715390
     0.798900428  0.056786636  0.039967283
     0.594523036  0.779155852  0.553689500
     0.054284442  0.647822808  0.433352791
     0.170182344  0.421937876  0.995275498
     0.255798714  0.067809283  0.254729364
     0.828754685  0.351634502  0.128185862
     0.237107195  0.272679333  0.166873237
     0.400326695  0.997142654  0.441024976
     0.842322799  0.136905154  0.561836126
     0.903916433  0.206872884  0.857020812
     0.100003076  0.530839051  0.060503565
     0.265803946  0.547950480  0.256317392
     0.258338227  0.326481484  0.464777402
     0.829662160  0.620396155  0.549342009
     0.866185289  0.336213050  0.550429410
     0.985653124  0.921084066  0.562041094
     0.662436963  0.164974244  0.348334320
     0.495004671  0.269999083  0.491699739
     0.543686992  0.995346529  0.736142730
     0.567473368  0.071563029  0.316178127
     0.535156763  0.030435237  0.015638399
     0.025218919  0.834596192  0.424793113
     0.223541719  0.850050907  0.586834369
     0.578056730  0.304877749  0.884883960
     0.945667091  0.939246619  0.202773856
     0.488857843  0.585542840  0.475234105
     0.546268120  0.453466878  0.008653354
     0.242314067  0.844533571  0.769894387
     0.730659391  0.222602548  0.271911259
     0.272745258  0.435047732  0.969886789
     0.685543191  0.977044516  0.297149635
     0.392875025  0.744638052  0.168596506
     0.965668376  0.396757254  0.878771050
     0.516540107  0.770935738  0.191948766
     0.348668054  0.694052506  0.877178093
     0.269752815  0.202181386  0.739029413
     0.158952118  0.938649935  0.816065876
     0.567877377  0.271919433  0.019071858
     0.106294560  0.781506718  0.945207632
     0.039994276  0.988962626  0.900269690
     0.529998328  0.453659210  0.474934047
     0.747103513  0.225351257  0.669285901
     0.280878268  0.505607274  0.767555055
     0.837197105  0.093697790  0.411982342
     0.269455675  0.597971463  0.573499165
     0.515205400  0.596107646  0.906801783
     0.575348897  0.764460235  0.795892127
     0.013837978  0.103812028  0.980424285
     0.355426877  0.388438462  0.254371104
     0.515936070  0.828443425  0.415089521
     0.798063325  0.876879081  0.637382321
     0.642332746  0.394980285  0.325959880
     0.115364107  0.745089730  0.805477021
     0.381085095  0.245255633  0.742712937
     0.485135838  0.347749571  0.575427300
     0.203014181  0.349372258  0.524323908
     0.742725650  0.960072575  0.240777871
     0.538797629  0.140848977  0.859813561
     0.753450960  0.935515130  0.809096503
     0.370459555  0.871785184  0.311036400
     0.972717925  0.873593974  0.918837951
     0.976748131  0.731877662  0.961092215
     0.756527786  0.653097463  0.687773505
     0.107294795  0.287315693  0.260880854
     0.924677462  0.179364256  0.148544038
     0.947034276  0.816941678  0.616116101
     0.508633451  0.567641308  0.159892228
     0.985051042  0.274980817  0.776147294
     0.155727779  0.667335219  0.891469068
     0.414347742  0.237838889  0.314054707
     0.845921460  0.511390260  0.208236755
     0.137736244  0.176090613  0.121959719
     0.935668937  0.862872630  0.270559451
     0.423905189  0.429417995  0.109263098
     0.832071113  0.349087877  0.779254083
     0.293394666  0.744674218  0.535463372
     0.901665517  0.986931135  0.962481900
     0.133022931  0.881174871  0.190125028
     0.204777340  0.126828087  0.985353143
     0.048490894  0.598284843  0.023223430
     0.117325112  0.972430269  0.629395511
     0.384930815  0.826465620  0.815344345
     0.190300187  0.480107406  0.415995801
     0.231150186  0.306066234  0.865039997
     0.829787391  0.762054014  0.613787443
     0.096350396  0.004371956  0.276099310
     0.418088299  0.069911000  0.561185099
     0.667130749  0.838002916  0.641861589
     0.196600531  0.713933230  0.649314991
     0.596675087  0.180927109  0.518027033
     0.688213991  0.507627917  0.276571055
     0.727639477  0.690947906  0.788174108
     0.522595620  0.187220719  0.701118743
     0.411795705  0.112852496  0.823411281
     0.895200392  0.419840908  0.886602541
     0.592106964  0.590649042  0.193076842
     0.545753922  0.192763746  0.154801204
     0.702318226  0.855924840  0.951205412
     0.888568985  0.150420818  0.950633146
     0.734037826  0.280901034  0.529596667
     0.852995367  0.798670705  0.930362530
     0.424612579  0.155631434  0.117638975
     0.356407202  0.511954118  0.381911146
     0.400411658  0.864020764  0.084939439
     0.717868881  0.600816486  0.116949163
     0.122733535  0.920440804  0.324721313
     0.532974922  0.889955807  0.572718115
     0.618973066  0.980620074  0.572880313
     0.283647999  0.181399223  0.442578718
     0.673144160  0.766785138  0.917119706
     0.650832090  0.351027976  0.593666680
     0.961930059  0.722352761  0.673087073
     0.999283921  0.703819099  0.279860273
     0.301212436  0.940468662  0.859962400
     0.286824054  0.689252170  0.219486562
     0.388452746  0.951429255  0.739786362
     0.914186060  0.619649061  0.422872427
     0.727985408  0.043363742  0.449229744
     0.425829075  0.270543070  0.945363759
     0.864737364  0.028414180  0.781394188
     0.946048116  0.072518196  0.416699001
     0.769341172  0.875873584  0.305765559
     0.174412199  0.047085556  0.680535843
     0.083115301  0.085939122  0.764869707
     0.525061261  0.898077042  0.061410130
     0.434444267  0.696776688  0.914413585
     0.233675686  0.566792148  0.798201699
     0.425534381  0.513842964  0.166665937
     0.411803799  0.780480821  0.521541866
     0.855399553  0.636861964  0.834264853
     0.113513414  0.237379083  0.766147522
     0.089689450  0.917181881  0.920238306
     0.844979490  0.638370270  0.109794958
     0.026322035  0.169867426  0.270540526
     0.263825201  0.809816899  0.019605191
     0.950514930  0.331049801  0.216094832
     0.986538857  0.285223760  0.384010740
     0.767036526  0.709637340  0.282103281
     0.517323614  0.408142618  0.195918759
     0.783868621  0.522623395  0.862368253
     0.281876288  0.653708622  0.383115843

  ion indices of the primitive-cell ions
   primitive index   ion index
                 1           1
                 2           2
                 3           3
                 4           4
                 5           5
                 6           6
                 7           7
                 8           8
                 9           9
                10          10
                11          11
                12          12
                13          13
                14          14
                15          15
                16          16
                17          17
                18          18
                19          19
                20          20
                21          21
                22          22
                23          23
                24          24
                25          25
                26          26
                27          27
                28          28
                29          29
                30          30
                31          31
                32          32
                33          33
                34          34
                35          35
                36          36
                37          37
                38          38
                39          39
                40          40
                41          41
                42          42
                43          43
                44          44
                45          45
                46          46
                47          47
                48          48
                49          49
                50          50
                51          51
                52          52
                53          53
                54          54
                55          55
                56          56
                57          57
                58          58
                59          59
                60          60
                61          61
                62          62
                63          63
                64          64
                65          65
                66          66
                67          67
                68          68
                69          69
                70          70
                71          71
                72          72
                73          73
                74          74
                75          75
                76          76
                77          77
                78          78
                79          79
                80          80
                81          81
                82          82
                83          83
                84          84
                85          85
                86          86
                87          87
                88          88
                89          89
                90          90
                91          91
                92          92
                93          93
                94          94
                95          95
                96          96
                97          97
                98          98
                99          99
               100         100
               101         101
               102         102
               103         103
               104         104
               105         105
               106         106
               107         107
               108         108
               109         109
               110         110
               111         111
               112         112
               113         113
               114         114
               115         115
               116         116
               117         117
               118         118
               119         119
               120         120
               121         121
               122         122
               123         123
               124         124
               125         125
               126         126
               127         127
               128         128
               129         129
               130         130
               131         131
               132         132
               133         133
               134         134
               135         135
               136         136
               137         137
               138         138
               139         139
               140         140
               141         141
               142         142
               143         143
               144         144
               145         145
               146         146
               147         147
               148         148
               149         149
               150         150
               151         151
               152         152
               153         153
               154         154
               155         155
               156         156
               157         157
               158         158
               159         159
               160         160
               161         161
               162         162
               163         163
               164         164
               165         165
               166         166
               167         167
               168         168
               169         169
               170         170
               171         171
               172         172
               173         173
               174         174
               175         175
               176         176
               177         177
               178         178
               179         179
               180         180
               181         181
               182         182
               183         183
               184         184
               185         185
               186         186
               187         187
               188         188
               189         189
               190         190
               191         191
               192         192
               193         193
               194         194
               195         195
               196         196
               197         197
               198         198
               199         199
               200         200
               201         201
               202         202
               203         203
               204         204
               205         205
               206         206
               207         207
               208         208
               209         209
               210         210
               211         211
               212         212
               213         213
               214         214
               215         215
               216         216
               217         217
               218         218
               219         219
               220         220
               221         221
               222         222
               223         223
               224         224
               225         225
               226         226
               227         227
               228         228
               229         229
               230         230
               231         231
               232         232
               233         233
               234         234
               235         235
               236         236
               237         237
               238         238
               239         239
               240         240
               241         241
               242         242
               243         243
               244         244
               245         245
               246         246
               247         247
               248         248
               249         249
               250         250
               251         251
               252         252
               253         253
               254         254
               255         255
               256         256
               257         257

----------------------------------------------------------------------------------------

 
 
 KPOINTS: Automatic_mesh                          

Automatic generation of k-mesh.
 Grid dimensions read from file:
 generate k-points for:    1    1    1

 Generating k-lattice:

  Cartesian coordinates                     Fractional coordinates (reciprocal lattice)
     0.039265674 -0.000001116  0.027010185     1.000000000 -0.000000000  0.000000000
    -0.000563784  0.042826122  0.000808004     0.000000000  1.000000000 -0.000000000
     0.009079162  0.001808280  0.102778985    -0.000000000  0.000000000  1.000000000

  Length of vectors
     0.047658611  0.042837453  0.103195062

  Shift w.r.t. Gamma in fractional coordinates (k-lattice)
     0.000000000  0.000000000  0.000000000

 
 Subroutine IBZKPT returns following result:
 ===========================================
 
 Found      1 irreducible k-points:
 
 Following reciprocal coordinates:
            Coordinates               Weight
  0.000000  0.000000  0.000000      1.000000
 
 Following cartesian coordinates:
            Coordinates               Weight
  0.000000  0.000000  0.000000      1.000000
 


--------------------------------------------------------------------------------------------------------




 Dimension of arrays:
   k-points           NKPTS =      1   k-points in BZ     NKDIM =      1   number of bands    NBANDS=   1052
   number of dos      NEDOS =    903   number of ions     NIONS =    257
   non local maximal  LDIM  =      6   non local SUM 2l+1 LMDIM =     18
   total plane-waves  NPLWV = ******
   max r-space proj   IRMAX =   7414   max aug-charges    IRDMAX= 201780
   dimension x,y,z NGX =   180 NGY =  160 NGZ =   84
   dimension x,y,z NGXF=   360 NGYF=  320 NGZF=  168
   support grid    NGXF=   720 NGYF=  640 NGZF=  336
   ions per type =              48 208   1
   NGX,Y,Z   is equivalent  to a cutoff of  10.99, 11.38, 11.10 a.u.
   NGXF,Y,Z  is equivalent  to a cutoff of  21.98, 22.77, 22.20 a.u.

 SYSTEM =  LiMox                                   
 POSCAR =  Mo  S Li                                

 Startparameter for this run:
   NWRITE =      0    write-flag & timer
   PREC   = accura    normal or accurate (medium, high low for compatibility)
   ISTART =      0    job   : 0-new  1-cont  2-samecut
   ICHARG =      2    charge: 1-file 2-atom 10-const
   ISPIN  =      2    spin polarized calculation?
   LNONCOLLINEAR =      F non collinear calculations
   LSORBIT =      F    spin-orbit coupling
   INIWAV =      1    electr: 0-lowe 1-rand  2-diag
   LASPH  =      F    aspherical Exc in radial PAW
   METAGGA=      F    non-selfconsistent MetaGGA calc.

 Electronic Relaxation 1
   ENCUT  =  400.0 eV  29.40 Ry    5.42 a.u.  44.40 38.11 20.52*2*pi/ulx,y,z
   ENINI  =  400.0     initial cutoff
   ENAUG  =  345.3 eV  augmentation charge cutoff
   NELM   =    800;   NELMIN=  2; NELMDL= 10     # of ELM steps 
   EDIFF  = 0.1E-05   stopping-criterion for ELM
   LREAL  =      T    real-space projection
   NLSPLINE    = F    spline interpolate recip. space projectors
   LCOMPAT=      F    compatible to vasp.4.4
   GGA_COMPAT  = T    GGA compatible to vasp.4.4-vasp.4.6
   LMAXPAW     = -100 max onsite density
   LMAXMIX     =    4 max onsite mixed and CHGCAR
   VOSKOWN=      0    Vosko Wilk Nusair interpolation
   ROPT   =   -0.00025  -0.00025  -0.00025
 Ionic relaxation
   EDIFFG = -.3E-01   stopping-criterion for IOM
   NSW    =   1200    number of steps for IOM
   NBLOCK =      1;   KBLOCK =   1200    inner block; outer block 
   IBRION =      2    ionic relax: 0-MD 1-quasi-New 2-CG
   NFREE  =      1    steps in history (QN), initial steepest desc. (CG)
   ISIF   =      2    stress and relaxation
   IWAVPR =     11    prediction:  0-non 1-charg 2-wave 3-comb
   ISYM   =      0    0-nonsym 1-usesym 2-fastsym
   LCORR  =      T    Harris-Foulkes like correction to forces

   POTIM  = 0.2000    time-step for ionic-motion
   TEIN   =    0.0    initial temperature
   TEBEG  =    0.0;   TEEND  =   0.0 temperature during run
   SMASS  =  -3.00    Nose mass-parameter (am)
   estimated Nose-frequenzy (Omega)   =  0.10E-29 period in steps = 0.31E+47 mass=  -0.169E-25a.u.
   SCALEE = 1.0000    scale energy and forces
   NPACO  =    256;   APACO  = 16.0  distance and # of slots for P.C.
   PSTRESS=    0.0 pullay stress

  Mass of Ions in am
   POMASS =  95.94 32.07  7.01
  Ionic Valenz
   ZVAL   =   6.00  6.00  1.00
  Atomic Wigner-Seitz radii
   RWIGS  =  -1.00 -1.00 -1.00
  virtual crystal weights 
   VCA    =   1.00  1.00  1.00
   NELECT =    1537.0000    total number of electrons
   NUPDOWN=      -1.0000    fix difference up-down

 DOS related values:
   EMIN   =  10.00;   EMAX   =-10.00  energy-range for DOS
   EFERMI =   0.00
   ISMEAR =     0;   SIGMA  =   0.05  broadening in eV -4-tet -1-fermi 0-gaus

 Electronic relaxation 2 (details)
   IALGO  =     48    algorithm
   LDIAG  =      T    sub-space diagonalisation (order eigenvalues)
   LSUBROT=      F    optimize rotation matrix (better conditioning)
   TURBO    =      0    0=normal 1=particle mesh
   IRESTART =      0    0=no restart 2=restart with 2 vectors
   NREBOOT  =      0    no. of reboots
   NMIN     =      0    reboot dimension
   EREF     =   0.00    reference energy to select bands
   IMIX   =      4    mixing-type and parameters
     AMIX     =   0.20;   BMIX     =  0.00
     AMIX_MAG =   0.80;   BMIX_MAG =  0.00
     AMIN     =   0.10
     WC   =   100.;   INIMIX=   1;  MIXPRE=   1;  MAXMIX= -45

 Intra band minimization:
   WEIMIN = 0.0010     energy-eigenvalue tresh-hold
   EBREAK =  0.24E-09  absolut break condition
   DEPER  =   0.30     relativ break condition  

   TIME   =   0.40     timestep for ELM

  volume/ion in A,a.u.               =      23.98       161.84
  Fermi-wavevector in a.u.,A,eV,Ry     =   1.030442  1.947254 14.446823  1.061812
  Thomas-Fermi vector in A             =   2.164541
 
 Write flags
   LWAVE        =      F    write WAVECAR
   LDOWNSAMPLE  =      F    k-point downsampling of WAVECAR
   LCHARG       =      F    write CHGCAR
   LVTOT        =      F    write LOCPOT, total local potential
   LVHAR        =      F    write LOCPOT, Hartree potential only
   LELF         =      F    write electronic localiz. function (ELF)
   LORBIT       =      0    0 simple, 1 ext, 2 COOP (PROOUT), +10 PAW based schemes


 Dipole corrections
   LMONO  =      F    monopole corrections only (constant potential shift)
   LDIPOL =      F    correct potential (dipole corrections)
   IDIPOL =      3    1-x, 2-y, 3-z, 4-all directions 
   EPSILON=  1.0000000 bulk dielectric constant

 Exchange correlation treatment:
   GGA     =    PE    GGA type
   LEXCH   =     8    internal setting for exchange type
   VOSKOWN=      0    Vosko Wilk Nusair interpolation
   LHFCALC =     F    Hartree Fock is set to
   LHFONE  =     F    Hartree Fock one center treatment
   AEXX    =    0.0000 exact exchange contribution

 Linear response parameters
   LEPSILON=     F    determine dielectric tensor
   LRPA    =     F    only Hartree local field effects (RPA)
   LNABLA  =     F    use nabla operator in PAW spheres
   LVEL    =     F    velocity operator in full k-point grid
   LINTERFAST=   F  fast interpolation
   KINTER  =     0    interpolate to denser k-point grid
   CSHIFT  =0.1000    complex shift for real part using Kramers Kronig
   OMEGAMAX=  -1.0    maximum frequency
   DEG_THRESHOLD= 0.2000000E-02 threshold for treating states as degnerate
   RTIME   =   -0.100 relaxation time in fs
  (WPLASMAI=    0.000 imaginary part of plasma frequency in eV, 0.658/RTIME)
   DFIELD  = 0.0000000 0.0000000 0.0000000 field for delta impulse in time
 
 Orbital magnetization related:
   ORBITALMAG=     F  switch on orbital magnetization
   LCHIMAG   =     F  perturbation theory with respect to B field
   DQ        =  0.001000  dq finite difference perturbation B field
   LLRAUG    =     F  two centre corrections for induced B field



--------------------------------------------------------------------------------------------------------


 conjugate gradient relaxation of ions
 charge density and potential will be updated during run
 spin polarized calculation
 RMM-DIIS sequential band-by-band
 perform sub-space diagonalisation
    before iterative eigenvector-optimisation
 modified Broyden-mixing scheme, WC =      100.0
 initial mixing is a Kerker type mixing with AMIX =  0.2000 and BMIX =      0.0000
 Hartree-type preconditioning will be used
 using additional bands          283
 real space projection scheme for non local part
 use partial core corrections
 calculate Harris-corrections to forces 
   (improved forces if not selfconsistent)
 use gradient corrections 
 use of overlap-Matrix (Vanderbilt PP)
 Gauss-broadening in eV      SIGMA  =   0.05


--------------------------------------------------------------------------------------------------------


  energy-cutoff  :      400.00
  volume of cell :     6163.50
      direct lattice vectors                 reciprocal lattice vectors
    27.120398187  0.402360350 -2.402807027     0.039265674 -0.000001116  0.027010185
     0.301744657 23.362465222 -0.437691370    -0.000563784  0.042826122  0.000808004
    -7.129577944 -0.289405483 10.364511012     0.009079162  0.001808280  0.102778985

  length of vectors
    27.229604721 23.368513107 12.583231926     0.047658611  0.042837453  0.103195062


 
 k-points in units of 2pi/SCALE and weight: Automatic_mesh                          
   0.00000000  0.00000000  0.00000000       1.000
 
 k-points in reciprocal lattice and weights: Automatic_mesh                          
   0.00000000  0.00000000  0.00000000       1.000
 
 position of ions in fractional coordinates (direct lattice) 
   0.53656882  0.08782173  0.67317905
   0.86415336  0.42262663  0.65608159
   0.76096954  0.56169457  0.01191634
   0.89726830  0.79642429  0.83860341
   0.27894264  0.46150167  0.16355229
   0.53498958  0.53153696  0.37608701
   0.64542541  0.91303118  0.73994763
   0.06066478  0.97690351  0.73860770
   0.76250396  0.24571302  0.13661573
   0.97320975  0.90746139  0.73465989
   0.36551153  0.96403481  0.08395154
   0.70319843  0.50713559  0.11650870
   0.90683973  0.68326547  0.73664264
   0.87677967  0.26374273  0.18967511
   0.18471625  0.54168615  0.55524891
   0.41766296  0.91965122  0.96108070
   0.88410706  0.93290666  0.76527067
   0.62660700  0.07099419  0.23010895
   0.72790717  0.38461695  0.56684814
   0.58646234  0.49014297  0.22520930
   0.35039018  0.08695741  0.31606824
   0.84840544  0.85359419  0.53558184
   0.21084385  0.68385364  0.49495392
   0.49007134  0.10406850  0.07378136
   0.60237858  0.08127115  0.56846994
   0.48142653  0.19361939  0.91969430
   0.62626618  0.17457101  0.10732934
   0.25678598  0.35199387  0.07560583
   0.83488268  0.96803900  0.03568542
   0.60608361  0.43551191  0.44366429
   0.33917760  0.77699076  0.25360927
   0.52760758  0.98574084  0.17434275
   0.01843645  0.19308264  0.94787779
   0.86970860  0.67707100  0.47483694
   0.21073132  0.74987138  0.04465863
   0.51999620  0.99170727  0.51936907
   0.72025459  0.02746581  0.81293172
   0.73822864  0.12396120  0.33593835
   0.51647115  0.87389968  0.23268856
   0.18955132  0.46636386  0.72201958
   0.34543340  0.66902379  0.68261992
   0.10434814  0.17674812  0.89182335
   0.21828508  0.22254154  0.95282438
   0.37717599  0.18098978  0.90105212
   0.28002964  0.76488293  0.69677845
   0.20894996  0.24673314  0.31197482
   0.86611285  0.57981101  0.99971117
   0.25294777  0.16884721  0.20556220
   0.22481115  0.88366135  0.25322313
   0.41454309  0.58414745  0.69581825
   0.04966304  0.77917766  0.33027381
   0.49003366  0.08842586  0.44112441
   0.31064232  0.92929812  0.15815749
   0.36492361  0.18646833  0.36421549
   0.03693893  0.46954322  0.64587445
   0.67028108  0.08416194  0.11149747
   0.09844971  0.50294149  0.50665461
   0.69048026  0.63345782  0.84120802
   0.34458516  0.05730245  0.13482252
   0.60296732  0.80652256  0.30949445
   0.08093230  0.27494772  0.95248788
   0.83640673  0.77040992  0.36210798
   0.96103814  0.54400204  0.03784572
   0.77435488  0.47326944  0.60743995
   0.17735849  0.05525975  0.41503156
   0.98356153  0.60518318  0.81579056
   0.94872577  0.52453814  0.17662477
   0.13994970  0.73556032  0.28594611
   0.67567897  0.22385784  0.68307351
   0.01535819  0.06122622  0.40518890
   0.22290981  0.39994051  0.20026382
   0.15647476  0.22401081  0.40163105
   0.69394722  0.42752955  0.69027946
   0.24849593  0.16120925  0.84852252
   0.55509246  0.73578622  0.91361808
   0.66546094  0.20014831  0.98087391
   0.73854113  0.33875774  0.07666942
   0.86589043  0.24038789  0.34809344
   0.78941601  0.20751953  0.00929357
   0.11542606  0.61756274  0.39287946
   0.40315354  0.62421991  0.30537054
   0.60876869  0.93604494  0.37642932
   0.12649940  0.50338415  0.78815198
   0.60140399  0.46310782  0.95318151
   0.27247349  0.47104233  0.45708694
   0.25891359  0.39279498  0.70932139
   0.56286614  0.64367320  0.87634420
   0.16820280  0.66102730  0.25034187
   0.64288274  0.52821624  0.46267085
   0.22154119  0.02348819  0.60819809
   0.80456842  0.46791057  0.27052021
   0.40275303  0.65713425  0.59849921
   0.24801162  0.79570126  0.26332176
   0.87492310  0.95470067  0.57261832
   0.89615698  0.49170546  0.60994357
   0.01525288  0.25890962  0.09023874
   0.47990360  0.96129829  0.28522927
   0.43368290  0.71098041  0.35163668
   0.64773738  0.09191351  0.80553317
   0.05411197  0.38348959  0.64603306
   0.98868994  0.18758442  0.72107231
   0.98770570  0.06157193  0.63126730
   0.12864230  0.37740740  0.64211802
   0.31593553  0.27893171  0.04922747
   0.41803796  0.01797219  0.01490705
   0.25723212  0.55937614  0.08236601
   0.43135526  0.85595752  0.62092185
   0.63471639  0.91420340  0.91030660
   0.56718591  0.61648684  0.50984081
   0.48225930  0.33065345  0.72651565
   0.72000605  0.08403755  0.67518558
   0.77987835  0.37673471  0.44184173
   0.81678268  0.91907860  0.14845316
   0.35893902  0.87201059  0.64691566
   0.68959387  0.48564683  0.91560151
   0.05338103  0.14477901  0.45171539
   0.79890043  0.05678664  0.03996728
   0.59452304  0.77915585  0.55368950
   0.05428444  0.64782281  0.43335279
   0.17018234  0.42193788  0.99527550
   0.25579871  0.06780928  0.25472936
   0.82875468  0.35163450  0.12818586
   0.23710720  0.27267933  0.16687324
   0.40032669  0.99714265  0.44102498
   0.84232280  0.13690515  0.56183613
   0.90391643  0.20687288  0.85702081
   0.10000308  0.53083905  0.06050356
   0.26580395  0.54795048  0.25631739
   0.25833823  0.32648148  0.46477740
   0.82966216  0.62039615  0.54934201
   0.86618529  0.33621305  0.55042941
   0.98565312  0.92108407  0.56204109
   0.66243696  0.16497424  0.34833432
   0.49500467  0.26999908  0.49169974
   0.54368699  0.99534653  0.73614273
   0.56747337  0.07156303  0.31617813
   0.53515676  0.03043524  0.01563840
   0.02521892  0.83459619  0.42479311
   0.22354172  0.85005091  0.58683437
   0.57805673  0.30487775  0.88488396
   0.94566709  0.93924662  0.20277386
   0.48885784  0.58554284  0.47523411
   0.54626812  0.45346688  0.00865335
   0.24231407  0.84453357  0.76989439
   0.73065939  0.22260255  0.27191126
   0.27274526  0.43504773  0.96988679
   0.68554319  0.97704452  0.29714963
   0.39287503  0.74463805  0.16859651
   0.96566838  0.39675725  0.87877105
   0.51654011  0.77093574  0.19194877
   0.34866805  0.69405251  0.87717809
   0.26975282  0.20218139  0.73902941
   0.15895212  0.93864994  0.81606588
   0.56787738  0.27191943  0.01907186
   0.10629456  0.78150672  0.94520763
   0.03999428  0.98896263  0.90026969
   0.52999833  0.45365921  0.47493405
   0.74710351  0.22535126  0.66928590
   0.28087827  0.50560727  0.76755505
   0.83719711  0.09369779  0.41198234
   0.26945568  0.59797146  0.57349916
   0.51520540  0.59610765  0.90680178
   0.57534890  0.76446024  0.79589213
   0.01383798  0.10381203  0.98042429
   0.35542688  0.38843846  0.25437110
   0.51593607  0.82844342  0.41508952
   0.79806332  0.87687908  0.63738232
   0.64233275  0.39498028  0.32595988
   0.11536411  0.74508973  0.80547702
   0.38108509  0.24525563  0.74271294
   0.48513584  0.34774957  0.57542730
   0.20301418  0.34937226  0.52432391
   0.74272565  0.96007258  0.24077787
   0.53879763  0.14084898  0.85981356
   0.75345096  0.93551513  0.80909650
   0.37045956  0.87178518  0.31103640
   0.97271793  0.87359397  0.91883795
   0.97674813  0.73187766  0.96109221
   0.75652779  0.65309746  0.68777351
   0.10729480  0.28731569  0.26088085
   0.92467746  0.17936426  0.14854404
   0.94703428  0.81694168  0.61611610
   0.50863345  0.56764131  0.15989223
   0.98505104  0.27498082  0.77614729
   0.15572778  0.66733522  0.89146907
   0.41434774  0.23783889  0.31405471
   0.84592146  0.51139026  0.20823675
   0.13773624  0.17609061  0.12195972
   0.93566894  0.86287263  0.27055945
   0.42390519  0.42941800  0.10926310
   0.83207111  0.34908788  0.77925408
   0.29339467  0.74467422  0.53546337
   0.90166552  0.98693114  0.96248190
   0.13302293  0.88117487  0.19012503
   0.20477734  0.12682809  0.98535314
   0.04849089  0.59828484  0.02322343
   0.11732511  0.97243027  0.62939551
   0.38493082  0.82646562  0.81534435
   0.19030019  0.48010741  0.41599580
   0.23115019  0.30606623  0.86504000
   0.82978739  0.76205401  0.61378744
   0.09635040  0.00437196  0.27609931
   0.41808830  0.06991100  0.56118510
   0.66713075  0.83800292  0.64186159
   0.19660053  0.71393323  0.64931499
   0.59667509  0.18092711  0.51802703
   0.68821399  0.50762792  0.27657106
   0.72763948  0.69094791  0.78817411
   0.52259562  0.18722072  0.70111874
   0.41179570  0.11285250  0.82341128
   0.89520039  0.41984091  0.88660254
   0.59210696  0.59064904  0.19307684
   0.54575392  0.19276375  0.15480120
   0.70231823  0.85592484  0.95120541
   0.88856898  0.15042082  0.95063315
   0.73403783  0.28090103  0.52959667
   0.85299537  0.79867070  0.93036253
   0.42461258  0.15563143  0.11763897
   0.35640720  0.51195412  0.38191115
   0.40041166  0.86402076  0.08493944
   0.71786888  0.60081649  0.11694916
   0.12273353  0.92044080  0.32472131
   0.53297492  0.88995581  0.57271811
   0.61897307  0.98062007  0.57288031
   0.28364800  0.18139922  0.44257872
   0.67314416  0.76678514  0.91711971
   0.65083209  0.35102798  0.59366668
   0.96193006  0.72235276  0.67308707
   0.99928392  0.70381910  0.27986027
   0.30121244  0.94046866  0.85996240
   0.28682405  0.68925217  0.21948656
   0.38845275  0.95142926  0.73978636
   0.91418606  0.61964906  0.42287243
   0.72798541  0.04336374  0.44922974
   0.42582907  0.27054307  0.94536376
   0.86473736  0.02841418  0.78139419
   0.94604812  0.07251820  0.41669900
   0.76934117  0.87587358  0.30576556
   0.17441220  0.04708556  0.68053584
   0.08311530  0.08593912  0.76486971
   0.52506126  0.89807704  0.06141013
   0.43444427  0.69677669  0.91441358
   0.23367569  0.56679215  0.79820170
   0.42553438  0.51384296  0.16666594
   0.41180380  0.78048082  0.52154187
   0.85539955  0.63686196  0.83426485
   0.11351341  0.23737908  0.76614752
   0.08968945  0.91718188  0.92023831
   0.84497949  0.63837027  0.10979496
   0.02632204  0.16986743  0.27054053
   0.26382520  0.80981690  0.01960519
   0.95051493  0.33104980  0.21609483
   0.98653886  0.28522376  0.38401074
   0.76703653  0.70963734  0.28210328
   0.51732361  0.40814262  0.19591876
   0.78386862  0.52262340  0.86236825
   0.28187629  0.65370862  0.38311584
 
 position of ions in cartesian coordinates  (Angst):
   9.77897729  2.07280439  5.64946157
  18.88612379 10.03142743  4.53859108
  20.72232670 13.42530516 -1.95080478
  18.59570191 18.72476347  6.18716362
   6.53823241 10.84671931  0.82289891
  11.98817729 12.52443066  2.37983212
  12.50418203 21.37620783  5.71873678
  -3.32593272 22.63352634  7.08195960
  19.77954105  6.00772597 -0.52374107
  21.42984272 21.37950162  4.87876722
   9.60517156 22.64500112 -0.43008669
  18.39338895 12.09715849 -0.70406329
  19.54807509 16.11445377  5.15692049
  22.50589316  6.45956863 -0.25628048
   1.21433884 12.56875435  5.07395458
   4.75258597 21.37522870  8.55504460
  18.80277834 21.92925544  5.39899239
  15.37467388  1.84412634  0.84827746
  15.81580050  9.11443222  3.95773981
  14.44734284 11.62174048  0.71049711
   7.27552686  2.08105059  2.39591229
  19.44818835 20.12842899  3.13887854
   2.39570571 15.91809962  4.32402145
  12.79630199  2.60712927 -0.45838901
  12.30831924  1.97654943  4.40894183
   6.55787073  4.45096869  8.29066106
  16.27205105  4.29933213 -0.46878892
   6.53131257  8.30488433  0.01254562
  22.68002931 22.94137350 -2.05990233
  13.40550321 10.29009707  2.95144163
   7.62495722 18.21549525  1.47347563
  13.36337954 23.19116873  0.10778790
  -6.19970309  4.24398350  9.69547993
  20.40575911 16.03056361  2.53536263
   5.62298992 17.59070942 -0.37169409
  10.69886421 23.22764428  3.69949417
  13.74601887  0.69620402  6.68298539
  17.66336080  3.09585082  1.65375897
  12.61162653 20.55691714  0.78822433
   0.13373517 10.76272104  6.82380120
   4.70337385 15.57147978  5.95218591
  -3.47502824  3.91315890  8.91522340
  -0.80610654  5.01119575  9.25365728
   3.85965431  4.11935861  8.35346585
   2.85757850 17.78057229  6.21412807
   3.51700767  5.75808028  2.62340703
  16.53676143 13.60498222  8.02663710
   5.44542138  3.98697245  1.44886400
   4.55823403 20.66167853  1.69758516
   6.45794669 13.61254654  5.96007261
  -0.77271869 18.12791045  2.96275651
  10.17155904  2.13535239  3.35587925
   7.57755802 21.78991353  0.48606573
   7.35643667  4.39778476  2.81645886
  -3.46133148 10.79763025  6.39990073
  17.40875519  2.20365696 -0.49177624
  -0.79047840 11.64293663  4.79453851
  12.91978393 14.83350797  6.78235998
   8.40134974  1.43835559  0.54431710
  14.38951289 18.99539603  1.40593660
  -4.51295650  6.18036533  9.55726422
  20.33447352 18.23041588  1.40614639
  25.95806263 13.08495969 -2.15504185
  16.81282866 11.19251412  4.22804678
   1.86770744  1.24225362  3.85125420
  21.04094878 14.29822289  5.82707819
  24.62883708 12.58511740 -0.67856135
   1.97876777 17.15805826  2.30547109
  13.52220474  5.30405225  5.35821608
  -2.45383101  1.31931099  4.13588389
   4.73828610  9.37532892  1.36497682
   1.44779207  5.18016976  3.68868320
  14.02772857 10.06759053  5.29986182
   0.73834526  3.62066323  8.12687331
   8.76263672 17.14872113  7.81337729
  11.11474247  4.65984274  8.47970106
  19.58512731  8.18918711 -1.12820212
  21.07406981  5.86371366  1.42203493
  21.40563517  5.16310792 -1.89132051
   0.51568237 14.36052939  3.52435502
   8.94487658 14.65715301  1.92310049
  14.10871354 22.00432110  2.02905335
  -2.03658343 11.58309763  7.64452929
   9.65427423 10.78546558  8.23150418
   4.27288700 10.98205913  3.87661025
   2.08320142  9.07555404  6.55772694
   9.21141460 15.01064885  7.44869015
   2.97635635 15.43845502  1.90118628
  14.29597438 12.46520468  3.01943823
   1.67917693  0.46186547  5.76107454
  20.03271045 11.17698074  0.66578665
   6.85406268 15.34111894  4.94779179
   5.08889951 18.61312638  1.78500568
  19.93381161 22.49047676  3.41477331
  20.10386345 11.67150869  3.95325928
  -0.15157521  6.02878857  0.78530814
  11.27167887 22.56884506  1.38239425
   9.46916643 16.68298626  2.29129591
  11.85151865  2.17482439  6.75233972
  -3.02268898  8.79406914  6.39794610
  21.72932631  4.57156174  5.01582666
  22.30488142  1.65319344  4.14256115
  -0.97531935  8.68309536  6.18094870
   8.30149255  6.62940571 -0.37099950
  11.23649794  0.58376249 -0.85782654
   6.55779148 13.14806850 -0.00922982
   7.52989622 19.99113984  5.02444272
  10.99951544 21.34998224  7.50964278
  11.93337953 14.48331465  3.65158141
   7.99908723  7.70866404  6.22647925
  14.73842041  2.05762393  5.23115023
  18.11414396  8.98737231  2.54068280
  21.37039030 21.75761955 -0.82619958
   5.38545810 20.32951893  5.46083177
  12.32074935 11.35839239  7.62023753
  -1.72913905  3.27314405  4.49017630
  21.39868293  1.63655492 -1.53021724
  12.41123513 18.28197321  3.96916700
  -1.42192976 15.03116506  4.07750829
  -2.35316381  9.63794539  9.72194996
   5.14171122  1.61339521  1.99583081
  21.66834979  8.51140915 -0.81666119
   5.32298533  6.41756995  1.04048728
   8.01357989 23.32915112  3.17265970
  18.87978567  3.37476074  3.73929537
  18.46679969  4.94873417  6.62011841
   2.44093619 12.42443608  0.15445810
   5.54661515 12.83424334  1.77809565
   3.79108292  7.59684825  4.05355546
  18.77139269 14.66882416  3.42860119
  19.66841105  8.04398701  3.47649803
  23.00212161 21.75272442  3.05379630
  15.53185761  4.01993353  1.94639891
  10.00058295  6.36471384  3.78865039
   9.79696125 23.25946302  5.88772992
  13.15748087  1.80871388  1.88218017
  14.41135299  0.92184219 -1.13711532
  -2.09281353 19.38543415  3.97688115
   2.13515737 19.77939600  5.17306372
   9.46027475  7.09919264  7.64898841
  24.48458869 22.26493154 -0.58170381
  10.04648518 13.73888590  3.49465101
  14.89014539 10.81139647 -1.42136764
   1.33746543 19.60507211  7.02769985
  17.94433025  5.41584004  0.96516251
   0.61334987  9.99283884  9.20663144
  16.76847081 23.01600720  1.00493871
   9.67759574 17.50586518  0.47749583
  20.04376356  9.40345304  6.61406024
  12.87288544 18.16324360  0.41087698
   3.41153352 16.10120758  7.94995916
   2.10784312  4.61811426  6.92302148
  -1.22412794 21.75695855  7.66535352
  15.34713651  6.57568013 -1.28584606
  -3.62036522 18.02714396  9.19915085
  -5.03546804 22.86015408  8.80189619
  11.12457562 10.67439930  3.45041273
  15.55801730  5.37167074  5.04304122
   2.29775118 11.70311200  7.05913660
  19.79613144  2.40663633  2.21736172
   3.39937290 13.91253198  5.03486147
   7.68733389 13.87140896  7.89970673
  10.15998802 17.86083770  6.53198269
  -6.58339517  2.14713259 10.08293068
   7.94296906  9.14427336  1.61239375
  11.28295694 19.44194373  2.69990256
  17.36412178 20.62270414  4.30476151
  15.21554667  9.39182782  1.66213367
  -2.38916383 17.22044138  7.74505842
   5.11395431  5.66816452  6.67483619
   9.15945490  8.15295487  4.64612780
   1.87303846  8.09213988  4.79363980
  18.71606754 22.65882307  0.29070300
   8.52479886  3.25853538  7.55527201
  14.94766017 21.92494151  6.16602546
   8.09250891 20.42609364  1.95202452
  20.09317298 20.53477523  6.80368805
  19.85845656 17.21332579  7.29397704
  15.81086865 15.36331813  5.02479067
   1.13660316  6.68007370  2.32033820
  24.07268687  4.51945527 -0.76074137
  21.53780669 19.28851321  3.75263318
  12.82566036 13.41988057  0.18660502
  21.26434785  6.59595396  5.55714288
  -1.93103400 15.39525850  8.57337031
   9.06996486  5.63233071  2.15532577
  21.61139594 12.22743755 -0.09814500
   2.91907487  4.13403461  0.85602589
  23.70710666 20.45700651  0.17831261
  10.84705232 10.17120428 -0.07405633
  17.11568257  8.26482541  5.92448845
   4.36405378 17.36050987  4.51890777
  17.88923932 23.14139124  7.37715477
   2.51801346 20.58491719  1.26524187
  -1.43323932  2.76024446  9.66515150
   1.33004834 13.99019867 -0.13767887
  -1.01199497 22.58342479  5.81584277
   4.87579751 19.22719009  7.16399411
   2.34001220 11.17267035  3.64419956
   0.19386886  6.99312011  8.27634473
  18.35806478 17.95970048  4.03424327
   0.64590876  0.06100260  2.62820936
   7.35880352  1.63910542  4.78122420
  13.76951223 19.66048267  4.68280841
   0.91796837 16.57042920  5.94495683
  12.54334562  4.31706183  3.85621157
  16.84597660 12.05630839  0.99069398
  14.32301346 16.20691780  6.11824003
   9.23081344  4.38130167  5.92911161
   5.33154121  2.56390305  7.49539511
  18.08377391  9.91212412  6.85444726
  14.85984544 13.98138056  0.31990629
  13.75556186  4.67822574  0.20872639
  12.52372758 20.00381526  7.79661288
  17.36612025  3.59660760  7.65195002
  16.21635780  6.70462018  3.60231128
  16.74147644 18.73287606  7.24359815
  10.72390692  3.77273586  0.13088983
   7.09751936 11.99338722  2.87786665
  10.51445491 20.32218288 -0.45993063
  18.81638489 14.29155051 -0.77575169
   1.29119452 21.45917324  2.66780363
  10.63979308 20.84026181  4.26578134
  12.99829805 22.99295789  4.02114253
   4.59198345  4.22397704  3.82616372
  11.94863454 17.91941817  7.55244653
  13.52415339  8.29093752  4.43559900
  21.50706557 17.06818869  4.34871850
  25.31806586 16.76402834  0.19147291
   2.32161365 21.84398451  7.77769939
   6.42191415 16.15451586  1.28400831
   5.54771730 22.16993264  6.31771454
  21.96516382 14.72198027  1.91503820
  16.55352046  1.17598683  2.88785823
   4.89024439  6.21829635  8.65663363
  17.88958470  0.78562156  6.00853501
  22.70819557  1.95426111  2.01396974
  18.94914972 20.68362830  0.93716982
  -0.10759725  0.97326041  6.61373344
  -3.17314646  1.81983457  7.69017566
  14.07303211 21.17478506 -1.01821549
   5.47316723 16.18858798  8.12859079
   0.81756292 13.10467972  7.46341269
  10.50745343 12.12762251  0.48002931
   7.68541554 18.24871248  4.07443163
  17.44298988 14.98140353  6.31263821
  -2.31215163  5.36970658  7.56409483
  -3.85174239 21.19739526  8.92087102
  22.32601332 15.22211421 -1.17176076
  -1.16371910  3.90081687  2.66642398
   7.25962569 19.01979809 -0.78517269
  24.33757095  8.05404994 -0.18908433
  24.10355687  6.94933948  1.48478107
  19.00518796 16.80586052  0.77021966
  12.75635920  9.68666827  0.60893282
  15.26820627 12.27559445  6.82579247
   5.11039598 15.27478496  3.00739143
 


--------------------------------------------------------------------------------------------------------


 use parallel FFT for orbitals z direction half grid
 k-point   1 :   0.0000 0.0000 0.0000  plane waves:   56003

 maximum and minimum number of plane-waves per node :      9339     9328

 maximum number of plane-waves:     56003
 maximum index in each direction: 
   IXMAX=   34   IYMAX=   38   IZMAX=   20
   IXMIN=  -44   IYMIN=  -38   IZMIN=    0


 real space projection operators:
  total allocation   :     107998.09 KBytes
  max/ min on nodes  :      18035.62      17970.76


 parallel 3D FFT for wavefunctions:
    minimum data exchange during FFTs selected (reduces bandwidth)
 parallel 3D FFT for charge:
    minimum data exchange during FFTs selected (reduces bandwidth)


 total amount of memory used by VASP MPI-rank0   363855. kBytes
=======================================================================

   base      :      30000. kBytes
   nonlr-proj:      22110. kBytes
   fftplans  :     126658. kBytes
   grid      :     104064. kBytes
   one-center:        668. kBytes
   wavefun   :      80355. kBytes
 
     INWAV:  cpu time    0.0000: real time    0.0006
 Broyden mixing: mesh for mixing (old mesh)
   NGX = 89   NGY = 77   NGZ = 41
  (NGX  =360   NGY  =320   NGZ  =168)
  gives a total of 280973 points

 initial charge density was supplied:
 charge density of overlapping atoms calculated
 number of electron    1537.0000000 magnetization     257.0000000
 keeping initial charge density in first step


--------------------------------------------------------------------------------------------------------


 Maximum index for non-local projection operator         1216
 Maximum index for augmentation-charges         8282 (set IRDMAX)


--------------------------------------------------------------------------------------------------------


 First call to EWALD:  gamma=   0.097
 Maximum number of real-space cells 2x 2x 5
 Maximum number of reciprocal cells 4x 3x 2

    FEWALD:  cpu time    0.1215: real time    0.3407


--------------------------------------- Iteration      1(   1)  ---------------------------------------


    POTLOK:  cpu time    2.3775: real time    2.6265
    SETDIJ:  cpu time    2.2490: real time    2.2661
    EDDIAG:  cpu time   21.9171: real time   22.0309
  RMM-DIIS:  cpu time   52.2951: real time   52.5347
    ORTHCH:  cpu time    1.7735: real time    1.7871
       DOS:  cpu time    0.0054: real time    0.0057
    --------------------------------------------
      LOOP:  cpu time   80.6177: real time   81.2510

 eigenvalue-minimisations  :  2104
 total energy-change (2. order) : 0.1918676E+05  (-0.4746781E+05)
 number of electron    1537.0000000 magnetization     257.0000000
 augmentation part     1537.0000000 magnetization     257.0000000

 Free energy of the ion-electron system (eV)
  ---------------------------------------------------
  alpha Z        PSCENC =      2674.94624358
  Ewald energy   TEWEN  =    -49809.36155736
  -Hartree energ DENC   =    -20964.32827516
  -exchange      EXHF   =         0.00000000
  -V(xc)+E(xc)   XCENC  =      -373.75171643
  PAW double counting   =     57971.91619422   -53884.73619297
  entropy T*S    EENTRO =        -0.05135683
  eigenvalues    EBANDS =     15547.86822116
  atomic energy  EATOM  =     68024.25456431
  Solvation  Ediel_sol  =         0.00000000
  ---------------------------------------------------
  free energy    TOTEN  =     19186.75612452 eV

  energy without entropy =    19186.80748134  energy(sigma->0) =    19186.78180293


--------------------------------------------------------------------------------------------------------




--------------------------------------- Iteration      1(   2)  ---------------------------------------


    EDDIAG:  cpu time   21.5833: real time   21.6941
  RMM-DIIS:  cpu time   52.3568: real time   52.5920
    ORTHCH:  cpu time    1.7764: real time    1.7887
       DOS:  cpu time    0.0028: real time    0.0029
    --------------------------------------------
      LOOP:  cpu time   75.7195: real time   76.0777

 eigenvalue-minimisations  :  2104
 total energy-change (2. order) :-0.1365405E+05  (-0.1387090E+05)
 number of electron    1537.0000000 magnetization     257.0000000
 augmentation part     1537.0000000 magnetization     257.0000000

 Free energy of the ion-electron system (eV)
  ---------------------------------------------------
  alpha Z        PSCENC =      2674.94624358
  Ewald energy   TEWEN  =    -49809.36155736
  -Hartree energ DENC   =    -20964.32827516
  -exchange      EXHF   =         0.00000000
  -V(xc)+E(xc)   XCENC  =      -373.75171643
  PAW double counting   =     57971.91619422   -53884.73619297
  entropy T*S    EENTRO =        -0.10357902
  eigenvalues    EBANDS =      1893.86903781
  atomic energy  EATOM  =     68024.25456431
  Solvation  Ediel_sol  =         0.00000000
  ---------------------------------------------------
  free energy    TOTEN  =      5532.70471897 eV

  energy without entropy =     5532.80829799  energy(sigma->0) =     5532.75650848


--------------------------------------------------------------------------------------------------------




[...]
      0.22101      0.19255      0.20778
      0.01748     -0.01042      0.01297
     -0.07937      0.13740      0.01014
     -0.02369     -0.00002     -0.03354
     -0.00264      0.00558     -0.05114
      0.00706      0.00872     -0.01263
      0.00601     -0.00460     -0.01499
     -0.00987      0.01369      0.00763
      0.01207      0.00328     -0.00798
     -0.03067     -0.01164     -0.03887
      0.00263     -0.01017     -0.01163
     -0.01521      0.00466     -0.00780
     -0.01015      0.00529     -0.00805
     -0.00673      0.01556     -0.01339
     -0.01150     -0.03089     -0.04900
      0.00712     -0.00058     -0.00102
     -0.00410     -0.01897     -0.02351
      0.00940     -0.01060     -0.02412
      0.02556      0.00450      0.01922
      0.01939     -0.02027     -0.00604
      0.01112     -0.01015     -0.00361
     -0.03547     -0.01835     -0.02090
     -0.06374      0.19486     -0.14297
      0.00003      0.00967     -0.00020
      0.02049      0.03802      0.01669
      0.01282     -0.01570      0.03468
     -0.05454     -0.05028     -0.03585
      0.00309      0.05962      0.02249
     -0.02187      0.03202      0.00105
     -0.01304      0.04375      0.13539
      0.01488      0.02215     -0.01184
     -0.00109     -0.01711     -0.01705
      0.00751     -0.00239     -0.00624
     -0.00156     -0.00599     -0.02177
      0.00453     -0.01240     -0.01205
      0.00463      0.01224     -0.01126
      0.01208      0.02857     -0.03286
      0.00523     -0.01798     -0.00640
      0.00377      0.00674     -0.00473
     -0.00285     -0.01434     -0.02219
      0.01328      0.01419     -0.02321
     -0.02138     -0.00761     -0.00389
     -0.00268      0.00785     -0.01359
      0.00023      0.00122      0.00909
      0.00643     -0.00939     -0.00708
     -0.00156      0.00082     -0.03124
      0.00793      0.04016      0.02427
     -0.06224      0.06803      0.00023
     -0.02513     -0.01744     -0.02451
      0.01279      0.02483      0.01949
      0.01360     -0.00327     -0.03640
      0.01759      0.03487     -0.03201
      0.01617     -0.01316     -0.01269
     -0.01379     -0.04653     -0.04304
      0.00045      0.01117     -0.01415
      0.00651     -0.00320     -0.02241
     -0.01820      0.00806     -0.00741
      0.00824      0.00228     -0.00717
     -0.00181     -0.01202     -0.01878
     -0.01861     -0.02476     -0.00150
      0.00896      0.02998     -0.01717
     -0.09809      0.01550      0.22332
      0.01970      0.01645     -0.02295
      0.01293     -0.00718     -0.00493
     -0.00178      0.02207      0.15871
      0.00741      0.03073      0.01515
     -0.02231      0.04172     -0.02867
     -0.00212     -0.02262     -0.01563
      0.00603     -0.00209     -0.00911
     -0.00212     -0.01200     -0.01723
     -0.00256     -0.01907     -0.01982
     -0.00276     -0.01789     -0.02198
     -0.13522     -0.04104      0.01799
     -0.04622     -0.00720     -0.00940
      0.00946     -0.02368     -0.01487
     -0.04785     -0.03788      0.00771
      0.00086      0.00015      0.00226
      0.02391     -0.00395      0.00948
     -0.02827     -0.03259     -0.00278
     -0.00046     -0.01786     -0.00870
      0.00737      0.00483     -0.01708
     -0.00466     -0.02036     -0.01888
     -0.02020     -0.01385     -0.01436
     -0.04437     -0.03517      0.05129
     -0.00653     -0.01754     -0.02577
     -0.06040     -0.02732     -0.04845
      0.00610      0.00771     -0.01059
      0.00490      0.00989     -0.04806
      0.00680     -0.01533     -0.01199
     -0.02336      0.01992      0.04463
      0.02919      0.03946     -0.01637
      0.00008      0.00884      0.00373
     -0.02106      0.00929     -0.02836
      0.00736     -0.00046     -0.03626
     -0.00839     -0.02490      0.00645
     -0.02648      0.00160     -0.12210
     -0.03912     -0.00463     -0.00335
     -0.00930     -0.01616     -0.01511
     -0.00839      0.01969     -0.00840
     -0.00193      0.01056     -0.01176
      0.00616     -0.02256     -0.01378
     -0.00120      0.02761      0.02389
     -0.00034      0.00167      0.00820
     -0.04522     -0.02137      0.05178
      0.00778     -0.00280     -0.00923
      0.00412     -0.00378     -0.00685
      0.01427      0.00373     -0.01145
     -0.00071     -0.00922     -0.01147
      0.00339     -0.01137     -0.01721
     -0.01083      0.00387      0.00194
      0.03018     -0.01302     -0.00396
      0.01459      0.06367      0.01602
      0.00732      0.09363      0.07445
      0.04195      0.06636      0.08689
      0.01560      0.00464     -0.00597
     -0.00233      0.02656     -0.02056
      0.00697      0.03901      0.00403
      0.00201     -0.00407     -0.00492
      0.01799      0.01234     -0.00886
     -0.06825     -0.02077      0.06867
      0.00725     -0.00288     -0.00990
      0.00638     -0.00970      0.03307
      0.00728      0.00281     -0.01158
     -0.09977     -0.01967     -0.00672
      0.00521     -0.00111      0.00155
     -0.02941     -0.03407     -0.01195
     -0.02036     -0.00081     -0.03588
     -0.00343      0.02498      0.02256
      0.03816      0.09631     -0.02080
      0.00627      0.00181     -0.01595
     -0.18628     -0.04067      0.24841
      0.00738      0.02421     -0.04217
     -0.03240     -0.01700     -0.02750
      0.01909     -0.04369     -0.02140
      0.00677      0.00262     -0.00841
      0.03743      0.03590      0.06224
      0.03286      0.06190      0.02019
     -0.00126     -0.01306     -0.01677
      0.00600     -0.00605     -0.00983
     -0.03519     -0.01219     -0.07074
     -0.01304     -0.01324     -0.03152
      0.00642     -0.01851      0.01144
      0.01612      0.04327      0.06572
      0.00491     -0.01250     -0.01806
      0.00172     -0.00588     -0.01690
     -0.04842     -0.04487      0.02807
     -0.00065      0.00023     -0.01288
      0.00284     -0.01708     -0.01304
     -0.01068     -0.00473     -0.00815
     -0.00386      0.03561     -0.02566
     -0.03862     -0.00003     -0.04193
     -0.01040      0.07044      0.03955
      0.00858     -0.00810     -0.01291
      0.01739      0.01700     -0.02273
     -0.00890     -0.01470     -0.01650
      0.00316     -0.00204      0.01636
      0.03018      0.05908      0.00336
      0.00246     -0.01827     -0.01421
      0.00306     -0.01152     -0.01559
      0.00873     -0.00657     -0.01166
     -0.02385     -0.00016      0.01737
     -0.01301      0.01176      0.01517
      0.01816      0.04019      0.03953
     -0.04483     -0.02357     -0.01173
     -0.01714     -0.01274     -0.01193
     -0.03533      0.01122      0.06399
     -0.03196     -0.01556     -0.02569
     -0.03606     -0.01929      0.06535
     -0.00714     -0.02336     -0.01747
      0.00987     -0.00975     -0.00732
     -0.00726      0.03548      0.03004
      0.00086      0.02584     -0.03540
      0.00458     -0.00438      0.01565
      0.00253      0.02606     -0.01776
      0.01507      0.02158     -0.03325
     -0.01082     -0.01864     -0.02667
     -0.06013     -0.02307     -0.03917
      0.00477      0.00309     -0.04976
     -0.00099     -0.00161      0.00140
     -0.00403     -0.01099      0.00616
      0.02914      0.06994      0.11307
      0.01345      0.00102     -0.01455
      0.01763      0.02993     -0.03046
      0.00665     -0.02181      0.09319
      0.00166      0.02731     -0.03055
     -0.02495     -0.03023      0.00117
     -0.00700      0.00871     -0.00093
     -0.00945     -0.00045     -0.00701
     -0.08387     -0.03336      0.12602
      0.00498      0.00192      0.00419
      0.02295     -0.01344      0.03714
     -0.10429     -0.09601     -0.03296

 NEB: forces: par spring, perp REAL, dneb     0.422043    0.695703    0.000000
 NEB: distance to prev, next image, angle between     0.200937    0.116528  109.198561
 NEB: projections on to tangent (spring, REAL)    -0.422043   -0.045179

 stress matrix after NEB project (eV)
     50.38420      2.21503      0.11660
      2.21503     51.43718      3.17363
      0.11660      3.17363     56.00170
  FORCES: max atom, RMS     0.222334    0.050758
  FORCE total and by dimension    0.813710    0.220720
  Stress total and by dimension   91.381209   56.001702


--------------------------------------------------------------------------------------------------------


    WAVPRE:  cpu time   39.5324: real time   39.6788
    FEWALD:  cpu time    0.0439: real time    0.0440

 real space projection operators:
  total allocation   :     107992.81 KBytes
  max/ min on nodes  :      18033.35      17976.09

    ORTHCH:  cpu time   14.8389: real time   14.9080
     LOOP+:  cpu time 3622.9324: real time 3639.8950


--------------------------------------- Iteration      8(   1)  ---------------------------------------


    POTLOK:  cpu time    2.2278: real time    2.2382
    SETDIJ:  cpu time    2.3485: real time    2.3589
    EDDIAG:  cpu time   21.6218: real time   21.7240
  RMM-DIIS:  cpu time   52.3268: real time   52.5554
    ORTHCH:  cpu time    1.9965: real time    2.0078
       DOS:  cpu time    0.0126: real time    0.0127
    --------------------------------------------
      LOOP:  cpu time   80.5340: real time   80.8970

 eigenvalue-minimisations  :  2104
 total energy-change (2. order) : 0.4683397E-02  (-0.1468093E+00)
 number of electron    1536.9999993 magnetization      -1.7663533
 augmentation part     -120.0550267 magnetization      -0.2835167

  free energy =  -0.143695704873E+04  energy without entropy=  -0.143690363346E+04


--------------------------------------------------------------------------------------------------------




--------------------------------------- Iteration      8(   2)  ---------------------------------------


    EDDIAG:  cpu time   21.5423: real time   21.6448
  RMM-DIIS:  cpu time   52.3310: real time   52.5581
    ORTHCH:  cpu time    1.8793: real time    1.8898
       DOS:  cpu time    0.0030: real time    0.0030
    --------------------------------------------
      LOOP:  cpu time   75.7556: real time   76.0957

 eigenvalue-minimisations  :  2104
 total energy-change (2. order) :-0.1308232E-01  (-0.1427071E-01)
 number of electron    1536.9999993 magnetization      -1.7663533
 augmentation part     -120.0550267 magnetization      -0.2835167

  free energy =  -0.143697013105E+04  energy without entropy=  -0.143691671510E+04


--------------------------------------------------------------------------------------------------------




--------------------------------------- Iteration      8(   3)  ---------------------------------------


    EDDIAG:  cpu time   21.5227: real time   21.6248
  RMM-DIIS:  cpu time   52.3258: real time   52.5563
    ORTHCH:  cpu time    1.7965: real time    1.8064
       DOS:  cpu time    0.0051: real time    0.0051
    --------------------------------------------
      LOOP:  cpu time   75.6501: real time   75.9925

 eigenvalue-minimisations  :  2104
 total energy-change (2. order) :-0.3007782E-02  (-0.3004478E-02)
 number of electron    1536.9999993 magnetization      -1.7663533
 augmentation part     -120.0550267 magnetization      -0.2835167

  free energy =  -0.143697313883E+04  energy without entropy=  -0.143691972287E+04


--------------------------------------------------------------------------------------------------------




--------------------------------------- Iteration      8(   4)  ---------------------------------------


    EDDIAG:  cpu time   21.5390: real time   21.6433
  RMM-DIIS:  cpu time   52.3336: real time   52.5628
    ORTHCH:  cpu time    1.7216: real time    1.7315
       DOS:  cpu time    0.0844: real time    0.0847
    --------------------------------------------
      LOOP:  cpu time   75.6787: real time   76.0224

 eigenvalue-minimisations  :  2104
 total energy-change (2. order) :-0.8137587E-03  (-0.8204156E-03)
 number of electron    1536.9999993 magnetization      -1.7663533
 augmentation part     -120.0550267 magnetization      -0.2835167

  free energy =  -0.143697395259E+04  energy without entropy=  -0.143692053662E+04


--------------------------------------------------------------------------------------------------------




--------------------------------------- Iteration      8(   5)  ---------------------------------------


    EDDIAG:  cpu time   21.5440: real time   21.6482
  RMM-DIIS:  cpu time   52.3159: real time   52.5408
    ORTHCH:  cpu time    1.7691: real time    1.7787
       DOS:  cpu time    0.0030: real time    0.0031
    --------------------------------------------
      LOOP:  cpu time   75.6319: real time   75.9707

 eigenvalue-minimisations  :  2104
 total energy-change (2. order) :-0.2529478E-03  (-0.2530780E-03)
 number of electron    1536.9999993 magnetization      -1.7663533
 augmentation part     -120.0550267 magnetization      -0.2835167

  free energy =  -0.143697420554E+04  energy without entropy=  -0.143692078956E+04


--------------------------------------------------------------------------------------------------------




--------------------------------------- Iteration      8(   6)  ---------------------------------------


    EDDIAG:  cpu time   21.5987: real time   21.7017
  RMM-DIIS:  cpu time   52.3341: real time   52.5607
    ORTHCH:  cpu time    1.7795: real time    1.7892
       DOS:  cpu time    0.0025: real time    0.0025
    --------------------------------------------
      LOOP:  cpu time   75.7148: real time   76.0541

 eigenvalue-minimisations  :  2104
 total energy-change (2. order) :-0.8476379E-04  (-0.8511321E-04)
 number of electron    1536.9999993 magnetization      -1.7663533
 augmentation part     -120.0550267 magnetization      -0.2835167

  free energy =  -0.143697429030E+04  energy without entropy=  -0.143692087432E+04


--------------------------------------------------------------------------------------------------------




--------------------------------------- Iteration      8(   7)  ---------------------------------------


    EDDIAG:  cpu time   21.5512: real time   21.6549
  RMM-DIIS:  cpu time   52.3543: real time   52.5826
    ORTHCH:  cpu time    1.7863: real time    1.7958
       DOS:  cpu time    0.0046: real time    0.0046
    --------------------------------------------
      LOOP:  cpu time   75.6965: real time   76.0379

 eigenvalue-minimisations  :  2104
 total energy-change (2. order) :-0.3073107E-04  (-0.3077022E-04)
 number of electron    1536.9999993 magnetization      -1.7663533
 augmentation part     -120.0550267 magnetization      -0.2835167

  free energy =  -0.143697432103E+04  energy without entropy=  -0.143692090505E+04


--------------------------------------------------------------------------------------------------------




--------------------------------------- Iteration      8(   8)  ---------------------------------------


    EDDIAG:  cpu time   21.5181: real time   21.6210
  RMM-DIIS:  cpu time   92.4937: real time   92.8920
    ORTHCH:  cpu time    1.7744: real time    1.7837
       DOS:  cpu time    0.0032: real time    0.0032
    --------------------------------------------
      LOOP:  cpu time  115.7894: real time  116.2999

 eigenvalue-minimisations  :  4389
 total energy-change (2. order) :-0.1512381E-04  (-0.1516397E-04)
 number of electron    1536.9999993 magnetization      -1.7663533
 augmentation part     -120.0550267 magnetization      -0.2835167

  free energy =  -0.143697433616E+04  energy without entropy=  -0.143692092018E+04


--------------------------------------------------------------------------------------------------------




--------------------------------------- Iteration      8(   9)  ---------------------------------------


    EDDIAG:  cpu time   21.5887: real time   21.6913
  RMM-DIIS:  cpu time   91.7025: real time   92.1017
    ORTHCH:  cpu time    1.7325: real time    1.7425
       DOS:  cpu time    0.0915: real time    0.0918
    --------------------------------------------
      LOOP:  cpu time  115.1153: real time  115.6274

 eigenvalue-minimisations  :  4444
 total energy-change (2. order) :-0.5180162E-05  (-0.5266674E-05)
 number of electron    1536.9999993 magnetization      -1.7663533
 augmentation part     -120.0550267 magnetization      -0.2835167

  free energy =  -0.143697434134E+04  energy without entropy=  -0.143692092536E+04


--------------------------------------------------------------------------------------------------------




--------------------------------------- Iteration      8(  10)  ---------------------------------------


    EDDIAG:  cpu time   21.5387: real time   21.6431
  RMM-DIIS:  cpu time   70.7292: real time   71.0410
    ORTHCH:  cpu time    2.0234: real time    2.0342
       DOS:  cpu time    0.1936: real time    0.1942
    CHARGE:  cpu time   12.5635: real time   12.6223
    MIXING:  cpu time    0.2397: real time    0.2407
    --------------------------------------------
      LOOP:  cpu time  107.2882: real time  107.7756

 eigenvalue-minimisations  :  3190
 total energy-change (2. order) :-0.3243913E-06  (-0.3675204E-06)
 number of electron    1536.9999993 magnetization      -1.7672952
 augmentation part     -120.0552928 magnetization      -0.2834227

  free energy =  -0.143697434166E+04  energy without entropy=  -0.143692092568E+04


--------------------------------------------------------------------------------------------------------




--------------------------------------- Iteration      8(  11)  ---------------------------------------


    POTLOK:  cpu time    2.1326: real time    2.1420
    SETDIJ:  cpu time    2.2340: real time    2.2441
    EDDIAG:  cpu time   21.6411: real time   21.7427
  RMM-DIIS:  cpu time  143.0790: real time  143.6958
    ORTHCH:  cpu time    1.8761: real time    1.8876
       DOS:  cpu time    0.0054: real time    0.0054
    CHARGE:  cpu time   12.5168: real time   12.5733
    MIXING:  cpu time    0.2408: real time    0.2417
    --------------------------------------------
      LOOP:  cpu time  183.7260: real time  184.5326

 eigenvalue-minimisations  :  6675
 total energy-change (2. order) :-0.1140996E-02  (-0.1519688E-03)
 number of electron    1536.9999993 magnetization      -1.7735049
 augmentation part     -120.0587484 magnetization      -0.2562521

 eigenvalues of (default mixing * dielectric matrix)
  average eigenvalue GAMMA=   0.2714
  0.2714

  free energy =  -0.143697548266E+04  energy without entropy=  -0.143692215500E+04


--------------------------------------------------------------------------------------------------------




--------------------------------------- Iteration      8(  12)  ---------------------------------------


    POTLOK:  cpu time    2.0903: real time    2.0998
    SETDIJ:  cpu time    2.2076: real time    2.2175
    EDDIAG:  cpu time   21.7178: real time   21.8192
  RMM-DIIS:  cpu time  138.8122: real time  139.4048
    ORTHCH:  cpu time    1.7657: real time    1.7751
       DOS:  cpu time    0.0026: real time    0.0026
    CHARGE:  cpu time   12.5500: real time   12.6068
    MIXING:  cpu time    0.2413: real time    0.2422
    --------------------------------------------
      LOOP:  cpu time  179.3875: real time  180.1681

 eigenvalue-minimisations  :  6486
 total energy-change (2. order) : 0.5966402E-03  (-0.1537090E-03)
 number of electron    1536.9999993 magnetization      -1.7692494
 augmentation part     -120.0538947 magnetization      -0.3112791

 eigenvalues of (default mixing * dielectric matrix)
  average eigenvalue GAMMA=   0.6402
  1.1693  0.1111

  free energy =  -0.143697488602E+04  energy without entropy=  -0.143692104615E+04


--------------------------------------------------------------------------------------------------------




--------------------------------------- Iteration      8(  13)  ---------------------------------------


    POTLOK:  cpu time    2.0781: real time    2.0871
    SETDIJ:  cpu time    2.1936: real time    2.2035
    EDDIAG:  cpu time   21.7769: real time   21.8781
