LiMox                                   
           1
    27.120398    0.402360   -2.402807
     0.301745   23.362465   -0.437691
    -7.129578   -0.289405   10.364511
   Mo   S    Li
    48   208     1
Direct configuration=     1
   0.53656882  0.08782173  0.67317905
   0.86415336  0.42262663  0.65608159
   0.76096954  0.56169457  0.01191634
   0.89726830  0.79642429  0.83860341
   0.27894264  0.46150167  0.16355229
   0.53498958  0.53153696  0.37608701
   0.64542541  0.91303118  0.73994763
   0.06066478  0.97690351  0.73860770
   0.76250396  0.24571302  0.13661573
   0.97320975  0.90746139  0.73465989
   0.36551153  0.96403481  0.08395154
   0.70319843  0.50713559  0.11650870
   0.90683973  0.68326547  0.73664264
   0.87677967  0.26374273  0.18967511
   0.18471625  0.54168615  0.55524891
   0.41766296  0.91965122  0.96108070
   0.88410706  0.93290666  0.76527067
   0.62660700  0.07099419  0.23010895
   0.72790717  0.38461695  0.56684814
   0.58646234  0.49014297  0.22520930
   0.35039018  0.08695741  0.31606824
   0.84840544  0.85359419  0.53558184
   0.21084385  0.68385364  0.49495392
   0.49007134  0.10406850  0.07378136
   0.60237858  0.08127115  0.56846994
   0.48142653  0.19361939  0.91969430
   0.62626618  0.17457101  0.10732934
   0.25678598  0.35199387  0.07560583
   0.83488268  0.96803900  0.03568542
   0.60608361  0.43551191  0.44366429
   0.33917760  0.77699076  0.25360927
   0.52760758  0.98574084  0.17434275
   0.01843645  0.19308264  0.94787779
   0.86970860  0.67707100  0.47483694
   0.21073132  0.74987138  0.04465863
   0.51999620  0.99170727  0.51936907
   0.72025459  0.02746581  0.81293172
   0.73822864  0.12396120  0.33593835
   0.51647115  0.87389968  0.23268856
   0.18955132  0.46636386  0.72201958
   0.34543340  0.66902379  0.68261992
   0.10434814  0.17674812  0.89182335
   0.21828508  0.22254154  0.95282438
   0.37717599  0.18098978  0.90105212
   0.28002964  0.76488293  0.69677845
   0.20894996  0.24673314  0.31197482
   0.86611285  0.57981101  0.99971117
   0.25294777  0.16884721  0.20556220
   0.22481115  0.88366135  0.25322313
   0.41454309  0.58414745  0.69581825
   0.04966304  0.77917766  0.33027381
   0.49003366  0.08842586  0.44112441
   0.31064232  0.92929812  0.15815749
   0.36492361  0.18646833  0.36421549
   0.03693893  0.46954322  0.64587445
   0.67028108  0.08416194  0.11149747
   0.09844971  0.50294149  0.50665461
   0.69048026  0.63345782  0.84120802
   0.34458516  0.05730245  0.13482252
   0.60296732  0.80652256  0.30949445
   0.08093230  0.27494772  0.95248788
   0.83640673  0.77040992  0.36210798
   0.96103814  0.54400204  0.03784572
   0.77435488  0.47326944  0.60743995
   0.17735849  0.05525975  0.41503156
   0.98356153  0.60518318  0.81579056
   0.94872577  0.52453814  0.17662477
   0.13994970  0.73556032  0.28594611
   0.67567897  0.22385784  0.68307351
   0.01535819  0.06122622  0.40518890
   0.22290981  0.39994051  0.20026382
   0.15647476  0.22401081  0.40163105
   0.69394722  0.42752955  0.69027946
   0.24849593  0.16120925  0.84852252
   0.55509246  0.73578622  0.91361808
   0.66546094  0.20014831  0.98087391
   0.73854113  0.33875774  0.07666942
   0.86589043  0.24038789  0.34809344
   0.78941601  0.20751953  0.00929357
   0.11542606  0.61756274  0.39287946
   0.40315354  0.62421991  0.30537054
   0.60876869  0.93604494  0.37642932
   0.12649940  0.50338415  0.78815198
   0.60140399  0.46310782  0.95318151
   0.27247349  0.47104233  0.45708694
   0.25891359  0.39279498  0.70932139
   0.56286614  0.64367320  0.87634420
   0.16820280  0.66102730  0.25034187
   0.64288274  0.52821624  0.46267085
   0.22154119  0.02348819  0.60819809
   0.80456842  0.46791057  0.27052021
   0.40275303  0.65713425  0.59849921
   0.24801162  0.79570126  0.26332176
   0.87492310  0.95470067  0.57261832
   0.89615698  0.49170546  0.60994357
   0.01525288  0.25890962  0.09023874
   0.47990360  0.96129829  0.28522927
   0.43368290  0.71098041  0.35163668
   0.64773738  0.09191351  0.80553317
   0.05411197  0.38348959  0.64603306
   0.98868994  0.18758442  0.72107231
   0.98770570  0.06157193  0.63126730
   0.12864230  0.37740740  0.64211802
   0.31593553  0.27893171  0.04922747
   0.41803796  0.01797219  0.01490705
   0.25723212  0.55937614  0.08236601
   0.43135526  0.85595752  0.62092185
   0.63471639  0.91420340  0.91030660
   0.56718591  0.61648684  0.50984081
   0.48225930  0.33065345  0.72651565
   0.72000605  0.08403755  0.67518558
   0.77987835  0.37673471  0.44184173
   0.81678268  0.91907860  0.14845316
   0.35893902  0.87201059  0.64691566
   0.68959387  0.48564683  0.91560151
   0.05338103  0.14477901  0.45171539
   0.79890043  0.05678664  0.03996728
   0.59452304  0.77915585  0.55368950
   0.05428444  0.64782281  0.43335279
   0.17018234  0.42193788  0.99527550
   0.25579871  0.06780928  0.25472936
   0.82875468  0.35163450  0.12818586
   0.23710720  0.27267933  0.16687324
   0.40032669  0.99714265  0.44102498
   0.84232280  0.13690515  0.56183613
   0.90391643  0.20687288  0.85702081
   0.10000308  0.53083905  0.06050356
   0.26580395  0.54795048  0.25631739
   0.25833823  0.32648148  0.46477740
   0.82966216  0.62039615  0.54934201
   0.86618529  0.33621305  0.55042941
   0.98565312  0.92108407  0.56204109
   0.66243696  0.16497424  0.34833432
   0.49500467  0.26999908  0.49169974
   0.54368699  0.99534653  0.73614273
   0.56747337  0.07156303  0.31617813
   0.53515676  0.03043524  0.01563840
   0.02521892  0.83459619  0.42479311
   0.22354172  0.85005091  0.58683437
   0.57805673  0.30487775  0.88488396
   0.94566709  0.93924662  0.20277386
   0.48885784  0.58554284  0.47523411
   0.54626812  0.45346688  0.00865335
   0.24231407  0.84453357  0.76989439
   0.73065939  0.22260255  0.27191126
   0.27274526  0.43504773  0.96988679
   0.68554319  0.97704452  0.29714963
   0.39287503  0.74463805  0.16859651
   0.96566838  0.39675725  0.87877105
   0.51654011  0.77093574  0.19194877
   0.34866805  0.69405251  0.87717809
   0.26975282  0.20218139  0.73902941
   0.15895212  0.93864994  0.81606588
   0.56787738  0.27191943  0.01907186
   0.10629456  0.78150672  0.94520763
   0.03999428  0.98896263  0.90026969
   0.52999833  0.45365921  0.47493405
   0.74710351  0.22535126  0.66928590
   0.28087827  0.50560727  0.76755505
   0.83719711  0.09369779  0.41198234
   0.26945568  0.59797146  0.57349916
   0.51520540  0.59610765  0.90680178
   0.57534890  0.76446024  0.79589213
   0.01383798  0.10381203  0.98042429
   0.35542688  0.38843846  0.25437110
   0.51593607  0.82844342  0.41508952
   0.79806332  0.87687908  0.63738232
   0.64233275  0.39498028  0.32595988
   0.11536411  0.74508973  0.80547702
   0.38108509  0.24525563  0.74271294
   0.48513584  0.34774957  0.57542730
   0.20301418  0.34937226  0.52432391
   0.74272565  0.96007258  0.24077787
   0.53879763  0.14084898  0.85981356
   0.75345096  0.93551513  0.80909650
   0.37045956  0.87178518  0.31103640
   0.97271793  0.87359397  0.91883795
   0.97674813  0.73187766  0.96109221
   0.75652779  0.65309746  0.68777351
   0.10729480  0.28731569  0.26088085
   0.92467746  0.17936426  0.14854404
   0.94703428  0.81694168  0.61611610
   0.50863345  0.56764131  0.15989223
   0.98505104  0.27498082  0.77614729
   0.15572778  0.66733522  0.89146907
   0.41434774  0.23783889  0.31405471
   0.84592146  0.51139026  0.20823675
   0.13773624  0.17609061  0.12195972
   0.93566894  0.86287263  0.27055945
   0.42390519  0.42941800  0.10926310
   0.83207111  0.34908788  0.77925408
   0.29339467  0.74467422  0.53546337
   0.90166552  0.98693114  0.96248190
   0.13302293  0.88117487  0.19012503
   0.20477734  0.12682809  0.98535314
   0.04849089  0.59828484  0.02322343
   0.11732511  0.97243027  0.62939551
   0.38493082  0.82646562  0.81534435
   0.19030019  0.48010741  0.41599580
   0.23115019  0.30606623  0.86504000
   0.82978739  0.76205401  0.61378744
   0.09635040  0.00437196  0.27609931
   0.41808830  0.06991100  0.56118510
   0.66713075  0.83800292  0.64186159
   0.19660053  0.71393323  0.64931499
   0.59667509  0.18092711  0.51802703
   0.68821399  0.50762792  0.27657106
   0.72763948  0.69094791  0.78817411
   0.52259562  0.18722072  0.70111874
   0.41179570  0.11285250  0.82341128
   0.89520039  0.41984091  0.88660254
   0.59210696  0.59064904  0.19307684
   0.54575392  0.19276375  0.15480120
   0.70231823  0.85592484  0.95120541
   0.88856898  0.15042082  0.95063315
   0.73403783  0.28090103  0.52959667
   0.85299537  0.79867070  0.93036253
   0.42461258  0.15563143  0.11763897
   0.35640720  0.51195412  0.38191115
   0.40041166  0.86402076  0.08493944
   0.71786888  0.60081649  0.11694916
   0.12273353  0.92044080  0.32472131
   0.53297492  0.88995581  0.57271811
   0.61897307  0.98062007  0.57288031
   0.28364800  0.18139922  0.44257872
   0.67314416  0.76678514  0.91711971
   0.65083209  0.35102798  0.59366668
   0.96193006  0.72235276  0.67308707
   0.99928392  0.70381910  0.27986027
   0.30121244  0.94046866  0.85996240
   0.28682405  0.68925217  0.21948656
   0.38845275  0.95142926  0.73978636
   0.91418606  0.61964906  0.42287243
   0.72798541  0.04336374  0.44922974
   0.42582907  0.27054307  0.94536376
   0.86473736  0.02841418  0.78139419
   0.94604812  0.07251820  0.41669900
   0.76934117  0.87587358  0.30576556
   0.17441220  0.04708556  0.68053584
   0.08311530  0.08593912  0.76486971
   0.52506126  0.89807704  0.06141013
   0.43444427  0.69677669  0.91441358
   0.23367569  0.56679215  0.79820170
   0.42553438  0.51384296  0.16666594
   0.41180380  0.78048082  0.52154187
   0.85539955  0.63686196  0.83426485
   0.11351341  0.23737908  0.76614752
   0.08968945  0.91718188  0.92023831
   0.84497949  0.63837027  0.10979496
   0.02632204  0.16986743  0.27054053
   0.26382520  0.80981690  0.01960519
   0.95051493  0.33104980  0.21609483
   0.98653886  0.28522376  0.38401074
   0.76703653  0.70963734  0.28210328
   0.51732361  0.40814262  0.19591876
   0.78386862  0.52262340  0.86236825
   0.28187629  0.65370862  0.38311584
Direct configuration=     2
   0.53652395  0.08780311  0.67307288
   0.86417366  0.42260629  0.65612490
   0.76096354  0.56169936  0.01193787
   0.89714993  0.79658798  0.83802669
   0.27894496  0.46151171  0.16364838
   0.53493179  0.53151790  0.37592844
   0.64542081  0.91300783  0.73994168
   0.06067282  0.97690112  0.73861602
   0.76253075  0.24577339  0.13663439
   0.97319886  0.90746153  0.73465389
   0.36556088  0.96400402  0.08403332
   0.70318816  0.50712871  0.11640819
   0.90688560  0.68341180  0.73689578
   0.87673940  0.26378132  0.18965277
   0.18472344  0.54168595  0.55520457
   0.41767166  0.91965259  0.96105267
   0.88415133  0.93279324  0.76535690
   0.62660073  0.07100495  0.23008573
   0.72793127  0.38461508  0.56688859
   0.58644039  0.49014969  0.22514994
   0.35037163  0.08693117  0.31608897
   0.84847832  0.85357061  0.53585527
   0.21084562  0.68382549  0.49501513
   0.49008255  0.10412255  0.07370917
   0.60242213  0.08130038  0.56861204
   0.48139757  0.19365350  0.91968230
   0.62627164  0.17459827  0.10732549
   0.25681531  0.35201383  0.07567395
   0.83490751  0.96801266  0.03573605
   0.60608345  0.43550478  0.44366014
   0.33915047  0.77699142  0.25358241
   0.52761174  0.98570108  0.17430045
   0.01841826  0.19310786  0.94788387
   0.86968764  0.67713009  0.47489116
   0.21071356  0.74987757  0.04461551
   0.52000058  0.99173475  0.51948506
   0.72025607  0.02745874  0.81291918
   0.73824683  0.12394165  0.33595195
   0.51648034  0.87389760  0.23265975
   0.18946304  0.46635428  0.72187950
   0.34545215  0.66902329  0.68266760
   0.10431758  0.17677876  0.89186257
   0.21826973  0.22256785  0.95275273
   0.37719409  0.18102302  0.90106465
   0.28004955  0.76487866  0.69677795
   0.20889255  0.24676293  0.31202914
   0.86608237  0.57981210  0.99975670
   0.25294083  0.16883453  0.20559970
   0.22479385  0.88367425  0.25317219
   0.41455922  0.58415337  0.69585386
   0.04963544  0.77917082  0.33028017
   0.49001062  0.08843027  0.44116135
   0.31062492  0.92928547  0.15812597
   0.36493458  0.18645893  0.36427404
   0.03697639  0.46952452  0.64589858
   0.67030490  0.08416756  0.11160191
   0.09846324  0.50294133  0.50670510
   0.69050775  0.63346193  0.84124256
   0.34457510  0.05729907  0.13486557
   0.60294720  0.80651936  0.30951382
   0.08092556  0.27492013  0.95252834
   0.83640345  0.77040022  0.36215477
   0.96103858  0.54400601  0.03779577
   0.77434966  0.47322230  0.60744628
   0.17734896  0.05522668  0.41503711
   0.98353927  0.60515571  0.81575322
   0.94871149  0.52452703  0.17663387
   0.13993931  0.73557503  0.28596735
   0.67568813  0.22385920  0.68305723
   0.01538528  0.06122216  0.40521398
   0.22294033  0.39996900  0.20035785
   0.15650567  0.22402176  0.40162314
   0.69394298  0.42753418  0.69025249
   0.24851119  0.16124261  0.84850501
   0.55511310  0.73576164  0.91365087
   0.66544645  0.20017668  0.98088018
   0.73856394  0.33871618  0.07668353
   0.86586267  0.24042106  0.34799416
   0.78943876  0.20754894  0.00934051
   0.11543891  0.61757164  0.39289574
   0.40317254  0.62420551  0.30536509
   0.60875826  0.93601611  0.37634129
   0.12650543  0.50336452  0.78811037
   0.60140440  0.46311405  0.95320868
   0.27247325  0.47104360  0.45706402
   0.25890729  0.39281372  0.70930399
   0.56284660  0.64369149  0.87631819
   0.16820146  0.66100167  0.25034626
   0.64285837  0.52819975  0.46259492
   0.22149457  0.02347495  0.60811241
   0.80453756  0.46791626  0.27042589
   0.40277658  0.65712629  0.59857628
   0.24799451  0.79570171  0.26325193
   0.87490743  0.95468152  0.57260155
   0.89615800  0.49167015  0.60995911
   0.01524167  0.25890060  0.09024439
   0.47990437  0.96127752  0.28518765
   0.43369909  0.71097121  0.35167167
   0.64772085  0.09191854  0.80547722
   0.05412441  0.38352557  0.64599084
   0.98870405  0.18756647  0.72112292
   0.98770465  0.06155941  0.63123765
   0.12863807  0.37744113  0.64210431
   0.31594265  0.27893261  0.04923441
   0.41803124  0.01797641  0.01486298
   0.25722500  0.55936774  0.08233758
   0.43135580  0.85596461  0.62093995
   0.63472681  0.91416164  0.91033912
   0.56716800  0.61648703  0.50982169
   0.48226370  0.33065085  0.72649976
   0.71999739  0.08406525  0.67521590
   0.77989537  0.37675300  0.44194629
   0.81678384  0.91907872  0.14843977
   0.35892248  0.87199563  0.64692712
   0.68962914  0.48565718  0.91570039
   0.05336544  0.14477615  0.45167238
   0.79890699  0.05676736  0.03993781
   0.59455179  0.77916076  0.55373931
   0.05430151  0.64782701  0.43337125
   0.17017003  0.42197830  0.99523419
   0.25583678  0.06782926  0.25479003
   0.82875233  0.35155102  0.12826310
   0.23709696  0.27265896  0.16682586
   0.40032881  0.99717006  0.44100454
   0.84232000  0.13690110  0.56183814
   0.90394317  0.20687039  0.85703502
   0.09999957  0.53084406  0.06049063
   0.26578382  0.54793875  0.25630376
   0.25832570  0.32650514  0.46480838
   0.82966643  0.62038942  0.54927207
   0.86621139  0.33622714  0.55050585
   0.98568780  0.92108954  0.56209171
   0.66246444  0.16497599  0.34838582
   0.49500548  0.27000941  0.49174444
   0.54368556  0.99533526  0.73609549
   0.56748231  0.07156918  0.31618424
   0.53514988  0.03043393  0.01566682
   0.02519722  0.83459515  0.42473668
   0.22355678  0.85004406  0.58684592
   0.57804595  0.30488381  0.88481896
   0.94566302  0.93924134  0.20281241
   0.48885325  0.58552919  0.47519333
   0.54628904  0.45349506  0.00871164
   0.24230217  0.84452435  0.76987809
   0.73066570  0.22259083  0.27190031
   0.27273909  0.43504795  0.96984466
   0.68551822  0.97705558  0.29705384
   0.39288860  0.74462339  0.16863182
   0.96563621  0.39674905  0.87869092
   0.51655636  0.77092855  0.19197475
   0.34864370  0.69405579  0.87710684
   0.26975290  0.20220570  0.73903748
   0.15895835  0.93865394  0.81603031
   0.56784747  0.27190437  0.01898686
   0.10632552  0.78150229  0.94524230
   0.03996889  0.98895508  0.90022477
   0.52999842  0.45365429  0.47490248
   0.74710458  0.22536042  0.66930644
   0.28085878  0.50558800  0.76748257
   0.83720098  0.09369067  0.41201424
   0.26944466  0.59795759  0.57344874
   0.51519174  0.59612238  0.90680011
   0.57535847  0.76446413  0.79591900
   0.01382410  0.10384719  0.98041480
   0.35542646  0.38844246  0.25437811
   0.51593869  0.82841983  0.41505138
   0.79817155  0.87677468  0.63759195
   0.64234508  0.39499894  0.32601849
   0.11536477  0.74507490  0.80549103
   0.38107234  0.24525833  0.74270627
   0.48513328  0.34775691  0.57541894
   0.20298473  0.34935309  0.52423013
   0.74272943  0.96006910  0.24079179
   0.53879770  0.14083917  0.85983871
   0.75347055  0.93550874  0.80917456
   0.37045343  0.87176817  0.31103471
   0.97271062  0.87359690  0.91878955
   0.97674103  0.73187270  0.96107083
   0.75655107  0.65308952  0.68784905
   0.10730919  0.28731000  0.26086995
   0.92471383  0.17940649  0.14860775
   0.94699827  0.81691485  0.61609850
   0.50865102  0.56762535  0.15991026
   0.98507078  0.27497576  0.77622254
   0.15573928  0.66734166  0.89150644
   0.41437176  0.23787227  0.31408300
   0.84589237  0.51143909  0.20811947
   0.13773437  0.17608563  0.12199264
   0.93565748  0.86288234  0.27051405
   0.42392183  0.42943228  0.10931698
   0.83206106  0.34910535  0.77914864
   0.29339042  0.74467645  0.53548070
   0.90165269  0.98691798  0.96252281
   0.13301476  0.88118529  0.19010699
   0.20479284  0.12682658  0.98541532
   0.04846903  0.59829237  0.02320286
   0.11730562  0.97244919  0.62935795
   0.38490379  0.82645871  0.81529907
   0.19030745  0.48010505  0.41608962
   0.23114672  0.30605671  0.86498783
   0.82978438  0.76199151  0.61371370
   0.09637894  0.00436022  0.27615371
   0.41811669  0.06991822  0.56118458
   0.66710733  0.83799501  0.64183278
   0.19659019  0.71394017  0.64925717
   0.59669028  0.18093292  0.51805504
   0.68819309  0.50762590  0.27651417
   0.72765360  0.69094891  0.78822159
   0.52259584  0.18724932  0.70114001
   0.41179751  0.11287128  0.82343862
   0.89519786  0.41986098  0.88658294
   0.59210297  0.59063701  0.19307753
   0.54571322  0.19275276  0.15471932
   0.70230416  0.85590973  0.95119160
   0.88860772  0.15042751  0.95065196
   0.73402585  0.28092292  0.52961694
   0.85300846  0.79866109  0.93036072
   0.42461321  0.15564178  0.11758741
   0.35640288  0.51194024  0.38190149
   0.40040338  0.86401445  0.08494977
   0.71787017  0.60079613  0.11691556
   0.12277137  0.92046663  0.32476777
   0.53298725  0.88994069  0.57277879
   0.61898198  0.98062797  0.57294335
   0.28363109  0.18139255  0.44251659
   0.67311869  0.76676687  0.91706543
   0.65083144  0.35101053  0.59361944
   0.96193135  0.72232659  0.67310040
   0.99929681  0.70382593  0.27990127
   0.30119257  0.94047131  0.85990788
   0.28683747  0.68924505  0.21944571
   0.38845523  0.95140151  0.73980727
   0.91419355  0.61965770  0.42288188
   0.72801985  0.04339030  0.44921722
   0.42583890  0.27052669  0.94536365
   0.86473500  0.02844429  0.78136569
   0.94607407  0.07252505  0.41673924
   0.76933940  0.87586934  0.30573620
   0.17438158  0.04708052  0.68046102
   0.08310539  0.08591881  0.76478277
   0.52505513  0.89805489  0.06143624
   0.43445428  0.69677763  0.91436635
   0.23364179  0.56676316  0.79817415
   0.42556920  0.51384082  0.16673876
   0.41178634  0.78048516  0.52150453
   0.85541052  0.63687373  0.83428554
   0.11349749  0.23736462  0.76613125
   0.08970031  0.91717454  0.92026261
   0.84496209  0.63833232  0.10972672
   0.02631250  0.16988192  0.27052327
   0.26382901  0.80980261  0.01967900
   0.95050953  0.33104318  0.21607458
   0.98652890  0.28520417  0.38398823
   0.76704250  0.70962685  0.28213748
   0.51731715  0.40819970  0.19593957
   0.78388825  0.52265562  0.86244477
   0.28186949  0.65370758  0.38317280
Direct configuration=     3
   0.53641842  0.08775934  0.67282322
   0.86422138  0.42255847  0.65622672
   0.76094945  0.56171061  0.01198849
   0.89687161  0.79697291  0.83667057
   0.27895040  0.46153532  0.16387433
   0.53479589  0.53147308  0.37555558
   0.64540999  0.91295293  0.73992770
   0.06069173  0.97689550  0.73863560
   0.76259376  0.24591534  0.13667828
   0.97317325  0.90746184  0.73463980
   0.36567691  0.96393161  0.08422560
   0.70316403  0.50711252  0.11617183
   0.90699348  0.68375587  0.73749101
   0.87664471  0.26387208  0.18960023
   0.18474034  0.54168546  0.55510031
   0.41769210  0.91965582  0.96098675
   0.88425542  0.93252654  0.76555969
   0.62658597  0.07103025  0.23003114
   0.72798794  0.38461068  0.56698370
   0.58638880  0.49016550  0.22501037
   0.35032803  0.08686949  0.31613771
   0.84864969  0.85351516  0.53649821
   0.21084979  0.68375931  0.49515907
   0.49010891  0.10424964  0.07353942
   0.60252455  0.08136909  0.56894618
   0.48132946  0.19373370  0.91965410
   0.62628449  0.17466239  0.10731645
   0.25688430  0.35206077  0.07583413
   0.83496590  0.96795072  0.03585508
   0.60608308  0.43548799  0.44365039
   0.33908669  0.77699298  0.25351925
   0.52762151  0.98560758  0.17420098
   0.01837549  0.19316715  0.94789816
   0.86963834  0.67726904  0.47501866
   0.21067180  0.74989214  0.04451414
   0.52001086  0.99179938  0.51975781
   0.72025957  0.02744212  0.81288969
   0.73828959  0.12389567  0.33598393
   0.51650194  0.87389270  0.23259198
   0.18925545  0.46633174  0.72155011
   0.34549623  0.66902211  0.68277971
   0.10424572  0.17685079  0.89195480
   0.21823364  0.22262970  0.95258426
   0.37723665  0.18110119  0.90109412
   0.28009637  0.76486860  0.69677677
   0.20875755  0.24683300  0.31215688
   0.86601071  0.57981464  0.99986378
   0.25292450  0.16880470  0.20568789
   0.22475316  0.88370458  0.25305242
   0.41459712  0.58416730  0.69593757
   0.04957053  0.77915474  0.33029512
   0.48995644  0.08844063  0.44124821
   0.31058401  0.92925573  0.15805185
   0.36496036  0.18643684  0.36441173
   0.03706446  0.46948056  0.64595533
   0.67036092  0.08418077  0.11184747
   0.09849507  0.50294097  0.50682381
   0.69057238  0.63347159  0.84132378
   0.34455144  0.05729112  0.13496677
   0.60289990  0.80651182  0.30955936
   0.08090971  0.27485526  0.95262347
   0.83639575  0.77037742  0.36226480
   0.96103963  0.54401535  0.03767833
   0.77433738  0.47311145  0.60746114
   0.17732656  0.05514890  0.41505016
   0.98348691  0.60509113  0.81566542
   0.94867792  0.52450093  0.17665527
   0.13991489  0.73560961  0.28601730
   0.67570967  0.22386238  0.68301895
   0.01544900  0.06121262  0.40527296
   0.22301210  0.40003598  0.20057896
   0.15657835  0.22404751  0.40160454
   0.69393301  0.42754506  0.69018906
   0.24854706  0.16132108  0.84846384
   0.55516164  0.73570385  0.91372798
   0.66541238  0.20024339  0.98089492
   0.73861757  0.33861843  0.07671673
   0.86579740  0.24049906  0.34776072
   0.78949224  0.20761810  0.00945087
   0.11546913  0.61759258  0.39293403
   0.40321720  0.62417164  0.30535228
   0.60873374  0.93594830  0.37613428
   0.12651960  0.50331835  0.78801253
   0.60140534  0.46312870  0.95327259
   0.27247270  0.47104658  0.45701011
   0.25889248  0.39285778  0.70926310
   0.56280065  0.64373452  0.87625703
   0.16819832  0.66094142  0.25035658
   0.64280109  0.52816098  0.46241638
   0.22138495  0.02344382  0.60791092
   0.80446498  0.46792964  0.27020409
   0.40283195  0.65710756  0.59875751
   0.24795428  0.79570278  0.26308772
   0.87487059  0.95463649  0.57256212
   0.89616040  0.49158713  0.60999565
   0.01521530  0.25887938  0.09025769
   0.47990619  0.96122870  0.28508977
   0.43373714  0.71094958  0.35175396
   0.64768198  0.09193036  0.80534565
   0.05415368  0.38361019  0.64589155
   0.98873721  0.18752426  0.72124192
   0.98770219  0.06152998  0.63116795
   0.12862811  0.37752044  0.64207208
   0.31595940  0.27893473  0.04925072
   0.41801543  0.01798632  0.01475934
   0.25720826  0.55934799  0.08227072
   0.43135708  0.85598128  0.62098249
   0.63475131  0.91406344  0.91041558
   0.56712590  0.61648748  0.50977673
   0.48227406  0.33064474  0.72646238
   0.71997705  0.08413036  0.67528721
   0.77993538  0.37679602  0.44219215
   0.81678656  0.91907903  0.14840829
   0.35888358  0.87196047  0.64695406
   0.68971206  0.48568150  0.91593288
   0.05332878  0.14476942  0.45157125
   0.79892241  0.05672204  0.03986851
   0.59461939  0.77917230  0.55385645
   0.05434165  0.64783690  0.43341465
   0.17014109  0.42207334  0.99513707
   0.25592629  0.06787624  0.25493269
   0.82874679  0.35135471  0.12844472
   0.23707288  0.27261104  0.16671444
   0.40033377  0.99723452  0.44095649
   0.84231342  0.13689157  0.56184287
   0.90400603  0.20686451  0.85706844
   0.09999131  0.53085582  0.06046023
   0.26573648  0.54791116  0.25627169
   0.25829625  0.32656077  0.46488121
   0.82967648  0.62037358  0.54910761
   0.86627276  0.33626028  0.55068561
   0.98576932  0.92110242  0.56221072
   0.66252906  0.16498011  0.34850692
   0.49500740  0.27003369  0.49184954
   0.54368218  0.99530875  0.73598442
   0.56750333  0.07158365  0.31619861
   0.53513369  0.03043085  0.01573365
   0.02514619  0.83459272  0.42460399
   0.22359220  0.85002797  0.58687309
   0.57802059  0.30489805  0.88466613
   0.94565345  0.93922892  0.20290308
   0.48884247  0.58549711  0.47509746
   0.54633823  0.45356134  0.00884870
   0.24227420  0.84450266  0.76983977
   0.73068054  0.22256327  0.27187457
   0.27272460  0.43504845  0.96974559
   0.68545952  0.97708158  0.29682857
   0.39292053  0.74458891  0.16871485
   0.96556057  0.39672977  0.87850251
   0.51659457  0.77091166  0.19203585
   0.34858642  0.69406352  0.87693929
   0.26975309  0.20226288  0.73905644
   0.15897302  0.93866336  0.81594669
   0.56777714  0.27186897  0.01878701
   0.10639833  0.78149187  0.94532383
   0.03990920  0.98893734  0.90011915
   0.52999864  0.45364272  0.47482826
   0.74710708  0.22538196  0.66935472
   0.28081295  0.50554269  0.76731213
   0.83721008  0.09367392  0.41208926
   0.26941875  0.59792498  0.57333016
   0.51515961  0.59615703  0.90679619
   0.57538098  0.76447328  0.79598220
   0.01379147  0.10392986  0.98039251
   0.35542548  0.38845185  0.25439459
   0.51594484  0.82836436  0.41496170
   0.79842602  0.87652918  0.63808488
   0.64237409  0.39504280  0.32615632
   0.11536632  0.74504004  0.80552396
   0.38104233  0.24526466  0.74269058
   0.48512728  0.34777418  0.57539929
   0.20291549  0.34930800  0.52400961
   0.74273831  0.96006092  0.24082452
   0.53879788  0.14081612  0.85989784
   0.75351660  0.93549371  0.80935812
   0.37043904  0.87172816  0.31103073
   0.97269346  0.87360378  0.91867575
   0.97672434  0.73186103  0.96102054
   0.75660583  0.65307085  0.68802668
   0.10734304  0.28729662  0.26084430
   0.92479934  0.17950580  0.14875755
   0.94691360  0.81685178  0.61605710
   0.50869233  0.56758783  0.15995268
   0.98511720  0.27496386  0.77639948
   0.15576634  0.66735682  0.89159432
   0.41442825  0.23795076  0.31414952
   0.84582398  0.51155390  0.20784370
   0.13772997  0.17607390  0.12207006
   0.93563052  0.86290516  0.27040729
   0.42396095  0.42946588  0.10944368
   0.83203742  0.34914643  0.77890070
   0.29338045  0.74468169  0.53552146
   0.90162252  0.98688705  0.96261900
   0.13299553  0.88120978  0.19006459
   0.20482929  0.12682305  0.98556154
   0.04841763  0.59831006  0.02315450
   0.11725978  0.97249367  0.62926962
   0.38484023  0.82644247  0.81519261
   0.19032453  0.48009951  0.41631025
   0.23113857  0.30603433  0.86486515
   0.82977728  0.76184455  0.61354030
   0.09644607  0.00433264  0.27628162
   0.41818345  0.06993520  0.56118336
   0.66705226  0.83797641  0.64176504
   0.19656587  0.71395648  0.64912119
   0.59672599  0.18094659  0.51812088
   0.68814393  0.50762115  0.27638040
   0.72768682  0.69095127  0.78833324
   0.52259637  0.18731658  0.70119001
   0.41180176  0.11291546  0.82350290
   0.89519191  0.41990817  0.88653686
   0.59209357  0.59060872  0.19307915
   0.54561751  0.19272693  0.15452679
   0.70227108  0.85587419  0.95115912
   0.88869881  0.15044325  0.95069620
   0.73399770  0.28097439  0.52966463
   0.85303923  0.79863848  0.93035646
   0.42461470  0.15566610  0.11746617
   0.35639272  0.51190760  0.38187879
   0.40038390  0.86399962  0.08497408
   0.71787322  0.60074828  0.11683655
   0.12286035  0.92052735  0.32487702
   0.53301624  0.88990514  0.57292146
   0.61900295  0.98064653  0.57309157
   0.28359133  0.18137684  0.44237051
   0.67305880  0.76672391  0.91693779
   0.65082990  0.35096951  0.59350836
   0.96193439  0.72226505  0.67313173
   0.99932713  0.70384201  0.27999767
   0.30114585  0.94047755  0.85977969
   0.28686903  0.68922832  0.21934965
   0.38846107  0.95133627  0.73985644
   0.91421117  0.61967802  0.42290410
   0.72810084  0.04345274  0.44918778
   0.42586202  0.27048818  0.94536339
   0.86472943  0.02851511  0.78129867
   0.94613510  0.07254115  0.41683386
   0.76933523  0.87585937  0.30566718
   0.17430959  0.04706868  0.68028508
   0.08308209  0.08587104  0.76457835
   0.52504070  0.89800280  0.06149764
   0.43447783  0.69677984  0.91425528
   0.23356208  0.56669500  0.79810938
   0.42565108  0.51383577  0.16690999
   0.41174529  0.78049537  0.52141673
   0.85543632  0.63690139  0.83433418
   0.11346003  0.23733060  0.76609298
   0.08972585  0.91715728  0.92031974
   0.84492118  0.63824310  0.10956627
   0.02629009  0.16991601  0.27048271
   0.26383795  0.80976901  0.01985255
   0.95049682  0.33102760  0.21602696
   0.98650547  0.28515809  0.38393531
   0.76705654  0.70960219  0.28221789
   0.51730194  0.40833394  0.19598849
   0.78393440  0.52273138  0.86262470
   0.28185351  0.65370513  0.38330673
Direct configuration=     4
   0.53639008  0.08778220  0.67283529
   0.86423590  0.42254179  0.65627924
   0.76092761  0.56172811  0.01199598
   0.89671465  0.79715341  0.83633852
   0.27896310  0.46153798  0.16388961
   0.53477541  0.53146144  0.37548962
   0.64539942  0.91292544  0.73993082
   0.06071633  0.97689619  0.73868452
   0.76257087  0.24590893  0.13666396
   0.97318591  0.90745033  0.73462304