 vasp.6.4.2 20Jul23 (build Jun  3 2025 15:36:07) complex                         
 executed on              LinuxNV date 2025.11.12  21:10:38
 running    3 mpi-ranks, with    1 threads/rank, on    3 nodes
 each image running on    1 cores
 distrk:  each k-point on    1 cores,    1 groups
 distr:  one band on NCORE=   1 cores,    1 groups
 OpenACC runtime initialized ...    3 GPUs detected


--------------------------------------------------------------------------------------------------------


 INCAR:
   SYSTEM = Si
   ISTART = 1
   ICHARG = 2
   NELECT = 1080
   ISPIN = 2
   NELM = 20
   ENCUT = 400
   PREC = Accurate
   ISMEAR = 0
   SIGMA = 0.01
   EDIFF = 1E-10
   NUPDOWN = 0
   IBRION = 3
   NSW = 500
   POTIM = 0
   ISIF = 0
   IOPT = 3
   MAXMOVE = 0.2
   TIMESTEP = 0.1
   EDIFFG = -0.010
   ICHAIN = 0
   IMAGES = 3
   SPRING = -5.0
   LCLIMB = .FALSE.
   LSUBROT = .TRUE.
   LHFCALC = .TRUE.
   HFSCREEN = 0.20
   AEXX = 0.25
   PRECFOCK = Fast

 POTCAR:    PAW_PBE Li_sv 10Sep2004               
 POTCAR:    PAW_PBE F 08Apr2002                   
 -----------------------------------------------------------------------------
|                                                                             |
|           W    W    AA    RRRRR   N    N  II  N    N   GGGG   !!!           |
|           W    W   A  A   R    R  NN   N  II  NN   N  G    G  !!!           |
|           W    W  A    A  R    R  N N  N  II  N N  N  G       !!!           |
|           W WW W  AAAAAA  RRRRR   N  N N  II  N  N N  G  GGG   !            |
|           WW  WW  A    A  R   R   N   NN  II  N   NN  G    G                |
|           W    W  A    A  R    R  N    N  II  N    N   GGGG   !!!           |
|                                                                             |
|     You use a magnetic or noncollinear calculation, but did not specify     |
|     the initial magnetic moment with the MAGMOM tag. Note that a            |
|     default of 0 will be used for all atoms. This ferromagnetic setup       |
|     may break the symmetry of the crystal, in particular it may rule        |
|     out finding an antiferromagnetic solution. Thence, we recommend         |
|     setting the initial magnetic moment manually or verifying carefully     |
|     that this magnetic setup is desired.                                    |
|                                                                             |
 -----------------------------------------------------------------------------

 POTCAR:    PAW_PBE Li_sv 10Sep2004               
   SHA256 =  7e51fe1804c037e1dccc81a9c376d94d693a7559600c847f4b41960edb8ab895 Li_sv/POTCAR          
   COPYR  = (c) Copyright 10Sep2004 Georg Kresse                                                    
   COPYR  = This file is part of the software VASP. Any use, copying, and all other rights are regul
   COPYR  = If you do not have a valid VASP license, you may not use, copy or distribute this file. 
   VRHFIN =Li: 1s2s2p                                                                               
   LEXCH  = PE                                                                                      
   EATOM  =   202.7858 eV,   14.9043 Ry                                                             
                                                                                                    
   TITEL  = PAW_PBE Li_sv 10Sep2004                                                                 
   LULTRA =        F    use ultrasoft PP ?                                                          
   IUNSCR =        0    unscreen: 0-lin 1-nonlin 2-no                                               
   RPACOR =    0.000    partial core radius                                                         
   POMASS =    7.010; ZVAL   =    3.000    mass and valenz                                          
   RCORE  =    1.700    outmost cutoff radius                                                       
   RWIGS  =    2.050; RWIGS  =    1.085    wigner-seitz radius (au A)                               
   ENMAX  =  499.034; ENMIN  =  374.276 eV                                                          
   ICORE  =        2    local potential                                                             
   LCOR   =        T    correct aug charges                                                         
   LPAW   =        T    paw PP                                                                      
   EAUG   =  628.945                                                                                
   RMAX   =    1.732    core radius for proj-oper                                                   
   RAUG   =    1.300    factor for augmentation sphere                                              
   RDEP   =    1.728    radius for radial grids                                                     
   RDEPT  =    1.329    core radius for aug-charge                                                  
                                                                                                    
   Atomic configuration                                                                             
    4 entries                                                                                       
     n  l   j            E        occ.                                                              
     1  0  0.50       -51.8549   2.0000                                                             
     2  0  0.50        -2.8742   1.0000                                                             
     2  1  0.50        -1.3606   0.0000                                                             
     3  2  1.50        -1.3606   0.0000                                                             
   Description                                                                                      
     l       E           TYP  RCUT    TYP  RCUT                                                     
     0    -51.8548813     23  1.400                                                                 
     0     -2.8742052     23  1.700                                                                 
     1     -1.3605826     23  1.400                                                                 
     2     -1.3605826     23  1.400                                                                 
  local pseudopotential read in
  atomic valenz-charges read in
  non local Contribution for L=            0  read in
    real space projection operators read in
  non local Contribution for L=            0  read in
    real space projection operators read in
  non local Contribution for L=            1  read in
    real space projection operators read in
    PAW grid and wavefunctions read in
 
   number of l-projection  operators is LMAX  =            3
   number of lm-projection operators is LMMAX =            5
 
 POTCAR:    PAW_PBE F 08Apr2002                   
   SHA256 =  53c630871ac675939349fc2b976745ee17808dedc90b5bdde026bc81f0faf456 F/POTCAR              
   COPYR  = (c) Copyright 08Apr2002 Georg Kresse                                                    
   COPYR  = This file is part of the software VASP. Any use, copying, and all other rights are regul
   COPYR  = If you do not have a valid VASP license, you may not use, copy or distribute this file. 
   VRHFIN =F: s2p5                                                                                  
   LEXCH  = PE                                                                                      
   EATOM  =   659.6475 eV,   48.4827 Ry                                                             
                                                                                                    
   TITEL  = PAW_PBE F 08Apr2002                                                                     
   LULTRA =        F    use ultrasoft PP ?                                                          
   IUNSCR =        1    unscreen: 0-lin 1-nonlin 2-no                                               
   RPACOR =    1.200    partial core radius                                                         
   POMASS =   18.998; ZVAL   =    7.000    mass and valenz                                          
   RCORE  =    1.520    outmost cutoff radius                                                       
   RWIGS  =    1.500; RWIGS  =    0.794    wigner-seitz radius (au A)                               
   ENMAX  =  400.000; ENMIN  =  300.000 eV                                                          
   ICORE  =        2    local potential                                                             
   LCOR   =        T    correct aug charges                                                         
   LPAW   =        T    paw PP                                                                      
   EAUG   =  613.614                                                                                
   RMAX   =    1.555    core radius for proj-oper                                                   
   RAUG   =    1.300    factor for augmentation sphere                                              
   RDEP   =    1.539    radius for radial grids                                                     
   RDEPT  =    1.299    core radius for aug-charge                                                  
                                                                                                    
   Atomic configuration                                                                             
    4 entries                                                                                       
     n  l   j            E        occ.                                                              
     1  0  0.50      -663.3661   2.0000                                                             
     2  0  0.50       -29.8995   2.0000                                                             
     2  1  0.50       -11.1114   5.0000                                                             
     3  2  1.50       -10.8847   0.0000                                                             
   Description                                                                                      
     l       E           TYP  RCUT    TYP  RCUT                                                     
     0    -29.8995018     23  1.200                                                                 
     0     -9.5240782     23  1.200                                                                 
     1    -11.1113914     23  1.520                                                                 
     1      1.3605826     23  1.520                                                                 
     2    -10.8846608      7  1.500                                                                 
  local pseudopotential read in
  partial core-charges read in
  partial kinetic energy density read in
  atomic valenz-charges read in
  non local Contribution for L=            0  read in
    real space projection operators read in
  non local Contribution for L=            0  read in
    real space projection operators read in
  non local Contribution for L=            1  read in
    real space projection operators read in
  non local Contribution for L=            1  read in
    real space projection operators read in
    PAW grid and wavefunctions read in
 
   number of l-projection  operators is LMAX  =            4
   number of lm-projection operators is LMMAX =            8
 
 -----------------------------------------------------------------------------
|                                                                             |
|               ----> ADVICE to this user running VASP <----                  |
|                                                                             |
|     You have a (more or less) 'large supercell' and for larger cells it     |
|     might be more efficient to use real-space projection operators.         |
|     Therefore, try LREAL= Auto in the INCAR file.                           |
|     Mind: For very accurate calculation, you might also keep the            |
|     reciprocal projection scheme (i.e. LREAL=.FALSE.).                      |
|                                                                             |
 -----------------------------------------------------------------------------

  PAW_PBE Li_sv 10Sep2004               :
 energy of atom  1       EATOM= -202.7858
 kinetic energy error for atom=    0.0926 (will be added to EATOM!!)
  PAW_PBE F 08Apr2002                   :
 energy of atom  2       EATOM= -659.6475
 kinetic energy error for atom=    0.1978 (will be added to EATOM!!)
 
 
 POSCAR: Li   F
  positions in direct lattice
  No initial velocities read in
 exchange correlation table for  LEXCH =        8
   RHO(1)=    0.500       N(1)  =     2000
   RHO(2)=  100.500       N(2)  =     4000

 VTST: version 4.1, (05/19/21)

 CHAIN: initializing optimizer
 
 OPT: Using Quick-Min optimizer
 OPT: QM, Init
 OPT: QM, MAXMOVE       0.200000
 OPT: QM, TIMESTEP      0.100000
 
 CHAIN: Read ICHAIN             0
 CHAIN: Running the NEB
 NEB:          SPRING     -5.000000
 NEB:          LCLIMB      F
 NEB:     LTANGENTOLD      F
 NEB:           LDNEB      F
 NEB:        LDNEBORG      F
 NEB:        LNEBCELL      F
 NEB:          EFIRST      0.000000
 NEB:           ELAST      0.000000
 
 POSCAR: Li   F
  positions in direct lattice
  No initial velocities read in
 
 POSCAR: Li   F
  positions in direct lattice
  No initial velocities read in
 
 POSCAR: Li   F
  positions in direct lattice
  No initial velocities read in
 
 POSCAR: Li   F
  positions in direct lattice
  No initial velocities read in
 


--------------------------------------------------------------------------------------------------------


 ion  position               nearest neighbor table
   1  0.001  0.999  1.000- 109 1.97 136 1.98 115 2.03 208 2.03 138 2.03 190 2.04
   2  0.001  0.001  0.326- 116 1.94 136 1.96 110 2.01 209 2.02 191 2.05 137 2.08
   3  0.001  0.000  0.671- 138 1.94 117 1.98 111 2.00 210 2.03 192 2.04 137 2.09
   4  0.001  0.326  0.000- 141 1.93 109 1.98 139 2.00 211 2.02 193 2.05 112 2.08
   5  0.000  0.326  0.326- 110 1.93 139 1.93 212 1.99 194 2.08 140 2.08 113 2.08  32 2.59
   6  0.002  0.326  0.674- 114 1.81 111 1.94 213 1.99 141 2.02 140 2.13 195 2.14
   7  0.001  0.671  1.000- 115 1.94 142 2.01 144 2.01 214 2.02 196 2.04 112 2.09
   8  0.002  0.674  0.327- 143 1.86 142 1.95 215 1.99 116 2.01 113 2.12 197 2.12
   9  0.001  0.673  0.657- 167 1.78 117 1.97 198 2.04 144 2.13 216 2.17 143 2.24
  10  0.329  1.000  1.000- 190 1.93 118 2.02 145 2.02 147 2.03 124 2.04 199 2.07
  11  0.330  0.000  0.328- 191 1.92 145 1.94 125 2.02 119 2.03 146 2.07 200 2.08
  12  0.330  0.000  0.672- 192 1.93 147 1.94 120 2.02 126 2.04 201 2.06 146 2.09
  13  0.330  0.328  0.000- 193 1.92 118 1.95 150 2.02 148 2.03 121 2.07 202 2.08
  14  0.342  0.328  0.328- 148 1.94 119 1.94 203 1.94 149 2.05 122 2.06 194 2.06
  15  0.341  0.329  0.672- 204 1.95 150 1.95 120 1.95 195 1.97 123 2.06 149 2.10
  16  0.329  0.671  1.000- 196 1.92 124 1.93 151 2.01 153 2.03 205 2.08 121 2.09
  17  0.342  0.672  0.328- 206 1.94 125 1.95 151 1.96 197 1.99 152 2.07 122 2.10
  18  0.330  0.670  0.670- 198 1.94 153 1.95 126 1.96 123 2.07 152 2.07 207 2.08
  19  0.671  0.999  1.000- 208 1.96 127 2.00 154 2.02 133 2.03 156 2.03 199 2.05
  20  0.672  0.999  0.328- 154 1.95 209 1.96 128 2.00 134 2.03 200 2.06 155 2.07
  21  0.670  1.000  0.672- 156 1.94 210 1.97 135 1.97 129 2.00 201 2.05 155 2.09
  22  0.672  0.327  0.998- 211 1.96 127 1.96 157 1.99 159 2.02 202 2.06 130 2.07
  23  0.673  0.329  0.328- 212 1.97 128 1.98 157 1.99 203 2.06 131 2.07 158 2.08
  24  0.673  0.329  0.670- 159 1.94 129 1.98 213 1.99 132 2.05 204 2.06 158 2.06
  25  0.672  0.671  0.999- 133 1.93 214 1.96 162 1.99 160 2.00 205 2.07 130 2.09
  26  0.672  0.670  0.329- 134 1.94 160 1.99 215 2.00 161 2.05 206 2.06 131 2.06
  27  0.673  0.671  0.670- 216 1.83 162 1.98 135 2.00 207 2.07 161 2.08 132 2.08
  28  0.000  0.170  0.170- 110 1.95 139 1.95 181 2.02 109 2.04 136 2.05 163 2.05
  29  0.001  0.170  0.500- 140 1.95 137 2.00 182 2.01 111 2.02 110 2.03 164 2.07
  30  0.001  0.158  0.829- 138 1.94 141 1.94 111 1.97 183 2.02 165 2.06 109 2.08
  31  0.001  0.500  0.170- 113 1.96 184 2.01 112 2.01 142 2.02 139 2.03 166 2.08
  32  0.972  0.477  0.477- 167 1.71 140 1.83 113 1.83 185 1.89  77 2.58 104 2.58   5 2.59
  33  0.001  0.500  0.848- 114 1.80 112 1.88 186 2.00 144 2.02 168 2.19 141 2.20
  34  0.001  0.829  0.158- 115 1.94 116 1.97 142 1.97 187 2.02 169 2.06 136 2.07
  35  0.001  0.849  0.499- 143 1.80 137 1.87 188 1.99 117 2.02 116 2.16 170 2.19
  36  0.000  0.828  0.828- 144 1.94 117 1.96 189 2.03 138 2.05 115 2.05 171 2.07
  37  0.330  0.170  0.171- 163 1.93 148 1.95 119 1.95 118 2.06 145 2.07 172 2.07
  38  0.342  0.171  0.500- 173 1.93 149 2.00 146 2.01 120 2.02 119 2.03 164 2.04
  39  0.330  0.170  0.829- 165 1.92 150 1.95 120 1.96 118 2.07 174 2.07 147 2.07
  40  0.342  0.500  0.171- 175 1.93 122 2.00 121 2.01 151 2.02 148 2.03 166 2.04
  41  0.353  0.500  0.500- 176 1.85 152 1.97 123 1.98 149 1.99 122 1.99
  42  0.346  0.500  0.847- 121 1.90 177 1.91 168 1.97 153 2.03 150 2.04 123 2.23
  43  0.330  0.829  0.171- 169 1.92 125 1.95 151 1.96 145 2.06 178 2.07 124 2.07
  44  0.346  0.847  0.500- 146 1.90 179 1.90 170 1.98 126 2.03 125 2.04 152 2.23
  45  0.341  0.829  0.829- 180 1.95 126 1.96 153 1.96 171 2.05 147 2.06 124 2.06
  46  0.672  0.170  0.170- 128 1.94 157 1.94 181 1.95 172 2.06 127 2.07 154 2.08
  47  0.671  0.159  0.500- 155 1.94 182 1.97 158 1.97 129 2.03 128 2.05 173 2.05
  48  0.672  0.171  0.829- 159 1.93 129 1.95 183 1.96 127 2.05 174 2.06 156 2.07
  49  0.671  0.500  0.159- 130 1.95 184 1.97 131 1.97 160 2.03 157 2.05 175 2.05
  50  0.672  0.500  0.500- 185 1.82 176 2.00 132 2.01 161 2.01 158 2.14 131 2.15
  51  0.673  0.499  0.827- 132 1.94 186 1.97 162 2.03 159 2.04 177 2.06 130 2.06
  52  0.672  0.829  0.171- 134 1.93 160 1.95 187 1.96 154 2.05 178 2.06 133 2.07
  53  0.673  0.827  0.499- 161 1.94 188 1.97 135 2.03 134 2.04 179 2.06 155 2.07
  54  0.672  0.828  0.828- 189 1.95 162 1.95 135 1.96 180 2.05 133 2.07 156 2.07
  55  0.171  1.000  0.171- 191 1.93 145 1.96 163 2.03 169 2.04 136 2.05 190 2.07
  56  0.173  0.002  0.500- 170 1.88 164 1.98 146 2.00 192 2.03 191 2.04 137 2.07
  57  0.173  0.999  0.829- 192 1.94 147 1.96 165 2.01 171 2.03 190 2.06 138 2.06
  58  0.172  0.329  0.171- 163 1.94 148 1.97 194 2.01 139 2.03 193 2.05 166 2.05
  59  0.174  0.321  0.501- 164 1.87 149 1.96 195 1.97 194 1.99 140 1.99
  60  0.172  0.328  0.829- 165 1.97 195 2.00 150 2.00 141 2.04 193 2.08 168 2.10
  61  0.173  0.670  0.171- 197 1.93 169 1.94 151 1.98 196 2.05 142 2.06 166 2.08
  62  0.175  0.697  0.499- 170 1.81 143 1.82 152 1.96 198 2.02 197 2.07
  63  0.172  0.671  0.829- 171 1.93 153 1.99 198 2.01 144 2.04 196 2.08 168 2.08
  64  0.500  1.000  0.170- 200 1.94 145 2.01 172 2.02 154 2.03 178 2.03 199 2.07
  65  0.502  0.000  0.500- 146 1.97 173 2.00 155 2.02 201 2.02 200 2.03 179 2.03
  66  0.501  0.000  0.829- 201 1.96 147 2.00 174 2.01 156 2.02 180 2.04 199 2.06
  67  0.501  0.328  0.169- 172 1.95 203 1.95 148 2.00 157 2.01 202 2.06 175 2.07
  68  0.503  0.327  0.500- 158 1.94 173 1.95 204 2.02 149 2.03 203 2.04 176 2.07
  69  0.502  0.328  0.829- 174 1.94 204 1.96 150 1.99 159 2.04 202 2.05 177 2.06
  70  0.501  0.671  0.158- 178 1.93 205 1.94 151 1.99 160 2.03 175 2.08 206 2.09
  71  0.502  0.672  0.500- 179 1.94 207 2.01 206 2.04 152 2.04 161 2.06 176 2.09
  72  0.501  0.671  0.828- 180 1.94 207 1.96 162 1.99 153 1.99 205 2.04 177 2.09
  73  0.829  0.999  0.171- 209 1.94 154 1.95 181 1.99 187 2.03 208 2.07 136 2.08
  74  0.829  0.000  0.499- 155 1.94 188 1.98 182 2.00 210 2.03 209 2.03 137 2.09
  75  0.828  0.999  0.829- 156 1.94 210 1.96 189 1.96 183 1.98 208 2.06 138 2.10
  76  0.829  0.327  0.158- 211 1.93 157 1.95 212 1.96 181 1.97 184 2.08 139 2.12
  77  0.825  0.324  0.500- 185 1.79 182 1.92 158 1.94 213 2.02 212 2.17 140 2.23  32 2.58
  78  0.843  0.327  0.829- 141 1.95 213 1.97 183 1.98 211 2.04 186 2.08 159 2.08
  79  0.830  0.671  0.170- 187 1.94 160 1.94 215 1.95 214 2.07 184 2.08 142 2.09
  80  0.849  0.674  0.501- 167 1.83 188 1.97 215 2.06 161 2.14 143 2.19 216 2.19
  81  0.829  0.672  0.829- 216 1.82 162 1.98 189 1.99 214 2.05 186 2.10 144 2.11
  82  0.171  0.170  1.000- 193 1.93 118 1.96 165 2.03 163 2.04 109 2.05 190 2.08
  83  0.172  0.171  0.329- 163 1.94 119 1.97 194 2.01 110 2.04 164 2.05 191 2.05
  84  0.173  0.170  0.671- 195 1.92 165 1.95 120 1.98 192 2.05 111 2.06 164 2.08
  85  0.173  0.500  0.002- 168 1.88 166 1.99 121 2.00 196 2.03 193 2.04 112 2.07
  86  0.174  0.501  0.321- 166 1.87 122 1.96 197 1.98 113 1.99 194 1.99
  87  0.174  0.499  0.697- 114 1.81 168 1.81 123 1.97 198 2.04 195 2.09
  88  0.173  0.829  0.999- 196 1.95 124 1.96 169 2.01 171 2.03 190 2.05 115 2.06
  89  0.172  0.829  0.328- 169 1.96 125 1.99 197 2.00 116 2.04 191 2.08 170 2.10
  90  0.173  0.830  0.671- 171 1.93 126 1.98 198 2.01 117 2.04 192 2.07 170 2.08
  91  0.500  0.170  1.000- 202 1.94 118 2.01 172 2.02 174 2.03 127 2.03 199 2.07
  92  0.501  0.169  0.328- 172 1.95 203 1.95 119 2.00 128 2.02 200 2.06 173 2.07
  93  0.501  0.170  0.671- 174 1.94 204 1.96 120 1.98 129 2.03 201 2.05 173 2.08
  94  0.502  0.499  1.000- 121 1.97 175 1.99 130 2.02 205 2.02 202 2.03 177 2.03
  95  0.503  0.500  0.327- 131 1.94 175 1.96 206 2.01 122 2.03 203 2.04 176 2.08
  96  0.502  0.500  0.672- 177 1.94 207 2.01 204 2.03 123 2.04 132 2.07 176 2.08
  97  0.501  0.829  1.000- 205 1.97 124 2.00 178 2.01 133 2.02 180 2.03 199 2.05
  98  0.502  0.828  0.327- 178 1.95 206 1.95 125 1.99 134 2.04 200 2.06 179 2.07
  99  0.501  0.829  0.671- 180 1.94 207 1.96 135 1.98 126 1.99 201 2.07 179 2.08
 100  0.829  0.158  0.999- 208 1.94 127 1.95 181 1.99 183 2.03 211 2.08 109 2.08
 101  0.829  0.170  0.327- 212 1.87 128 1.95 181 1.97 209 2.04 182 2.07 110 2.11
 102  0.829  0.170  0.671- 213 1.94 129 1.94 183 1.94 210 2.04 182 2.09 111 2.10
 103  0.829  0.500  0.999- 130 1.94 184 1.99 186 1.99 214 2.02 211 2.05 112 2.09
 104  0.825  0.499  0.323- 185 1.79 184 1.93 131 1.94 215 2.02 212 2.11 113 2.23  32 2.58
 105  0.850  0.500  0.674- 167 1.80 186 1.95 213 2.05 132 2.14 114 2.20
 106  0.828  0.829  0.999- 133 1.94 214 1.95 189 1.98 187 2.00 208 2.03 115 2.10
 107  0.842  0.829  0.328- 116 1.95 187 1.97 215 1.97 188 2.06 209 2.08 134 2.08
 108  0.828  0.841  0.672- 216 1.84 210 1.94 135 1.98 189 1.98 188 2.11 117 2.13
 109  0.002  0.162  0.001-   1 1.97   4 1.98  28 2.04  82 2.05  30 2.08 100 2.08
 110  0.004  0.167  0.331-   5 1.93  28 1.95   2 2.01  29 2.03  83 2.04 101 2.11
 111  0.003  0.166  0.667-   6 1.94  30 1.97   3 2.00  29 2.02  84 2.06 102 2.10
 112  0.002  0.498  0.003-  33 1.88  31 2.01  85 2.07   4 2.08   7 2.09 103 2.09
 113  0.010  0.498  0.332-  32 1.83  31 1.96  86 1.99   5 2.08   8 2.12 104 2.23
 114  0.027  0.471  0.704-  33 1.80  87 1.81   6 1.81 105 2.20
 115  0.002  0.831  0.998-  34 1.94   7 1.94   1 2.03  36 2.05  88 2.06 106 2.10
 116  0.003  0.840  0.320-   2 1.94 107 1.95  34 1.97   8 2.01  89 2.04  35 2.16
 117  0.004  0.836  0.666-  36 1.96   9 1.97   3 1.98  35 2.02  90 2.04 108 2.13
 118  0.334  0.167  1.000-  13 1.95  82 1.96  91 2.01  10 2.02  37 2.06  39 2.07
 119  0.336  0.168  0.332-  14 1.94  37 1.95  83 1.97  92 2.00  38 2.03  11 2.03
 120  0.337  0.167  0.667-  15 1.95  39 1.96  93 1.98  84 1.98  12 2.02  38 2.02
 121  0.339  0.499  0.004-  42 1.90  94 1.97  85 2.00  40 2.01  13 2.07  16 2.09
 122  0.335  0.498  0.336-  86 1.96  41 1.99  40 2.00  95 2.03  14 2.06  17 2.10
 123  0.333  0.499  0.663-  87 1.97  41 1.98  96 2.04  15 2.06  18 2.07  42 2.23
 124  0.335  0.831  0.999-  16 1.93  88 1.96  97 2.00  10 2.04  45 2.06  43 2.07
 125  0.337  0.833  0.332-  43 1.95  17 1.95  89 1.99  98 1.99  11 2.02  44 2.04
 126  0.337  0.832  0.667-  18 1.96  45 1.96  90 1.98  99 1.99  44 2.03  12 2.04
 127  0.668  0.165  0.999- 100 1.95  22 1.96  19 2.00  91 2.03  48 2.05  46 2.07
 128  0.668  0.165  0.330-  46 1.94 101 1.95  23 1.98  20 2.00  92 2.02  47 2.05
 129  0.669  0.165  0.667- 102 1.94  48 1.95  24 1.98  21 2.00  93 2.03  47 2.03
 130  0.669  0.499  0.998- 103 1.94  49 1.95  94 2.02  51 2.06  22 2.07  25 2.09
 131  0.664  0.500  0.322-  95 1.94 104 1.94  49 1.97  26 2.06  23 2.07  50 2.15
 132  0.673  0.499  0.666-  51 1.94  50 2.01  24 2.05  96 2.07  27 2.08 105 2.14
 133  0.668  0.831  0.999-  25 1.93 106 1.94  97 2.02  19 2.03  54 2.07  52 2.07
 134  0.671  0.831  0.331-  52 1.93  26 1.94  20 2.03  53 2.04  98 2.04 107 2.08
 135  0.665  0.837  0.667-  54 1.96  21 1.97  99 1.98 108 1.98  27 2.00  53 2.03
 136  0.002  0.001  0.164-   2 1.96   1 1.98  28 2.05  55 2.05  34 2.07  73 2.08
 137  0.002  0.004  0.499-  35 1.87  29 2.00  56 2.07   2 2.08   3 2.09  74 2.09
 138  0.002  0.997  0.832-  30 1.94   3 1.94   1 2.03  36 2.05  57 2.06  75 2.10
 139  0.004  0.331  0.166-   5 1.93  28 1.95   4 2.00  31 2.03  58 2.03  76 2.12
 140  0.009  0.331  0.498-  32 1.83  29 1.95  59 1.99   5 2.08   6 2.13  77 2.23
 141  0.003  0.318  0.841-   4 1.93  30 1.94  78 1.95   6 2.02  60 2.04  33 2.20
 142  0.003  0.666  0.166-   8 1.95  34 1.97   7 2.01  31 2.02  61 2.06  79 2.09
 143  0.026  0.704  0.476-  35 1.80  62 1.82   8 1.86  80 2.19   9 2.24
 144  0.004  0.667  0.833-  36 1.94   7 2.01  33 2.02  63 2.04  81 2.11   9 2.13
 145  0.334  0.999  0.167-  11 1.94  55 1.96  64 2.01  10 2.02  43 2.06  37 2.07
 146  0.339  0.004  0.499-  44 1.90  65 1.97  56 2.00  38 2.01  11 2.07  12 2.09
 147  0.335  0.999  0.832-  12 1.94  57 1.96  66 2.00  10 2.03  45 2.06  39 2.07
 148  0.336  0.332  0.168-  14 1.94  37 1.95  58 1.97  67 2.00  40 2.03  13 2.03
 149  0.335  0.336  0.498-  59 1.96  41 1.99  38 2.00  68 2.03  14 2.05  15 2.10
 150  0.337  0.331  0.833-  39 1.95  15 1.95  69 1.99  60 2.00  13 2.02  42 2.04
 151  0.337  0.667  0.166-  43 1.96  17 1.96  61 1.98  70 1.99  16 2.01  40 2.02
 152  0.333  0.663  0.499-  62 1.96  41 1.97  71 2.04  18 2.07  17 2.07  44 2.23
 153  0.337  0.667  0.832-  18 1.95  45 1.96  63 1.99  72 1.99  42 2.03  16 2.03
 154  0.668  0.998  0.167-  73 1.95  20 1.95  19 2.02  64 2.03  52 2.05  46 2.08
 155  0.669  0.998  0.499-  74 1.94  47 1.94  65 2.02  20 2.07  53 2.07  21 2.09
 156  0.668  0.999  0.832-  21 1.94  75 1.94  66 2.02  19 2.03  54 2.07  48 2.07
 157  0.668  0.330  0.163-  46 1.94  76 1.95  22 1.99  23 1.99  67 2.01  49 2.05
 158  0.664  0.322  0.500-  77 1.94  68 1.94  47 1.97  24 2.06  23 2.08  50 2.14
 159  0.670  0.331  0.831-  48 1.93  24 1.94  22 2.02  51 2.04  69 2.04  78 2.08
 160  0.669  0.667  0.164-  79 1.94  52 1.95  26 1.99  25 2.00  49 2.03  70 2.03
 161  0.672  0.666  0.498-  53 1.94  50 2.01  26 2.05  71 2.06  27 2.08  80 2.14
 162  0.666  0.667  0.834-  54 1.95  81 1.98  27 1.98  72 1.99  25 1.99  51 2.03
 163  0.170  0.168  0.168-  37 1.93  83 1.94  58 1.94  55 2.03  82 2.04  28 2.05
 164  0.172  0.166  0.499-  59 1.87  56 1.98  38 2.04  83 2.05  29 2.07  84 2.08
 165  0.171  0.165  0.832-  39 1.92  84 1.95  60 1.97  57 2.01  82 2.03  30 2.06
 166  0.172  0.499  0.166-  86 1.87  85 1.99  40 2.04  58 2.05  31 2.08  61 2.08
 167  0.933  0.572  0.574-  32 1.71   9 1.78 105 1.80  80 1.83
 168  0.183  0.500  0.846-  87 1.81  85 1.88  42 1.97  63 2.08  60 2.10  33 2.19
 169  0.171  0.831  0.166-  43 1.92  61 1.94  89 1.96  88 2.01  55 2.04  34 2.06
 170  0.182  0.846  0.500-  62 1.81  56 1.88  44 1.98  90 2.08  89 2.10  35 2.19
 171  0.172  0.831  0.831-  90 1.93  63 1.93  57 2.03  88 2.03  45 2.05  36 2.07
 172  0.501  0.166  0.167-  92 1.95  67 1.95  64 2.02  91 2.02  46 2.06  37 2.07
 173  0.502  0.166  0.499-  38 1.93  68 1.95  65 2.00  47 2.05  92 2.07  93 2.08
 174  0.501  0.167  0.832-  93 1.94  69 1.94  66 2.01  91 2.03  48 2.06  39 2.07
 175  0.502  0.499  0.165-  40 1.93  95 1.96  94 1.99  49 2.05  67 2.07  70 2.08
 176  0.506  0.499  0.499-  41 1.85  50 2.00  68 2.07  95 2.08  96 2.08  71 2.09
 177  0.503  0.498  0.832-  42 1.91  96 1.94  94 2.03  51 2.06  69 2.06  72 2.09
 178  0.501  0.831  0.166-  70 1.93  98 1.95  97 2.01  64 2.03  52 2.06  43 2.07
 179  0.503  0.832  0.498-  44 1.90  71 1.94  65 2.03  53 2.06  98 2.07  99 2.08
 180  0.502  0.832  0.832-  72 1.94  99 1.94  45 1.95  97 2.03  66 2.04  54 2.05
 181  0.833  0.164  0.164-  46 1.95 101 1.97  76 1.97 100 1.99  73 1.99  28 2.02
 182  0.834  0.166  0.499-  77 1.92  47 1.97  74 2.00  29 2.01 101 2.07 102 2.09
 183  0.834  0.163  0.832- 102 1.94  48 1.96  75 1.98  78 1.98  30 2.02 100 2.03
 184  0.834  0.499  0.164- 104 1.93  49 1.97 103 1.99  31 2.01  79 2.08  76 2.08
 185  0.816  0.468  0.468-  77 1.79 104 1.79  50 1.82  32 1.89
 186  0.836  0.499  0.834- 105 1.95  51 1.97 103 1.99  33 2.00  78 2.08  81 2.10
 187  0.834  0.831  0.165-  79 1.94  52 1.96 107 1.97 106 2.00  34 2.02  73 2.03
 188  0.836  0.836  0.498-  80 1.97  53 1.97  74 1.98  35 1.99 107 2.06 108 2.11
 189  0.833  0.837  0.836-  54 1.95  75 1.96 108 1.98 106 1.98  81 1.99  36 2.03
 190  0.169  0.998  0.999-  10 1.93   1 2.04  88 2.05  57 2.06  55 2.07  82 2.08
 191  0.171  0.001  0.331-  11 1.92  55 1.93  56 2.04   2 2.05  83 2.05  89 2.08
 192  0.170  0.001  0.668-  12 1.93  57 1.94  56 2.03   3 2.04  84 2.05  90 2.07
 193  0.171  0.330  0.001-  13 1.92  82 1.93  85 2.04  58 2.05   4 2.05  60 2.08
 194  0.172  0.337  0.337-  86 1.99  59 1.99  83 2.01  58 2.01  14 2.06   5 2.08
 195  0.179  0.329  0.664-  84 1.92  15 1.97  59 1.97  60 2.00  87 2.09   6 2.14
 196  0.170  0.668  0.001-  16 1.92  88 1.95  85 2.03   7 2.04  61 2.05  63 2.08
 197  0.178  0.664  0.330-  61 1.93  86 1.98  17 1.99  89 2.00  62 2.07   8 2.12
 198  0.169  0.664  0.663-  18 1.94  90 2.01  63 2.01  62 2.02  87 2.04   9 2.04
 199  0.501  0.999  0.999-  97 2.05  19 2.05  66 2.06  10 2.07  91 2.07  64 2.07
 200  0.502  0.999  0.331-  64 1.94  65 2.03  98 2.06  20 2.06  92 2.06  11 2.08
 201  0.501  1.000  0.667-  66 1.96  65 2.02  21 2.05  93 2.05  12 2.06  99 2.07
 202  0.502  0.331  0.999-  91 1.94  94 2.03  69 2.05  22 2.06  67 2.06  13 2.08
 203  0.502  0.331  0.331-  14 1.94  67 1.95  92 1.95  68 2.04  95 2.04  23 2.06
 204  0.502  0.332  0.667-  15 1.95  69 1.96  93 1.96  68 2.02  96 2.03  24 2.06
 205  0.501  0.666  0.997-  70 1.94  97 1.97  94 2.02  72 2.04  25 2.07  16 2.08
 206  0.502  0.667  0.331-  17 1.94  98 1.95  95 2.01  71 2.04  26 2.06  70 2.09
 207  0.501  0.666  0.666-  72 1.96  99 1.96  96 2.01  71 2.01  27 2.07  18 2.08
 208  0.833  0.997  1.000- 100 1.94  19 1.96   1 2.03 106 2.03  75 2.06  73 2.07
 209  0.834  0.000  0.331-  73 1.94  20 1.96   2 2.02  74 2.03 101 2.04 107 2.08
 210  0.833  0.001  0.667- 108 1.94  75 1.96  21 1.97  74 2.03   3 2.03 102 2.04
 211  0.834  0.330  0.998-  76 1.93  22 1.96   4 2.02  78 2.04 103 2.05 100 2.08
 212  0.836  0.324  0.320- 101 1.87  76 1.96  23 1.97   5 1.99 104 2.11  77 2.17
 213  0.837  0.331  0.666- 102 1.94  78 1.97  24 1.99   6 1.99  77 2.02 105 2.05
 214  0.834  0.667  0.999- 106 1.95  25 1.96   7 2.02 103 2.02  81 2.05  79 2.07
 215  0.838  0.666  0.331-  79 1.95 107 1.97   8 1.99  26 2.00 104 2.02  80 2.06
 216  0.823  0.689  0.680-  81 1.82  27 1.83 108 1.84   9 2.17  80 2.19
 
  LATTYP: Found a simple cubic cell.
 ALAT       =    12.0789003372
  
  Lattice vectors:
  
 A1 = (  12.0789003372,   0.0000000000,   0.0000000000)
 A2 = (   0.0000000000,  12.0789003372,   0.0000000000)
 A3 = (   0.0000000000,   0.0000000000,  12.0789003372)


Analysis of symmetry for initial positions (statically):
=====================================================================
 Subroutine PRICEL returns:
 Original cell was already a primitive cell.
 

 Routine SETGRP: Setting up the symmetry group for a 
 simple cubic supercell.


 Subroutine GETGRP returns: Found  1 space group operations
 (whereof  1 operations were pure point group operations)
 out of a pool of 48 trial point group operations.


The static configuration has the point symmetry C_1 .


Analysis of symmetry for dynamics (positions and initial velocities):
=====================================================================
 Subroutine PRICEL returns:
 Original cell was already a primitive cell.
 

 Routine SETGRP: Setting up the symmetry group for a 
 simple cubic supercell.


 Subroutine GETGRP returns: Found  1 space group operations
 (whereof  1 operations were pure point group operations)
 out of a pool of 48 trial point group operations.


The dynamic configuration has the point symmetry C_1 .


Analysis of structural, dynamic, and magnetic symmetry:
=====================================================================
 Subroutine PRICEL returns:
 Original cell was already a primitive cell.
 

 Routine SETGRP: Setting up the symmetry group for a 
 simple cubic supercell.


 Subroutine GETGRP returns: Found  1 space group operations
 (whereof  1 operations were pure point group operations)
 out of a pool of 48 trial point group operations.


The overall configuration has the point symmetry C_1 .


 Subroutine INISYM returns: Found  1 space group operations
 (whereof  1 operations are pure point group operations),
 and found     1 'primitive' translations


----------------------------------------------------------------------------------------

                                     Primitive cell                                     

  volume of cell :    1762.3095

  direct lattice vectors                    reciprocal lattice vectors
    12.078900337  0.000000000  0.000000000     0.082788993  0.000000000  0.000000000
     0.000000000 12.078900337  0.000000000     0.000000000  0.082788993  0.000000000
     0.000000000  0.000000000 12.078900337     0.000000000  0.000000000  0.082788993

  length of vectors
    12.078900337 12.078900337 12.078900337     0.082788993  0.082788993  0.082788993

  position of ions in fractional coordinates (direct lattice)
     0.000777630  0.999360883  0.999964650
     0.000910898  0.000507062  0.326409458
     0.001118205  0.000153317  0.671228280
     0.000894509  0.325908083  0.000223784
     0.000002173  0.326357196  0.325986526
     0.002139752  0.326358038  0.673899445
     0.000618048  0.671099882  0.999547228
     0.002207339  0.673784639  0.327196834
     0.000528599  0.673363877  0.656919044
     0.329456922  0.999631780  0.999754990
     0.329702051  0.000155259  0.327770997
     0.329911312  0.000273401  0.671646623
     0.329616118  0.327583220  0.000247099
     0.341637358  0.328353453  0.328451703
     0.341151058  0.328816263  0.671808444
     0.328885450  0.671468977  0.999935039
     0.341990472  0.671639212  0.328458580
     0.329550689  0.670077033  0.670120295
     0.670613869  0.999125438  0.999729505
     0.671914974  0.998748374  0.327783212
     0.670409041  0.999810939  0.671537025
     0.672011595  0.327159638  0.998367381
     0.672854759  0.328665498  0.327963681
     0.672907569  0.328973449  0.670359878
     0.671936842  0.671405657  0.998937958
     0.672422959  0.670083829  0.328656590
     0.672702031  0.671353353  0.670406828
     0.000318926  0.169901245  0.170065913
     0.000648783  0.169897779  0.499610518
     0.000811111  0.157780903  0.829323635
     0.000611336  0.499562163  0.169904522
     0.972029413  0.476633212  0.476915935
     0.000903979  0.500172614  0.847863830
     0.000779625  0.829031733  0.158035186
     0.000856457  0.848910182  0.499387034
     0.000268525  0.827591171  0.827798433
     0.329804862  0.170350864  0.170542535
     0.341548593  0.170625661  0.499864520
     0.330210191  0.170360846  0.828822435
     0.341573649  0.499741625  0.170782277
     0.352555445  0.500262574  0.500329524
     0.345946509  0.499628075  0.846928858
     0.330184886  0.828664979  0.170548253
     0.346071549  0.846897379  0.499678621
     0.341163890  0.828610393  0.828704319
     0.671526456  0.170047528  0.170162386
     0.671329017  0.159131313  0.499584059
     0.671911324  0.170933898  0.828801173
     0.671387118  0.499524644  0.158868829
     0.672069253  0.499746334  0.499753412
     0.673422537  0.499339556  0.827245475
     0.671902560  0.828540065  0.171064859
     0.673350496  0.827233681  0.499344239
     0.671791300  0.828323345  0.828339749
     0.171460068  0.999695591  0.170570023
     0.173487801  0.001703962  0.499637971
     0.172618116  0.998943945  0.828795164
     0.172420534  0.328888868  0.170863686
     0.173696627  0.320658750  0.500690683
     0.171708452  0.327774162  0.828817060
     0.172821414  0.670400498  0.170649887
     0.174563026  0.696527280  0.498705344
     0.171948951  0.671167713  0.829224510
     0.500355398  0.999571717  0.170488567
     0.501693821  0.000248518  0.499675252
     0.500673586  0.000088932  0.828617907
     0.501277805  0.327718219  0.169287888
     0.503074664  0.327268758  0.499680101
     0.501567869  0.327514541  0.829272648
     0.501092733  0.671331766  0.158293008
     0.501870037  0.671577737  0.499875228
     0.501391017  0.670947461  0.828271666
     0.829309500  0.999225321  0.170835023
     0.828935043  0.000076603  0.499015554
     0.828356366  0.999397773  0.829105161
     0.829108741  0.327060436  0.157893374
     0.824830536  0.323969930  0.499584118
     0.842674385  0.327248860  0.829241183
     0.829530075  0.670746600  0.170351498
     0.848923627  0.673781506  0.500924729
     0.829386745  0.672378664  0.829153941
     0.171449976  0.170252652  0.999814586
     0.172424499  0.170841189  0.329105130
     0.172971321  0.170419012  0.670671192
     0.173354981  0.499511385  0.001702724
     0.173729652  0.500521875  0.320858054
     0.173952352  0.498885132  0.696604766
     0.172517910  0.828602582  0.999051684
     0.171927520  0.828907745  0.327855751
     0.172670941  0.829883207  0.671346961
     0.500352024  0.170153264  0.999695593
     0.501279040  0.169443925  0.327832564
     0.501192048  0.169733795  0.671444004
     0.501737290  0.499114056  0.999983476
     0.503106716  0.500092389  0.326949079
     0.501851783  0.500045993  0.671619569
     0.500686940  0.829274056  0.999699571
     0.501626465  0.828400363  0.327223265
     0.501322072  0.828582462  0.670982908
     0.829299250  0.157874759  0.999480539
     0.829154056  0.169537811  0.327108025
     0.829413682  0.170486975  0.671051816
     0.829083045  0.499763498  0.999299935
     0.824800416  0.498914635  0.323476395
     0.849784333  0.499820565  0.673971473
     0.828422906  0.828688284  0.999414903
     0.842485539  0.828649234  0.327801203
     0.828097471  0.841071499  0.671912325
     0.001564357  0.162395747  0.001439532
     0.003637257  0.167049517  0.331254691
     0.002775242  0.165601944  0.666586713
     0.002160551  0.498323173  0.003286719
     0.009640422  0.498456152  0.331574266
     0.026978893  0.471374230  0.703779698
     0.002216516  0.831378073  0.997818369
     0.003322175  0.840087693  0.320477766
     0.004349242  0.836205568  0.665959224
     0.333597938  0.166520110  0.999891980
     0.335655952  0.168201940  0.331833746
     0.337190646  0.167124380  0.666955221
     0.339012925  0.499030587  0.004312548
     0.335024702  0.498200783  0.336329595
     0.333181438  0.499154609  0.662802872
     0.335009015  0.831227092  0.998972256
     0.336743658  0.832885838  0.331515825
     0.336802108  0.831790704  0.666878382
     0.668377962  0.165061584  0.998618780
     0.668092243  0.164661739  0.330378956
     0.668859895  0.165288164  0.667423292
     0.668646684  0.498647734  0.997751162
     0.663899538  0.499556059  0.321918759
     0.673064020  0.498825630  0.666240716
     0.667574384  0.831463204  0.999385827
     0.670526245  0.830941769  0.330887157
     0.664611685  0.836704385  0.666666074
     0.001703028  0.000598734  0.164241299
     0.002246212  0.003986116  0.498507372
     0.001936142  0.997499400  0.831686857
     0.004036708  0.331173966  0.165990661
     0.009122280  0.331068891  0.498074560
     0.003240245  0.318271107  0.840908709
     0.002703890  0.666398645  0.166122211
     0.025948062  0.703721248  0.476144507
     0.003536566  0.666968431  0.832943417
     0.333598123  0.999380456  0.166911038
     0.338950257  0.004222524  0.499074423
     0.335035115  0.998740754  0.831781279
     0.335637259  0.331636551  0.168377464
     0.335176699  0.336323353  0.498226968
     0.336826426  0.331443008  0.833287700
     0.336933851  0.666654327  0.166293656
     0.333366459  0.662554147  0.499177039
     0.336579089  0.666752154  0.831720469
     0.668250245  0.998213407  0.166558360
     0.668592856  0.998438369  0.498741304
     0.667800969  0.999478617  0.831938096
     0.667907225  0.330239098  0.163158007
     0.663985771  0.322411725  0.499817746
     0.670273078  0.330777393  0.830989093
     0.668939332  0.667163991  0.164026671
     0.672203329  0.666269772  0.498298170
     0.666001483  0.666766549  0.834200473
     0.170028901  0.167999189  0.168408570
     0.172384710  0.165888008  0.498570954
     0.171104083  0.164949082  0.831639851
     0.172362094  0.498564126  0.166131500
     0.933348755  0.572118615  0.574218272
     0.182590180  0.500412776  0.846089302
     0.170928699  0.831122029  0.165591553
     0.182367479  0.845944403  0.500280710
     0.171737338  0.830734815  0.830773700
     0.500889001  0.166433631  0.166720889
     0.501557682  0.165960095  0.498969731
     0.501465181  0.166819798  0.831725717
     0.501584318  0.499023860  0.164768988
     0.506093334  0.498719214  0.499142127
     0.502962677  0.498285731  0.831895798
     0.501379553  0.831185844  0.165846510
     0.502863744  0.831910422  0.498476764
     0.502223485  0.831629047  0.831695307
     0.832973805  0.163721974  0.163900907
     0.834208121  0.165610652  0.498537631
     0.833668591  0.163281517  0.831565441
     0.834241196  0.499116636  0.163903927
     0.816181029  0.468461773  0.468277961
     0.836203897  0.498928829  0.834491139
     0.833837839  0.830946259  0.165076680
     0.836359888  0.836460013  0.497656022
     0.833052931  0.836990229  0.835694247
     0.169413170  0.998320904  0.998997085
     0.170517541  0.001077941  0.330701866
     0.170369331  0.001100487  0.667845012
     0.170620773  0.330288211  0.001288441
     0.171554954  0.336656721  0.336786269
     0.178654139  0.329045861  0.663800714
     0.169728220  0.667599130  0.000992264
     0.177537040  0.663847339  0.330325805
     0.169269774  0.664111392  0.662896501
     0.500550782  0.998877315  0.999183804
     0.501567440  0.998658103  0.331462449
     0.500624344  0.999694152  0.666719050
     0.501513824  0.331111395  0.998740475
     0.502159638  0.331217038  0.330932127
     0.502104163  0.332094092  0.667191687
     0.500969878  0.666475739  0.997365972
     0.502209101  0.666832905  0.331416688
     0.501477637  0.666185042  0.666216598
     0.832746797  0.997056051  0.999548678
     0.834075156  0.000378836  0.331015714
     0.833450107  0.001375100  0.666616427
     0.833990882  0.329904649  0.998134738
     0.835749652  0.324199529  0.320301864
     0.837474736  0.330518839  0.666162809
     0.833817592  0.666962971  0.999031148
     0.837739690  0.665637617  0.331171068
     0.822989774  0.688652168  0.679744850

  ion indices of the primitive-cell ions
   primitive index   ion index
                 1           1
                 2           2
                 3           3
                 4           4
                 5           5
                 6           6
                 7           7
                 8           8
                 9           9
                10          10
                11          11
                12          12
                13          13
                14          14
                15          15
                16          16
                17          17
                18          18
                19          19
                20          20
                21          21
                22          22
                23          23
                24          24
                25          25
                26          26
                27          27
                28          28
                29          29
                30          30
                31          31
                32          32
                33          33
                34          34
                35          35
                36          36
                37          37
                38          38
                39          39
                40          40
                41          41
                42          42
                43          43
                44          44
                45          45
                46          46
                47          47
                48          48
                49          49
                50          50
                51          51
                52          52
                53          53
                54          54
                55          55
                56          56
                57          57
                58          58
                59          59
                60          60
                61          61
                62          62
                63          63
                64          64
                65          65
                66          66
                67          67
                68          68
                69          69
                70          70
                71          71
                72          72
                73          73
                74          74
                75          75
                76          76
                77          77
                78          78
                79          79
                80          80
                81          81
                82          82
                83          83
                84          84
                85          85
                86          86
                87          87
                88          88
                89          89
                90          90
                91          91
                92          92
                93          93
                94          94
                95          95
                96          96
                97          97
                98          98
                99          99
               100         100
               101         101
               102         102
               103         103
               104         104
               105         105
               106         106
               107         107
               108         108
               109         109
               110         110
               111         111
               112         112
               113         113
               114         114
               115         115
               116         116
               117         117
               118         118
               119         119
               120         120
               121         121
               122         122
               123         123
               124         124
               125         125
               126         126
               127         127
               128         128
               129         129
               130         130
               131         131
               132         132
               133         133
               134         134
               135         135
               136         136
               137         137
               138         138
               139         139
               140         140
               141         141
               142         142
               143         143
               144         144
               145         145
               146         146
               147         147
               148         148
               149         149
               150         150
               151         151
               152         152
               153         153
               154         154
               155         155
               156         156
               157         157
               158         158
               159         159
               160         160
               161         161
               162         162
               163         163
               164         164
               165         165
               166         166
               167         167
               168         168
               169         169
               170         170
               171         171
               172         172
               173         173
               174         174
               175         175
               176         176
               177         177
               178         178
               179         179
               180         180
               181         181
               182         182
               183         183
               184         184
               185         185
               186         186
               187         187
               188         188
               189         189
               190         190
               191         191
               192         192
               193         193
               194         194
               195         195
               196         196
               197         197
               198         198
               199         199
               200         200
               201         201
               202         202
               203         203
               204         204
               205         205
               206         206
               207         207
               208         208
               209         209
               210         210
               211         211
               212         212
               213         213
               214         214
               215         215
               216         216

----------------------------------------------------------------------------------------

 
 
 KPOINTS: Gamma-point only                        

Automatic generation of k-mesh.
 Grid dimensions read from file:
 generate k-points for:    1    1    1

 Generating k-lattice:

  Cartesian coordinates                     Fractional coordinates (reciprocal lattice)
     0.082788993  0.000000000  0.000000000     1.000000000  0.000000000  0.000000000
     0.000000000  0.082788993  0.000000000     0.000000000  1.000000000  0.000000000
     0.000000000  0.000000000  0.082788993     0.000000000  0.000000000  1.000000000

  Length of vectors
     0.082788993  0.082788993  0.082788993

  Shift w.r.t. Gamma in fractional coordinates (k-lattice)
     0.000000000  0.000000000  0.000000000

 
 Subroutine IBZKPT returns following result:
 ===========================================
 
 Found      1 irreducible k-points:
 
 Following reciprocal coordinates:
            Coordinates               Weight
  0.000000  0.000000  0.000000      1.000000
 
 Following cartesian coordinates:
            Coordinates               Weight
  0.000000  0.000000  0.000000      1.000000
 
 
 Subroutine IBZKPT_HF returns following result:
 ==============================================
 
 Found      1 k-points in 1st BZ
 the following      1 k-points will be used (e.g. in the exchange kernel)
 Following reciprocal coordinates:   # in IRBZ
  0.000000  0.000000  0.000000    1.00000000   1 t-inv F


--------------------------------------------------------------------------------------------------------




 Dimension of arrays:
   k-points           NKPTS =      1   k-points in BZ     NKDIM =      1   number of bands    NBANDS=    649
   number of dos      NEDOS =    301   number of ions     NIONS =    216
   non local maximal  LDIM  =      4   non local SUM 2l+1 LMDIM =      8
   total plane-waves  NPLWV = 512000
   max r-space proj   IRMAX =      1   max aug-charges    IRDMAX=   3893
   dimension x,y,z NGX =    80 NGY =   80 NGZ =   80
   dimension x,y,z NGXF=   160 NGYF=  160 NGZF=  160
   support grid    NGXF=   160 NGYF=  160 NGZF=  160
   ions per type =             108 108
   NGX,Y,Z   is equivalent  to a cutoff of  11.01, 11.01, 11.01 a.u.
   NGXF,Y,Z  is equivalent  to a cutoff of  22.02, 22.02, 22.02 a.u.

 SYSTEM =  Si                                      
 POSCAR =  Li   F                                  

 Startparameter for this run:
   NWRITE =      2    write-flag & timer
   PREC   = accura    normal or accurate (medium, high low for compatibility)
   ISTART =      0    job   : 0-new  1-cont  2-samecut
   ICHARG =      2    charge: 1-file 2-atom 10-const
   ISPIN  =      2    spin polarized calculation?
   LNONCOLLINEAR =      F non collinear calculations
   LSORBIT =      F    spin-orbit coupling
   INIWAV =      1    electr: 0-lowe 1-rand  2-diag
   LASPH  =      F    aspherical Exc in radial PAW
 Electronic Relaxation 1
   ENCUT  =  400.0 eV  29.40 Ry    5.42 a.u.  19.70 19.70 19.70*2*pi/ulx,y,z
   ENINI  =  400.0     initial cutoff
   ENAUG  =  628.9 eV  augmentation charge cutoff
   NELM   =     20;   NELMIN=  2; NELMDL=  0     # of ELM steps 
   EDIFF  = 0.1E-09   stopping-criterion for ELM
   LREAL  =      F    real-space projection
   NLSPLINE    = F    spline interpolate recip. space projectors
   LCOMPAT=      F    compatible to vasp.4.4
   GGA_COMPAT  = T    GGA compatible to vasp.4.4-vasp.4.6
   LMAXPAW     = -100 max onsite density
   LMAXMIX     =    2 max onsite mixed and CHGCAR
   VOSKOWN=      0    Vosko Wilk Nusair interpolation
   ROPT   =    0.00000   0.00000
 Ionic relaxation
   EDIFFG = -.1E-01   stopping-criterion for IOM
   NSW    =    500    number of steps for IOM
   NBLOCK =      1;   KBLOCK =    500    inner block; outer block 
   IBRION =      3    ionic relax: 0-MD 1-quasi-New 2-CG
   NFREE  =      0    steps in history (QN), initial steepest desc. (CG)
   ISIF   =      0    stress and relaxation
   IWAVPR =     11    prediction:  0-non 1-charg 2-wave 3-comb
   ISYM   =      3    0-nonsym 1-usesym 2-fastsym
   LCORR  =      T    Harris-Foulkes like correction to forces

   POTIM  = 0.0000    time-step for ionic-motion
   TEIN   =    0.0    initial temperature
   TEBEG  =    0.0;   TEEND  =   0.0 temperature during run
   SMASS  =  -3.00    Nose mass-parameter (am)
   estimated Nose-frequenzy (Omega)   =  0.10E-29 period in steps = 0.00E+00 mass=  -0.333E-26a.u.
   SCALEE = 1.0000    scale energy and forces
   NPACO  =    256;   APACO  = 10.0  distance and # of slots for P.C.
   PSTRESS=    0.0 pullay stress

  Mass of Ions in am
   POMASS =   7.01 19.00
  Ionic Valenz
   ZVAL   =   3.00  7.00
  Atomic Wigner-Seitz radii
   RWIGS  =  -1.00 -1.00
  virtual crystal weights 
   VCA    =   1.00  1.00
   NELECT =    1080.0000    total number of electrons
   NUPDOWN=       0.0000    fix difference up-down

 DOS related values:
   EMIN   =  10.00;   EMAX   =-10.00  energy-range for DOS
   EFERMI =   0.00;   METHOD = LEGACY      
   ISMEAR =     0;   SIGMA  =   0.01  broadening in eV -4-tet -1-fermi 0-gaus

 Electronic relaxation 2 (details)
   IALGO  =     38    algorithm
   LDIAG  =      T    sub-space diagonalisation (order eigenvalues)
   LSUBROT=      T    optimize rotation matrix (better conditioning)
   TURBO    =      0    0=normal 1=particle mesh
   IRESTART =      0    0=no restart 2=restart with 2 vectors
   NREBOOT  =      0    no. of reboots
   NMIN     =      0    reboot dimension
   EREF     =   0.00    reference energy to select bands
   IMIX   =      1    mixing-type and parameters
     AMIX     =   0.40;   BMIX     =  1.00
     AMIX_MAG =   1.60;   BMIX_MAG =  1.00
     AMIN     =   0.10
     WC   =   100.;   INIMIX=   1;  MIXPRE=   1;  MAXMIX= -45

 Intra band minimization:
   WEIMIN = 0.0010     energy-eigenvalue tresh-hold
   EBREAK =  0.39E-13  absolut break condition
   DEPER  =   0.30     relativ break condition  

   TIME   =   0.40     timestep for ELM

  volume/ion in A,a.u.               =       8.16        55.06
  Fermi-wavevector in a.u.,A,eV,Ry     =   1.390557  2.627771 26.308875  1.933648
  Thomas-Fermi vector in A             =   2.514480
 
 Write flags
   LWAVE        =      T    write WAVECAR
   LDOWNSAMPLE  =      F    k-point downsampling of WAVECAR
   LCHARG       =      T    write CHGCAR
   LVTOT        =      F    write LOCPOT, total local potential
   LVHAR        =      F    write LOCPOT, Hartree potential only
   LELF         =      F    write electronic localiz. function (ELF)
   LORBIT       =      0    0 simple, 1 ext, 2 COOP (PROOUT), +10 PAW based schemes


 Dipole corrections
   LMONO  =      F    monopole corrections only (constant potential shift)
   LDIPOL =      F    correct potential (dipole corrections)
   IDIPOL =      0    1-x, 2-y, 3-z, 4-all directions 
   EPSILON=  1.0000000 bulk dielectric constant

 Exchange correlation treatment:
   GGA     =    --    GGA type
   LEXCH   =     8    internal setting for exchange type
   LIBXC   =     F    Libxc                    
   VOSKOWN =     0    Vosko Wilk Nusair interpolation
   EXXOEP  =     0    0=HF, 1=EXX-LHF (local Hartree Fock) 2=EXX OEP
   LHFCALC =     T    Hartree Fock is set to
   LSYMGRAD=     F    symmetrize gradient (conserves proper symmetry)
   PRECFOCK=fast      Normal, Fast or Accurate (Low or Medium for compatibility)
   LRHFCALC=     F    long range Hartree Fock
   LRSCOR  =     F    long range correlation only (use DFT for short range part)
   LTHOMAS =     F    Thomas Fermi screening in HF
   LMODELHF=     F    short range full HF, long range fraction AEXX
   FOCKCORR=     1    mode to apply convergence corrections
   LFOCKACE=     T    use Adeptively-Compressed-Exchange operator
   ENCUT4O =  -1.0   cutoff for four orbital integrals eV
   LMAXFOCK=     4    L truncation for augmentation on plane wave grid
   LMAXFOCKAE=  -1    L truncation for all-electron charge restoration on plane wave grid
   NMAXFOCKAE=   1    number of basis functions for all-electron charge restoration
   LFOCKAEDFT=     F  apply the AE augmentation even for DFT
   NKREDX  =     1    reduce k-point grid by
   NKREDY  =     1    reduce k-point grid by
   NKREDZ  =     1    reduce k-point grid by
   SHIFTRED=     F    shift reduced grid of Gamma
   HFKIDENT=     F    idential grid for each k-point
   ODDONLY =     F    use only odd q-grid points
   EVENONLY=     F    use only even q-grid points
   HFALPHA =   -1.0000 decay constant for conv. correction
   MCALPHA =    0.0000 extent of test-charge in conv. correction in multipole expansion
   AEXX    =    0.2500 exact exchange contribution
   HFSCREEN=    0.2000 screening length (either q_TF or 0.3 A-1)
   HFSCREENC=   0.2000 screening length for correlation (either q_TF or 0.3 A-1)
   HFRCUT  =    0.0000 spherical cutoff for potential kernel
   ALDAX   =    0.7500 LDA exchange part
   AGGAX   =    0.7500 GGA exchange part
   ALDAC   =    1.0000 LDA correlation
   AGGAC   =    1.0000 GGA correlation
   ENCUTFOCK=  -1.0 apply spherical cutoff to Coloumb kernel
   NBANDSGWLOW=     1    first orbital included in HF term
   NBLOCK_FOCK=    64    blocking factor in FOCK_ACC

 Linear response parameters
   LEPSILON=     F    determine dielectric tensor
   LRPA    =     F    only Hartree local field effects (RPA)
   LNABLA  =     F    use nabla operator in PAW spheres
   LVEL    =     F    velocity operator in full k-point grid
   CSHIFT  =0.1000    complex shift for real part using Kramers Kronig
   OMEGAMAX=  -1.0    maximum frequency
   DEG_THRESHOLD= 0.2000000E-02 threshold for treating states as degnerate
   RTIME   =   -0.100 relaxation time in fs
  (WPLASMAI=    0.000 imaginary part of plasma frequency in eV, 0.658/RTIME)
   DFIELD  = 0.0000000 0.0000000 0.0000000 field for delta impulse in time
 
  Optional k-point grid parameters
   LKPOINTS_OPT  =     F    use optional k-point grid
   KPOINTS_OPT_MODE=     1    mode for optional k-point grid
 
 Orbital magnetization related:
   ORBITALMAG=     F  switch on orbital magnetization
   LCHIMAG   =     F  perturbation theory with respect to B field
   DQ        =  0.001000  dq finite difference perturbation B field
   LLRAUG    =     F  two centre corrections for induced B field
   LBONE     =     F  B-component reconstruction in AE one-centre
   LVGVCALC  =     T  calculate vGv susceptibility
   LVGVAPPL  =     F  apply vGv susceptibility instead of pGv for G=0

 Random number generation:
   RANDOM_GENERATOR = DEFAULT
   PCG_SEED         = not used


--------------------------------------------------------------------------------------------------------


 quickmin algorithm: (dynamic with friction)
 charge density and potential will be updated during run
 spin polarized calculation
 Variant of blocked Davidson
 Davidson routine will perform the subspace rotation
 perform sub-space diagonalisation
    after iterative eigenvector-optimisation
 Kerker-like  mixing scheme
 using additional bands           109
 reciprocal scheme for non local part
 use partial core corrections
 calculate Harris-corrections to forces 
   (improved forces if not selfconsistent)
 use gradient corrections 
 use of overlap-Matrix (Vanderbilt PP)
 Gauss-broadening in eV      SIGMA  =   0.01


--------------------------------------------------------------------------------------------------------


  energy-cutoff  :      400.00
  volume of cell :     1762.31
      direct lattice vectors                 reciprocal lattice vectors
    12.078900337  0.000000000  0.000000000     0.082788993  0.000000000  0.000000000
     0.000000000 12.078900337  0.000000000     0.000000000  0.082788993  0.000000000
     0.000000000  0.000000000 12.078900337     0.000000000  0.000000000  0.082788993

  length of vectors
    12.078900337 12.078900337 12.078900337     0.082788993  0.082788993  0.082788993


 
 k-points in units of 2pi/SCALE and weight: Gamma-point only                        
   0.00000000  0.00000000  0.00000000       1.000
 
 k-points in reciprocal lattice and weights: Gamma-point only                        
   0.00000000  0.00000000  0.00000000       1.000
 
 position of ions in fractional coordinates (direct lattice) 
   0.00077763  0.99936088  0.99996465
   0.00091090  0.00050706  0.32640946
   0.00111821  0.00015332  0.67122828
   0.00089451  0.32590808  0.00022378
   0.00000217  0.32635720  0.32598653
   0.00213975  0.32635804  0.67389944
   0.00061805  0.67109988  0.99954723
   0.00220734  0.67378464  0.32719683
   0.00052860  0.67336388  0.65691904
   0.32945692  0.99963178  0.99975499
   0.32970205  0.00015526  0.32777100
   0.32991131  0.00027340  0.67164662
   0.32961612  0.32758322  0.00024710
   0.34163736  0.32835345  0.32845170
   0.34115106  0.32881626  0.67180844
   0.32888545  0.67146898  0.99993504
   0.34199047  0.67163921  0.32845858
   0.32955069  0.67007703  0.67012029
   0.67061387  0.99912544  0.99972951
   0.67191497  0.99874837  0.32778321
   0.67040904  0.99981094  0.67153703
   0.67201159  0.32715964  0.99836738
   0.67285476  0.32866550  0.32796368
   0.67290757  0.32897345  0.67035988
   0.67193684  0.67140566  0.99893796
   0.67242296  0.67008383  0.32865659
   0.67270203  0.67135335  0.67040683
   0.00031893  0.16990125  0.17006591
   0.00064878  0.16989778  0.49961052
   0.00081111  0.15778090  0.82932363
   0.00061134  0.49956216  0.16990452
   0.97202941  0.47663321  0.47691594
   0.00090398  0.50017261  0.84786383
   0.00077963  0.82903173  0.15803519
   0.00085646  0.84891018  0.49938703
   0.00026852  0.82759117  0.82779843
   0.32980486  0.17035086  0.17054253
   0.34154859  0.17062566  0.49986452
   0.33021019  0.17036085  0.82882243
   0.34157365  0.49974162  0.17078228
   0.35255545  0.50026257  0.50032952
   0.34594651  0.49962808  0.84692886
   0.33018489  0.82866498  0.17054825
   0.34607155  0.84689738  0.49967862
   0.34116389  0.82861039  0.82870432
   0.67152646  0.17004753  0.17016239
   0.67132902  0.15913131  0.49958406
   0.67191132  0.17093390  0.82880117
   0.67138712  0.49952464  0.15886883
   0.67206925  0.49974633  0.49975341
   0.67342254  0.49933956  0.82724548
   0.67190256  0.82854007  0.17106486
   0.67335050  0.82723368  0.49934424
   0.67179130  0.82832334  0.82833975
   0.17146007  0.99969559  0.17057002
   0.17348780  0.00170396  0.49963797
   0.17261812  0.99894394  0.82879516
   0.17242053  0.32888887  0.17086369
   0.17369663  0.32065875  0.50069068
   0.17170845  0.32777416  0.82881706
   0.17282141  0.67040050  0.17064989
   0.17456303  0.69652728  0.49870534
   0.17194895  0.67116771  0.82922451
   0.50035540  0.99957172  0.17048857
   0.50169382  0.00024852  0.49967525
   0.50067359  0.00008893  0.82861791
   0.50127781  0.32771822  0.16928789
   0.50307466  0.32726876  0.49968010
   0.50156787  0.32751454  0.82927265
   0.50109273  0.67133177  0.15829301
   0.50187004  0.67157774  0.49987523
   0.50139102  0.67094746  0.82827167
   0.82930950  0.99922532  0.17083502
   0.82893504  0.00007660  0.49901555
   0.82835637  0.99939777  0.82910516
   0.82910874  0.32706044  0.15789337
   0.82483054  0.32396993  0.49958412
   0.84267438  0.32724886  0.82924118
   0.82953007  0.67074660  0.17035150
   0.84892363  0.67378151  0.50092473
   0.82938674  0.67237866  0.82915394
   0.17144998  0.17025265  0.99981459
   0.17242450  0.17084119  0.32910513
   0.17297132  0.17041901  0.67067119
   0.17335498  0.49951139  0.00170272
   0.17372965  0.50052188  0.32085805
   0.17395235  0.49888513  0.69660477
   0.17251791  0.82860258  0.99905168
   0.17192752  0.82890775  0.32785575
   0.17267094  0.82988321  0.67134696
   0.50035202  0.17015326  0.99969559
   0.50127904  0.16944393  0.32783256
   0.50119205  0.16973379  0.67144400
   0.50173729  0.49911406  0.99998348
   0.50310672  0.50009239  0.32694908
   0.50185178  0.50004599  0.67161957
   0.50068694  0.82927406  0.99969957
   0.50162646  0.82840036  0.32722326
   0.50132207  0.82858246  0.67098291
   0.82929925  0.15787476  0.99948054
   0.82915406  0.16953781  0.32710803
   0.82941368  0.17048698  0.67105182
   0.82908304  0.49976350  0.99929994
   0.82480042  0.49891463  0.32347639
   0.84978433  0.49982057  0.67397147
   0.82842291  0.82868828  0.99941490
   0.84248554  0.82864923  0.32780120
   0.82809747  0.84107150  0.67191233
   0.00156436  0.16239575  0.00143953
   0.00363726  0.16704952  0.33125469
   0.00277524  0.16560194  0.66658671
   0.00216055  0.49832317  0.00328672
   0.00964042  0.49845615  0.33157427
   0.02697889  0.47137423  0.70377970
   0.00221652  0.83137807  0.99781837
   0.00332217  0.84008769  0.32047777
   0.00434924  0.83620557  0.66595922
   0.33359794  0.16652011  0.99989198
   0.33565595  0.16820194  0.33183375
   0.33719065  0.16712438  0.66695522
   0.33901293  0.49903059  0.00431255
   0.33502470  0.49820078  0.33632959
   0.33318144  0.49915461  0.66280287
   0.33500901  0.83122709  0.99897226
   0.33674366  0.83288584  0.33151583
   0.33680211  0.83179070  0.66687838
   0.66837796  0.16506158  0.99861878
   0.66809224  0.16466174  0.33037896
   0.66885990  0.16528816  0.66742329
   0.66864668  0.49864773  0.99775116
   0.66389954  0.49955606  0.32191876
   0.67306402  0.49882563  0.66624072
   0.66757438  0.83146320  0.99938583
   0.67052625  0.83094177  0.33088716
   0.66461169  0.83670438  0.66666607
   0.00170303  0.00059873  0.16424130
   0.00224621  0.00398612  0.49850737
   0.00193614  0.99749940  0.83168686
   0.00403671  0.33117397  0.16599066
   0.00912228  0.33106889  0.49807456
   0.00324024  0.31827111  0.84090871
   0.00270389  0.66639865  0.16612221
   0.02594806  0.70372125  0.47614451
   0.00353657  0.66696843  0.83294342
   0.33359812  0.99938046  0.16691104
   0.33895026  0.00422252  0.49907442
   0.33503512  0.99874075  0.83178128
   0.33563726  0.33163655  0.16837746
   0.33517670  0.33632335  0.49822697
   0.33682643  0.33144301  0.83328770
   0.33693385  0.66665433  0.16629366
   0.33336646  0.66255415  0.49917704
   0.33657909  0.66675215  0.83172047
   0.66825024  0.99821341  0.16655836
   0.66859286  0.99843837  0.49874130
   0.66780097  0.99947862  0.83193810
   0.66790722  0.33023910  0.16315801
   0.66398577  0.32241172  0.49981775
   0.67027308  0.33077739  0.83098909
   0.66893933  0.66716399  0.16402667
   0.67220333  0.66626977  0.49829817
   0.66600148  0.66676655  0.83420047
   0.17002890  0.16799919  0.16840857
   0.17238471  0.16588801  0.49857095
   0.17110408  0.16494908  0.83163985
   0.17236209  0.49856413  0.16613150
   0.93334875  0.57211862  0.57421827
   0.18259018  0.50041278  0.84608930
   0.17092870  0.83112203  0.16559155
   0.18236748  0.84594440  0.50028071
   0.17173734  0.83073481  0.83077370
   0.50088900  0.16643363  0.16672089
   0.50155768  0.16596009  0.49896973
   0.50146518  0.16681980  0.83172572
   0.50158432  0.49902386  0.16476899
   0.50609333  0.49871921  0.49914213
   0.50296268  0.49828573  0.83189580
   0.50137955  0.83118584  0.16584651
   0.50286374  0.83191042  0.49847676
   0.50222349  0.83162905  0.83169531
   0.83297381  0.16372197  0.16390091
   0.83420812  0.16561065  0.49853763
   0.83366859  0.16328152  0.83156544
   0.83424120  0.49911664  0.16390393
   0.81618103  0.46846177  0.46827796
   0.83620390  0.49892883  0.83449114
   0.83383784  0.83094626  0.16507668
   0.83635989  0.83646001  0.49765602
   0.83305293  0.83699023  0.83569425
   0.16941317  0.99832090  0.99899708
   0.17051754  0.00107794  0.33070187
   0.17036933  0.00110049  0.66784501
   0.17062077  0.33028821  0.00128844
   0.17155495  0.33665672  0.33678627
   0.17865414  0.32904586  0.66380071
   0.16972822  0.66759913  0.00099226
   0.17753704  0.66384734  0.33032580
   0.16926977  0.66411139  0.66289650
   0.50055078  0.99887731  0.99918380
   0.50156744  0.99865810  0.33146245
   0.50062434  0.99969415  0.66671905
   0.50151382  0.33111140  0.99874048
   0.50215964  0.33121704  0.33093213
   0.50210416  0.33209409  0.66719169
   0.50096988  0.66647574  0.99736597
   0.50220910  0.66683290  0.33141669
   0.50147764  0.66618504  0.66621660
   0.83274680  0.99705605  0.99954868
   0.83407516  0.00037884  0.33101571
   0.83345011  0.00137510  0.66661643
   0.83399088  0.32990465  0.99813474
   0.83574965  0.32419953  0.32030186
   0.83747474  0.33051884  0.66616281
   0.83381759  0.66696297  0.99903115
   0.83773969  0.66563762  0.33117107
   0.82298977  0.68865217  0.67974485
 
 position of ions in cartesian coordinates  (Angst):
   0.00939291 12.07118051 12.07847335
   0.01100265  0.00612475  3.94266731
   0.01350669  0.00185190  8.10769950
   0.01080468  3.93661125  0.00270307
   0.00002625  3.94203604  3.93755875
   0.02584585  3.94204621  8.13996423
   0.00746534  8.10614859 12.07343135
   0.02666223  8.13857750  3.95217794
   0.00638490  8.13349516  7.93485966
   3.97947733 12.07445265 12.07594088
   3.98243821  0.00187536  3.95911320
   3.98496586  0.00330238  8.11275262
   3.98140024  3.95684507  0.00298469
   4.12660359  3.96614863  3.96733538
   4.12072963  3.97173887  8.11470724
   3.97257457  8.11060686 12.07811568
   4.13086883  8.11266311  3.96741846
   3.98060993  8.09379370  8.09431625
   8.10027809 12.06833659 12.07563306
   8.11599401 12.06378207  3.95926075
   8.09780399 12.07661669  8.11142880
   8.11716108  3.95172866 12.05918009
   8.12734557  3.96991779  3.96144062
   8.12798347  3.97363751  8.09721016
   8.11625815  8.10984202 12.06607203
   8.12212991  8.09387579  3.96981019
   8.12550079  8.10921024  8.09777726
   0.00385227  2.05222021  2.05420921
   0.00783658  2.05217834  6.03474566
   0.00979733  1.90581980 10.01731753
   0.00738427  6.03416158  2.05225979
  11.74104640  5.75720507  5.76062005
   0.01091908  6.04153516 10.24126270
   0.00941701 10.01379168  1.90889126
   0.01034506 10.25390148  6.03204621
   0.00324349  9.99639128  9.99889477
   3.98368006  2.05765111  2.05996628
   4.12553142  2.06097035  6.03781372
   3.98857598  2.05777168 10.01126359
   4.12583407  6.03632928  2.06286210
   4.25848209  6.04262177  6.04343045
   4.17865340  6.03495772 10.22996926
   3.98827034 10.00936170  2.06003535
   4.18016375 10.22958904  6.03556826
   4.12088462 10.00870236 10.00983687
   8.11130114  2.05398715  2.05537450
   8.10891628  1.92213127  6.03442605
   8.11594992  2.06469352 10.01100677
   8.10961808  6.03370839  1.91896075
   8.11785753  6.03638616  6.03647166
   8.13420371  6.03147273  9.99221565
   8.11584406 10.00785287  2.06627539
   8.13333354  9.99207319  6.03152930
   8.11450016 10.00523513 10.00543327
   2.07104907 12.07522341  2.06029831
   2.09554186  0.02058199  6.03507725
   2.08503702 12.06614435 10.01093419
   2.08265045  3.97261585  2.06384543
   2.09806425  3.87320508  6.04779286
   2.07404928  3.95915144 10.01119866
   2.08749264  8.09770080  2.06126297
   2.10852939  8.41328360  6.02381214
   2.07695425  8.10696791 10.01612022
   6.04374298 12.07372715  2.05931441
   6.05990967  0.00300182  6.03552758
   6.04758634  0.00107420 10.00879311
   6.05488465  3.95847571  2.04481152
   6.07658873  3.95304671  6.03558615
   6.05838831  3.95601550 10.01670167
   6.05264918  8.10894949  1.91200547
   6.06203816  8.11192055  6.03794306
   6.05625212  8.10430751 10.00461090
  10.01714679 12.06954307  2.06349922
  10.01262377  0.00092528  6.02755914
  10.00563398 12.07162610 10.01467860
  10.01472185  3.95053041  1.90717833
   9.96304584  3.91320049  6.03442677
  10.17857991  3.95280636 10.01632161
  10.01981110  8.10188133  2.05765877
  10.25406388  8.13853966  6.05061988
  10.01807983  8.12159488 10.01526781
   2.07092718  2.05646481 12.07666074
   2.08269833  2.06357369  3.97522806
   2.08930334  2.05847426  8.10097049
   2.09393754  6.03354824  0.02056704
   2.09846315  6.04575385  3.87561245
   2.10115312  6.02598378  8.41421955
   2.08382664 10.00860800 12.06744572
   2.07669538 10.01229404  3.96013694
   2.08567509 10.02407655  8.10913304
   6.04370223  2.05526432 12.07522343
   6.05489956  2.04669629  3.95985687
   6.05384880  2.05019759  8.11030521
   6.06043472  6.02874894 12.07870074
   6.07697588  6.04056612  3.94918534
   6.06181767  6.04000572  8.11242583
   6.04774764 10.01671868 12.07527148
   6.05909608 10.00616542  3.95249720
   6.05541934 10.00836499  8.10473568
  10.01702299  1.90695348 12.07262582
  10.01526921  2.04783033  3.95110523
  10.01840520  2.05929518  8.10556801
  10.01441147  6.03659348 12.07044432
   9.96268202  6.02634015  3.90723913
  10.26446027  6.03728280  8.14083426
  10.00643772 10.00964319 12.07183301
  10.17629886 10.00917152  3.95947806
  10.00250682 10.15921881  8.11596201
   0.01889571  1.96156205  0.01738797
   0.04393406  2.01777447  4.00119240
   0.03352188  2.00028938  8.05163447
   0.02609708  6.01919594  0.03969995
   0.11644570  6.02080218  4.00505251
   0.32587536  5.69368234  8.50088483
   0.02677308 10.04213289 12.05254864
   0.04012821 10.14733552  3.87101899
   0.05253406 10.10044371  8.04405510
   4.02949625  2.01137981 12.07759557
   4.05435479  2.03169447  4.00818675
   4.07289221  2.01867873  8.05608565
   4.09490334  6.02774073  0.05209084
   4.04672998  6.01771760  4.06249166
   4.02446538  6.02923878  8.00592984
   4.04654050 10.04030920 12.06648632
   4.06749309 10.06034503  4.00434662
   4.06819910 10.04711701  8.05515752
   8.07327078  1.99376242 12.06221672
   8.06981962  1.98893273  3.99061448
   8.07909202  1.99649927  8.06173943
   8.07651666  6.02311628 12.05173684
   8.01917635  6.03408785  3.88842461
   8.12987322  6.02526508  8.04745521
   8.06356446 10.04316117 12.07148181
   8.09921969 10.03686281  3.99675299
   8.02777831 10.10646887  8.05259306
   0.02057070  0.00723204  1.98385428
   0.02713177  0.04814790  6.02142087
   0.02338647 12.04869584 10.04586266
   0.04875899  4.00021733  2.00498465
   0.11018712  3.99894813  6.01619297
   0.03913859  3.84436499 10.15725249
   0.03266002  8.04936282  2.00657363
   0.31342405  8.50017881  5.75130205
   0.04271783  8.05624521 10.06104052
   4.02949848 12.07141692  2.01610179
   4.09414638  0.05100344  6.02827022
   4.04685577 12.06369003 10.04700317
   4.05412901  4.00580485  2.03381461
   4.04856594  4.06241627  6.01803389
   4.06849283  4.00346706 10.06519908
   4.06979041  8.05245117  2.00864450
   4.02670023  8.00292551  6.02950971
   4.06550527  8.05363282 10.04626865
   8.07172811 12.05732026  2.01184183
   8.07586647 12.06003756  6.02424651
   8.06630136 12.07260261 10.04889735
   8.06758480  3.98892516  1.97076930
   8.02021796  3.89437909  6.03724874
   8.09616171  3.99542717 10.03743444
   8.08005152  8.05860735  1.98126182
   8.11947701  8.04780617  6.01889394
   8.04456554  8.05380669 10.07622438
   2.05376215  2.02924546  2.03419033
   2.08221773  2.00374472  6.02218886
   2.06674917  1.99240352 10.04529488
   2.08194456  6.02210639  2.00668584
  11.27382659  6.91056373  6.93592528
   2.20548859  6.04443604 10.21982836
   2.06463072 10.03904015  2.00016386
   2.20279860 10.21807813  6.04284084
   2.07439819 10.03436303 10.03483273
   6.05018832  2.01033525  2.01380500
   6.05826526  2.00461544  6.02700565
   6.05714795  2.01499971 10.04633205
   6.05858698  6.02765948  1.99022819
   6.11305095  6.02397968  6.02908801
   6.07523605  6.01874368 10.04838644
   6.05611365 10.03981097  2.00324347
   6.07404105 10.04856308  6.02105115
   6.06630742 10.04516438 10.04596472
  10.06140758  1.97758140  1.97974272
  10.07631676  2.00039456  6.02178636
  10.06979982  1.97226117 10.04439608
  10.07671627  6.02878011  1.97977920
   9.85856930  5.65850306  5.65628282
  10.10042354  6.02651160 10.07973530
  10.07184415 10.03691705  1.99394476
  10.10230773 10.10351713  6.01113750
  10.06236333 10.10992156 10.09426752
   2.04632480 12.05861871 12.06678623
   2.05966438  0.01302034  3.99451489
   2.05787417  0.01329267  8.06683334
   2.06091131  3.98951838  0.01556295
   2.07219519  4.06644298  4.06800777
   2.15794554  3.97451216  8.01798267
   2.05013025  8.06386335  0.01198546
   2.14445221  8.01854584  3.98997247
   2.04459273  8.02173532  8.00706077
   6.04610301 12.06533953 12.06904158
   6.05838312 12.06269170  4.00370189
   6.04699156 12.07520603  8.05323296
   6.05773550  3.99946154 12.06368666
   6.06553622  4.00073759  3.99729618
   6.06486615  4.01133144  8.05894189
   6.05116523  8.05029403 12.04708418
   6.06613368  8.05460820  4.00314915
   6.05729840  8.04678273  8.04716389
  10.05866557 12.04334066 12.07344886
  10.07471068  0.00457592  3.99830582
  10.06716078  0.01660969  8.05199338
  10.07369275  3.98488537 12.05637002
  10.09493675  3.91597380  3.86889430
  10.11577387  3.99230411  8.04651418
  10.07159960  8.05617925 12.06719767
  10.11897423  8.04017044  4.00018232
   9.94081145  8.31816091  8.21057029
 


--------------------------------------------------------------------------------------------------------


 k-point   1 :   0.0000 0.0000 0.0000  plane waves:   31919

 maximum and minimum number of plane-waves per node :     31919    31919

 maximum number of plane-waves:     31919
 maximum index in each direction: 
   IXMAX=   19   IYMAX=   19   IZMAX=   19
   IXMIN=  -19   IYMIN=  -19   IZMIN=  -19


 serial   3D FFT for wavefunctions
 parallel 3D FFT for charge:
    minimum data exchange during FFTs selected (reduces bandwidth)


 FFT grid for exact exchange (Hartree Fock) 
  NGX = 40; NGY = 40; NGZ = 40

 
 Radii for the augmentation spheres in the non-local exchange
 for species   1 augmentation radius   0.956 (default was   0.708)
       energy cutoff for augmentation   1600.0
 for species   2 augmentation radius   0.968 (default was   0.717)
       energy cutoff for augmentation   1600.0
 Maximum index for augmentation-charges in exchange           145
  SETUP_FOCK is finished

 total amount of memory used by VASP MPI-rank0  1353885. kBytes
=======================================================================

   base      :      30000. kBytes
[...]
      4.04634      6.02287      4.06747         0.000210     -0.000020      0.000011
      3.98235      6.03185      8.01076        -0.000431     -0.000111     -0.000109
      4.01463     10.04539     12.07488        -0.000269      0.000002      0.000009
      4.05444     10.06539      4.01261         0.000165     -0.000008      0.000025
      4.03299     10.05335      8.06346        -0.000273     -0.000016      0.000041
      8.05667      1.99353     12.06997         0.000080     -0.000002     -0.000054
      8.05570      1.98993      3.99732         0.000087     -0.000067     -0.000008
      8.05985      1.99877      8.07322         0.000037      0.000000      0.000052
      8.06140      6.02979     12.04994         0.000072     -0.000007     -0.000057
      8.00622      6.04122      3.88418         0.000027      0.000064     -0.000195
      8.11228      6.03197      8.05524         0.000197     -0.000023     -0.000012
      8.04413     10.04836     12.07846         0.000027      0.000026     -0.000005
      8.08361     10.04286      4.00322         0.000127     -0.000013      0.000022
      8.00507     10.11810      8.06293        -0.000104      0.000112      0.000075
      0.00407      0.00916      1.98994         0.000151     -0.000056      0.000075
      0.00917      0.05280      6.02893         0.000112     -0.000031      0.000030
      0.00358     12.04603     10.05435         0.000079      0.000096      0.000014
      0.03222      4.00478      2.00757         0.000221      0.000014     -0.000039
      0.08747      4.00032      6.02326         0.000009      0.000024     -0.000130
      0.03535      3.83964     10.16328         0.000080      0.000547     -0.000173
      0.01612      8.05522      2.01191         0.000150     -0.000007      0.000089
      0.29826      8.49864      5.77560         0.000248     -0.000445      0.000388
      0.02390      8.06067     10.06766         0.000039     -0.000061      0.000152
      4.01142     12.07785      2.02559         0.000097     -0.000009      0.000031
      4.07888      0.05562      6.03772         0.000086     -0.000023      0.000026
      4.01368     12.06868     10.05627        -0.000294      0.000009      0.000014
      4.04641      4.01285      2.04431         0.000155     -0.000008     -0.000001
      4.02312      4.06837      6.02818        -0.000295      0.000052      0.000115
      4.02997      4.00898     10.07263        -0.000305      0.000023     -0.000086
      4.06155      8.05701      2.01365         0.000126     -0.000003      0.000024
      4.01531      8.01000      6.03838         0.000164     -0.000004      0.000048
      4.02672      8.05740     10.05355        -0.000332     -0.000058     -0.000019
      8.05515     12.06149      2.01940         0.000105     -0.000041     -0.000005
      8.06017     12.05906      6.03364         0.000107     -0.000028      0.000033
      8.04628     12.07771     10.05943         0.000042      0.000016      0.000026
      8.05246      3.99244      1.96709         0.000038     -0.000026     -0.000116
      8.00506      3.88985      6.05170        -0.000050     -0.000230      0.000156
      8.07527      3.99944     10.04374         0.000008      0.000008     -0.000073
      8.06488      8.06595      1.97829         0.000091      0.000037     -0.000047
      8.10189      8.05313      6.02854         0.000311     -0.000036      0.000064
      8.02840      8.06114     10.08097        -0.000090      0.000052      0.000092
      2.03835      2.03549      2.04481         0.000120     -0.000026      0.000001
      2.06503      2.00740      6.03172         0.000047     -0.000034      0.000010
      2.04589      1.99140     10.05491        -0.000091      0.000086      0.000050
      2.06966      6.02935      2.01450         0.000169      0.000019      0.000018
     11.23295      6.90611      6.93345        -0.001543      0.000339     -0.000353
      2.17524      6.04650     10.22803        -0.000282     -0.000213     -0.000064
      2.04811     10.04296      2.00638         0.000043     -0.000024      0.000136
      2.18034     10.22379      6.04815         0.000044     -0.000026     -0.000117
      2.03792     10.03889     10.04178        -0.000548     -0.000033     -0.000001
      6.03340      2.01619      2.02281         0.000125     -0.000003     -0.000003
      6.04793      2.00633      6.03518         0.000024     -0.000022      0.000026
      6.03076      2.01933     10.05639        -0.000084      0.000001     -0.000032
      6.05219      6.03406      1.98837         0.000081      0.000001     -0.000066
      6.09921      6.02918      6.03734         0.000105     -0.000011      0.000052
      6.05184      6.02648     10.05530        -0.000039      0.000027     -0.000066
      6.03558     10.04539      2.00514         0.000060     -0.000005     -0.000045
      6.05595     10.05376      6.03229         0.000091     -0.000033      0.000084
      6.02331     10.05209     10.05504        -0.000409      0.000047      0.000048
     10.04556      1.97635      1.98091         0.000132     -0.000131     -0.000127
     10.05957      2.00072      6.03002         0.000095     -0.000082     -0.000031
     10.05754      1.96912     10.05516         0.000140      0.000082      0.000026
     10.06101      6.03640      1.97655         0.000128      0.000041     -0.000083
      9.83865      5.65008      5.65041        -0.000083     -0.000834     -0.000668
     10.08814      6.03334     10.08513         0.000065     -0.000010      0.000052
     10.06141     10.04200      2.00080         0.000141     -0.000004      0.000054
     10.09259     10.11373      6.01471         0.000117      0.000039      0.000022
     10.04419     10.12086     10.10348         0.000082      0.000211      0.000221
      2.02709     12.06183     12.07584         0.000015      0.000036      0.000058
      2.04536      0.02025      4.00293         0.000120     -0.000005      0.000018
      2.03740      0.01632      8.07626        -0.000033     -0.000038     -0.000021
      2.04395      3.99334      0.02858         0.000063     -0.000013      0.000047
      2.05498      4.07422      4.07624         0.000130     -0.000027     -0.000070
      2.10480      3.97225      8.02615        -0.000957     -0.000075      0.000055
      2.03190      8.06923      0.02050         0.000041     -0.000065      0.000031
      2.13472      8.02319      4.00327         0.000178     -0.000000      0.000066
      2.02309      8.03016      8.01086        -0.000004      0.000024      0.000024
      6.02393     12.07229     12.07982        -0.000003      0.000010      0.000004
      6.04114     12.06844      4.01235         0.000134     -0.000042      0.000015
      6.02226     12.08528      8.06131        -0.000110      0.000084      0.000038
      6.03631      4.00490     12.06968        -0.000004      0.000007     -0.000114
      6.05916      4.00616      4.00625         0.000127     -0.000011      0.000063
      6.02120      4.01833      8.06616        -0.000379      0.000063     -0.000031
      6.02956      8.05546     12.04591        -0.000049      0.000017     -0.000025
      6.05993      8.06044      4.00810         0.000173      0.000017      0.000054
      6.03096      8.05003      8.05622        -0.000021     -0.000054      0.000033
     10.04024     12.03882     12.08322         0.000154      0.000033      0.000069
     10.06386      0.00855      4.00524         0.000132     -0.000040      0.000006
     10.04601      0.02782      8.06066         0.000089      0.000060      0.000029
     10.06192      3.98656     12.05254         0.000116     -0.000013     -0.000052
     10.08013      3.91853      3.85978         0.000102     -0.000289     -0.000533
     10.10392      3.99513      8.05899         0.000079     -0.000015      0.000005
     10.05607      8.06324     12.07317         0.000064      0.000033      0.000043
     10.10887      8.04765      4.00871         0.000132     -0.000012      0.000002
      9.92814      8.34939      8.20964        -0.000043      0.000545      0.000551
 -----------------------------------------------------------------------------------
    total drift:                                3.785901      1.707662     -0.688784


--------------------------------------------------------------------------------------------------------



  FREE ENERGIE OF THE ION-ELECTRON SYSTEM (eV)
  ---------------------------------------------------
  free  energy   TOTEN  =     -1239.12956265 eV

  energy  without entropy=    -1239.12956265  energy(sigma->0) =    -1239.12956265
 
 d Force = 0.4237185E-05[ 0.316E-05, 0.532E-05]  d Energy = 0.1062721E-03-0.102E-03
 d Force =-0.4791231E-02[-0.481E-02,-0.477E-02]  d Ewald  =-0.4791063E-02-0.168E-06


--------------------------------------------------------------------------------------------------------


    POTLOK:  cpu time      9.9867: real time     10.0339


--------------------------------------------------------------------------------------------------------


 NEB: the previous image is higher in energy:  F
 NEB: the next image is higher in energy    :  F
 NEB: image is at an extrema
 NEB: diff energy (min, max):     0.012639 1239.129563

 NEB: Tangent
 ----------------------------------------------
     -0.02001      0.00589      0.00850
     -0.01876      0.00651      0.00759
     -0.02301      0.00570      0.00877
     -0.02017      0.00603      0.01079
     -0.01890      0.00501      0.00623
     -0.02058      0.00667      0.00669
     -0.02061      0.00682      0.00946
     -0.01679      0.00431      0.00897
     -0.01744      0.00341      0.00084
     -0.02818      0.00622      0.00809
     -0.02937      0.00559      0.00795
     -0.03303      0.00575      0.00862
     -0.03091      0.00543      0.00722
     -0.03960      0.00871      0.01041
     -0.39889      0.00908      0.00704
     -0.02242      0.00665      0.00739
     -0.03307      0.00646      0.00959
     -0.03156      0.00886      0.01077
     -0.03955      0.00539      0.00660
     -0.02155      0.00629      0.00923
     -0.04786      0.00681      0.00915
     -0.02321      0.00651      0.00678
     -0.01733      0.00955      0.01079
     -0.02435      0.00950      0.00955
     -0.02240      0.00710      0.00744
     -0.01976      0.00905      0.01000
     -0.02656      0.00492      0.01119
     -0.01800      0.00954      0.01249
     -0.02017      0.00657      0.00711
     -0.02124      0.01029      0.01159
     -0.01791      0.00603      0.01157
     -0.02864      0.00976      0.01077
     -0.01705      0.00343      0.01504
     -0.01892      0.00712      0.01774
     -0.01486      0.00802      0.00374
     -0.02605      0.00479      0.00741
     -0.03111      0.00887      0.01084
     -0.03861      0.00780      0.00795
     -0.03747      0.00793      0.01097
     -0.03617      0.00548      0.00899
     -0.02927      0.00634      0.00856
     -0.04102      0.00477      0.00916
     -0.03589      0.00741      0.01039
     -0.03267      0.00662      0.00708
     -0.42030      0.00694      0.01081
     -0.02387      0.01041      0.01299
     -0.02537      0.01788      0.00817
     -0.02517      0.00749      0.00932
     -0.02297      0.00548      0.01915
     -0.02840      0.00439      0.00756
     -0.02154      0.00602      0.00678
     -0.02229      0.00750      0.00820
     -0.01974      0.00545      0.00936
     -0.03124      0.00705      0.00870
     -0.02568      0.00611      0.01157
     -0.01957      0.00683      0.00484
     -0.03551      0.02006      0.01203
     -0.02219      0.00825      0.00853
     -0.03645      0.00665     -0.00679
     -0.04928      0.00310      0.03737
     -0.01982      0.00844      0.01034
     -0.02079      0.00815      0.00412
     -0.04761     -0.01459      0.01090
     -0.01964      0.00554      0.01146
     -0.02127      0.00587      0.00822
     -0.03320     -0.00898      0.00856
     -0.02087      0.00736      0.02047
     -0.03555      0.00758      0.02257
     -0.03665      0.00759     -0.01608
     -0.01986      0.00771      0.01125
     -0.01851      0.00768      0.00859
     -0.03757      0.03053      0.00905
     -0.02665      0.00610      0.00869
     -0.02653      0.00666      0.00844
     -0.02391      0.00617      0.01030
     -0.02279      0.00571      0.01220
     -0.01385      0.00685      0.00562
     -0.02299      0.00579      0.01157
     -0.02674      0.00786      0.01109
     -0.01583      0.01076      0.00142
     -0.02785      0.00527      0.01171
     -0.02653      0.00778      0.00951
     -0.02221      0.00530      0.01060
     -0.03888     -0.02009      0.01194
     -0.01980      0.00545      0.01174
     -0.02087      0.00650      0.01214
     -0.04295      0.01843      0.01348
     -0.03507      0.00611      0.02368
     -0.02233      0.00699      0.00865
     -0.03928      0.00929     -0.01394
     -0.02022      0.01233      0.00592
     -0.02045      0.01563      0.01070
     -0.03637      0.04136      0.00874
     -0.02122      0.00537      0.00540
     -0.02440      0.00594      0.00831
     -0.02846     -0.00889      0.00992
     -0.03201      0.00854     -0.00881
     -0.02025      0.00622      0.00756
     -0.03865      0.00624      0.03359
     -0.02737      0.00670      0.00799
     -0.02361      0.00935      0.00756
     -0.02907      0.00713      0.00950
     -0.02683      0.00555      0.00865
     -0.01347      0.00428      0.01097
     -0.00909      0.00135      0.01125
     -0.02168      0.00817      0.00798
     -0.02260      0.00774      0.00835
     -0.01975      0.01233      0.00802
     -0.05424      0.01500      0.01979
     -0.05647      0.01098      0.01787
     -0.06696      0.00628      0.02371
     -0.05776      0.01619      0.02115
     -0.05849      0.01968      0.01461
     -0.07058      0.03077      0.01053
     -0.05504      0.01485      0.02337
     -0.04403      0.01614      0.02750
     -0.06300      0.01308      0.01625
     -0.05812      0.01552      0.02210
     -0.05756      0.02005      0.02401
     -0.10862      0.01821      0.01594
     -0.06075      0.01442      0.01605
     -0.05695      0.01403      0.01856
     -0.12499      0.00600      0.00889
     -0.09754      0.01538      0.02075
     -0.05527      0.01338      0.02083
     -0.10386      0.01635      0.01859
     -0.05305      0.01684      0.02042
     -0.04845      0.01873      0.02022
     -0.05798      0.02157      0.02194
     -0.05011      0.01654      0.01995
     -0.04320      0.01559      0.02336
     -0.06839      0.01324      0.01991
     -0.05358      0.01366      0.01923
     -0.06096      0.01574      0.01845
     -0.05937      0.01243      0.02533
     -0.05200      0.01488      0.01977
     -0.05813      0.01275      0.02218
     -0.05851      0.01501      0.02044
     -0.05872      0.01351      0.01659
     -0.06778      0.00975      0.01705
     -0.04636      0.02409      0.02261
     -0.05547      0.01761      0.01976
     -0.04029      0.00767      0.02055
     -0.05869      0.01176      0.02700
     -0.05504      0.01724      0.02053
     -0.05915      0.01421      0.02065
     -0.10057      0.01597      0.01912
     -0.05593      0.01767      0.02372
     -0.11347      0.02135      0.02412
     -0.11207      0.01607      0.01448
     -0.05504      0.01222      0.02123
     -0.05892      0.01680      0.01891
     -0.10978      0.01032      0.01863
     -0.05189      0.01680      0.02009
     -0.05092      0.01637      0.02108
     -0.05687      0.01502      0.02057
     -0.04903      0.01506      0.02107
     -0.04885      0.01900      0.02878
     -0.07035      0.01468      0.01537
     -0.04972      0.01574      0.02052
     -0.06078      0.01480      0.02370
     -0.05719      0.01842      0.01867
     -0.05225      0.01486      0.02025
     -0.07043      0.01165      0.02033
     -0.06800      0.01463      0.02265
     -0.05945      0.01597      0.01808
     -0.05276      0.01872      0.00402
     -0.08634      0.00647      0.01932
     -0.05688      0.01531      0.02413
     -0.06722      0.01561      0.01414
     -0.11106      0.01233      0.01669
     -0.05674      0.01927      0.02305
     -0.05908      0.01892      0.01838
     -0.07716      0.01224      0.01877
     -0.05062      0.01460      0.02103
     -0.05376      0.01558      0.01790
     -0.06870      0.02151      0.01882
     -0.06350      0.01428      0.01488
     -0.05611      0.01549      0.02687
     -0.12509      0.01794      0.02151
     -0.04955      0.01521      0.01822
     -0.05187      0.01343      0.02219
     -0.05169      0.01850      0.02208
     -0.04989      0.01636      0.02008
     -0.04428      0.00974      0.01653
     -0.05352      0.01526      0.01783
     -0.04920      0.01566      0.02390
     -0.04925      0.01176      0.01859
     -0.05021      0.01387      0.02086
     -0.05670      0.01343      0.01964
     -0.04953      0.01860      0.01967
     -0.06498      0.00763      0.02057
     -0.05628      0.01383      0.02885
     -0.07404      0.01358      0.01280
     -0.16361     -0.00699      0.02164
     -0.05439      0.01441      0.02000
     -0.05815      0.01405      0.01521
     -0.06494      0.02503      0.02498
     -0.06242      0.01979      0.02486
     -0.05827      0.01803      0.01957
     -0.07226      0.02484      0.01713
     -0.06703      0.01622      0.01718
     -0.05761      0.01875      0.02845
     -0.13286      0.02029      0.01254
     -0.06839      0.01343      0.02004
     -0.05129      0.01327      0.02115
     -0.08234      0.00725      0.01913
     -0.05407      0.01368      0.02242
     -0.05049      0.01362      0.01777
     -0.06006      0.01415      0.02146
     -0.05178      0.01669      0.01563
     -0.04770      0.01307      0.02122
     -0.05002      0.01626      0.02528
     -0.05095      0.01548      0.02263
     -0.04854      0.01950      0.02242
     -0.05036      0.01444      0.02135

 NEB: forces: par spring, perp REAL, dneb     0.001350    0.003586    0.000000
 NEB: distance to prev, next image, angle between     0.454272    0.454542   85.923468
 NEB: projections on to tangent (spring, REAL)     0.001350    0.001154

 stress matrix after NEB project (eV)
      0.00000      0.00000      0.00000
      0.00000      0.00000      0.00000
      0.00000      0.00000      0.00000
  FORCES: max atom, RMS     0.001629    0.000261
  FORCE total and by dimension    0.003832    0.001554
  Stress total and by dimension    0.000000    0.000000
 OPT: skip step - force has converged


--------------------------------------------------------------------------------------------------------


  
 reached required accuracy - stopping structural energy minimisation
 writing wavefunctions
     LOOP+:  cpu time   1156.4836: real time   1160.6515
    4ORBIT:  cpu time      0.0000: real time      0.0000

 total amount of memory used by VASP MPI-rank0  1632259. kBytes
=======================================================================

   base      :      30000. kBytes
   nonl-proj :     114397. kBytes
   fftplans  :     141100. kBytes
   grid      :     372121. kBytes
   one-center:       1327. kBytes
   HF        :          9. kBytes
   nonlr-proj:      81935. kBytes
   wavefun   :     692052. kBytes
   fock_wrk  :     199318. kBytes
 
  
  
 General timing and accounting informations for this job:
 ========================================================
  
                  Total CPU time used (sec):    55468.211
                            User time (sec):    54290.377
                          System time (sec):     1177.835
                         Elapsed time (sec):    55689.490
  
                   Maximum memory used (kb):     3919400.
                   Average memory used (kb):          N/A
  
                          Minor page faults:      1235821
                          Major page faults:            0
                 Voluntary context switches:      2526775
