 vasp.6.4.2 20Jul23 (build May 29 2025 16:14:50) complex                         
 executed on              LinuxNV date 2025.10.29  23:43:44
 running    2 mpi-ranks, with    1 threads/rank, on    1 nodes
 distrk:  each k-point on    2 cores,    1 groups
 distr:  one band on NCORE=   1 cores,    2 groups
 OpenACC runtime initialized ...    2 GPUs detected


--------------------------------------------------------------------------------------------------------


 INCAR:
   SYSTEM = Si
   ISTART = 1
   ICHARG = 1
   ISPIN = 2
   NELM = 200
   ENCUT = 400
   PREC = Accurate
   ISMEAR = 0
   SIGMA = 0.01
   EDIFF = 1E-10
   IBRION = 2
   NSW = 500
   POTIM = 0.1
   ISIF = 2
   EDIFFG = -0.010
   ISYM = 0
   LSUBROT = .TRUE.
   LHFCALC = .TRUE.
   HFSCREEN = 0.2
   AEXX = 0.25
   PRECFOCK = Fast

 POTCAR:    PAW_PBE Li_sv 10Sep2004               
 POTCAR:    PAW_PBE F 08Apr2002                   
 -----------------------------------------------------------------------------
|                                                                             |
|           W    W    AA    RRRRR   N    N  II  N    N   GGGG   !!!           |
|           W    W   A  A   R    R  NN   N  II  NN   N  G    G  !!!           |
|           W    W  A    A  R    R  N N  N  II  N N  N  G       !!!           |
|           W WW W  AAAAAA  RRRRR   N  N N  II  N  N N  G  GGG   !            |
|           WW  WW  A    A  R   R   N   NN  II  N   NN  G    G                |
|           W    W  A    A  R    R  N    N  II  N    N   GGGG   !!!           |
|                                                                             |
|     You use a magnetic or noncollinear calculation, but did not specify     |
|     the initial magnetic moment with the MAGMOM tag. Note that a            |
|     default of 1 will be used for all atoms. This ferromagnetic setup       |
|     may break the symmetry of the crystal, in particular it may rule        |
|     out finding an antiferromagnetic solution. Thence, we recommend         |
|     setting the initial magnetic moment manually or verifying carefully     |
|     that this magnetic setup is desired.                                    |
|                                                                             |
 -----------------------------------------------------------------------------

 POTCAR:    PAW_PBE Li_sv 10Sep2004               
   SHA256 =  7e51fe1804c037e1dccc81a9c376d94d693a7559600c847f4b41960edb8ab895 Li_sv/POTCAR          
   COPYR  = (c) Copyright 10Sep2004 Georg Kresse                                                    
   COPYR  = This file is part of the software VASP. Any use, copying, and all other rights are regul
   COPYR  = If you do not have a valid VASP license, you may not use, copy or distribute this file. 
   VRHFIN =Li: 1s2s2p                                                                               
   LEXCH  = PE                                                                                      
   EATOM  =   202.7858 eV,   14.9043 Ry                                                             
                                                                                                    
   TITEL  = PAW_PBE Li_sv 10Sep2004                                                                 
   LULTRA =        F    use ultrasoft PP ?                                                          
   IUNSCR =        0    unscreen: 0-lin 1-nonlin 2-no                                               
   RPACOR =    0.000    partial core radius                                                         
   POMASS =    7.010; ZVAL   =    3.000    mass and valenz                                          
   RCORE  =    1.700    outmost cutoff radius                                                       
   RWIGS  =    2.050; RWIGS  =    1.085    wigner-seitz radius (au A)                               
   ENMAX  =  499.034; ENMIN  =  374.276 eV                                                          
   ICORE  =        2    local potential                                                             
   LCOR   =        T    correct aug charges                                                         
   LPAW   =        T    paw PP                                                                      
   EAUG   =  628.945                                                                                
   RMAX   =    1.732    core radius for proj-oper                                                   
   RAUG   =    1.300    factor for augmentation sphere                                              
   RDEP   =    1.728    radius for radial grids                                                     
   RDEPT  =    1.329    core radius for aug-charge                                                  
                                                                                                    
   Atomic configuration                                                                             
    4 entries                                                                                       
     n  l   j            E        occ.                                                              
     1  0  0.50       -51.8549   2.0000                                                             
     2  0  0.50        -2.8742   1.0000                                                             
     2  1  0.50        -1.3606   0.0000                                                             
     3  2  1.50        -1.3606   0.0000                                                             
   Description                                                                                      
     l       E           TYP  RCUT    TYP  RCUT                                                     
     0    -51.8548813     23  1.400                                                                 
     0     -2.8742052     23  1.700                                                                 
     1     -1.3605826     23  1.400                                                                 
     2     -1.3605826     23  1.400                                                                 
  local pseudopotential read in
  atomic valenz-charges read in
  non local Contribution for L=            0  read in
    real space projection operators read in
  non local Contribution for L=            0  read in
    real space projection operators read in
  non local Contribution for L=            1  read in
    real space projection operators read in
    PAW grid and wavefunctions read in
 
   number of l-projection  operators is LMAX  =            3
   number of lm-projection operators is LMMAX =            5
 
 POTCAR:    PAW_PBE F 08Apr2002                   
   SHA256 =  53c630871ac675939349fc2b976745ee17808dedc90b5bdde026bc81f0faf456 F/POTCAR              
   COPYR  = (c) Copyright 08Apr2002 Georg Kresse                                                    
   COPYR  = This file is part of the software VASP. Any use, copying, and all other rights are regul
   COPYR  = If you do not have a valid VASP license, you may not use, copy or distribute this file. 
   VRHFIN =F: s2p5                                                                                  
   LEXCH  = PE                                                                                      
   EATOM  =   659.6475 eV,   48.4827 Ry                                                             
                                                                                                    
   TITEL  = PAW_PBE F 08Apr2002                                                                     
   LULTRA =        F    use ultrasoft PP ?                                                          
   IUNSCR =        1    unscreen: 0-lin 1-nonlin 2-no                                               
   RPACOR =    1.200    partial core radius                                                         
   POMASS =   18.998; ZVAL   =    7.000    mass and valenz                                          
   RCORE  =    1.520    outmost cutoff radius                                                       
   RWIGS  =    1.500; RWIGS  =    0.794    wigner-seitz radius (au A)                               
   ENMAX  =  400.000; ENMIN  =  300.000 eV                                                          
   ICORE  =        2    local potential                                                             
   LCOR   =        T    correct aug charges                                                         
   LPAW   =        T    paw PP                                                                      
   EAUG   =  613.614                                                                                
   RMAX   =    1.555    core radius for proj-oper                                                   
   RAUG   =    1.300    factor for augmentation sphere                                              
   RDEP   =    1.539    radius for radial grids                                                     
   RDEPT  =    1.299    core radius for aug-charge                                                  
                                                                                                    
   Atomic configuration                                                                             
    4 entries                                                                                       
     n  l   j            E        occ.                                                              
     1  0  0.50      -663.3661   2.0000                                                             
     2  0  0.50       -29.8995   2.0000                                                             
     2  1  0.50       -11.1114   5.0000                                                             
     3  2  1.50       -10.8847   0.0000                                                             
   Description                                                                                      
     l       E           TYP  RCUT    TYP  RCUT                                                     
     0    -29.8995018     23  1.200                                                                 
     0     -9.5240782     23  1.200                                                                 
     1    -11.1113914     23  1.520                                                                 
     1      1.3605826     23  1.520                                                                 
     2    -10.8846608      7  1.500                                                                 
  local pseudopotential read in
  partial core-charges read in
  partial kinetic energy density read in
  atomic valenz-charges read in
  non local Contribution for L=            0  read in
    real space projection operators read in
  non local Contribution for L=            0  read in
    real space projection operators read in
  non local Contribution for L=            1  read in
    real space projection operators read in
  non local Contribution for L=            1  read in
    real space projection operators read in
    PAW grid and wavefunctions read in
 
   number of l-projection  operators is LMAX  =            4
   number of lm-projection operators is LMMAX =            8
 
 -----------------------------------------------------------------------------
|                                                                             |
|               ----> ADVICE to this user running VASP <----                  |
|                                                                             |
|     You have a (more or less) 'large supercell' and for larger cells it     |
|     might be more efficient to use real-space projection operators.         |
|     Therefore, try LREAL= Auto in the INCAR file.                           |
|     Mind: For very accurate calculation, you might also keep the            |
|     reciprocal projection scheme (i.e. LREAL=.FALSE.).                      |
|                                                                             |
 -----------------------------------------------------------------------------

  PAW_PBE Li_sv 10Sep2004               :
 energy of atom  1       EATOM= -202.7858
 kinetic energy error for atom=    0.0926 (will be added to EATOM!!)
  PAW_PBE F 08Apr2002                   :
 energy of atom  2       EATOM= -659.6475
 kinetic energy error for atom=    0.1978 (will be added to EATOM!!)
 
 
 POSCAR: Li   F
  positions in direct lattice
  velocities in cartesian coordinates
 exchange correlation table for  LEXCH =        8
   RHO(1)=    0.500       N(1)  =     2000
   RHO(2)=  100.500       N(2)  =     4000
 


--------------------------------------------------------------------------------------------------------


 ion  position               nearest neighbor table
   1  1.000  1.000  1.000- 136 2.00 109 2.00 115 2.03 190 2.03 138 2.03 208 2.03
   2  1.000  0.001  0.327- 116 1.92 136 1.95 110 2.01 191 2.04 209 2.04 137 2.08
   3  1.000  0.000  0.672- 138 1.93 117 2.01 111 2.02 210 2.03 192 2.03 137 2.09
   4  1.000  0.327  0.001- 141 1.92 109 1.95 139 2.01 193 2.04 211 2.04 112 2.08
   5  1.000  0.327  0.326- 110 1.92 139 1.93 212 2.00 194 2.03 140 2.08 113 2.08
   6  0.001  0.327  0.674- 114 1.82 111 1.93 213 2.01 141 2.02 195 2.09 140 2.12
   7  1.000  0.672  0.000- 115 1.93 144 2.01 142 2.02 214 2.03 196 2.03 112 2.09
   8  0.001  0.674  0.327- 143 1.82 142 1.94 215 2.01 116 2.02 197 2.09 113 2.12
   9  1.000  0.671  0.671- 167 1.81 144 1.97 117 1.97 198 2.03 216 2.20
  10  0.329  1.000  1.000- 190 1.94 145 2.02 118 2.02 124 2.03 147 2.03 199 2.06
  11  0.329  0.000  0.328- 191 1.94 145 1.94 125 2.02 119 2.03 200 2.06 146 2.07
  12  0.329  0.000  0.672- 147 1.93 192 1.94 120 2.02 126 2.03 201 2.05 146 2.09
  13  0.329  0.328  0.000- 193 1.94 118 1.94 150 2.02 148 2.03 202 2.06 121 2.07
  14  0.329  0.328  0.328- 119 1.93 148 1.93 194 1.96 203 2.03 149 2.06 122 2.06
  15  0.330  0.329  0.672- 195 1.89 150 1.95 120 1.95 204 2.03 123 2.06 149 2.10
  16  0.329  0.672  0.000- 124 1.93 196 1.94 151 2.02 153 2.03 205 2.05 121 2.09
  17  0.330  0.672  0.329- 197 1.89 125 1.95 151 1.95 206 2.03 152 2.06 122 2.10
  18  0.329  0.670  0.670- 198 1.95 153 1.96 126 1.96 207 2.05 123 2.07 152 2.07
  19  0.671  1.000  1.000- 208 1.94 154 2.02 127 2.02 133 2.03 156 2.03 199 2.07
  20  0.671  1.000  0.328- 209 1.94 154 1.95 128 2.02 134 2.04 155 2.06 200 2.07
  21  0.670  1.000  0.671- 156 1.94 210 1.95 135 1.98 129 2.02 201 2.08 155 2.08
  22  0.671  0.328  1.000- 211 1.94 127 1.95 157 2.01 159 2.04 130 2.06 202 2.07
  23  0.671  0.329  0.329- 128 1.96 157 1.96 212 1.97 158 2.07 131 2.07 203 2.10
  24  0.672  0.330  0.670- 159 1.95 129 1.96 213 1.97 132 2.04 158 2.06 204 2.10
  25  0.670  0.671  1.000- 133 1.94 214 1.95 162 1.99 160 2.02 205 2.08 130 2.08
  26  0.672  0.670  0.330- 134 1.95 160 1.97 215 1.97 161 2.04 131 2.06 206 2.10
  27  0.670  0.671  0.671- 216 1.81 162 1.99 135 1.99 207 2.07 132 2.08 161 2.08
  28  1.000  0.170  0.170- 110 1.95 139 1.95 163 2.03 181 2.03 136 2.04 109 2.04
  29  1.000  0.170  0.500- 140 1.96 137 2.01 111 2.02 182 2.02 110 2.03 164 2.04
  30  1.000  0.169  0.829- 141 1.87 111 1.96 165 2.04 183 2.04 138 2.04 109 2.08
  31  1.000  0.500  0.170- 113 1.96 112 2.01 142 2.02 184 2.02 139 2.03 166 2.04
  32  0.972  0.478  0.478- 167 1.73 140 1.83 113 1.83 185 1.88  77 2.58 104 2.58
  33  0.000  0.499  0.848- 114 1.81 112 1.88 186 2.02 144 2.04 141 2.13 168 2.18
  34  1.000  0.830  0.169- 116 1.87 142 1.96 169 2.04 187 2.04 115 2.04 136 2.08
  35  0.000  0.848  0.499- 143 1.81 137 1.88 188 2.02 117 2.04 116 2.13 170 2.18
  36  1.000  0.829  0.829- 144 1.95 117 1.95 189 2.03 171 2.04 115 2.07 138 2.07
  37  0.329  0.170  0.170- 163 1.95 119 1.95 148 1.95 172 2.05 145 2.06 118 2.06
  38  0.330  0.171  0.500- 164 1.95 146 2.01 149 2.01 120 2.02 173 2.03 119 2.03
  39  0.329  0.171  0.829- 165 1.94 150 1.95 120 1.96 174 2.06 118 2.06 147 2.07
  40  0.330  0.500  0.171- 166 1.95 121 2.01 122 2.01 151 2.02 175 2.03 148 2.03
  41  0.351  0.500  0.500- 176 1.84 123 1.98 152 1.98 149 1.99 122 1.99
  42  0.345  0.500  0.847- 177 1.89 121 1.91 168 1.99 153 2.03 150 2.04 123 2.24
  43  0.329  0.829  0.170- 169 1.94 125 1.95 151 1.96 178 2.06 145 2.06 124 2.07
  44  0.345  0.847  0.500- 179 1.89 146 1.91 170 1.99 126 2.03 125 2.04 152 2.24
  45  0.329  0.829  0.829- 171 1.95 153 1.96 126 1.96 180 2.05 124 2.06 147 2.06
  46  0.671  0.170  0.170- 128 1.94 157 1.94 181 1.94 154 2.07 127 2.07 172 2.08
  47  0.670  0.169  0.500- 158 1.89 182 1.96 129 2.02 128 2.04 155 2.04 173 2.09
  48  0.671  0.170  0.829- 183 1.94 159 1.95 129 1.95 127 2.06 156 2.06 174 2.07
  49  0.670  0.500  0.169- 131 1.89 184 1.96 160 2.02 157 2.04 130 2.04 175 2.09
  50  0.671  0.500  0.500- 185 1.82 132 2.01 161 2.01 176 2.02 158 2.11 131 2.11
  51  0.672  0.500  0.828- 132 1.94 186 1.95 162 2.02 159 2.04 177 2.07 130 2.09
  52  0.671  0.829  0.170- 187 1.94 134 1.95 160 1.95 133 2.06 154 2.06 178 2.07
  53  0.672  0.828  0.500- 161 1.94 188 1.95 135 2.02 134 2.04 179 2.07 155 2.09
  54  0.671  0.829  0.828- 189 1.95 162 1.96 135 1.96 133 2.07 156 2.07 180 2.08
  55  0.171  1.000  0.170- 191 1.94 145 1.95 169 2.03 163 2.03 136 2.06 190 2.07
  56  0.173  0.001  0.500- 170 1.88 146 1.98 164 1.99 192 2.03 191 2.04 137 2.08
  57  0.171  1.000  0.829- 147 1.94 192 1.95 165 2.02 171 2.04 190 2.06 138 2.06
  58  0.171  0.328  0.170- 163 1.94 148 1.94 194 2.01 193 2.04 139 2.04 166 2.06
  59  0.172  0.321  0.501- 164 1.87 149 1.91 195 1.98 140 1.99 194 2.00
  60  0.171  0.328  0.830- 165 1.95 150 1.97 195 2.00 193 2.07 141 2.08 168 2.09
  61  0.171  0.671  0.170- 197 1.92 169 1.94 151 1.95 196 2.04 142 2.06 166 2.09
  62  0.173  0.697  0.499- 170 1.81 143 1.81 152 1.94 198 2.04 197 2.10
  63  0.172  0.671  0.830- 171 1.94 153 1.96 198 1.99 144 2.05 168 2.07 196 2.07
  64  0.500  1.000  0.170- 200 1.94 154 2.01 172 2.02 145 2.03 178 2.03 199 2.07
  65  0.501  0.001  0.500- 146 1.99 155 2.00 173 2.01 201 2.02 200 2.03 179 2.04
  66  0.500  1.000  0.829- 201 1.96 156 2.01 174 2.02 180 2.03 147 2.03 199 2.06
  67  0.500  0.328  0.171- 203 1.95 172 1.95 157 2.01 148 2.04 175 2.06 202 2.07
  68  0.501  0.327  0.500- 173 1.93 158 1.95 204 2.02 203 2.03 176 2.07 149 2.08
  69  0.500  0.328  0.829- 174 1.94 204 1.96 150 2.01 159 2.02 202 2.06 177 2.07
  70  0.500  0.671  0.171- 178 1.94 206 1.95 151 2.02 160 2.02 205 2.06 175 2.07
  71  0.501  0.672  0.500- 179 1.94 207 2.01 206 2.02 161 2.04 152 2.07 176 2.09
  72  0.500  0.672  0.829- 180 1.94 207 1.97 162 1.97 153 2.01 205 2.07 177 2.09
  73  0.829  1.000  0.170- 209 1.95 154 1.96 181 2.01 187 2.03 208 2.06 136 2.07
  74  0.828  0.000  0.500- 155 1.94 188 2.00 182 2.02 210 2.02 209 2.03 137 2.08
  75  0.828  1.000  0.829- 156 1.96 210 1.96 189 1.98 183 2.01 208 2.06 138 2.08
  76  0.828  0.328  0.169- 212 1.88 181 1.96 157 1.96 211 2.03 184 2.07 139 2.09
  77  0.825  0.325  0.499- 185 1.80 182 1.91 158 1.97 213 2.02 212 2.11 140 2.20  32 2.58
  78  0.829  0.328  0.829- 159 1.96 183 1.96 213 1.97 141 2.05 186 2.06 211 2.08
  79  0.829  0.671  0.170- 187 1.94 215 1.95 160 1.95 214 2.06 142 2.08 184 2.08
  80  0.849  0.674  0.501- 167 1.81 188 1.96 215 2.05 161 2.17 143 2.19 216 2.24
  81  0.828  0.672  0.832- 216 1.80 189 1.99 162 1.99 214 2.03 186 2.09 144 2.10
  82  0.171  0.170  1.000- 193 1.94 118 1.95 165 2.03 163 2.03 109 2.06 190 2.07
  83  0.171  0.170  0.328- 163 1.94 119 1.94 194 2.01 191 2.04 110 2.04 164 2.06
  84  0.171  0.170  0.671- 195 1.92 165 1.94 120 1.95 192 2.04 111 2.06 164 2.09
  85  0.173  0.500  0.001- 168 1.88 121 1.98 166 1.99 196 2.03 193 2.04 112 2.08
  86  0.172  0.501  0.321- 166 1.88 122 1.91 197 1.98 113 1.99 194 2.00
  87  0.173  0.499  0.697- 168 1.81 114 1.81 123 1.94 198 2.04 195 2.10
  88  0.171  0.829  1.000- 124 1.94 196 1.95 169 2.02 171 2.04 190 2.06 115 2.06
  89  0.171  0.830  0.328- 169 1.95 125 1.97 197 2.00 191 2.07 116 2.08 170 2.09
  90  0.172  0.830  0.671- 171 1.94 126 1.96 198 1.99 117 2.05 170 2.07 192 2.07
  91  0.500  0.171  1.000- 202 1.94 127 2.01 172 2.02 118 2.03 174 2.03 199 2.07
  92  0.500  0.171  0.328- 203 1.95 172 1.95 128 2.01 119 2.04 173 2.06 200 2.07
  93  0.500  0.171  0.671- 174 1.94 204 1.96 120 2.02 129 2.02 201 2.06 173 2.07
  94  0.501  0.500  0.001- 121 1.99 130 2.00 175 2.01 205 2.02 202 2.03 177 2.04
  95  0.501  0.500  0.327- 175 1.93 131 1.95 206 2.02 203 2.03 176 2.07 122 2.08
  96  0.501  0.500  0.672- 177 1.94 207 2.01 204 2.02 132 2.04 123 2.07 176 2.09
  97  0.500  0.829  1.000- 205 1.96 133 2.01 178 2.02 180 2.03 124 2.03 199 2.06
  98  0.500  0.829  0.328- 178 1.94 206 1.95 125 2.01 134 2.02 200 2.06 179 2.07
  99  0.500  0.829  0.672- 180 1.94 207 1.96 135 1.97 126 2.01 201 2.07 179 2.09
 100  0.829  0.170  1.000- 211 1.95 127 1.96 181 2.00 183 2.03 208 2.06 109 2.07
 101  0.828  0.169  0.328- 212 1.88 181 1.96 128 1.96 209 2.03 182 2.07 110 2.09
 102  0.829  0.171  0.671- 183 1.94 213 1.95 129 1.95 210 2.06 111 2.08 182 2.08
 103  0.828  0.500  0.000- 130 1.94 186 2.00 184 2.02 214 2.02 211 2.03 112 2.08
 104  0.825  0.499  0.325- 185 1.80 184 1.91 131 1.97 215 2.02 212 2.11 113 2.20  32 2.58
 105  0.849  0.501  0.674- 167 1.81 186 1.96 213 2.05 132 2.17 114 2.19 216 2.25
 106  0.828  0.829  1.000- 133 1.96 214 1.96 189 1.98 187 2.01 208 2.06 115 2.08
 107  0.829  0.829  0.328- 134 1.96 187 1.96 215 1.97 116 2.06 188 2.06 209 2.08
 108  0.828  0.832  0.672- 216 1.80 189 1.98 135 1.99 210 2.03 188 2.09 117 2.10
 109  1.000  0.165  0.001-   4 1.95   1 2.00  28 2.04  82 2.06 100 2.07  30 2.08
 110  0.002  0.167  0.332-   5 1.92  28 1.95   2 2.01  29 2.03  83 2.04 101 2.09
 111  0.001  0.167  0.667-   6 1.93  30 1.96   3 2.02  29 2.02  84 2.06 102 2.08
 112  0.000  0.499  0.004-  33 1.88  31 2.01  85 2.08   4 2.08 103 2.08   7 2.09
 113  0.007  0.498  0.332-  32 1.83  31 1.96  86 1.99   5 2.08   8 2.12 104 2.20
 114  0.026  0.473  0.703-  33 1.81  87 1.81   6 1.82 105 2.19
 115  0.000  0.832  1.000-   7 1.93   1 2.03  34 2.04  88 2.06  36 2.07 106 2.08
 116  0.999  0.841  0.323-  34 1.87   2 1.92   8 2.02 107 2.06  89 2.08  35 2.13
 117  0.002  0.834  0.667-  36 1.95   9 1.97   3 2.01  35 2.04  90 2.05 108 2.10
 118  0.332  0.167  1.000-  13 1.94  82 1.95  10 2.02  91 2.03  37 2.06  39 2.06
 119  0.331  0.168  0.332-  14 1.93  83 1.94  37 1.95  38 2.03  11 2.03  92 2.04
 120  0.333  0.167  0.667-  84 1.95  15 1.95  39 1.96  38 2.02  93 2.02  12 2.02
 121  0.336  0.499  0.005-  42 1.91  85 1.98  94 1.99  40 2.01  13 2.07  16 2.09
 122  0.329  0.498  0.337-  86 1.91  41 1.99  40 2.01  14 2.06  95 2.08  17 2.10
 123  0.330  0.499  0.663-  87 1.94  41 1.98  15 2.06  96 2.07  18 2.07  42 2.24
 124  0.332  0.832  0.999-  16 1.93  88 1.94  10 2.03  97 2.03  45 2.06  43 2.07
 125  0.334  0.833  0.332-  43 1.95  17 1.95  89 1.97  98 2.01  11 2.02  44 2.04
 126  0.334  0.832  0.667-  18 1.96  45 1.96  90 1.96  99 2.01  44 2.03  12 2.03
 127  0.667  0.167  0.999-  22 1.95 100 1.96  91 2.01  19 2.02  48 2.06  46 2.07
 128  0.666  0.166  0.331-  46 1.94 101 1.96  23 1.96  92 2.01  20 2.02  47 2.04
 129  0.667  0.167  0.667- 102 1.95  48 1.95  24 1.96  21 2.02  93 2.02  47 2.02
 130  0.667  0.499  0.000- 103 1.94  94 2.00  49 2.04  22 2.06  25 2.08  51 2.09
 131  0.662  0.500  0.325-  49 1.89  95 1.95 104 1.97  26 2.06  23 2.07  50 2.11
 132  0.670  0.499  0.667-  51 1.94  50 2.01  96 2.04  24 2.04  27 2.08 105 2.17
 133  0.666  0.832  1.000-  25 1.94 106 1.96  97 2.01  19 2.03  52 2.06  54 2.07
 134  0.668  0.831  0.331-  52 1.95  26 1.95 107 1.96  98 2.02  20 2.04  53 2.04
 135  0.663  0.836  0.667-  54 1.96  99 1.97  21 1.98 108 1.99  27 1.99  53 2.02
 136  1.000  0.002  0.165-   2 1.95   1 2.00  28 2.04  55 2.06  73 2.07  34 2.08
 137  0.000  0.004  0.499-  35 1.88  29 2.01  56 2.08   2 2.08  74 2.08   3 2.09
 138  0.000  1.000  0.832-   3 1.93   1 2.03  30 2.04  57 2.06  36 2.07  75 2.08
 139  0.002  0.332  0.167-   5 1.93  28 1.95   4 2.01  31 2.03  58 2.04  76 2.09
 140  0.007  0.332  0.498-  32 1.83  29 1.96  59 1.99   5 2.08   6 2.12  77 2.20
 141  0.999  0.323  0.841-  30 1.87   4 1.92   6 2.02  78 2.05  60 2.08  33 2.13
 142  0.001  0.667  0.167-   8 1.94  34 1.96   7 2.02  31 2.02  61 2.06  79 2.08
 143  0.026  0.703  0.473-  35 1.81  62 1.81   8 1.82  80 2.19
 144  0.002  0.667  0.834-  36 1.95   9 1.97   7 2.01  33 2.04  63 2.05  81 2.10
 145  0.332  1.000  0.167-  11 1.94  55 1.95  10 2.02  64 2.03  37 2.06  43 2.06
 146  0.336  0.005  0.499-  44 1.91  56 1.98  65 1.99  38 2.01  11 2.07  12 2.09
 147  0.332  0.999  0.832-  12 1.93  57 1.94  66 2.03  10 2.03  45 2.06  39 2.07
 148  0.331  0.332  0.168-  14 1.93  58 1.94  37 1.95  40 2.03  13 2.03  67 2.04
 149  0.329  0.337  0.498-  59 1.91  41 1.99  38 2.01  14 2.06  68 2.08  15 2.10
 150  0.334  0.332  0.833-  39 1.95  15 1.95  60 1.97  69 2.01  13 2.02  42 2.04
 151  0.333  0.667  0.167-  61 1.95  17 1.95  43 1.96  16 2.02  70 2.02  40 2.02
 152  0.330  0.663  0.499-  62 1.94  41 1.98  17 2.06  71 2.07  18 2.07  44 2.24
 153  0.334  0.667  0.832-  18 1.96  45 1.96  63 1.96  72 2.01  42 2.03  16 2.03
 154  0.667  0.999  0.167-  20 1.95  73 1.96  64 2.01  19 2.02  52 2.06  46 2.07
 155  0.667  0.001  0.499-  74 1.94  65 2.00  47 2.04  20 2.06  21 2.08  53 2.09
 156  0.666  0.000  0.832-  21 1.94  75 1.96  66 2.01  19 2.03  48 2.06  54 2.07
 157  0.666  0.331  0.166-  46 1.94  76 1.96  23 1.96  67 2.01  22 2.01  49 2.04
 158  0.662  0.326  0.499-  47 1.89  68 1.95  77 1.97  24 2.06  23 2.07  50 2.11
 159  0.668  0.331  0.831-  48 1.95  24 1.95  78 1.96  69 2.02  22 2.04  51 2.04
 160  0.667  0.667  0.167-  79 1.95  52 1.95  26 1.97  25 2.02  70 2.02  49 2.02
 161  0.669  0.667  0.498-  53 1.94  50 2.01  71 2.04  26 2.04  27 2.08  80 2.17
 162  0.663  0.667  0.836-  54 1.96  72 1.97  25 1.99  81 1.99  27 1.99  51 2.02
 163  0.168  0.168  0.168-  58 1.94  83 1.94  37 1.95  28 2.03  82 2.03  55 2.03
 164  0.169  0.166  0.498-  59 1.87  38 1.95  56 1.99  29 2.04  83 2.06  84 2.09
 165  0.169  0.167  0.832-  84 1.94  39 1.94  60 1.95  57 2.02  82 2.03  30 2.04
 166  0.169  0.499  0.166-  86 1.88  40 1.95  85 1.99  31 2.04  58 2.06  61 2.09
 167  0.934  0.576  0.576-  32 1.73 105 1.81  80 1.81   9 1.81
 168  0.181  0.501  0.846-  87 1.81  85 1.88  42 1.99  63 2.07  60 2.09  33 2.18
 169  0.169  0.832  0.167-  61 1.94  43 1.94  89 1.95  88 2.02  55 2.03  34 2.04
 170  0.181  0.846  0.500-  62 1.81  56 1.88  44 1.99  90 2.07  89 2.09  35 2.18
 171  0.168  0.831  0.831-  90 1.94  63 1.94  45 1.95  36 2.04  57 2.04  88 2.04
 172  0.499  0.167  0.167-  67 1.95  92 1.95  91 2.02  64 2.02  37 2.05  46 2.08
 173  0.497  0.168  0.499-  68 1.93  65 2.01  38 2.03  92 2.06  93 2.07  47 2.09
 174  0.499  0.167  0.831-  69 1.94  93 1.94  66 2.02  91 2.03  39 2.06  48 2.07
 175  0.497  0.499  0.168-  95 1.93  94 2.01  40 2.03  67 2.06  70 2.07  49 2.09
 176  0.504  0.499  0.499-  41 1.84  50 2.02  95 2.07  68 2.07  71 2.09  96 2.09
 177  0.501  0.499  0.832-  42 1.89  96 1.94  94 2.04  69 2.07  51 2.07  72 2.09
 178  0.499  0.831  0.167-  98 1.94  70 1.94  97 2.02  64 2.03  43 2.06  52 2.07
 179  0.501  0.832  0.499-  44 1.89  71 1.94  65 2.04  98 2.07  53 2.07  99 2.09
 180  0.499  0.832  0.832-  99 1.94  72 1.94  66 2.03  97 2.03  45 2.05  54 2.08
 181  0.831  0.166  0.166-  46 1.94  76 1.96 101 1.96 100 2.00  73 2.01  28 2.03
 182  0.833  0.167  0.499-  77 1.91  47 1.96  74 2.02  29 2.02 101 2.07 102 2.08
 183  0.831  0.166  0.831- 102 1.94  48 1.94  78 1.96  75 2.01 100 2.03  30 2.04
 184  0.833  0.499  0.167- 104 1.91  49 1.96 103 2.02  31 2.02  76 2.07  79 2.08
 185  0.816  0.471  0.471- 104 1.80  77 1.80  50 1.82  32 1.88
 186  0.833  0.499  0.835-  51 1.95 105 1.96 103 2.00  33 2.02  78 2.06  81 2.09
 187  0.831  0.831  0.166-  79 1.94  52 1.94 107 1.96 106 2.01  73 2.03  34 2.04
 188  0.833  0.835  0.499-  53 1.95  80 1.96  74 2.00  35 2.02 107 2.06 108 2.09
 189  0.832  0.836  0.836-  54 1.95  75 1.98 106 1.98 108 1.98  81 1.99  36 2.03
 190  0.168  0.999  0.999-  10 1.94   1 2.03  57 2.06  88 2.06  82 2.07  55 2.07
 191  0.168  0.001  0.331-  11 1.94  55 1.94   2 2.04  83 2.04  56 2.04  89 2.07
 192  0.168  0.001  0.668-  12 1.94  57 1.95   3 2.03  56 2.03  84 2.04  90 2.07
 193  0.168  0.331  0.001-  13 1.94  82 1.94   4 2.04  58 2.04  85 2.04  60 2.07
 194  0.167  0.336  0.336-  14 1.96  86 2.00  59 2.00  58 2.01  83 2.01   5 2.03
 195  0.174  0.329  0.664-  15 1.89  84 1.92  59 1.98  60 2.00   6 2.09  87 2.10
 196  0.168  0.668  0.001-  16 1.94  88 1.95   7 2.03  85 2.03  61 2.04  63 2.07
 197  0.174  0.664  0.329-  17 1.89  61 1.92  86 1.98  89 2.00   8 2.09  62 2.10
 198  0.168  0.665  0.665-  18 1.95  90 1.99  63 1.99   9 2.03  62 2.04  87 2.04
 199  0.499  0.999  0.999-  10 2.06  66 2.06  97 2.06  91 2.07  64 2.07  19 2.07
 200  0.499  0.999  0.331-  64 1.94  65 2.03  11 2.06  98 2.06  20 2.07  92 2.07
 201  0.498  0.000  0.667-  66 1.96  65 2.02  12 2.05  93 2.06  99 2.07  21 2.08
 202  0.499  0.332  0.999-  91 1.94  94 2.03  13 2.06  69 2.06  22 2.07  67 2.07
 203  0.497  0.332  0.332-  67 1.95  92 1.95  95 2.03  68 2.03  14 2.03  23 2.10
 204  0.498  0.332  0.667-  69 1.96  93 1.96  68 2.02  96 2.02  15 2.03  24 2.10
 205  0.499  0.667  0.000-  97 1.96  94 2.02  16 2.05  70 2.06  72 2.07  25 2.08
 206  0.498  0.667  0.332-  98 1.95  70 1.95  95 2.02  71 2.02  17 2.03  26 2.10
 207  0.499  0.666  0.666-  99 1.96  72 1.97  71 2.01  96 2.01  18 2.05  27 2.07
 208  0.831  1.000  1.000-  19 1.94   1 2.03 100 2.06  73 2.06  75 2.06 106 2.06
 209  0.831  0.001  0.331-  20 1.94  73 1.95 101 2.03  74 2.03   2 2.04 107 2.08
 210  0.832  0.000  0.667-  21 1.95  75 1.96  74 2.02   3 2.03 108 2.03 102 2.06
 211  0.831  0.331  0.001-  22 1.94 100 1.95  76 2.03 103 2.03   4 2.04  78 2.08
 212  0.834  0.325  0.325-  76 1.88 101 1.88  23 1.97   5 2.00 104 2.11  77 2.11
 213  0.835  0.332  0.666- 102 1.95  78 1.97  24 1.97   6 2.01  77 2.02 105 2.05
 214  0.832  0.667  0.000-  25 1.95 106 1.96 103 2.02   7 2.03  81 2.03  79 2.06
 215  0.835  0.666  0.332-  79 1.95 107 1.97  26 1.97   8 2.01 104 2.02  80 2.05
 216  0.819  0.684  0.684- 108 1.80  81 1.80  27 1.81   9 2.20  80 2.24 105 2.25
 

IMPORTANT INFORMATION: All symmetrisations will be switched off!
NOSYMM: (Re-)initialisation of all symmetry stuff for point group C_1.


----------------------------------------------------------------------------------------

                                     Primitive cell                                     

  volume of cell :    1762.3095

  direct lattice vectors                    reciprocal lattice vectors
    12.078900337  0.000000000  0.000000000     0.082788993  0.000000000  0.000000000
     0.000000000 12.078900337  0.000000000     0.000000000  0.082788993  0.000000000
     0.000000000  0.000000000 12.078900337     0.000000000  0.000000000  0.082788993

  length of vectors
    12.078900337 12.078900337 12.078900337     0.082788993  0.082788993  0.082788993

  position of ions in fractional coordinates (direct lattice)
     0.999693894  0.999869032  0.999842779
     0.999881460  0.000549257  0.326774074
     0.999970976  0.000278652  0.671864918
     0.999882722  0.326800041  0.000521846
     0.999609997  0.326505815  0.326480536
     0.001074558  0.327336253  0.674066751
     0.999964718  0.671892714  0.000246779
     0.001072778  0.674087547  0.327305713
     0.999752731  0.671431619  0.671387221
     0.328669208  0.999724755  0.999700432
     0.328773018  0.000273527  0.327685151
     0.328968455  0.000356935  0.671587565
     0.328774242  0.327713728  0.000249889
     0.329139270  0.328461927  0.328429722
     0.329856278  0.328929580  0.671696101
     0.328967176  0.671616439  0.000330733
     0.329849264  0.671726897  0.328893981
     0.328755712  0.670268417  0.670219647
     0.670723439  0.999684189  0.999658299
     0.670601024  0.999687323  0.328256620
     0.670265847  0.999840965  0.670930224
     0.670599620  0.328288413  0.999659643
     0.671377097  0.328664569  0.328626624
     0.671633897  0.329693924  0.669926088
     0.670280558  0.670967111  0.999805423
     0.671634471  0.669973949  0.329647846
     0.670248292  0.670834712  0.670788214
     0.999674895  0.169983096  0.169937686
     0.999823292  0.170161550  0.499737655
     0.999791209  0.169063105  0.829484006
     0.999822191  0.499763474  0.170118906
     0.971663057  0.478445123  0.478411125
     0.000050171  0.499099043  0.848176272
     0.999791062  0.829518886  0.169007504
     0.000047626  0.848212497  0.499076891
     0.999548430  0.828650915  0.828618120
     0.328861913  0.170441546  0.170403299
     0.329690670  0.170825214  0.499778830
     0.329063856  0.170523768  0.828778492
     0.329691086  0.499804520  0.170793211
     0.351332490  0.500353854  0.500326225
     0.345288627  0.499710450  0.847148665
     0.329062472  0.828809920  0.170484815
     0.345284067  0.847173613  0.499684554
     0.329294899  0.828827274  0.828795285
     0.670593410  0.170334185  0.170292276
     0.670188306  0.169336404  0.499606828
     0.670567166  0.170357374  0.828635349
     0.670189672  0.499632835  0.169277122
     0.670998075  0.499865778  0.499840443
     0.672253449  0.499982757  0.827507839
     0.670567359  0.828668617  0.170312251
     0.672253717  0.827534898  0.499956251
     0.670936268  0.828522156  0.828488689
     0.170593612  0.999787389  0.170355746
     0.172529380  0.001348002  0.499623772
     0.170903004  0.999826039  0.828873633
     0.170745359  0.328379444  0.169944582
     0.171581012  0.321439513  0.500748720
     0.170831032  0.328400212  0.829550950
     0.171384006  0.671339189  0.169685929
     0.173404349  0.696645689  0.499448623
     0.171520125  0.670658254  0.829806838
     0.499787428  0.999728030  0.170471415
     0.501147284  0.001204185  0.499680537
     0.499829599  0.999738667  0.828520601
     0.499805669  0.328415694  0.170695016
     0.500739220  0.327314539  0.499612282
     0.500354843  0.327660972  0.828535672
     0.499818520  0.670685375  0.170630989
     0.500921462  0.671655711  0.499632201
     0.500232035  0.671762402  0.828759800
     0.828586459  0.999731217  0.170124701
     0.827647446  0.000230762  0.499550786
     0.828299323  0.999867407  0.829155188
     0.828333744  0.327691004  0.168777595
     0.825001803  0.324911752  0.499439932
     0.829446878  0.328372811  0.828889272
     0.828724186  0.670936273  0.170499903
     0.849171622  0.673719079  0.500570823
     0.827607347  0.671977830  0.831823481
     0.170594562  0.170397403  0.999762762
     0.170745894  0.169985837  0.328345667
     0.171388509  0.169737970  0.671306928
     0.172530503  0.499648463  0.001318199
     0.171577554  0.500775608  0.321401711
     0.173414317  0.499470146  0.696606100
     0.170903006  0.828906601  0.999799891
     0.170826955  0.829587462  0.328366557
     0.171518786  0.829854792  0.670618538
     0.499787568  0.170511418  0.999703669
     0.499805728  0.170731163  0.328383379
     0.499818402  0.170668919  0.670649211
     0.501147976  0.499706576  0.001178957
     0.500741824  0.499638896  0.327286782
     0.500921436  0.499661118  0.671622564
     0.499829926  0.828549392  0.999712723
     0.500353473  0.828567504  0.327632713
     0.500230733  0.828795809  0.671732462
     0.828585832  0.170167798  0.999704163
     0.828333369  0.168848060  0.327660406
     0.828722111  0.170541236  0.670900043
     0.827650227  0.499585104  0.000198728
     0.825000492  0.499463032  0.324876249
     0.849174171  0.500574765  0.673688038
     0.828300630  0.829181862  0.999833413
     0.829448491  0.828923105  0.328342832
     0.827605618  0.832011524  0.671943185
     0.999910524  0.165293625  0.001478589
     0.001509627  0.167266341  0.331567350
     0.000545914  0.167326367  0.666847075
     0.000178800  0.499316647  0.003984173
     0.007194050  0.498462648  0.332130056
     0.026153854  0.473406986  0.703230176
     0.000303665  0.831874953  0.999911140
     0.999046014  0.841493078  0.323127455
     0.001552168  0.834215856  0.667030330
     0.331824473  0.166906095  0.999615612
     0.331190462  0.168452808  0.331745302
     0.332795455  0.167393450  0.666804942
     0.336131619  0.499022922  0.004623599
     0.328702084  0.498428032  0.337142415
     0.329993638  0.499119854  0.662580509
     0.331802462  0.831704120  0.999257566
     0.333964437  0.833135941  0.331749594
     0.333978495  0.832151486  0.666882573
     0.666539465  0.166996184  0.998954191
     0.666138597  0.166442299  0.330922022
     0.667177017  0.167117889  0.667016132
     0.666851420  0.498724437  0.000449468
     0.662193665  0.499542145  0.325445961
     0.669500940  0.498511425  0.666520270
     0.666405588  0.831753578  0.999951047
     0.667531808  0.831176009  0.331311086
     0.662981458  0.835776157  0.666912009
     0.999911370  0.001544371  0.165223410
     0.000178209  0.004049933  0.499244364
     0.000302747  0.999990383  0.831815962
     0.001511136  0.331639745  0.167198877
     0.007198138  0.332182377  0.498381082
     0.999035473  0.323195050  0.841436955
     0.000542691  0.666911167  0.167257903
     0.026124150  0.703280450  0.473373398
     0.001540925  0.667098358  0.834114166
     0.331824153  0.999683702  0.166836024
     0.336125967  0.004677497  0.498952507
     0.331801750  0.999328840  0.831648017
     0.331189026  0.331813073  0.168388106
     0.328707095  0.337207421  0.498347964
     0.333970243  0.331822263  0.833070860
     0.332789398  0.666868430  0.167324428
     0.329993496  0.662668148  0.499043746
     0.333980681  0.666949647  0.832074901
     0.666538378  0.999028453  0.166923687
     0.666846357  0.000536091  0.498649286
     0.666404303  0.000031778  0.831686767
     0.666139415  0.330993577  0.166362028
     0.662190034  0.325521407  0.499474005
     0.667535790  0.331387270  0.831105129
     0.667179337  0.667082713  0.167040149
     0.669483793  0.666588284  0.498426059
     0.662999519  0.666983445  0.835673381
     0.167841609  0.168066877  0.167996928
     0.168641269  0.166265874  0.498440827
     0.168504251  0.167015346  0.831803865
     0.168637751  0.498513841  0.166202294
     0.933974480  0.576102329  0.576083305
     0.180594717  0.500505502  0.846100157
     0.168502861  0.831867120  0.166940423
     0.180579899  0.846153843  0.500428774
     0.168247207  0.830966392  0.830897739
     0.498614003  0.167096440  0.167026762
     0.497476115  0.167627549  0.498917486
     0.499342549  0.167056566  0.831338681
     0.497478769  0.498986296  0.167561518
     0.503525956  0.499056643  0.498985325
     0.501149028  0.498651302  0.832317413
     0.499341520  0.831400612  0.166985842
     0.501146114  0.832388058  0.498574650
     0.498665730  0.832021537  0.831958249
     0.831384231  0.165648000  0.165571120
     0.832603152  0.167019099  0.499003859
     0.831032486  0.166363591  0.831326191
     0.832603936  0.499077217  0.166945101
     0.815993103  0.470946151  0.470890521
     0.833327272  0.498927127  0.834914863
     0.831033029  0.831391555  0.166291982
     0.833321228  0.835011048  0.498829173
     0.831953879  0.836243757  0.836162527
     0.167685841  0.999060262  0.998991074
     0.168455963  0.001274093  0.330831288
     0.168100328  0.001166148  0.667773798
     0.168457130  0.330901189  0.001200419
     0.167457019  0.336186753  0.336115707
     0.173730105  0.328640185  0.664308965
     0.168095627  0.667838892  0.001086829
     0.173712816  0.664378622  0.328578195
     0.167838583  0.664924010  0.664847887
     0.498966215  0.999363857  0.999295290
     0.499310926  0.999255307  0.331446236
     0.498496263  0.000156893  0.666611687
     0.499311439  0.331515347  0.999181197
     0.497219180  0.331910169  0.331842175
     0.498006010  0.332482976  0.666760826
     0.498504703  0.666672688  0.000075077
     0.498000541  0.666826226  0.332410313
     0.498746729  0.666238898  0.666165479
     0.831300716  0.999837803  0.999767928
     0.831131924  0.000789507  0.331314128
     0.831935931  0.000195127  0.666849856
     0.831131216  0.331389429  0.000708059
     0.834026251  0.324737388  0.324656820
     0.834814810  0.331831997  0.665915185
     0.831939534  0.666918758  0.000103612
     0.834812966  0.665980743  0.331768031
     0.818749237  0.683712729  0.683534203

  ion indices of the primitive-cell ions
   primitive index   ion index
                 1           1
                 2           2
                 3           3
                 4           4
                 5           5
                 6           6
                 7           7
                 8           8
                 9           9
                10          10
                11          11
                12          12
                13          13
                14          14
                15          15
                16          16
                17          17
                18          18
                19          19
                20          20
                21          21
                22          22
                23          23
                24          24
                25          25
                26          26
                27          27
                28          28
                29          29
                30          30
                31          31
                32          32
                33          33
                34          34
                35          35
                36          36
                37          37
                38          38
                39          39
                40          40
                41          41
                42          42
                43          43
                44          44
                45          45
                46          46
                47          47
                48          48
                49          49
                50          50
                51          51
                52          52
                53          53
                54          54
                55          55
                56          56
                57          57
                58          58
                59          59
                60          60
                61          61
                62          62
                63          63
                64          64
                65          65
                66          66
                67          67
                68          68
                69          69
                70          70
                71          71
                72          72
                73          73
                74          74
                75          75
                76          76
                77          77
                78          78
                79          79
                80          80
                81          81
                82          82
                83          83
                84          84
                85          85
                86          86
                87          87
                88          88
                89          89
                90          90
                91          91
                92          92
                93          93
                94          94
                95          95
                96          96
                97          97
                98          98
                99          99
               100         100
               101         101
               102         102
               103         103
               104         104
               105         105
               106         106
               107         107
               108         108
               109         109
               110         110
               111         111
               112         112
               113         113
               114         114
               115         115
               116         116
               117         117
               118         118
               119         119
               120         120
               121         121
               122         122
               123         123
               124         124
               125         125
               126         126
               127         127
               128         128
               129         129
               130         130
               131         131
               132         132
               133         133
               134         134
               135         135
               136         136
               137         137
               138         138
               139         139
               140         140
               141         141
               142         142
               143         143
               144         144
               145         145
               146         146
               147         147
               148         148
               149         149
               150         150
               151         151
               152         152
               153         153
               154         154
               155         155
               156         156
               157         157
               158         158
               159         159
               160         160
               161         161
               162         162
               163         163
               164         164
               165         165
               166         166
               167         167
               168         168
               169         169
               170         170
               171         171
               172         172
               173         173
               174         174
               175         175
               176         176
               177         177
               178         178
               179         179
               180         180
               181         181
               182         182
               183         183
               184         184
               185         185
               186         186
               187         187
               188         188
               189         189
               190         190
               191         191
               192         192
               193         193
               194         194
               195         195
               196         196
               197         197
               198         198
               199         199
               200         200
               201         201
               202         202
               203         203
               204         204
               205         205
               206         206
               207         207
               208         208
               209         209
               210         210
               211         211
               212         212
               213         213
               214         214
               215         215
               216         216

----------------------------------------------------------------------------------------

 
 
 KPOINTS: Gamma-point only                        

Automatic generation of k-mesh.
 Grid dimensions read from file:
 generate k-points for:    1    1    1

 Generating k-lattice:

  Cartesian coordinates                     Fractional coordinates (reciprocal lattice)
     0.082788993  0.000000000  0.000000000     1.000000000  0.000000000  0.000000000
     0.000000000  0.082788993  0.000000000     0.000000000  1.000000000  0.000000000
     0.000000000  0.000000000  0.082788993     0.000000000  0.000000000  1.000000000

  Length of vectors
     0.082788993  0.082788993  0.082788993

  Shift w.r.t. Gamma in fractional coordinates (k-lattice)
     0.000000000  0.000000000  0.000000000

 
 Subroutine IBZKPT returns following result:
 ===========================================
 
 Found      1 irreducible k-points:
 
 Following reciprocal coordinates:
            Coordinates               Weight
  0.000000  0.000000  0.000000      1.000000
 
 Following cartesian coordinates:
            Coordinates               Weight
  0.000000  0.000000  0.000000      1.000000
 
 
 Subroutine IBZKPT_HF returns following result:
 ==============================================
 
 Found      1 k-points in 1st BZ
 the following      1 k-points will be used (e.g. in the exchange kernel)
 Following reciprocal coordinates:   # in IRBZ
  0.000000  0.000000  0.000000    1.00000000   1 t-inv F


--------------------------------------------------------------------------------------------------------




 Dimension of arrays:
   k-points           NKPTS =      1   k-points in BZ     NKDIM =      1   number of bands    NBANDS=    758
   number of dos      NEDOS =    301   number of ions     NIONS =    216
   non local maximal  LDIM  =      4   non local SUM 2l+1 LMDIM =      8
   total plane-waves  NPLWV = 512000
   max r-space proj   IRMAX =      1   max aug-charges    IRDMAX=   3893
   dimension x,y,z NGX =    80 NGY =   80 NGZ =   80
   dimension x,y,z NGXF=   160 NGYF=  160 NGZF=  160
   support grid    NGXF=   160 NGYF=  160 NGZF=  160
   ions per type =             108 108
   NGX,Y,Z   is equivalent  to a cutoff of  11.01, 11.01, 11.01 a.u.
   NGXF,Y,Z  is equivalent  to a cutoff of  22.02, 22.02, 22.02 a.u.

 SYSTEM =  Si                                      
 POSCAR =  Li   F                                  

 Startparameter for this run:
   NWRITE =      2    write-flag & timer
   PREC   = accura    normal or accurate (medium, high low for compatibility)
   ISTART =      1    job   : 0-new  1-cont  2-samecut
   ICHARG =      1    charge: 1-file 2-atom 10-const
   ISPIN  =      2    spin polarized calculation?
   LNONCOLLINEAR =      F non collinear calculations
   LSORBIT =      F    spin-orbit coupling
   INIWAV =      1    electr: 0-lowe 1-rand  2-diag
   LASPH  =      F    aspherical Exc in radial PAW
 Electronic Relaxation 1
   ENCUT  =  400.0 eV  29.40 Ry    5.42 a.u.  19.70 19.70 19.70*2*pi/ulx,y,z
   ENINI  =  400.0     initial cutoff
   ENAUG  =  628.9 eV  augmentation charge cutoff
   NELM   =    200;   NELMIN=  2; NELMDL=  0     # of ELM steps 
   EDIFF  = 0.1E-09   stopping-criterion for ELM
   LREAL  =      F    real-space projection
   NLSPLINE    = F    spline interpolate recip. space projectors
   LCOMPAT=      F    compatible to vasp.4.4
   GGA_COMPAT  = T    GGA compatible to vasp.4.4-vasp.4.6
   LMAXPAW     = -100 max onsite density
   LMAXMIX     =    2 max onsite mixed and CHGCAR
   VOSKOWN=      0    Vosko Wilk Nusair interpolation
   ROPT   =    0.00000   0.00000
 Ionic relaxation
   EDIFFG = -.1E-01   stopping-criterion for IOM
   NSW    =    500    number of steps for IOM
   NBLOCK =      1;   KBLOCK =    500    inner block; outer block 
   IBRION =      2    ionic relax: 0-MD 1-quasi-New 2-CG
   NFREE  =      1    steps in history (QN), initial steepest desc. (CG)
   ISIF   =      2    stress and relaxation
   IWAVPR =     11    prediction:  0-non 1-charg 2-wave 3-comb
   ISYM   =      0    0-nonsym 1-usesym 2-fastsym
   LCORR  =      T    Harris-Foulkes like correction to forces

   POTIM  = 0.1000    time-step for ionic-motion
   TEIN   =    0.0    initial temperature
   TEBEG  =    0.0;   TEEND  =   0.0 temperature during run
   SMASS  =  -3.00    Nose mass-parameter (am)
   estimated Nose-frequenzy (Omega)   =  0.10E-29 period in steps = 0.63E+47 mass=  -0.333E-26a.u.
   SCALEE = 1.0000    scale energy and forces
   NPACO  =    256;   APACO  = 10.0  distance and # of slots for P.C.
   PSTRESS=    0.0 pullay stress

  Mass of Ions in am
   POMASS =   7.01 19.00
  Ionic Valenz
   ZVAL   =   3.00  7.00
  Atomic Wigner-Seitz radii
   RWIGS  =  -1.00 -1.00
  virtual crystal weights 
   VCA    =   1.00  1.00
   NELECT =    1080.0000    total number of electrons
   NUPDOWN=      -1.0000    fix difference up-down

 DOS related values:
   EMIN   =  10.00;   EMAX   =-10.00  energy-range for DOS
   EFERMI =   0.00;   METHOD = LEGACY      
   ISMEAR =     0;   SIGMA  =   0.01  broadening in eV -4-tet -1-fermi 0-gaus

 Electronic relaxation 2 (details)
   IALGO  =     38    algorithm
   LDIAG  =      T    sub-space diagonalisation (order eigenvalues)
   LSUBROT=      T    optimize rotation matrix (better conditioning)
   TURBO    =      0    0=normal 1=particle mesh
   IRESTART =      0    0=no restart 2=restart with 2 vectors
   NREBOOT  =      0    no. of reboots
   NMIN     =      0    reboot dimension
   EREF     =   0.00    reference energy to select bands
   IMIX   =      1    mixing-type and parameters
     AMIX     =   0.40;   BMIX     =  1.00
     AMIX_MAG =   1.60;   BMIX_MAG =  1.00
     AMIN     =   0.10
     WC   =   100.;   INIMIX=   1;  MIXPRE=   1;  MAXMIX= -45

 Intra band minimization:
   WEIMIN = 0.0010     energy-eigenvalue tresh-hold
   EBREAK =  0.33E-13  absolut break condition
   DEPER  =   0.30     relativ break condition  

   TIME   =   0.40     timestep for ELM

  volume/ion in A,a.u.               =       8.16        55.06
  Fermi-wavevector in a.u.,A,eV,Ry     =   1.390557  2.627771 26.308875  1.933648
  Thomas-Fermi vector in A             =   2.514480
 
 Write flags
   LWAVE        =      T    write WAVECAR
   LDOWNSAMPLE  =      F    k-point downsampling of WAVECAR
   LCHARG       =      T    write CHGCAR
   LVTOT        =      F    write LOCPOT, total local potential
   LVHAR        =      F    write LOCPOT, Hartree potential only
   LELF         =      F    write electronic localiz. function (ELF)
   LORBIT       =      0    0 simple, 1 ext, 2 COOP (PROOUT), +10 PAW based schemes


 Dipole corrections
   LMONO  =      F    monopole corrections only (constant potential shift)
   LDIPOL =      F    correct potential (dipole corrections)
   IDIPOL =      0    1-x, 2-y, 3-z, 4-all directions 
   EPSILON=  1.0000000 bulk dielectric constant

 Exchange correlation treatment:
   GGA     =    --    GGA type
   LEXCH   =     8    internal setting for exchange type
   LIBXC   =     F    Libxc                    
   VOSKOWN =     0    Vosko Wilk Nusair interpolation
   EXXOEP  =     0    0=HF, 1=EXX-LHF (local Hartree Fock) 2=EXX OEP
   LHFCALC =     T    Hartree Fock is set to
   LSYMGRAD=     F    symmetrize gradient (conserves proper symmetry)
   PRECFOCK=fast      Normal, Fast or Accurate (Low or Medium for compatibility)
   LRHFCALC=     F    long range Hartree Fock
   LRSCOR  =     F    long range correlation only (use DFT for short range part)
   LTHOMAS =     F    Thomas Fermi screening in HF
   LMODELHF=     F    short range full HF, long range fraction AEXX
   FOCKCORR=     1    mode to apply convergence corrections
   LFOCKACE=     T    use Adeptively-Compressed-Exchange operator
   ENCUT4O =  -1.0   cutoff for four orbital integrals eV
   LMAXFOCK=     4    L truncation for augmentation on plane wave grid
   LMAXFOCKAE=  -1    L truncation for all-electron charge restoration on plane wave grid
   NMAXFOCKAE=   1    number of basis functions for all-electron charge restoration
   LFOCKAEDFT=     F  apply the AE augmentation even for DFT
   NKREDX  =     1    reduce k-point grid by
   NKREDY  =     1    reduce k-point grid by
   NKREDZ  =     1    reduce k-point grid by
   SHIFTRED=     F    shift reduced grid of Gamma
   HFKIDENT=     F    idential grid for each k-point
   ODDONLY =     F    use only odd q-grid points
   EVENONLY=     F    use only even q-grid points
   HFALPHA =   -1.0000 decay constant for conv. correction
   MCALPHA =    0.0000 extent of test-charge in conv. correction in multipole expansion
   AEXX    =    0.2500 exact exchange contribution
   HFSCREEN=    0.2000 screening length (either q_TF or 0.3 A-1)
   HFSCREENC=   0.2000 screening length for correlation (either q_TF or 0.3 A-1)
   HFRCUT  =    0.0000 spherical cutoff for potential kernel
   ALDAX   =    0.7500 LDA exchange part
   AGGAX   =    0.7500 GGA exchange part
   ALDAC   =    1.0000 LDA correlation
   AGGAC   =    1.0000 GGA correlation
   ENCUTFOCK=  -1.0 apply spherical cutoff to Coloumb kernel
   NBANDSGWLOW=     1    first orbital included in HF term
   NBLOCK_FOCK=    64    blocking factor in FOCK_ACC

 Linear response parameters
   LEPSILON=     F    determine dielectric tensor
   LRPA    =     F    only Hartree local field effects (RPA)
   LNABLA  =     F    use nabla operator in PAW spheres
   LVEL    =     F    velocity operator in full k-point grid
   CSHIFT  =0.1000    complex shift for real part using Kramers Kronig
   OMEGAMAX=  -1.0    maximum frequency
   DEG_THRESHOLD= 0.2000000E-02 threshold for treating states as degnerate
   RTIME   =   -0.100 relaxation time in fs
  (WPLASMAI=    0.000 imaginary part of plasma frequency in eV, 0.658/RTIME)
   DFIELD  = 0.0000000 0.0000000 0.0000000 field for delta impulse in time
 
  Optional k-point grid parameters
   LKPOINTS_OPT  =     F    use optional k-point grid
   KPOINTS_OPT_MODE=     1    mode for optional k-point grid
 
 Orbital magnetization related:
   ORBITALMAG=     F  switch on orbital magnetization
   LCHIMAG   =     F  perturbation theory with respect to B field
   DQ        =  0.001000  dq finite difference perturbation B field
   LLRAUG    =     F  two centre corrections for induced B field
   LBONE     =     F  B-component reconstruction in AE one-centre
   LVGVCALC  =     T  calculate vGv susceptibility
   LVGVAPPL  =     F  apply vGv susceptibility instead of pGv for G=0

 Random number generation:
   RANDOM_GENERATOR = DEFAULT
   PCG_SEED         = not used


--------------------------------------------------------------------------------------------------------


 conjugate gradient relaxation of ions
 charge density and potential will be updated during run
 spin polarized calculation
 Variant of blocked Davidson
 Davidson routine will perform the subspace rotation
 perform sub-space diagonalisation
    after iterative eigenvector-optimisation
 Kerker-like  mixing scheme
 using additional bands           218
 reciprocal scheme for non local part
 use partial core corrections
 calculate Harris-corrections to forces 
   (improved forces if not selfconsistent)
 use gradient corrections 
 use of overlap-Matrix (Vanderbilt PP)
 Gauss-broadening in eV      SIGMA  =   0.01


--------------------------------------------------------------------------------------------------------


  energy-cutoff  :      400.00
  volume of cell :     1762.31
      direct lattice vectors                 reciprocal lattice vectors
    12.078900337  0.000000000  0.000000000     0.082788993  0.000000000  0.000000000
     0.000000000 12.078900337  0.000000000     0.000000000  0.082788993  0.000000000
     0.000000000  0.000000000 12.078900337     0.000000000  0.000000000  0.082788993

  length of vectors
    12.078900337 12.078900337 12.078900337     0.082788993  0.082788993  0.082788993


 
 old parameters found on file WAVECAR:
  energy-cutoff  :      400.00
  volume of cell :     1762.31
      direct lattice vectors                 reciprocal lattice vectors
    12.078900337  0.000000000  0.000000000     0.082788993  0.000000000  0.000000000
     0.000000000 12.078900337  0.000000000     0.000000000  0.082788993  0.000000000
     0.000000000  0.000000000 12.078900337     0.000000000  0.000000000  0.082788993

  length of vectors

 
 k-points in units of 2pi/SCALE and weight: Gamma-point only                        
   0.00000000  0.00000000  0.00000000       1.000
 
 k-points in reciprocal lattice and weights: Gamma-point only                        
   0.00000000  0.00000000  0.00000000       1.000
 
 position of ions in fractional coordinates (direct lattice) 
   0.99969389  0.99986903  0.99984278
   0.99988146  0.00054926  0.32677407
   0.99997098  0.00027865  0.67186492
   0.99988272  0.32680004  0.00052185
   0.99961000  0.32650581  0.32648054
   0.00107456  0.32733625  0.67406675
   0.99996472  0.67189271  0.00024678
   0.00107278  0.67408755  0.32730571
   0.99975273  0.67143162  0.67138722
   0.32866921  0.99972475  0.99970043
   0.32877302  0.00027353  0.32768515
   0.32896845  0.00035693  0.67158757
   0.32877424  0.32771373  0.00024989
   0.32913927  0.32846193  0.32842972
   0.32985628  0.32892958  0.67169610
   0.32896718  0.67161644  0.00033073
   0.32984926  0.67172690  0.32889398
   0.32875571  0.67026842  0.67021965
   0.67072344  0.99968419  0.99965830
   0.67060102  0.99968732  0.32825662
   0.67026585  0.99984097  0.67093022
   0.67059962  0.32828841  0.99965964
   0.67137710  0.32866457  0.32862662
   0.67163390  0.32969392  0.66992609
   0.67028056  0.67096711  0.99980542
   0.67163447  0.66997395  0.32964785
   0.67024829  0.67083471  0.67078821
   0.99967489  0.16998310  0.16993769
   0.99982329  0.17016155  0.49973765
   0.99979121  0.16906310  0.82948401
   0.99982219  0.49976347  0.17011891
   0.97166306  0.47844512  0.47841112
   0.00005017  0.49909904  0.84817627
   0.99979106  0.82951889  0.16900750
   0.00004763  0.84821250  0.49907689
   0.99954843  0.82865092  0.82861812
   0.32886191  0.17044155  0.17040330
   0.32969067  0.17082521  0.49977883
   0.32906386  0.17052377  0.82877849
   0.32969109  0.49980452  0.17079321
   0.35133249  0.50035385  0.50032622
   0.34528863  0.49971045  0.84714867
   0.32906247  0.82880992  0.17048482
   0.34528407  0.84717361  0.49968455
   0.32929490  0.82882727  0.82879528
   0.67059341  0.17033419  0.17029228
   0.67018831  0.16933640  0.49960683
   0.67056717  0.17035737  0.82863535
   0.67018967  0.49963283  0.16927712
   0.67099808  0.49986578  0.49984044
   0.67225345  0.49998276  0.82750784
   0.67056736  0.82866862  0.17031225
   0.67225372  0.82753490  0.49995625
   0.67093627  0.82852216  0.82848869
   0.17059361  0.99978739  0.17035575
   0.17252938  0.00134800  0.49962377
   0.17090300  0.99982604  0.82887363
   0.17074536  0.32837944  0.16994458
   0.17158101  0.32143951  0.50074872
   0.17083103  0.32840021  0.82955095
   0.17138401  0.67133919  0.16968593
   0.17340435  0.69664569  0.49944862
   0.17152013  0.67065825  0.82980684
   0.49978743  0.99972803  0.17047142
   0.50114728  0.00120419  0.49968054
   0.49982960  0.99973867  0.82852060
   0.49980567  0.32841569  0.17069502
   0.50073922  0.32731454  0.49961228
   0.50035484  0.32766097  0.82853567
   0.49981852  0.67068537  0.17063099
   0.50092146  0.67165571  0.49963220
   0.50023204  0.67176240  0.82875980
   0.82858646  0.99973122  0.17012470
   0.82764745  0.00023076  0.49955079
   0.82829932  0.99986741  0.82915519
   0.82833374  0.32769100  0.16877760
   0.82500180  0.32491175  0.49943993
   0.82944688  0.32837281  0.82888927
   0.82872419  0.67093627  0.17049990
   0.84917162  0.67371908  0.50057082
   0.82760735  0.67197783  0.83182348
   0.17059456  0.17039740  0.99976276
   0.17074589  0.16998584  0.32834567
   0.17138851  0.16973797  0.67130693
   0.17253050  0.49964846  0.00131820
   0.17157755  0.50077561  0.32140171
   0.17341432  0.49947015  0.69660610
   0.17090301  0.82890660  0.99979989
   0.17082696  0.82958746  0.32836656
   0.17151879  0.82985479  0.67061854
   0.49978757  0.17051142  0.99970367
   0.49980573  0.17073116  0.32838338
   0.49981840  0.17066892  0.67064921
   0.50114798  0.49970658  0.00117896
   0.50074182  0.49963890  0.32728678
   0.50092144  0.49966112  0.67162256
   0.49982993  0.82854939  0.99971272
   0.50035347  0.82856750  0.32763271
   0.50023073  0.82879581  0.67173246
   0.82858583  0.17016780  0.99970416
   0.82833337  0.16884806  0.32766041
   0.82872211  0.17054124  0.67090004
   0.82765023  0.49958510  0.00019873
   0.82500049  0.49946303  0.32487625
   0.84917417  0.50057477  0.67368804
   0.82830063  0.82918186  0.99983341
   0.82944849  0.82892310  0.32834283
   0.82760562  0.83201152  0.67194319
   0.99991052  0.16529363  0.00147859
   0.00150963  0.16726634  0.33156735
   0.00054591  0.16732637  0.66684707
   0.00017880  0.49931665  0.00398417
   0.00719405  0.49846265  0.33213006
   0.02615385  0.47340699  0.70323018
   0.00030367  0.83187495  0.99991114
   0.99904601  0.84149308  0.32312746
   0.00155217  0.83421586  0.66703033
   0.33182447  0.16690609  0.99961561
   0.33119046  0.16845281  0.33174530
   0.33279545  0.16739345  0.66680494
   0.33613162  0.49902292  0.00462360
   0.32870208  0.49842803  0.33714242
   0.32999364  0.49911985  0.66258051
   0.33180246  0.83170412  0.99925757
   0.33396444  0.83313594  0.33174959
   0.33397850  0.83215149  0.66688257
   0.66653946  0.16699618  0.99895419
   0.66613860  0.16644230  0.33092202
   0.66717702  0.16711789  0.66701613
   0.66685142  0.49872444  0.00044947
   0.66219367  0.49954215  0.32544596
   0.66950094  0.49851142  0.66652027
   0.66640559  0.83175358  0.99995105
   0.66753181  0.83117601  0.33131109
   0.66298146  0.83577616  0.66691201
   0.99991137  0.00154437  0.16522341
   0.00017821  0.00404993  0.49924436
   0.00030275  0.99999038  0.83181596
   0.00151114  0.33163974  0.16719888
   0.00719814  0.33218238  0.49838108
   0.99903547  0.32319505  0.84143695
   0.00054269  0.66691117  0.16725790
   0.02612415  0.70328045  0.47337340
   0.00154092  0.66709836  0.83411417
   0.33182415  0.99968370  0.16683602
   0.33612597  0.00467750  0.49895251
   0.33180175  0.99932884  0.83164802
   0.33118903  0.33181307  0.16838811
   0.32870709  0.33720742  0.49834796
   0.33397024  0.33182226  0.83307086
   0.33278940  0.66686843  0.16732443
   0.32999350  0.66266815  0.49904375
   0.33398068  0.66694965  0.83207490
   0.66653838  0.99902845  0.16692369
   0.66684636  0.00053609  0.49864929
   0.66640430  0.00003178  0.83168677
   0.66613942  0.33099358  0.16636203
   0.66219003  0.32552141  0.49947400
   0.66753579  0.33138727  0.83110513
   0.66717934  0.66708271  0.16704015
   0.66948379  0.66658828  0.49842606
   0.66299952  0.66698344  0.83567338
   0.16784161  0.16806688  0.16799693
   0.16864127  0.16626587  0.49844083
   0.16850425  0.16701535  0.83180386
   0.16863775  0.49851384  0.16620229
   0.93397448  0.57610233  0.57608330
   0.18059472  0.50050550  0.84610016
   0.16850286  0.83186712  0.16694042
   0.18057990  0.84615384  0.50042877
   0.16824721  0.83096639  0.83089774
   0.49861400  0.16709644  0.16702676
   0.49747611  0.16762755  0.49891749
   0.49934255  0.16705657  0.83133868
   0.49747877  0.49898630  0.16756152
   0.50352596  0.49905664  0.49898533
   0.50114903  0.49865130  0.83231741
   0.49934152  0.83140061  0.16698584
   0.50114611  0.83238806  0.49857465
   0.49866573  0.83202154  0.83195825
   0.83138423  0.16564800  0.16557112
   0.83260315  0.16701910  0.49900386
   0.83103249  0.16636359  0.83132619
   0.83260394  0.49907722  0.16694510
   0.81599310  0.47094615  0.47089052
   0.83332727  0.49892713  0.83491486
   0.83103303  0.83139156  0.16629198
   0.83332123  0.83501105  0.49882917
   0.83195388  0.83624376  0.83616253
   0.16768584  0.99906026  0.99899107
   0.16845596  0.00127409  0.33083129
   0.16810033  0.00116615  0.66777380
   0.16845713  0.33090119  0.00120042
   0.16745702  0.33618675  0.33611571
   0.17373010  0.32864019  0.66430896
   0.16809563  0.66783889  0.00108683
   0.17371282  0.66437862  0.32857819
   0.16783858  0.66492401  0.66484789
   0.49896621  0.99936386  0.99929529
   0.49931093  0.99925531  0.33144624
   0.49849626  0.00015689  0.66661169
   0.49931144  0.33151535  0.99918120
   0.49721918  0.33191017  0.33184217
   0.49800601  0.33248298  0.66676083
   0.49850470  0.66667269  0.00007508
   0.49800054  0.66682623  0.33241031
   0.49874673  0.66623890  0.66616548
   0.83130072  0.99983780  0.99976793
   0.83113192  0.00078951  0.33131413
   0.83193593  0.00019513  0.66684986
   0.83113122  0.33138943  0.00070806
   0.83402625  0.32473739  0.32465682
   0.83481481  0.33183200  0.66591518
   0.83193953  0.66691876  0.00010361
   0.83481297  0.66598074  0.33176803
   0.81874924  0.68371273  0.68353420
 
 position of ions in cartesian coordinates  (Angst):
  12.07520291 12.07731839 12.07700129
  12.07746851  0.00663442  3.94707147
  12.07854976  0.00336581  8.11538939
  12.07748374  3.94738513  0.00630332
  12.07418953  3.94383119  3.94352586
   0.01297948  3.95386198  8.14198510
  12.07847417  8.11572513  0.00298082
   0.01295798  8.14223630  3.95349309
  12.07591360  8.11015561  8.10961933
   3.96996261 12.07557568 12.07528188
   3.97121652  0.00330390  3.95807628
   3.97357718  0.00431138  8.11203927
   3.97123131  3.95842145  0.00301838
   3.97564043  3.96745888  3.96706988
   3.98430110  3.97310762  8.11335026
   3.97356173  8.11238803  0.00399489
   3.98421638  8.11372224  3.97267761
   3.97100748  8.09610541  8.09551632
   8.10160158 12.07508569 12.07477296
   8.10012293 12.07512354  3.96497899
   8.09607437 12.07697937  8.10409931
   8.10010598  3.96536302 12.07478920
   8.10949705  3.96990657  3.96944824
   8.11259891  3.98234005  8.09197045
   8.09625205  8.10454487 12.07655006
   8.11260584  8.09254856  3.98178348
   8.09586232  8.10294563  8.10238399
  12.07497343  2.05320888  2.05266037
  12.07676589  2.05536440  6.03628133
  12.07637837  2.04209639 10.01925464
  12.07675260  6.03659319  2.05484931
  11.73662123  5.77909096  5.77868029
   0.00060602  6.02856760 10.24503666
  12.07637660 10.01967596  2.04142479
   0.00057528 10.24547421  6.02830002
  12.07344587 10.00919182 10.00879569
   3.97229028  2.05874644  2.05828447
   3.98230074  2.06338074  6.03677868
   3.97472952  2.05973960 10.01073281
   3.98230577  6.03708899  2.06299418
   4.24371013  6.04372433  6.04339060
   4.17070692  6.03595272 10.23262430
   3.97471280 10.01111243  2.05926909
   4.17065183 10.23292564  6.03563992
   3.97752027 10.01132204 10.01093564
   8.10003097  2.05744965  2.05694343
   8.09513776  2.04539754  6.03470108
   8.09971396  2.05772974 10.00900380
   8.09515425  6.03501521  2.04468149
   8.10491888  6.03782891  6.03752290
   8.12008241  6.03924189  9.99538472
   8.09971630 10.00940563  2.05718471
   8.12008565  9.99571156  6.03892173
   8.10417232 10.00763656 10.00723230
   2.06058323 12.07633223  2.05771008
   2.08396518  0.01628238  6.03490575
   2.06432035 12.07679908 10.01188201
   2.06241617  3.96646258  2.05274367
   2.07250995  3.88263584  6.04849388
   2.06345101  3.96671343 10.02006325
   2.07013032  8.10903916  2.04961942
   2.09453385  8.41471385  6.03279014
   2.07177450  8.10081421 10.02315410
   6.03688253 12.07561524  2.05910724
   6.05330810  0.01454524  6.03559140
   6.03739192 12.07574373 10.00761777
   6.03710287  3.96690044  2.06180809
   6.04837913  3.95359970  6.03476696
   6.04373629  3.95778423 10.00779981
   6.03725809  8.10114180  2.06103471
   6.05058041  8.11286239  6.03500757
   6.04225290  8.11415110 10.01050702
  10.00841326 12.07565374  2.05491931
   9.99707102  0.00278735  6.03402415
  10.00494498 12.07729876 10.01528288
  10.00536074  3.95814698  2.03864776
   9.96511456  3.92457667  6.03268516
  10.01880617  3.96638245 10.01207091
  10.01007685  8.10417237  2.05945134
  10.25705939  8.13778561  6.04634509
   9.99658667  8.11675324 10.04751293
   2.06059471  2.05821325 12.07603477
   2.06242263  2.05324198  3.96605459
   2.07018472  2.05024803  8.10864948
   2.08397876  6.03520399  0.01592239
   2.07246818  6.04881866  3.88217924
   2.09465425  6.03305012  8.41423566
   2.06432038 10.01228022 12.07648324
   2.06340177 10.02050427  3.96630692
   2.07175832 10.02373333  8.10033449
   6.03688422  2.05959042 12.07532099
   6.03710358  2.06224470  3.96651011
   6.03725666  2.06149287  8.10070498
   6.05331645  6.03590593  0.01424050
   6.04841059  6.03508842  3.95326442
   6.05058011  6.03535684  8.11246201
   6.03739586 10.00796553 12.07543034
   6.04371973 10.00818430  3.95744289
   6.04223717 10.01094197  8.11378947
  10.00840569  2.05543987 12.07532695
  10.00535621  2.03949889  3.95777739
  10.01005179  2.05995059  8.10373475
   9.99710460  6.03443868  0.00240041
   9.96509872  6.03296418  3.92414783
  10.25709018  6.04639270  8.13741068
  10.00496076 10.01560507 12.07688815
  10.01882566 10.01247957  3.96602034
   9.99656578 10.04978427  8.11633476
  12.07781957  1.99656523  0.01785973
   0.01823464  2.02039346  4.00496898
   0.00659404  2.02111852  8.05477936
   0.00215970  6.03119602  0.04812443
   0.08689622  6.02088064  4.01176584
   0.31590979  5.71823581  8.49424721
   0.00366794 10.04813465 12.07782701
  12.06737724 10.16431103  3.90302433
   0.01874849 10.07641018  8.05699288
   4.00807474  2.01604208 12.07425735
   4.00041658  2.03472467  4.00711844
   4.01980313  2.02192880  8.05427044
   4.06010032  6.02764814  0.05584799
   3.97035971  6.02046252  4.07230964
   3.98596026  6.02881897  8.00324393
   4.00780887 10.04607118 12.06993255
   4.03392314 10.06336600  4.00717029
   4.03409296 10.05147487  8.05520814
   8.05106377  2.01713026 12.06626811
   8.04622173  2.01043994  3.99717413
   8.05876470  2.01860032  8.05682138
   8.05483184  6.02404278  0.00542908
   7.99857129  6.03391979  3.93102933
   8.08683513  6.02146981  8.05083192
   8.04944668 10.04666858 12.07830904
   8.06305018 10.03969218  4.00187359
   8.00808695 10.09525690  8.05556369
  12.07782978  0.01865431  1.99571710
   0.00215257  0.04891874  6.03032291
   0.00365685 12.07878417 10.04742210
   0.01825287  4.00584342  2.01957857
   0.08694559  4.01239782  6.01989542
  12.06724991  3.90384080 10.16363312
   0.00655511  8.05555352  2.02029154
   0.31555100  8.49485447  5.71783010
   0.01861268  8.05781458 10.07518188
   4.00807087 12.07507980  2.01519571
   4.06003206  0.05649902  6.02679760
   4.00780027 12.07079346 10.04539351
   4.00039924  4.00793704  2.03394315
   3.97042024  4.07309483  6.01949539
   4.03399328  4.00804804 10.06257989
   4.01972997  8.05503730  2.02109509
   3.98595855  8.00430252  6.02789967
   4.03411936  8.05601832 10.05054980
   8.05105064 12.06716511  2.01625457
   8.05477069  0.00647538  6.02313503
   8.04943116  0.00038385 10.04586157
   8.04623161  3.99803843  2.00947036
   7.99852743  3.93194064  6.03309672
   8.06309827  4.00279380 10.03883602
   8.05879272  8.05762561  2.01766132
   8.08662802  8.05165344  6.02043869
   8.00830511  8.05642656 10.09401549
   2.02734207  2.03006306  2.02921815
   2.03700108  2.00830893  6.02061708
   2.03534605  2.01736172 10.04727598
   2.03695859  6.02149900  2.00754094
  11.28138466  6.95868261  6.95845282
   2.18138559  6.04555607 10.21995947
   2.03532926 10.04804004  2.01645674
   2.18120661 10.22060794  6.04462928
   2.03224125 10.03716023 10.03633098
   6.02270885  2.01834124  2.01749962
   6.00896441  2.02475646  6.02637459
   6.03150889  2.01785962 10.04165708
   6.00899648  6.02720574  2.02395888
   6.08203984  6.02805546  6.02719401
   6.05332916  6.02315938 10.05347908
   6.03149645 10.04240513  2.01700534
   6.05329397 10.05433240  6.02223351
   6.02333366 10.04990523 10.04914078
  10.04220726  2.00084568  1.99991706
  10.05693050  2.01740705  6.02741788
  10.03795857  2.00948924 10.04150621
  10.05693997  6.02830397  2.01651323
   9.85629936  5.68851163  5.68783967
  10.06567707  6.02649105 10.08485342
  10.03796513 10.04229574  2.00862428
  10.06560406 10.08601523  6.02530786
  10.04908799 10.10090500 10.09992383
   2.02546056 12.06754934 12.06671362
   2.03476279  0.01538964  3.99607815
   2.03046711  0.01408578  8.06597315
   2.03477689  3.99692248  0.01449974
   2.02269664  4.06076629  4.05990812
   2.09846862  3.96961205  8.02412178
   2.03041033  8.06675941  0.01312770
   2.09825979  8.02496316  3.96886327
   2.02730551  8.03155085  8.03063137
   6.02696318 12.07121643 12.07038821
   6.03112692 12.06990526  4.00350606
   6.02128668  0.00189510  8.05193613
   6.03113311  4.00434083 12.06901010
   6.00586092  4.00910985  4.00828856
   6.01536496  4.01602873  8.05373756
   6.02138863  8.05267295  0.00090685
   6.01529890  8.05452753  4.01515104
   6.02431203  8.04743324  8.04654643
  10.04119850 12.07694118 12.07609716
  10.03915967  0.00953638  4.00191034
  10.04887120  0.00235693  8.05481295
  10.03915112  4.00281988  0.00855258
  10.07411997  3.92247054  3.92149738
  10.08364489  4.00816563  8.04352315
  10.04891472  8.05564521  0.00125152
  10.08362261  8.04431502  4.00739298
   9.88959043  8.25849792  8.25634151
 


--------------------------------------------------------------------------------------------------------


 k-point   1 :   0.0000 0.0000 0.0000  plane waves:   31919

 maximum and minimum number of plane-waves per node :     31919    31919

 maximum number of plane-waves:     31919
 maximum index in each direction: 
   IXMAX=   19   IYMAX=   19   IZMAX=   19
   IXMIN=  -19   IYMIN=  -19   IZMIN=  -19


 serial   3D FFT for wavefunctions
 parallel 3D FFT for charge:
    minimum data exchange during FFTs selected (reduces bandwidth)


 FFT grid for exact exchange (Hartree Fock) 
  NGX = 40; NGY = 40; NGZ = 40

 
 Radii for the augmentation spheres in the non-local exchange
 for species   1 augmentation radius   0.956 (default was   0.708)
       energy cutoff for augmentation   1600.0
 for species   2 augmentation radius   0.968 (default was   0.717)
       energy cutoff for augmentation   1600.0
 Maximum index for augmentation-charges in exchange           146
  SETUP_FOCK is finished

 total amount of memory used by VASP MPI-rank0   831010. kBytes
=======================================================================

   base      :      30000. kBytes
   nonl-proj :     114401. kBytes
   fftplans  :      71598. kBytes
   grid      :     206643. kBytes
   one-center:       1327. kBytes
   HF        :          9. kBytes
   nonlr-proj:       2879. kBytes
   wavefun   :     404153. kBytes
 
     INWAV:  cpu time      0.5081: real time      0.9458
 initial charge density was supplied:
 number of electron    1080.0000099 magnetization       0.0000000
 keeping initial charge density in first step


--------------------------------------------------------------------------------------------------------


 Maximum index for augmentation-charges          1822 (set IRDMAX)


--------------------------------------------------------------------------------------------------------


 First call to EWALD:  gamma=   0.147
 Maximum number of real-space cells 3x 3x 3
 Maximum number of reciprocal cells 3x 3x 3

    FEWALD:  cpu time      0.1342: real time      0.1345


--------------------------------------- Ionic step        1  -------------------------------------------




--------------------------------------- Iteration      1(   1)  ---------------------------------------


    POTLOK:  cpu time      4.0688: real time      4.1165
    SETDIJ:  cpu time      1.0799: real time      1.0832
     EDDAV:  cpu time     25.8050: real time     26.4804
       DOS:  cpu time      0.0003: real time      0.0003
    CHARGE:  cpu time      0.2912: real time      0.2930
    MIXING:  cpu time      0.0634: real time      0.0636
    --------------------------------------------
      LOOP:  cpu time     31.3086: real time     32.0370

 eigenvalue-minimisations  :  3032
 total energy-change (2. order) :-0.1106244E+04  (-0.6121229E+03)
 number of electron    1080.0000111 magnetization      -0.0000000
 augmentation part      246.8633723 magnetization       0.0000001

 Free energy of the ion-electron system (eV)
  ---------------------------------------------------
  alpha Z        PSCENC =      2168.48047769
  Ewald energy   TEWEN  =    -59728.14204629
  -Hartree energ DENC   =    -25036.04698069
  -exchange      EXHF   =      3818.18766392
  -V(xc)+E(xc)   XCENC  =      4204.38015246
  PAW double counting   =     81562.97248405   -83484.22086493
  entropy T*S    EENTRO =        -0.00000000
  eigenvalues    EBANDS =    -17460.59740168
  atomic energy  EATOM  =     92848.74296340
  Solvation  Ediel_sol  =         0.00000000
[...]
      3.97033     12.07566     12.07536        -0.000106      0.000129      0.000091
      3.97100      0.00326      3.95828        -0.000231      0.001203     -0.000258
      3.97349      0.00416      8.11206         0.000036      0.001345      0.000237
      3.97101      3.95862      0.00297        -0.000265     -0.000238      0.001188
      3.97582      3.96783      3.96743        -0.001049     -0.000481     -0.000487
      3.98222      3.97448      8.11355        -0.000738     -0.001247      0.000021
      3.97349      8.11244      0.00384         0.000020      0.000202      0.001399
      3.98221      8.11392      3.97402        -0.000774      0.000026     -0.001298
      3.96907      8.09521      8.09465        -0.001572      0.000347      0.000356
      8.10134     12.07516     12.07484        -0.000047     -0.000018     -0.000033
      8.10026     12.07510      3.96523         0.000262      0.001107     -0.000195
      8.09666     12.07641      8.10398         0.000163      0.001579      0.000046
      8.10023      3.96561     12.07477         0.000268     -0.000204      0.001094
      8.10895      3.97007      3.96961         0.000086      0.000116      0.000096
      8.11314      3.98316      8.09282         0.001814      0.000800     -0.000218
      8.09678      8.10444     12.07601         0.000062      0.000056      0.001611
      8.11314      8.09338      3.98258         0.001834     -0.000231      0.000789
      8.10432      8.10153      8.10100        -0.000848     -0.002087     -0.002036
     12.07515      2.05257      2.05201        -0.000266      0.000689      0.000666
     12.07662      2.05423      6.03620        -0.000492      0.001648     -0.000288
     12.07626      2.03404     10.01998        -0.000344      0.000099      0.000282
     12.07661      6.03651      2.05369        -0.000456     -0.000277      0.001671
     11.73778      5.76928      5.76889        -0.002428      0.006097      0.006179
     -0.00095      6.02975     10.25117         0.000429     -0.001365     -0.005254
     12.07626     10.02043      2.03308        -0.000382      0.000271      0.000067
     -0.00097     10.25156      6.02951         0.000428     -0.005269     -0.001303
     12.07379     10.00975     10.00935        -0.000475     -0.001628     -0.001648
      3.97253      2.05907      2.05861        -0.000375      0.000184      0.000180
      3.98238      2.06359      6.03703        -0.000404     -0.000079     -0.000116
      3.97471      2.06020     10.01085        -0.000365     -0.000451     -0.000138
      3.98239      6.03734      2.06319        -0.000377     -0.000113     -0.000083
      4.24287      6.04442      6.04409        -0.000756     -0.002845     -0.002855
      4.16718      6.03627     10.23201        -0.002686     -0.000566      0.001851
      3.97470     10.01126      2.05973        -0.000336     -0.000159     -0.000456
      4.16718     10.23231      6.03595        -0.002718      0.001920     -0.000522
      3.97766     10.01100     10.01062        -0.000785      0.001358      0.001318
      8.09995      2.05774      2.05724        -0.000190      0.000186      0.000162
      8.09494      2.04594      6.03504         0.000742      0.000968     -0.000381
      8.09955      2.05817     10.00909        -0.000008     -0.000851      0.000111
      8.09494      6.03536      2.04524         0.000723     -0.000362      0.000981
      8.10370      6.03836      6.03807         0.005167     -0.000075     -0.000087
      8.12047      6.03907      9.99505         0.003682     -0.000530     -0.000174
      8.09955     10.00951      2.05764        -0.000021      0.000114     -0.000824
      8.12048      9.99537      6.03876         0.003728     -0.000173     -0.000574
      8.10349     10.00786     10.00746         0.000791      0.001205      0.001192
      2.06068     12.07653      2.05759        -0.000387      0.000121      0.000471
      2.08408      0.01683      6.03502        -0.002039      0.000551      0.000057
      2.06530     12.07664     10.01204        -0.000210     -0.000584     -0.000167
      2.06274      3.96654      2.05273        -0.000921      0.000304      0.000623
      2.07294      3.88245      6.04847        -0.003370     -0.000171     -0.000444
      2.06066      3.96610     10.02078        -0.001128     -0.000606     -0.000509
      2.07001      8.10920      2.04995        -0.000477     -0.000062     -0.000258
      2.08724      8.41534      6.03235         0.000645      0.000169      0.000071
      2.07147      8.10093     10.02353        -0.002417      0.001494      0.001117
      6.03688     12.07575      2.05951         0.000107      0.000209     -0.000094
      6.05304      0.01425      6.03588        -0.000528      0.000470      0.000095
      6.03740     12.07567     10.00762         0.000221      0.000381      0.000008
      6.03706      3.96718      2.06207         0.000055      0.000161      0.000237
      6.04812      3.95400      6.03524         0.001098     -0.001198     -0.001660
      6.04338      3.95844     10.00783         0.000080     -0.000919      0.000968
      6.03722      8.10138      2.06192         0.000004     -0.000026     -0.001493
      6.05042      8.11297      6.03585         0.002119      0.001322     -0.002587
      6.04267      8.11366     10.00906        -0.000107      0.000503      0.002791
     10.00848     12.07574      2.05497        -0.000073      0.000055      0.000447
      9.99632      0.00314      6.03409         0.001739     -0.000568      0.000137
     10.00432     12.07681     10.01496        -0.000103     -0.000950     -0.000680
     10.00536      3.95846      2.03931         0.000218      0.000981      0.001699
      9.96452      3.92590      6.03307         0.001179     -0.004037      0.000164
     10.02027      3.96589     10.01222         0.000603      0.000375      0.000110
     10.00966      8.10457      2.05880         0.000184     -0.000602      0.000875
     10.26625      8.13455      6.04844         0.005797     -0.000973      0.000348
      9.99741      8.11575     10.04325         0.002384     -0.000756     -0.001353
      2.06070      2.05808     12.07623        -0.000395      0.000525      0.000092
      2.06274      2.05323      3.96614        -0.000920      0.000642      0.000297
      2.07002      2.05061      8.10879        -0.000447     -0.000222     -0.000054
      2.08409      6.03532      0.01647        -0.002038      0.000018      0.000545
      2.07292      6.04880      3.88198        -0.003363     -0.000441     -0.000190
      2.08726      6.03260      8.41488         0.000791      0.000106      0.000077
      2.06533     10.01245     12.07632        -0.000254     -0.000142     -0.000604
      2.06059     10.02118      3.96569        -0.001116     -0.000491     -0.000584
      2.07146     10.02408      8.10045        -0.002415      0.001073      0.001446
      6.03688      2.05998     12.07544         0.000091     -0.000103      0.000219
      6.03706      2.06250      3.96679         0.000053      0.000247      0.000137
      6.03722      2.06238      8.10091        -0.000012     -0.001486     -0.000005
      6.05302      6.03619      0.01395        -0.000498      0.000116      0.000504
      6.04815      6.03556      3.95367         0.001077     -0.001646     -0.001271
      6.05041      6.03619      8.11259         0.002114     -0.002567      0.001314
      6.03740     10.00799     12.07535         0.000255      0.000008      0.000377
      6.04338     10.00823      3.95809         0.000093      0.000962     -0.000935
      6.04267     10.00946      8.11330        -0.000126      0.002764      0.000468
     10.00847      2.05548     12.07541        -0.000080      0.000477      0.000044
     10.00536      2.04017      3.95808         0.000239      0.001682      0.001006
     10.00964      2.05933      8.10413         0.000196      0.000820     -0.000589
      9.99634      6.03448      0.00277         0.001688      0.000080     -0.000513
      9.96452      6.03334      3.92549         0.001140      0.000221     -0.003981
     10.26637      6.04861      8.13414         0.005886      0.000528     -0.001054
     10.00431     10.01532     12.07640        -0.000063     -0.000604     -0.000909
     10.02034     10.01264      3.96549         0.000552      0.000082      0.000403
      9.99741     10.04491      8.11536         0.002399     -0.002009     -0.000752
     12.07811      1.99343      0.02081        -0.000600      0.000671     -0.000525
      0.01834      2.02065      4.00410        -0.001101      0.000430      0.000221
      0.00673      2.01840      8.05499        -0.000893     -0.000249      0.000446
      0.00179      6.02996      0.05085         0.000161      0.000659      0.000850
      0.08588      6.01918      4.00748         0.000293      0.001257     -0.002172
      0.30402      5.70720      8.51453         0.002610     -0.004757      0.004137
      0.00308     10.04902     12.07624        -0.000207      0.000216      0.000679
     12.06624     10.17068      3.89034        -0.000893     -0.001095      0.002179
      0.01926     10.07898      8.05817        -0.001257     -0.002240     -0.001202
      4.00873      2.01647     12.07475         0.000043     -0.000057     -0.000227
      4.00108      2.03543      4.00795         0.000084      0.000174     -0.000016
      4.01948      2.02344      8.05460         0.001029     -0.000399      0.000265
      4.05935      6.02892      0.05584         0.001521     -0.000291     -0.000127
      3.97028      6.02140      4.07284         0.001561     -0.000389      0.000964
      3.98049      6.02959      8.00356         0.001471      0.000370      0.001148
      4.00934     10.04602     12.06959        -0.000472      0.000143     -0.000174
      4.03133     10.06344      4.00794         0.002036     -0.000198      0.000854
      4.03227     10.05069      8.05560         0.002363     -0.000941     -0.000335
      8.05076      2.01741     12.06678        -0.000875     -0.000163     -0.000028
      8.04615      2.01146      3.99807        -0.001092      0.000216      0.000010
      8.05781      2.01909      8.05720        -0.000704      0.000384     -0.000222
      8.05358      6.02563      0.00540         0.000208     -0.000421      0.000317
      7.99917      6.03394      3.93300        -0.000087     -0.000397      0.001714
      8.08946      6.02320      8.05122        -0.004924     -0.002238     -0.000254
      8.04885     10.04619     12.07676         0.000082     -0.000216     -0.000693
      8.06298     10.04031      4.00251        -0.001241      0.000076     -0.000643
      8.01501     10.08851      8.05609        -0.003839      0.001588      0.000240
     12.07812      0.02171      1.99253        -0.000674     -0.000450      0.000565
      0.00181      0.05157      6.02911         0.000189      0.000841      0.000595
      0.00306     12.07715     10.04824        -0.000171      0.000700      0.000219
      0.01836      4.00494      2.01982        -0.001122      0.000243      0.000456
      0.08596      4.00812      6.01823         0.000319     -0.002086      0.001247
     12.06622      3.89136     10.16998        -0.000898      0.002235     -0.001141
      0.00670      8.05578      2.01749        -0.000880      0.000462     -0.000268
      0.30403      8.51525      5.70642         0.002745      0.004284     -0.004976
      0.01917      8.05899     10.07798        -0.001233     -0.001234     -0.002142
      4.00873     12.07562      2.01563         0.000064     -0.000230     -0.000057
      4.05935      0.05652      6.02805         0.001523     -0.000059     -0.000311
      4.00932     12.07049     10.04526        -0.000506     -0.000137      0.000161
      4.00108      4.00875      2.03464         0.000075     -0.000001      0.000165
      3.97026      4.07367      6.02046         0.001586      0.000948     -0.000401
      4.03134      4.00883     10.06265         0.002050      0.000880     -0.000186
      4.01950      8.05542      2.02256         0.001024      0.000251     -0.000442
      3.98056      8.00460      6.02866         0.001482      0.001180      0.000367
      4.03226      8.05640     10.04980         0.002355     -0.000348     -0.000910
      8.05076     12.06769      2.01655        -0.000856     -0.000009     -0.000178
      8.05357      0.00639      6.02479         0.000160      0.000310     -0.000450
      8.04886     -0.00116     10.04535         0.000074     -0.000710     -0.000191
      8.04613      3.99891      2.01051        -0.001045      0.000043      0.000197
      7.99912      3.93388      6.03312        -0.000142      0.001728     -0.000399
      8.06297      4.00339     10.03945        -0.001225     -0.000641      0.000083
      8.05782      8.05803      2.01815        -0.000677     -0.000192      0.000333
      8.08940      8.05200      6.02225        -0.004903     -0.000254     -0.002202
      8.01514      8.05692     10.08742        -0.003910      0.000250      0.001726
      2.02878      2.03076      2.02993         0.000048     -0.000187     -0.000207
      2.03779      2.00865      6.02129        -0.000402     -0.000256     -0.000777
      2.03665      2.01535     10.04730        -0.000624      0.000682      0.000772
      2.03779      6.02214      2.00788        -0.000441     -0.000759     -0.000262
     11.32455      6.94945      6.94881         0.001602     -0.002341     -0.002162
      2.17858      6.04705     10.22156         0.003422      0.000233     -0.003276
      2.03667     10.04813      2.01439        -0.000652      0.000757      0.000639
      2.17857     10.22222      6.04618         0.003435     -0.003251      0.000219
      2.03248     10.03757     10.03674         0.000722     -0.000213     -0.000220
      6.02324      2.01904      2.01820        -0.000521      0.000090      0.000093
      6.00876      2.02525      6.02753         0.000852      0.001507      0.000048
      6.03116      2.01868     10.04173        -0.000033      0.000110     -0.000079
      6.00879      6.02837      2.02445         0.000865      0.000048      0.001486
      6.08131      6.02960      6.02872        -0.001435     -0.000097     -0.000119
      6.05181      6.02484     10.05329        -0.000630     -0.000199     -0.001044
      6.03117     10.04255      2.01784        -0.000032     -0.000083      0.000059
      6.05186     10.05409      6.02394        -0.000602     -0.000986     -0.000182
      6.02484     10.04884     10.04806        -0.000392     -0.000522     -0.000512
     10.04143      2.00200      2.00107        -0.000994      0.000743      0.000744
     10.05586      2.01771      6.02732        -0.000788      0.001411      0.000378
     10.03612      2.00689     10.04220        -0.000428      0.000080     -0.000201
     10.05585      6.02821      2.01683        -0.000770      0.000394      0.001381
      9.85798      5.69703      5.69644        -0.001391      0.006887      0.006838
     10.06434      6.02683     10.08787        -0.000469      0.000025     -0.002040
     10.03609     10.04302      2.00596        -0.000430     -0.000226      0.000040
     10.06434     10.08890      6.02576        -0.000502     -0.002173      0.000086
     10.04845     10.09600     10.09505        -0.000969     -0.000745     -0.000638
      2.02676     12.06728     12.06638        -0.000099     -0.000126     -0.000128
      2.03508      0.01668      3.99608         0.000784      0.000007      0.000124
      2.03074      0.01462      8.06660        -0.000302      0.000458      0.000347
      2.03509      3.99690      0.01581         0.000767      0.000140      0.000007
      2.02293      4.06163      4.06077         0.000306      0.000130      0.000160
      2.09442      3.97177      8.02296         0.003269     -0.001497      0.000660
      2.03071      8.06741      0.01371        -0.000253      0.000337      0.000404
      2.09439      8.02375      3.97082         0.003248      0.000692     -0.001496
      2.02061      8.03059      8.02970         0.006385      0.001328      0.001283
      6.02754     12.07148     12.07060        -0.000412     -0.000120     -0.000091
      6.03070     12.07001      4.00444         0.000034     -0.000105     -0.000206
      6.02272     -0.00005      8.05234        -0.000115     -0.000310      0.000097
      6.03066      4.00526     12.06912         0.000056     -0.000177     -0.000126
      6.00616      4.01003      4.00921        -0.000661      0.000306      0.000338
      6.01482      4.01800      8.05438        -0.000107      0.000045     -0.000436
      6.02279      8.05312     -0.00100        -0.000163      0.000111     -0.000312
      6.01485      8.05519      4.01711        -0.000107     -0.000395      0.000105
      6.02411      8.04691      8.04607        -0.000764     -0.000137     -0.000147
     10.04026     12.07557     12.07469        -0.000618     -0.000581     -0.000596
     10.03844      0.01123      4.00174        -0.001668      0.000417     -0.000049
     10.04876      0.00226      8.05525        -0.000682     -0.000260     -0.000328
     10.03844      4.00261      0.01025        -0.001697     -0.000036      0.000473
     10.07435      3.92613      3.92515        -0.002074      0.002143      0.002151
     10.08317      4.00598      8.04353        -0.000426      0.000660      0.000209
     10.04876      8.05608      0.00122        -0.000706     -0.000339     -0.000216
     10.08313      8.04432      4.00515        -0.000395      0.000195      0.000601
      9.91019      8.24415      8.24247        -0.004770     -0.005388     -0.004826
 -----------------------------------------------------------------------------------
    total drift:                                2.561904      2.682310      2.888872


--------------------------------------------------------------------------------------------------------



  FREE ENERGIE OF THE ION-ELECTRON SYSTEM (eV)
  ---------------------------------------------------
  free  energy   TOTEN  =     -1239.07697487 eV

  energy  without entropy=    -1239.07697487  energy(sigma->0) =    -1239.07697487
 
 d Force = 0.6644718E-04[ 0.193E-04, 0.114E-03]  d Energy = 0.6677390E-04-0.327E-06
 d Force = 0.2091904E+00[ 0.208E+00, 0.210E+00]  d Ewald  = 0.2091907E+00-0.381E-06


--------------------------------------------------------------------------------------------------------


    POTLOK:  cpu time      5.1194: real time      5.1317


--------------------------------------------------------------------------------------------------------




--------------------------------------------------------------------------------------------------------


  
 reached required accuracy - stopping structural energy minimisation
 writing wavefunctions
     LOOP+:  cpu time    887.3020: real time    891.7605
    4ORBIT:  cpu time      0.0000: real time      0.0000

 total amount of memory used by VASP MPI-rank0  1109818. kBytes
=======================================================================

   base      :      30000. kBytes
   nonl-proj :     114401. kBytes
   fftplans  :      71598. kBytes
   grid      :     206643. kBytes
   one-center:       1327. kBytes
   HF        :          9. kBytes
   nonlr-proj:      82367. kBytes
   wavefun   :     404153. kBytes
   fock_wrk  :     199320. kBytes
 
  
  
 General timing and accounting informations for this job:
 ========================================================
  
                  Total CPU time used (sec):    15194.073
                            User time (sec):    15145.955
                          System time (sec):       48.118
                         Elapsed time (sec):    15295.473
  
                   Maximum memory used (kb):     3034204.
                   Average memory used (kb):          N/A
  
                          Minor page faults:       357232
                          Major page faults:          130
                 Voluntary context switches:       705591
