  56  56   0   0
  0.1428571E+03  0.2000000E-08  0.2000000E-08  0.2000000E-08  0.0000000E+00
  1.000000000000000E-004
  CAR 
 neb_test                                
      0.37788927    -17.95141413  301     -3.95919375      1.00000000
    -17.951  0.0000E+00  0.0000E+00
    -17.890  0.0000E+00  0.0000E+00
    -17.829  0.0000E+00  0.0000E+00
    -17.768  0.0000E+00  0.0000E+00
    -17.707  0.0000E+00  0.0000E+00
    -17.646  0.0000E+00  0.0000E+00
    -17.585  0.0000E+00  0.0000E+00
    -17.524  0.0000E+00  0.0000E+00
    -17.463  0.0000E+00  0.0000E+00
    -17.402  0.3634E-16  0.2220E-17
    -17.340  0.1080E-10  0.6599E-12
    -17.279  0.1707E-06  0.1043E-07
    -17.218  0.1533E-03  0.9374E-05
    -17.157  0.8733E-02  0.5429E-03
    -17.096  0.3924E-01  0.2941E-02
    -17.035  0.1674E-01  0.3963E-02
    -16.974  0.6024E-03  0.4000E-02
    -16.913  0.1445E-05  0.4000E-02
    -16.852  0.2012E-09  0.4000E-02
    -16.791  0.1526E-14  0.4000E-02
    -16.729  0.0000E+00  0.4000E-02
    -16.668  0.0000E+00  0.4000E-02
    -16.607  0.0000E+00  0.4000E-02
    -16.546  0.0000E+00  0.4000E-02
    -16.485  0.0000E+00  0.4000E-02
    -16.424  0.0000E+00  0.4000E-02
    -16.363  0.0000E+00  0.4000E-02
    -16.302  0.0000E+00  0.4000E-02
    -16.241  0.0000E+00  0.4000E-02
    -16.180  0.0000E+00  0.4000E-02
    -16.118  0.0000E+00  0.4000E-02
    -16.057  0.0000E+00  0.4000E-02
    -15.996  0.0000E+00  0.4000E-02
    -15.935  0.0000E+00  0.4000E-02
    -15.874  0.0000E+00  0.4000E-02
    -15.813  0.0000E+00  0.4000E-02
    -15.752  0.0000E+00  0.4000E-02
    -15.691  0.0000E+00  0.4000E-02
    -15.630  0.0000E+00  0.4000E-02
    -15.569  0.0000E+00  0.4000E-02
    -15.508  0.0000E+00  0.4000E-02
    -15.446  0.0000E+00  0.4000E-02
    -15.385  0.0000E+00  0.4000E-02
    -15.324  0.0000E+00  0.4000E-02
    -15.263  0.0000E+00  0.4000E-02
    -15.202  0.0000E+00  0.4000E-02
    -15.141  0.0000E+00  0.4000E-02
    -15.080  0.0000E+00  0.4000E-02
    -15.019  0.0000E+00  0.4000E-02
    -14.958  0.0000E+00  0.4000E-02
    -14.897  0.0000E+00  0.4000E-02
    -14.835  0.0000E+00  0.4000E-02
    -14.774  0.0000E+00  0.4000E-02
    -14.713  0.0000E+00  0.4000E-02
    -14.652  0.0000E+00  0.4000E-02
    -14.591  0.0000E+00  0.4000E-02
    -14.530  0.0000E+00  0.4000E-02
    -14.469  0.0000E+00  0.4000E-02
    -14.408  0.0000E+00  0.4000E-02
    -14.347  0.0000E+00  0.4000E-02
    -14.286  0.0000E+00  0.4000E-02
    -14.224  0.0000E+00  0.4000E-02
    -14.163  0.0000E+00  0.4000E-02
    -14.102  0.0000E+00  0.4000E-02
    -14.041  0.0000E+00  0.4000E-02
    -13.980  0.0000E+00  0.4000E-02
    -13.919  0.0000E+00  0.4000E-02
    -13.858  0.0000E+00  0.4000E-02
    -13.797  0.0000E+00  0.4000E-02
    -13.736  0.0000E+00  0.4000E-02
    -13.675  0.0000E+00  0.4000E-02
    -13.613  0.0000E+00  0.4000E-02
    -13.552  0.0000E+00  0.4000E-02
    -13.491  0.0000E+00  0.4000E-02
    -13.430  0.0000E+00  0.4000E-02
    -13.369  0.0000E+00  0.4000E-02
    -13.308  0.0000E+00  0.4000E-02
    -13.247  0.0000E+00  0.4000E-02
    -13.186  0.0000E+00  0.4000E-02
    -13.125  0.0000E+00  0.4000E-02
    -13.064  0.0000E+00  0.4000E-02
    -13.003  0.0000E+00  0.4000E-02
    -12.941  0.0000E+00  0.4000E-02
    -12.880  0.0000E+00  0.4000E-02
    -12.819  0.0000E+00  0.4000E-02
    -12.758  0.0000E+00  0.4000E-02
    -12.697  0.0000E+00  0.4000E-02
    -12.636  0.0000E+00  0.4000E-02
    -12.575  0.0000E+00  0.4000E-02
    -12.514  0.0000E+00  0.4000E-02
    -12.453  0.0000E+00  0.4000E-02
    -12.392  0.0000E+00  0.4000E-02
    -12.330  0.0000E+00  0.4000E-02
    -12.269  0.8766E-13  0.4000E-02
    -12.208  0.4575E-08  0.4000E-02
    -12.147  0.1322E-04  0.4001E-02
    -12.086  0.2291E-02  0.4141E-02
    -12.025  0.2831E-01  0.5870E-02
    -11.964  0.3159E-01  0.7801E-02
    -11.903  0.3236E-02  0.7999E-02
    -11.842  0.2416E-04  0.8000E-02
    -11.781  0.1094E-07  0.8000E-02
    -11.719  0.2757E-12  0.8000E-02
    -11.658  0.0000E+00  0.8000E-02
    -11.597  0.0000E+00  0.8000E-02
    -11.536  0.0000E+00  0.8000E-02
    -11.475  0.0000E+00  0.8000E-02
    -11.414  0.0000E+00  0.8000E-02
    -11.353  0.0000E+00  0.8000E-02
    -11.292  0.0000E+00  0.8000E-02
    -11.231  0.0000E+00  0.8000E-02
    -11.170  0.0000E+00  0.8000E-02
    -11.108  0.0000E+00  0.8000E-02
    -11.047  0.0000E+00  0.8000E-02
    -10.986  0.0000E+00  0.8000E-02
    -10.925  0.0000E+00  0.8000E-02
    -10.864  0.3830E-12  0.8000E-02
    -10.803  0.1505E-07  0.8000E-02
    -10.742  0.3430E-04  0.8002E-02
    -10.681  0.5075E-02  0.8312E-02
    -10.620  0.6234E-01  0.1212E-01
    -10.559  0.9878E-01  0.1816E-01
    -10.497  0.2893E-01  0.1992E-01
    -10.436  0.1239E-02  0.2000E-01
    -10.375  0.4354E-05  0.2000E-01
    -10.314  0.9325E-09  0.2000E-01
    -10.253  0.1103E-13  0.2000E-01
    -10.192  0.0000E+00  0.2000E-01
    -10.131  0.0000E+00  0.2000E-01
    -10.070  0.0000E+00  0.2000E-01
    -10.009  0.0000E+00  0.2000E-01
     -9.948  0.0000E+00  0.2000E-01
     -9.887  0.0000E+00  0.2000E-01
     -9.825  0.0000E+00  0.2000E-01
     -9.764  0.0000E+00  0.2000E-01
     -9.703  0.0000E+00  0.2000E-01
     -9.642  0.1581E-14  0.2000E-01
     -9.581  0.2066E-09  0.2000E-01
     -9.520  0.1479E-05  0.2000E-01
     -9.459  0.6329E-03  0.2004E-01
     -9.398  0.2191E-01  0.2138E-01
     -9.337  0.1264E+00  0.2910E-01
     -9.276  0.1547E+00  0.3855E-01
     -9.214  0.4693E-01  0.4142E-01
     -9.153  0.3664E-01  0.4366E-01
     -9.092  0.5522E-02  0.4400E-01
     -9.031  0.6367E-04  0.4400E-01
     -8.970  0.4551E-07  0.4400E-01
     -8.909  0.1827E-11  0.4400E-01
     -8.848  0.1370E-14  0.4400E-01
     -8.787  0.2007E-09  0.4400E-01
     -8.726  0.1647E-05  0.4400E-01
     -8.665  0.8107E-03  0.4405E-01
     -8.603  0.2740E-01  0.4572E-01
     -8.542  0.8382E-01  0.5085E-01
     -8.481  0.5793E-01  0.5438E-01
     -8.420  0.4468E-01  0.5711E-01
     -8.359  0.4022E-01  0.5957E-01
     -8.298  0.2654E-01  0.6119E-01
     -8.237  0.1305E+00  0.6917E-01
     -8.176  0.1786E+00  0.8008E-01
     -8.115  0.1084E+00  0.8670E-01
     -8.054  0.7354E-01  0.9120E-01
     -7.992  0.1562E+00  0.1007E+00
     -7.931  0.1122E+00  0.1076E+00
     -7.870  0.5652E-01  0.1111E+00
     -7.809  0.3896E-01  0.1134E+00
     -7.748  0.3709E-01  0.1157E+00
     -7.687  0.2079E-01  0.1170E+00
     -7.626  0.5105E-01  0.1201E+00
     -7.565  0.1439E+00  0.1289E+00
     -7.504  0.2384E+00  0.1434E+00
     -7.443  0.1873E+00  0.1549E+00
     -7.382  0.7451E-01  0.1594E+00
     -7.320  0.9896E-02  0.1600E+00
     -7.259  0.3934E-01  0.1624E+00
     -7.198  0.1820E+00  0.1736E+00
     -7.137  0.2420E+00  0.1884E+00
     -7.076  0.2265E+00  0.2022E+00
     -7.015  0.2007E+00  0.2145E+00
     -6.954  0.2728E+00  0.2311E+00
     -6.893  0.1799E+00  0.2421E+00
     -6.832  0.3611E-01  0.2443E+00
     -6.771  0.5167E-01  0.2475E+00
     -6.709  0.1325E+00  0.2556E+00
     -6.648  0.1644E+00  0.2656E+00
     -6.587  0.3931E-01  0.2680E+00
     -6.526  0.4423E-01  0.2707E+00
     -6.465  0.2023E+00  0.2831E+00
     -6.404  0.2228E+00  0.2967E+00
     -6.343  0.1515E+00  0.3060E+00
     -6.282  0.1715E+00  0.3164E+00
     -6.221  0.1280E+00  0.3243E+00
     -6.160  0.3197E+00  0.3438E+00
     -6.098  0.3952E+00  0.3679E+00
     -6.037  0.2749E+00  0.3847E+00
     -5.976  0.1072E+00  0.3913E+00
     -5.915  0.2241E+00  0.4050E+00
     -5.854  0.3828E+00  0.4284E+00
     -5.793  0.2485E+00  0.4435E+00
     -5.732  0.1828E+00  0.4547E+00
     -5.671  0.4193E+00  0.4803E+00
     -5.610  0.4497E+00  0.5078E+00
     -5.549  0.1910E+00  0.5195E+00
     -5.487  0.7737E-01  0.5242E+00
     -5.426  0.9744E-01  0.5301E+00
     -5.365  0.2552E+00  0.5457E+00
     -5.304  0.4417E+00  0.5727E+00
     -5.243  0.3149E+00  0.5920E+00
     -5.182  0.3974E+00  0.6162E+00
     -5.121  0.4798E+00  0.6456E+00
     -5.060  0.3733E+00  0.6684E+00
     -4.999  0.3025E+00  0.6868E+00
     -4.938  0.2735E+00  0.7036E+00
     -4.877  0.2899E+00  0.7213E+00
     -4.815  0.2378E+00  0.7358E+00
     -4.754  0.2503E+00  0.7511E+00
     -4.693  0.2932E+00  0.7690E+00
     -4.632  0.3009E+00  0.7874E+00
     -4.571  0.3441E+00  0.8084E+00
     -4.510  0.4521E+00  0.8360E+00
     -4.449  0.4570E+00  0.8640E+00
     -4.388  0.3880E+00  0.8877E+00
     -4.327  0.2907E+00  0.9054E+00
     -4.266  0.3554E+00  0.9271E+00
     -4.204  0.6034E+00  0.9640E+00
     -4.143  0.6632E+00  0.1005E+01
     -4.082  0.4334E+00  0.1031E+01
     -4.021  0.5012E+00  0.1062E+01
     -3.960  0.8128E+00  0.1111E+01
     -3.899  0.5695E+00  0.1146E+01
     -3.838  0.2584E+00  0.1162E+01
     -3.777  0.1922E+00  0.1174E+01
     -3.716  0.7534E-01  0.1178E+01
     -3.655  0.2817E-01  0.1180E+01
     -3.593  0.2030E-01  0.1181E+01
     -3.532  0.6514E-01  0.1185E+01
     -3.471  0.1053E+00  0.1192E+01
     -3.410  0.6667E-01  0.1196E+01
     -3.349  0.5868E-01  0.1199E+01
     -3.288  0.7724E-01  0.1204E+01
     -3.227  0.7882E-01  0.1209E+01
     -3.166  0.4949E-01  0.1212E+01
     -3.105  0.3126E-02  0.1212E+01
     -3.044  0.1922E-04  0.1212E+01
     -2.982  0.1348E-02  0.1212E+01
     -2.921  0.2337E-01  0.1214E+01
     -2.860  0.3758E-01  0.1216E+01
     -2.799  0.3206E-01  0.1218E+01
     -2.738  0.4212E-01  0.1220E+01
     -2.677  0.6102E-01  0.1224E+01
     -2.616  0.5593E-01  0.1227E+01
     -2.555  0.1449E-01  0.1228E+01
     -2.494  0.3774E-01  0.1231E+01
     -2.433  0.3743E-01  0.1233E+01
     -2.372  0.4046E-01  0.1235E+01
     -2.310  0.9185E-02  0.1236E+01
     -2.249  0.9132E-02  0.1237E+01
     -2.188  0.6875E-01  0.1241E+01
     -2.127  0.1002E+00  0.1247E+01
     -2.066  0.1452E+00  0.1256E+01
     -2.005  0.8234E-01  0.1261E+01
     -1.944  0.4415E-01  0.1263E+01
     -1.883  0.8500E-02  0.1264E+01
     -1.822  0.1441E-03  0.1264E+01
     -1.761  0.1149E-03  0.1264E+01
     -1.699  0.7531E-02  0.1264E+01
     -1.638  0.3847E-01  0.1267E+01
     -1.577  0.1859E-01  0.1268E+01
     -1.516  0.8363E-03  0.1268E+01
     -1.455  0.6203E-02  0.1268E+01
     -1.394  0.5204E-01  0.1272E+01
     -1.333  0.7063E-01  0.1276E+01
     -1.272  0.5170E-01  0.1279E+01
     -1.211  0.5369E-01  0.1282E+01
     -1.150  0.1132E+00  0.1289E+01
     -1.088  0.4450E-01  0.1292E+01
     -1.027  0.2199E-01  0.1293E+01
     -0.966  0.4892E-01  0.1296E+01
     -0.905  0.8311E-01  0.1301E+01
     -0.844  0.8764E-01  0.1307E+01
     -0.783  0.6725E-01  0.1311E+01
     -0.722  0.2735E-01  0.1312E+01
     -0.661  0.1022E+00  0.1319E+01
     -0.600  0.2109E+00  0.1332E+01
     -0.539  0.1226E+00  0.1339E+01
     -0.477  0.3160E-01  0.1341E+01
     -0.416  0.3944E-01  0.1343E+01
     -0.355  0.8733E-02  0.1344E+01
     -0.294  0.1533E-03  0.1344E+01
     -0.233  0.1707E-06  0.1344E+01
     -0.172  0.1080E-10  0.1344E+01
     -0.111  0.3634E-16  0.1344E+01
     -0.050  0.0000E+00  0.1344E+01
      0.011  0.0000E+00  0.1344E+01
      0.072  0.0000E+00  0.1344E+01
      0.133  0.0000E+00  0.1344E+01
      0.195  0.0000E+00  0.1344E+01
      0.256  0.0000E+00  0.1344E+01
      0.317  0.0000E+00  0.1344E+01
      0.378  0.0000E+00  0.1344E+01
