   56   56  500    1
  0.1428571E+03  0.2000000E-08  0.2000000E-08  0.2000000E-08  0.0000000E+00
  1.000000000000000E-004
  CAR 
 neb_test                                
    556      1    336
 
  0.0000000E+00  0.0000000E+00  0.0000000E+00  0.1000000E+01
    1      -17.118264   1.000000
    2      -12.022067   1.000000
    3      -10.623914   1.000000
    4      -10.610374   1.000000
    5      -10.571548   1.000000
    6       -9.375673   1.000000
    7       -9.335477   1.000000
    8       -9.322222   1.000000
    9       -9.318083   1.000000
   10       -9.316186   1.000000
   11       -9.201792   1.000000
   12       -8.580261   1.000000
   13       -8.570368   1.000000
   14       -8.489506   1.000000
   15       -8.401986   1.000000
   16       -8.267515   1.000000
   17       -8.240798   1.000000
   18       -8.231784   1.000000
   19       -8.225920   1.000000
   20       -8.190494   1.000000
   21       -8.166367   1.000000
   22       -8.137067   1.000000
   23       -8.038566   1.000000
   24       -8.030886   1.000000
   25       -8.021706   1.000000
   26       -7.983211   1.000000
   27       -7.965922   1.000000
   28       -7.893931   1.000000
   29       -7.797153   1.000000
   30       -7.662281   1.000000
   31       -7.571183   1.000000
   32       -7.568265   1.000000
   33       -7.559446   1.000000
   34       -7.557680   1.000000
   35       -7.533420   1.000000
   36       -7.498094   1.000000
   37       -7.493072   1.000000
   38       -7.485754   1.000000
   39       -7.460306   1.000000
   40       -7.422323   1.000000
   41       -7.231194   1.000000
   42       -7.228266   1.000000
   43       -7.217859   1.000000
   44       -7.210137   1.000000
   45       -7.165269   1.000000
   46       -7.153343   1.000000
   47       -7.147016   1.000000
   48       -7.142503   1.000000
   49       -7.117213   1.000000
   50       -7.096891   1.000000
   51       -7.083395   1.000000
   52       -7.059863   1.000000
   53       -7.023036   1.000000
   54       -7.009408   1.000000
   55       -6.989644   1.000000
   56       -6.983546   1.000000
   57       -6.982152   1.000000
   58       -6.969116   1.000000
   59       -6.937018   1.000000
   60       -6.930725   1.000000
   61       -6.923060   1.000000
   62       -6.783228   1.000000
   63       -6.737644   1.000000
   64       -6.705116   1.000000
   65       -6.689888   1.000000
   66       -6.685611   1.000000
   67       -6.670036   1.000000
   68       -6.507140   1.000000
   69       -6.499354   1.000000
   70       -6.472869   1.000000
   71       -6.470305   1.000000
   72       -6.451998   1.000000
   73       -6.450643   1.000000
   74       -6.429077   1.000000
   75       -6.408100   1.000000
   76       -6.347617   1.000000
   77       -6.337364   1.000000
   78       -6.331400   1.000000
   79       -6.300575   1.000000
   80       -6.284730   1.000000
   81       -6.214997   1.000000
   82       -6.191292   1.000000
   83       -6.183404   1.000000
   84       -6.178789   1.000000
   85       -6.168423   1.000000
   86       -6.164620   1.000000
   87       -6.159042   1.000000
   88       -6.148600   1.000000
   89       -6.142441   1.000000
   90       -6.130469   1.000000
   91       -6.107557   1.000000
   92       -6.101145   1.000000
   93       -6.095498   1.000000
   94       -6.085200   1.000000
   95       -6.070610   1.000000
   96       -6.067210   1.000000
   97       -6.056296   1.000000
   98       -5.979988   1.000000
   99       -5.932423   1.000000
  100       -5.924081   1.000000
  101       -5.919864   1.000000
  102       -5.916870   1.000000
  103       -5.890234   1.000000
  104       -5.888377   1.000000
  105       -5.879880   1.000000
  106       -5.871856   1.000000
  107       -5.865739   1.000000
  108       -5.862908   1.000000
  109       -5.838841   1.000000
  110       -5.836323   1.000000
  111       -5.820828   1.000000
  112       -5.773703   1.000000
  113       -5.736213   1.000000
  114       -5.710615   1.000000
  115       -5.708792   1.000000
  116       -5.702931   1.000000
  117       -5.695309   1.000000
  118       -5.692476   1.000000
  119       -5.684503   1.000000
  120       -5.677832   1.000000
  121       -5.667928   1.000000
  122       -5.660539   1.000000
  123       -5.652843   1.000000
  124       -5.641112   1.000000
  125       -5.637483   1.000000
  126       -5.628554   1.000000
  127       -5.626117   1.000000
  128       -5.616146   1.000000
  129       -5.602211   1.000000
  130       -5.589791   1.000000
  131       -5.503841   1.000000
  132       -5.474523   1.000000
  133       -5.406800   1.000000
  134       -5.394331   1.000000
  135       -5.371979   1.000000
  136       -5.365045   1.000000
  137       -5.355821   1.000000
  138       -5.353423   1.000000
  139       -5.341131   1.000000
  140       -5.338788   1.000000
  141       -5.326438   1.000000
  142       -5.324032   1.000000
  143       -5.313109   1.000000
  144       -5.307664   1.000000
  145       -5.305644   1.000000
  146       -5.295661   1.000000
  147       -5.267557   1.000000
  148       -5.240214   1.000000
  149       -5.234769   1.000000
  150       -5.210347   1.000000
  151       -5.198081   1.000000
  152       -5.195727   1.000000
  153       -5.188899   1.000000
  154       -5.180311   1.000000
  155       -5.173467   1.000000
  156       -5.171180   1.000000
  157       -5.168271   1.000000
  158       -5.162229   1.000000
  159       -5.151048   1.000000
  160       -5.149471   1.000000
  161       -5.142602   1.000000
  162       -5.122987   1.000000
  163       -5.117148   1.000000
  164       -5.092565   1.000000
  165       -5.079536   1.000000
  166       -5.071860   1.000000
  167       -5.066119   1.000000
  168       -5.056199   1.000000
  169       -5.050624   1.000000
  170       -5.041316   1.000000
  171       -5.036196   1.000000
  172       -4.998151   1.000000
  173       -4.976010   1.000000
  174       -4.970244   1.000000
  175       -4.953885   1.000000
  176       -4.939182   1.000000
  177       -4.930367   1.000000
  178       -4.916257   1.000000
  179       -4.907789   1.000000
  180       -4.897701   1.000000
  181       -4.865064   1.000000
  182       -4.855835   1.000000
  183       -4.850255   1.000000
  184       -4.837459   1.000000
  185       -4.798877   1.000000
  186       -4.776284   1.000000
  187       -4.758855   1.000000
  188       -4.753750   1.000000
  189       -4.746796   1.000000
  190       -4.742524   1.000000
  191       -4.727506   1.000000
  192       -4.702378   1.000000
  193       -4.680128   1.000000
  194       -4.668388   1.000000
  195       -4.664584   1.000000
  196       -4.650335   1.000000
  197       -4.646982   1.000000
  198       -4.619898   1.000000
  199       -4.608902   1.000000
  200       -4.600050   1.000000
  201       -4.573803   1.000000
  202       -4.562337   1.000000
  203       -4.559912   1.000000
  204       -4.553818   1.000000
  205       -4.553243   1.000000
  206       -4.542494   1.000000
  207       -4.533749   1.000000
  208       -4.528322   1.000000
  209       -4.522658   1.000000
  210       -4.515940   1.000000
  211       -4.493596   1.000000
  212       -4.476182   1.000000
  213       -4.469345   1.000000
  214       -4.466710   1.000000
  215       -4.460324   1.000000
  216       -4.450594   1.000000
  217       -4.441774   1.000000
  218       -4.437366   1.000000
  219       -4.431386   1.000000
  220       -4.429877   1.000000
  221       -4.423222   1.000000
  222       -4.415483   1.000000
  223       -4.367103   1.000000
  224       -4.356371   1.000000
  225       -4.349627   1.000000
  226       -4.334644   1.000000
  227       -4.326139   1.000000
  228       -4.312551   1.000000
  229       -4.306815   1.000000
  230       -4.283672   1.000000
  231       -4.271285   1.000000
  232       -4.260107   1.000000
  233       -4.253409   1.000000
  234       -4.236869   1.000000
  235       -4.235799   1.000000
  236       -4.224042   1.000000
  237       -4.219384   1.000000
  238       -4.217343   1.000000
  239       -4.211908   1.000000
  240       -4.208649   1.000000
  241       -4.207833   1.000000
  242       -4.200647   1.000000
  243       -4.199630   1.000000
  244       -4.193836   1.000000
  245       -4.190002   1.000000
  246       -4.187014   1.000000
  247       -4.181685   1.000000
  248       -4.176009   1.000000
  249       -4.165672   1.000000
  250       -4.161453   1.000000
  251       -4.155219   1.000000
  252       -4.149664   1.000000
  253       -4.140203   1.000000
  254       -4.133369   1.000000
  255       -4.121323   0.999998
  256       -4.096232   0.999947
  257       -4.083744   0.999787
  258       -4.077470   0.999589
  259       -4.073861   0.999409
  260       -4.066177   0.998761
  261       -4.064962   0.998612
  262       -4.048125   0.994054
  263       -4.037057   0.986178
  264       -4.030782   0.978556
  265       -4.016307   0.946888
  266       -4.008911   0.920171
  267       -4.002401   0.889163
  268       -3.995181   0.845632
  269       -3.988944   0.799957
  270       -3.985211   0.769100
  271       -3.981338   0.734453
  272       -3.980899   0.730362
  273       -3.978045   0.703048
  274       -3.977439   0.697095
  275       -3.976696   0.689715
  276       -3.973054   0.652478
  277       -3.969704   0.616874
  278       -3.968758   0.606623
  279       -3.965650   0.572443
  280       -3.965407   0.569754
  281       -3.964974   0.564938
  282       -3.961723   0.528519
  283       -3.939849   0.292141
  284       -3.936533   0.260781
  285       -3.933735   0.235741
  286       -3.930688   0.210043
  287       -3.928205   0.190380
  288       -3.881209   0.013701
  289       -3.866244   0.004282
  290       -3.841804   0.000450
  291       -3.834185   0.000203
  292       -3.829597   0.000123
  293       -3.821824   0.000051
  294       -3.785742   0.000000
  295       -3.722774   0.000000
  296       -3.573225   0.000000
  297       -3.505242   0.000000
  298       -3.500172   0.000000
  299       -3.450071   0.000000
  300       -3.348557   0.000000
  301       -3.332439   0.000000
  302       -3.236854   0.000000
  303       -3.234612   0.000000
  304       -2.910357   0.000000
  305       -2.793853   0.000000
  306       -2.698410   0.000000
  307       -2.657382   0.000000
  308       -2.508305   0.000000
  309       -2.409502   0.000000
  310       -2.203677   0.000000
  311       -2.187414   0.000000
  312       -2.110560   0.000000
  313       -2.108562   0.000000
  314       -2.087673   0.000000
  315       -2.058420   0.000000
  316       -1.983411   0.000000
  317       -1.657316   0.000000
  318       -1.407242   0.000000
  319       -1.369156   0.000000
  320       -1.294541   0.000000
  321       -1.197844   0.000000
  322       -1.171942   0.000000
  323       -1.163857   0.000000
  324       -1.010967   0.000000
  325       -0.922400   0.000000
  326       -0.912957   0.000000
  327       -0.851628   0.000000
  328       -0.804769   0.000000
  329       -0.670658   0.000000
  330       -0.662165   0.000000
  331       -0.638468   0.000000
  332       -0.627530   0.000000
  333       -0.612617   0.000000
  334       -0.592055   0.000000
  335       -0.577058   0.000000
  336       -0.455261   0.000000
