       N       E                     dE             d eps       ncg     rms          rms(c)
DAV:   1     0.285179342757E+04    0.28518E+04   -0.16218E+05   672   0.997E+02
DAV:   2    -0.114473850555E+03   -0.29663E+04   -0.28995E+04   696   0.309E+02
DAV:   3    -0.296188483069E+03   -0.18171E+03   -0.16863E+03   792   0.891E+01
DAV:   4    -0.304024696422E+03   -0.78362E+01   -0.75168E+01   696   0.204E+01
DAV:   5    -0.304283534315E+03   -0.25884E+00   -0.25715E+00   792   0.281E+00    0.537E+01
RMM:   6    -0.459174551924E+03   -0.15489E+03   -0.78042E+02   672   0.804E+01    0.137E+02
RMM:   7    -0.344208899962E+03    0.11497E+03   -0.40138E+02   673   0.578E+01    0.752E+01
RMM:   8    -0.312776586550E+03    0.31432E+02   -0.19161E+02   674   0.402E+01    0.836E+01
RMM:   9    -0.313056940344E+03   -0.28035E+00   -0.61364E+01   674   0.225E+01    0.111E+02
RMM:  10    -0.292360605801E+03    0.20696E+02   -0.57487E+01   674   0.203E+01    0.786E+01
RMM:  11    -0.272720535277E+03    0.19640E+02   -0.20985E+01   676   0.125E+01    0.486E+01
RMM:  12    -0.267271280098E+03    0.54493E+01   -0.44191E+00   676   0.546E+00    0.421E+01
RMM:  13    -0.265479350931E+03    0.17919E+01   -0.28381E+00   676   0.444E+00    0.411E+01
RMM:  14    -0.265882356944E+03   -0.40301E+00   -0.48853E+00   675   0.583E+00    0.466E+01
RMM:  15    -0.263908706266E+03    0.19737E+01   -0.48681E+00   675   0.591E+00    0.375E+01
RMM:  16    -0.261611932616E+03    0.22968E+01   -0.38206E+00   676   0.532E+00    0.324E+01
RMM:  17    -0.260142427607E+03    0.14695E+01   -0.17358E+00   676   0.350E+00    0.244E+01
RMM:  18    -0.260216043577E+03   -0.73616E-01   -0.14993E+00   676   0.326E+00    0.278E+01
RMM:  19    -0.260313708276E+03   -0.97665E-01   -0.87534E-01   676   0.252E+00    0.331E+01
RMM:  20    -0.259168889435E+03    0.11448E+01   -0.95628E-01   676   0.263E+00    0.249E+01
RMM:  21    -0.258422059261E+03    0.74683E+00   -0.56002E-01   676   0.202E+00    0.156E+01
RMM:  22    -0.258090302043E+03    0.33176E+00   -0.39213E-01   675   0.168E+00    0.118E+01
RMM:  23    -0.257937014398E+03    0.15329E+00   -0.31241E-01   676   0.153E+00    0.109E+01
RMM:  24    -0.257998983470E+03   -0.61969E-01   -0.25495E-01   676   0.138E+00    0.122E+01
RMM:  25    -0.258171747427E+03   -0.17276E+00   -0.37308E-01   675   0.171E+00    0.137E+01
RMM:  26    -0.257930832137E+03    0.24092E+00   -0.29339E-01   675   0.156E+00    0.122E+01
RMM:  27    -0.257847897340E+03    0.82935E-01   -0.22947E-01   676   0.133E+00    0.975E+00
RMM:  28    -0.257935074467E+03   -0.87177E-01   -0.23979E-01   675   0.131E+00    0.119E+01
RMM:  29    -0.257755457950E+03    0.17962E+00   -0.19725E-01   675   0.126E+00    0.780E+00
RMM:  30    -0.257667439601E+03    0.88018E-01   -0.10875E-01   675   0.955E-01    0.541E+00
RMM:  31    -0.257659710100E+03    0.77295E-02   -0.58577E-02   676   0.677E-01    0.530E+00
RMM:  32    -0.257625026279E+03    0.34684E-01   -0.37032E-02   675   0.556E-01    0.371E+00
RMM:  33    -0.257612189719E+03    0.12837E-01   -0.30177E-02   676   0.505E-01    0.291E+00
RMM:  34    -0.257628025291E+03   -0.15836E-01   -0.34578E-02   675   0.516E-01    0.364E+00
RMM:  35    -0.257642349164E+03   -0.14324E-01   -0.37063E-02   675   0.536E-01    0.477E+00
RMM:  36    -0.257608794231E+03    0.33555E-01   -0.24259E-02   675   0.461E-01    0.288E+00
RMM:  37    -0.257599669690E+03    0.91245E-02   -0.16228E-02   676   0.366E-01    0.190E+00
RMM:  38    -0.257598698733E+03    0.97096E-03   -0.12538E-02   675   0.308E-01    0.161E+00
RMM:  39    -0.257601968947E+03   -0.32702E-02   -0.11947E-02   675   0.301E-01    0.212E+00
RMM:  40    -0.257592309630E+03    0.96593E-02   -0.79913E-03   674   0.262E-01    0.105E+00
RMM:  41    -0.257593338670E+03   -0.10290E-02   -0.46493E-03   676   0.192E-01    0.943E-01
RMM:  42    -0.257597407608E+03   -0.40689E-02   -0.46576E-03   675   0.190E-01    0.143E+00
RMM:  43    -0.257593600932E+03    0.38067E-02   -0.31108E-03   675   0.167E-01    0.724E-01
RMM:  44    -0.257594831513E+03   -0.12306E-02   -0.16590E-03   676   0.114E-01    0.739E-01
RMM:  45    -0.257598682721E+03   -0.38512E-02   -0.24429E-03   675   0.132E-01    0.990E-01
RMM:  46    -0.257598762282E+03   -0.79561E-04   -0.19510E-03   675   0.128E-01    0.531E-01
RMM:  47    -0.257599896393E+03   -0.11341E-02   -0.10650E-03   675   0.902E-02    0.574E-01
RMM:  48    -0.257602561491E+03   -0.26651E-02   -0.11063E-03   675   0.888E-02    0.544E-01
RMM:  49    -0.257603731850E+03   -0.11704E-02   -0.80544E-04   675   0.813E-02    0.316E-01
RMM:  50    -0.257604633342E+03   -0.90149E-03   -0.44227E-04   675   0.573E-02    0.318E-01
RMM:  51    -0.257607255653E+03   -0.26223E-02   -0.49706E-04   673   0.565E-02    0.355E-01
RMM:  52    -0.257607825400E+03   -0.56975E-03   -0.28071E-04   674   0.471E-02    0.187E-01
RMM:  53    -0.257609013690E+03   -0.11883E-02   -0.22801E-04   676   0.392E-02    0.268E-01
RMM:  54    -0.257610366631E+03   -0.13529E-02   -0.21805E-04   674   0.368E-02    0.128E-01
RMM:  55    -0.257610811120E+03   -0.44449E-03   -0.89720E-05   675   0.253E-02    0.142E-01
RMM:  56    -0.257612236220E+03   -0.14251E-02   -0.12786E-04   672   0.242E-02    0.149E-01
RMM:  57    -0.257612532592E+03   -0.29637E-03   -0.67979E-05   671   0.207E-02    0.618E-02
RMM:  58    -0.257612973184E+03   -0.44059E-03   -0.35609E-05   671   0.140E-02    0.893E-02
RMM:  59    -0.257613501154E+03   -0.52797E-03   -0.34166E-05   670   0.143E-02    0.740E-02
RMM:  60    -0.257613943778E+03   -0.44262E-03   -0.20839E-05   667   0.113E-02    0.582E-02
RMM:  61    -0.257614130579E+03   -0.18680E-03   -0.19901E-05   669   0.122E-02    0.838E-02
RMM:  62    -0.257614359794E+03   -0.22921E-03   -0.13694E-05   665   0.984E-03    0.613E-02
RMM:  63    -0.257614585650E+03   -0.22586E-03   -0.89035E-06   630   0.782E-03    0.485E-02
RMM:  64    -0.257614900135E+03   -0.31449E-03   -0.11004E-05   631   0.775E-03    0.469E-02
RMM:  65    -0.257615230215E+03   -0.33008E-03   -0.11696E-05   614   0.709E-03    0.316E-02
RMM:  66    -0.257615310341E+03   -0.80126E-04   -0.68200E-06   591   0.669E-03    0.447E-02
RMM:  67    -0.257615534611E+03   -0.22427E-03   -0.80208E-06   561   0.600E-03    0.263E-02
RMM:  68    -0.257615637795E+03   -0.10318E-03   -0.35231E-06   454   0.419E-03    0.278E-02
RMM:  69    -0.257615819155E+03   -0.18136E-03   -0.73577E-06   518   0.453E-03    0.236E-02
RMM:  70    -0.257615883168E+03   -0.64014E-04   -0.28835E-06   426   0.395E-03    0.175E-02
RMM:  71    -0.257615898917E+03   -0.15748E-04   -0.29805E-06   431   0.468E-03    0.379E-02
RMM:  72    -0.257615941241E+03   -0.42325E-04   -0.26879E-06   423   0.461E-03    0.156E-02
RMM:  73    -0.257615980374E+03   -0.39132E-04   -0.13401E-06   382   0.266E-03    0.116E-02
RMM:  74    -0.257616028566E+03   -0.48193E-04   -0.17973E-06   407   0.264E-03    0.103E-02
RMM:  75    -0.257616051760E+03   -0.23194E-04   -0.92822E-07   378   0.210E-03    0.813E-03
RMM:  76    -0.257616071126E+03   -0.19366E-04   -0.70248E-07   376   0.204E-03    0.124E-02
RMM:  77    -0.257616090590E+03   -0.19465E-04   -0.83246E-07   378   0.191E-03    0.771E-03
RMM:  78    -0.257616102231E+03   -0.11641E-04   -0.45925E-07   367   0.146E-03    0.607E-03
RMM:  79    -0.257616119042E+03   -0.16810E-04   -0.48726E-07   373   0.135E-03    0.656E-03
RMM:  80    -0.257616135147E+03   -0.16105E-04   -0.50077E-07   370   0.129E-03    0.396E-03
RMM:  81    -0.257616138919E+03   -0.37726E-05   -0.24988E-07   362   0.129E-03    0.102E-02
RMM:  82    -0.257616146931E+03   -0.80115E-05   -0.31409E-07   367   0.128E-03    0.453E-03
RMM:  83    -0.257616158516E+03   -0.11585E-04   -0.38516E-07   368   0.985E-04    0.333E-03
RMM:  84    -0.257616165969E+03   -0.74530E-05   -0.19673E-07   351   0.913E-04    0.326E-03
RMM:  85    -0.257616174380E+03   -0.84112E-05   -0.27088E-07   362   0.826E-04    0.319E-03
RMM:  86    -0.257616177899E+03   -0.35183E-05   -0.18213E-07   355   0.978E-04    0.492E-03
RMM:  87    -0.257616179457E+03   -0.15585E-05   -0.96757E-08   340   0.877E-04    0.193E-03
RMM:  88    -0.257616183185E+03   -0.37278E-05   -0.75752E-08   210   0.485E-04    0.164E-03
RMM:  89    -0.257616186375E+03   -0.31903E-05   -0.51431E-08   227   0.505E-04    0.173E-03
RMM:  90    -0.257616189988E+03   -0.36127E-05   -0.62896E-08   220   0.483E-04    0.107E-03
RMM:  91    -0.257616189013E+03    0.97499E-06   -0.27460E-08   185   0.446E-04
   1 F= -.25761619E+03 E0= -.25735156E+03  d E =-.257616E+03
       N       E                     dE             d eps       ncg     rms          rms(c)
DAV:   1    -0.257746808223E+03   -0.13062E+00   -0.63836E+00   720   0.419E+00    0.552E-01
RMM:   2    -0.257938355810E+03   -0.19155E+00   -0.20540E-01   676   0.122E+00    0.942E+00
RMM:   3    -0.257816552324E+03    0.12180E+00   -0.51356E-02   684   0.638E-01    0.680E+00
RMM:   4    -0.257764333860E+03    0.52218E-01   -0.21667E-02   677   0.417E-01    0.249E+00
RMM:   5    -0.257763616574E+03    0.71729E-03   -0.12145E-02   676   0.311E-01    0.204E+00
RMM:   6    -0.257770824974E+03   -0.72084E-02   -0.69943E-03   676   0.231E-01    0.342E+00
RMM:   7    -0.257768135290E+03    0.26897E-02   -0.59758E-03   676   0.218E-01    0.291E+00
RMM:   8    -0.257762421479E+03    0.57138E-02   -0.81281E-03   675   0.257E-01    0.202E+00
RMM:   9    -0.257761827976E+03    0.59350E-03   -0.37073E-03   676   0.178E-01    0.226E+00
RMM:  10    -0.257756877269E+03    0.49507E-02   -0.29026E-03   676   0.151E-01    0.101E+00
RMM:  11    -0.257759452620E+03   -0.25754E-02   -0.29279E-03   676   0.149E-01    0.126E+00
RMM:  12    -0.257758298097E+03    0.11545E-02   -0.30756E-03   676   0.159E-01    0.113E+00
RMM:  13    -0.257756356647E+03    0.19415E-02   -0.21181E-03   676   0.137E-01    0.745E-01
RMM:  14    -0.257756176598E+03    0.18005E-03   -0.12114E-03   676   0.993E-02    0.513E-01
RMM:  15    -0.257756501451E+03   -0.32485E-03   -0.12001E-03   676   0.985E-02    0.503E-01
RMM:  16    -0.257756078694E+03    0.42276E-03   -0.65853E-04   676   0.780E-02    0.432E-01
RMM:  17    -0.257755828748E+03    0.24995E-03   -0.27496E-04   677   0.488E-02    0.215E-01
RMM:  18    -0.257756008753E+03   -0.18000E-03   -0.17176E-04   676   0.373E-02    0.264E-01
RMM:  19    -0.257756029931E+03   -0.21178E-04   -0.16054E-04   675   0.360E-02    0.275E-01
RMM:  20    -0.257755925641E+03    0.10429E-03   -0.11467E-04   675   0.327E-02    0.179E-01
RMM:  21    -0.257755913941E+03    0.11700E-04   -0.50638E-05   673   0.214E-02    0.104E-01
RMM:  22    -0.257755944217E+03   -0.30276E-04   -0.27272E-05   671   0.150E-02    0.783E-02
RMM:  23    -0.257755977133E+03   -0.32916E-04   -0.28615E-05   672   0.151E-02    0.109E-01
RMM:  24    -0.257755947701E+03    0.29432E-04   -0.18265E-05   668   0.130E-02    0.706E-02
RMM:  25    -0.257755957272E+03   -0.95710E-05   -0.77611E-06   653   0.826E-03    0.325E-02
RMM:  26    -0.257755970798E+03   -0.13526E-04   -0.47572E-06   539   0.628E-03    0.430E-02
RMM:  27    -0.257755971474E+03   -0.67548E-06   -0.47176E-06   556   0.634E-03
   2 F= -.25775597E+03 E0= -.25749083E+03  d E =-.139782E+00
       N       E                     dE             d eps       ncg     rms          rms(c)
DAV:   1    -0.257855514507E+03   -0.99544E-01   -0.18644E+01   672   0.728E+00    0.103E+00
RMM:   2    -0.258586146079E+03   -0.73063E+00   -0.71803E-01   676   0.234E+00    0.171E+01
RMM:   3    -0.258094450399E+03    0.49170E+00   -0.19808E-01   682   0.129E+00    0.118E+01
RMM:   4    -0.257917628268E+03    0.17682E+00   -0.66498E-02   677   0.717E-01    0.448E+00
RMM:   5    -0.257907719051E+03    0.99092E-02   -0.35918E-02   676   0.531E-01    0.351E+00
RMM:   6    -0.257928531591E+03   -0.20813E-01   -0.19937E-02   676   0.386E-01    0.578E+00
RMM:   7    -0.257918042104E+03    0.10489E-01   -0.19105E-02   676   0.390E-01    0.456E+00
RMM:   8    -0.257913137753E+03    0.49044E-02   -0.21686E-02   675   0.422E-01    0.446E+00
RMM:   9    -0.257900552217E+03    0.12586E-01   -0.97337E-03   676   0.287E-01    0.363E+00
RMM:  10    -0.257887294334E+03    0.13258E-01   -0.10553E-02   676   0.288E-01    0.152E+00
RMM:  11    -0.257894030060E+03   -0.67357E-02   -0.79046E-03   676   0.244E-01    0.219E+00
RMM:  12    -0.257890811693E+03    0.32184E-02   -0.83413E-03   676   0.261E-01    0.188E+00
RMM:  13    -0.257885570635E+03    0.52411E-02   -0.59170E-03   676   0.228E-01    0.124E+00
RMM:  14    -0.257884589362E+03    0.98127E-03   -0.35383E-03   676   0.169E-01    0.894E-01
RMM:  15    -0.257886100045E+03   -0.15107E-02   -0.35608E-03   676   0.169E-01    0.110E+00
RMM:  16    -0.257884804041E+03    0.12960E-02   -0.19131E-03   676   0.131E-01    0.101E+00
RMM:  17    -0.257883120795E+03    0.16832E-02   -0.13314E-03   676   0.108E-01    0.406E-01
RMM:  18    -0.257883466147E+03   -0.34535E-03   -0.65556E-04   676   0.739E-02    0.406E-01
RMM:  19    -0.257883830085E+03   -0.36394E-03   -0.56232E-04   676   0.681E-02    0.588E-01
RMM:  20    -0.257883174831E+03    0.65525E-03   -0.38951E-04   676   0.603E-02    0.292E-01
RMM:  21    -0.257883244558E+03   -0.69727E-04   -0.19177E-04   675   0.414E-02    0.157E-01
RMM:  22    -0.257883306730E+03   -0.62172E-04   -0.85378E-05   675   0.261E-02    0.172E-01
RMM:  23    -0.257883375900E+03   -0.69169E-04   -0.89984E-05   676   0.269E-02    0.226E-01
RMM:  24    -0.257883287882E+03    0.88018E-04   -0.60604E-05   676   0.236E-02    0.134E-01
RMM:  25    -0.257883304438E+03   -0.16556E-04   -0.27208E-05   672   0.152E-02    0.556E-02
RMM:  26    -0.257883335193E+03   -0.30755E-04   -0.18011E-05   670   0.118E-02    0.656E-02
RMM:  27    -0.257883342286E+03   -0.70930E-05   -0.17210E-05   670   0.116E-02    0.605E-02
RMM:  28    -0.257883346266E+03   -0.39799E-05   -0.87880E-06   646   0.879E-03    0.373E-02
RMM:  29    -0.257883350455E+03   -0.41895E-05   -0.36650E-06   456   0.567E-03    0.217E-02
RMM:  30    -0.257883362639E+03   -0.12184E-04   -0.27842E-06   392   0.501E-03    0.271E-02
RMM:  31    -0.257883369446E+03   -0.68072E-05   -0.21234E-06   379   0.486E-03    0.144E-02
RMM:  32    -0.257883373792E+03   -0.43457E-05   -0.71020E-07   363   0.267E-03    0.863E-03
RMM:  33    -0.257883381676E+03   -0.78846E-05   -0.77423E-07   367   0.235E-03    0.152E-02
RMM:  34    -0.257883390669E+03   -0.89926E-05   -0.90549E-07   375   0.268E-03    0.738E-03
RMM:  35    -0.257883393601E+03   -0.29318E-05   -0.33945E-07   360   0.162E-03    0.596E-03
RMM:  36    -0.257883409793E+03   -0.16192E-04   -0.12748E-06   395   0.172E-03    0.825E-03
RMM:  37    -0.257883413051E+03   -0.32578E-05   -0.40490E-07   365   0.167E-03    0.358E-03
RMM:  38    -0.257883417951E+03   -0.49002E-05   -0.34287E-07   368   0.122E-03    0.676E-03
RMM:  39    -0.257883426927E+03   -0.89756E-05   -0.73649E-07   377   0.147E-03    0.378E-03
RMM:  40    -0.257883428437E+03   -0.15105E-05   -0.18795E-07   347   0.105E-03    0.243E-03
RMM:  41    -0.257883433642E+03   -0.52050E-05   -0.35610E-07   365   0.898E-04    0.412E-03
RMM:  42    -0.257883435640E+03   -0.19972E-05   -0.17318E-07   355   0.978E-04    0.179E-03
RMM:  43    -0.257883436693E+03   -0.10534E-05   -0.70559E-08   279   0.589E-04    0.262E-03
RMM:  44    -0.257883440320E+03   -0.36269E-05   -0.25465E-07   320   0.653E-04    0.195E-03
RMM:  45    -0.257883440763E+03   -0.44276E-06   -0.49355E-08   257   0.556E-04
   3 F= -.25788344E+03 E0= -.25761765E+03  d E =-.127469E+00
       N       E                     dE             d eps       ncg     rms          rms(c)
DAV:   1    -0.257921627073E+03   -0.38187E-01   -0.21891E+01   672   0.844E+00    0.142E+00
RMM:   2    -0.259616275570E+03   -0.16946E+01   -0.10230E+00   676   0.292E+00    0.232E+01
RMM:   3    -0.258214532904E+03    0.14017E+01   -0.45665E-01   676   0.208E+00    0.130E+01
RMM:   4    -0.257996276606E+03    0.21826E+00   -0.95436E-02   677   0.843E-01    0.615E+00
RMM:   5    -0.257945169618E+03    0.51107E-01   -0.48012E-02   675   0.601E-01    0.242E+00
RMM:   6    -0.257992194651E+03   -0.47025E-01   -0.26509E-02   676   0.439E-01    0.649E+00
RMM:   7    -0.257975717462E+03    0.16477E-01   -0.19637E-02   676   0.384E-01    0.530E+00
RMM:   8    -0.257965990733E+03    0.97267E-02   -0.20902E-02   676   0.420E-01    0.480E+00
RMM:   9    -0.257951881250E+03    0.14109E-01   -0.11698E-02   676   0.316E-01    0.383E+00
RMM:  10    -0.257935998717E+03    0.15883E-01   -0.10737E-02   676   0.295E-01    0.162E+00
RMM:  11    -0.257940466674E+03   -0.44680E-02   -0.83870E-03   676   0.254E-01    0.194E+00
RMM:  12    -0.257940823756E+03   -0.35708E-03   -0.76739E-03   676   0.246E-01    0.190E+00
RMM:  13    -0.257935359716E+03    0.54640E-02   -0.57940E-03   676   0.226E-01    0.133E+00
RMM:  14    -0.257932976913E+03    0.23828E-02   -0.26715E-03   676   0.150E-01    0.726E-01
RMM:  15    -0.257934533249E+03   -0.15563E-02   -0.25545E-03   675   0.143E-01    0.911E-01
RMM:  16    -0.257933439206E+03    0.10940E-02   -0.18090E-03   676   0.128E-01    0.790E-01
RMM:  17    -0.257932578303E+03    0.86090E-03   -0.88791E-04   675   0.891E-02    0.447E-01
RMM:  18    -0.257932637367E+03   -0.59064E-04   -0.57140E-04   676   0.678E-02    0.339E-01
RMM:  19    -0.257933001227E+03   -0.36386E-03   -0.49497E-04   675   0.634E-02    0.461E-01
RMM:  20    -0.257932540110E+03    0.46112E-03   -0.31344E-04   676   0.538E-02    0.275E-01
RMM:  21    -0.257932509787E+03    0.30324E-04   -0.13453E-04   676   0.344E-02    0.146E-01
RMM:  22    -0.257932606185E+03   -0.96398E-04   -0.66663E-05   675   0.234E-02    0.162E-01
RMM:  23    -0.257932646601E+03   -0.40416E-04   -0.74113E-05   676   0.243E-02    0.184E-01
RMM:  24    -0.257932563692E+03    0.82910E-04   -0.51722E-05   674   0.222E-02    0.830E-02
RMM:  25    -0.257932599182E+03   -0.35490E-04   -0.14125E-05   667   0.112E-02    0.512E-02
RMM:  26    -0.257932624011E+03   -0.24829E-04   -0.10220E-05   661   0.902E-03    0.684E-02
RMM:  27    -0.257932626003E+03   -0.19920E-05   -0.85482E-06   654   0.848E-03    0.708E-02
RMM:  28    -0.257932620695E+03    0.53074E-05   -0.54779E-06   597   0.723E-03    0.258E-02
RMM:  29    -0.257932630116E+03   -0.94208E-05   -0.21849E-06   378   0.458E-03    0.222E-02
RMM:  30    -0.257932636153E+03   -0.60371E-05   -0.22084E-06   376   0.468E-03    0.239E-02
RMM:  31    -0.257932635962E+03    0.19130E-06   -0.13572E-06   365   0.409E-03
   4 F= -.25793264E+03 E0= -.25766706E+03  d E =-.491952E-01
       N       E                     dE             d eps       ncg     rms          rms(c)
DAV:   1    -0.257945308100E+03   -0.12672E-01   -0.33268E+00   672   0.322E+00    0.541E-01
RMM:   2    -0.258235200779E+03   -0.28989E+00   -0.16693E-01   676   0.112E+00    0.115E+01
RMM:   3    -0.258024258722E+03    0.21094E+00   -0.58513E-02   680   0.731E-01    0.744E+00
RMM:   4    -0.257957484376E+03    0.66774E-01   -0.28152E-02   677   0.477E-01    0.235E+00
RMM:   5    -0.257960953026E+03   -0.34687E-02   -0.10690E-02   676   0.289E-01    0.290E+00
RMM:   6    -0.257956488991E+03    0.44640E-02   -0.58391E-03   676   0.209E-01    0.222E+00
RMM:   7    -0.257962236585E+03   -0.57476E-02   -0.73020E-03   676   0.240E-01    0.259E+00
RMM:   8    -0.257959721879E+03    0.25147E-02   -0.52220E-03   676   0.213E-01    0.294E+00
RMM:   9    -0.257950432997E+03    0.92889E-02   -0.28154E-03   676   0.156E-01    0.122E+00
RMM:  10    -0.257950001544E+03    0.43145E-03   -0.24474E-03   675   0.141E-01    0.644E-01
RMM:  11    -0.257951178931E+03   -0.11774E-02   -0.15520E-03   676   0.108E-01    0.850E-01
RMM:  12    -0.257950571771E+03    0.60716E-03   -0.13652E-03   675   0.107E-01    0.750E-01
RMM:  13    -0.257949546504E+03    0.10253E-02   -0.85020E-04   676   0.885E-02    0.427E-01
RMM:  14    -0.257949623659E+03   -0.77155E-04   -0.35261E-04   676   0.542E-02    0.310E-01
RMM:  15    -0.257949966541E+03   -0.34288E-03   -0.41893E-04   676   0.569E-02    0.422E-01
RMM:  16    -0.257949737511E+03    0.22903E-03   -0.30204E-04   676   0.516E-02    0.351E-01
RMM:  17    -0.257949573562E+03    0.16395E-03   -0.16215E-04   676   0.384E-02    0.153E-01
RMM:  18    -0.257949651522E+03   -0.77960E-04   -0.72833E-05   676   0.246E-02    0.126E-01
RMM:  19    -0.257949693654E+03   -0.42132E-04   -0.63973E-05   674   0.227E-02    0.147E-01
RMM:  20    -0.257949664282E+03    0.29372E-04   -0.44258E-05   671   0.200E-02    0.110E-01
RMM:  21    -0.257949668971E+03   -0.46888E-05   -0.23352E-05   670   0.145E-02    0.689E-02
RMM:  22    -0.257949684784E+03   -0.15813E-04   -0.10759E-05   659   0.944E-03    0.618E-02
RMM:  23    -0.257949692212E+03   -0.74279E-05   -0.11339E-05   666   0.968E-03    0.602E-02
RMM:  24    -0.257949689286E+03    0.29264E-05   -0.75322E-06   646   0.840E-03    0.383E-02
RMM:  25    -0.257949691465E+03   -0.21790E-05   -0.28571E-06   404   0.521E-03    0.301E-02
RMM:  26    -0.257949698582E+03   -0.71169E-05   -0.29407E-06   412   0.521E-03    0.452E-02
RMM:  27    -0.257949696810E+03    0.17720E-05   -0.26296E-06   389   0.528E-03    0.342E-02
RMM:  28    -0.257949698141E+03   -0.13309E-05   -0.16351E-06   367   0.434E-03    0.146E-02
RMM:  29    -0.257949700202E+03   -0.20614E-05   -0.59228E-07   356   0.244E-03    0.121E-02
RMM:  30    -0.257949701716E+03   -0.15139E-05   -0.54776E-07   355   0.227E-03    0.124E-02
RMM:  31    -0.257949702647E+03   -0.93105E-06   -0.39820E-07   357   0.217E-03
   5 F= -.25794970E+03 E0= -.25768521E+03  d E =-.170667E-01
       N       E                     dE             d eps       ncg     rms          rms(c)
DAV:   1    -0.257963325985E+03   -0.13624E-01   -0.34365E+00   672   0.334E+00    0.552E-01
RMM:   2    -0.258283076281E+03   -0.31975E+00   -0.13867E-01   676   0.106E+00    0.119E+01
RMM:   3    -0.258045707600E+03    0.23737E+00   -0.61216E-02   676   0.770E-01    0.779E+00
RMM:   4    -0.257969949871E+03    0.75758E-01   -0.28696E-02   676   0.486E-01    0.223E+00
RMM:   5    -0.257972375130E+03   -0.24253E-02   -0.10534E-02   676   0.290E-01    0.252E+00
RMM:   6    -0.257970886055E+03    0.14891E-02   -0.47364E-03   676   0.189E-01    0.233E+00
RMM:   7    -0.257976538593E+03   -0.56525E-02   -0.71236E-03   675   0.236E-01    0.272E+00
RMM:   8    -0.257973453031E+03    0.30856E-02   -0.42558E-03   676   0.193E-01    0.285E+00
RMM:   9    -0.257964823656E+03    0.86294E-02   -0.30814E-03   676   0.163E-01    0.120E+00
RMM:  10    -0.257963927015E+03    0.89664E-03   -0.22571E-03   676   0.136E-01    0.596E-01
RMM:  11    -0.257964593915E+03   -0.66690E-03   -0.12330E-03   676   0.977E-02    0.684E-01
RMM:  12    -0.257964563239E+03    0.30676E-04   -0.11328E-03   675   0.972E-02    0.685E-01
RMM:  13    -0.257963595519E+03    0.96772E-03   -0.68923E-04   675   0.813E-02    0.357E-01
RMM:  14    -0.257963740909E+03   -0.14539E-03   -0.22762E-04   676   0.440E-02    0.258E-01
RMM:  15    -0.257963956653E+03   -0.21574E-03   -0.27806E-04   676   0.467E-02    0.335E-01
RMM:  16    -0.257963811774E+03    0.14488E-03   -0.21040E-04   676   0.431E-02    0.288E-01
RMM:  17    -0.257963697948E+03    0.11383E-03   -0.12340E-04   676   0.337E-02    0.160E-01
RMM:  18    -0.257963776784E+03   -0.78836E-04   -0.62680E-05   674   0.230E-02    0.141E-01
RMM:  19    -0.257963798312E+03   -0.21528E-04   -0.52761E-05   674   0.206E-02    0.141E-01
RMM:  20    -0.257963794401E+03    0.39105E-05   -0.40469E-05   671   0.189E-02    0.108E-01
RMM:  21    -0.257963784040E+03    0.10361E-04   -0.20882E-05   669   0.138E-02    0.650E-02
RMM:  22    -0.257963807529E+03   -0.23488E-04   -0.86295E-06   650   0.851E-03    0.579E-02
RMM:  23    -0.257963812648E+03   -0.51194E-05   -0.83293E-06   655   0.833E-03    0.608E-02
RMM:  24    -0.257963811334E+03    0.13145E-05   -0.49324E-06   568   0.700E-03    0.420E-02
RMM:  25    -0.257963815318E+03   -0.39842E-05   -0.19089E-06   378   0.439E-03    0.276E-02
RMM:  26    -0.257963821943E+03   -0.66257E-05   -0.16268E-06   366   0.391E-03    0.360E-02
RMM:  27    -0.257963821379E+03    0.56401E-06   -0.15946E-06   366   0.413E-03
   6 F= -.25796382E+03 E0= -.25770004E+03  d E =-.141187E-01
       N       E                     dE             d eps       ncg     rms          rms(c)
DAV:   1    -0.257978702517E+03   -0.14881E-01   -0.42379E+00   672   0.371E+00    0.590E-01
RMM:   2    -0.258360928981E+03   -0.38223E+00   -0.16320E-01   676   0.115E+00    0.132E+01
RMM:   3    -0.258075623987E+03    0.28530E+00   -0.67393E-02   676   0.803E-01    0.814E+00
RMM:   4    -0.257989161894E+03    0.86462E-01   -0.35675E-02   676   0.543E-01    0.254E+00
RMM:   5    -0.257992044823E+03   -0.28829E-02   -0.11758E-02   676   0.305E-01    0.303E+00
RMM:   6    -0.257987785718E+03    0.42591E-02   -0.67189E-03   676   0.225E-01    0.239E+00
RMM:   7    -0.257995241371E+03   -0.74557E-02   -0.85396E-03   675   0.257E-01    0.294E+00
RMM:   8    -0.257995127835E+03    0.11354E-03   -0.55342E-03   676   0.219E-01    0.350E+00
RMM:   9    -0.257981282918E+03    0.13845E-01   -0.42529E-03   676   0.192E-01    0.132E+00
RMM:  10    -0.257980210296E+03    0.10726E-02   -0.29753E-03   676   0.158E-01    0.651E-01
RMM:  11    -0.257980982437E+03   -0.77214E-03   -0.15518E-03   676   0.109E-01    0.758E-01
RMM:  12    -0.257981206072E+03   -0.22364E-03   -0.14862E-03   675   0.111E-01    0.828E-01
RMM:  13    -0.257979757318E+03    0.14488E-02   -0.94387E-04   675   0.951E-02    0.433E-01
RMM:  14    -0.257979868600E+03   -0.11128E-03   -0.31462E-04   676   0.520E-02    0.274E-01
RMM:  15    -0.257980161169E+03   -0.29257E-03   -0.35928E-04   676   0.529E-02    0.371E-01
RMM:  16    -0.257979987774E+03    0.17339E-03   -0.27039E-04   676   0.488E-02    0.332E-01
RMM:  17    -0.257979844099E+03    0.14367E-03   -0.14802E-04   676   0.371E-02    0.180E-01
RMM:  18    -0.257979909148E+03   -0.65049E-04   -0.72145E-05   676   0.248E-02    0.128E-01
RMM:  19    -0.257979953339E+03   -0.44191E-04   -0.54767E-05   674   0.209E-02    0.138E-01
RMM:  20    -0.257979951679E+03    0.16603E-05   -0.44130E-05   671   0.195E-02    0.120E-01
RMM:  21    -0.257979932177E+03    0.19502E-04   -0.26480E-05   670   0.157E-02    0.702E-02
RMM:  22    -0.257979958282E+03   -0.26105E-04   -0.93298E-06   657   0.895E-03    0.585E-02
RMM:  23    -0.257979962314E+03   -0.40325E-05   -0.90757E-06   660   0.865E-03    0.579E-02
RMM:  24    -0.257979960753E+03    0.15607E-05   -0.59046E-06   613   0.753E-03    0.440E-02
RMM:  25    -0.257979967177E+03   -0.64235E-05   -0.26738E-06   395   0.514E-03    0.299E-02
RMM:  26    -0.257979970183E+03   -0.30064E-05   -0.22414E-06   383   0.465E-03    0.347E-02
RMM:  27    -0.257979974250E+03   -0.40670E-05   -0.19411E-06   372   0.461E-03    0.313E-02
RMM:  28    -0.257979973750E+03    0.50054E-06   -0.11521E-06   364   0.368E-03
   7 F= -.25797997E+03 E0= -.25771686E+03  d E =-.161524E-01
       N       E                     dE             d eps       ncg     rms          rms(c)
DAV:   1    -0.257994012380E+03   -0.14038E-01   -0.47179E+00   672   0.393E+00    0.577E-01
RMM:   2    -0.258381269768E+03   -0.38726E+00   -0.15491E-01   676   0.112E+00    0.135E+01
RMM:   3    -0.258081962229E+03    0.29931E+00   -0.62302E-02   676   0.768E-01    0.757E+00
RMM:   4    -0.258005306942E+03    0.76655E-01   -0.36181E-02   676   0.550E-01    0.258E+00
RMM:   5    -0.258007700835E+03   -0.23939E-02   -0.10623E-02   676   0.290E-01    0.311E+00
RMM:   6    -0.258004060058E+03    0.36408E-02   -0.79206E-03   676   0.244E-01    0.241E+00
RMM:   7    -0.258012291167E+03   -0.82311E-02   -0.87330E-03   676   0.261E-01    0.310E+00
RMM:   8    -0.258010164006E+03    0.21272E-02   -0.56305E-03   676   0.222E-01    0.345E+00
RMM:   9    -0.257996183869E+03    0.13980E-01   -0.42162E-03   676   0.192E-01    0.115E+00
RMM:  10    -0.257995875144E+03    0.30873E-03   -0.27101E-03   676   0.151E-01    0.625E-01
RMM:  11    -0.257996856906E+03   -0.98176E-03   -0.17045E-03   676   0.115E-01    0.834E-01
RMM:  12    -0.257996986456E+03   -0.12955E-03   -0.15779E-03   675   0.114E-01    0.905E-01
RMM:  13    -0.257995319421E+03    0.16670E-02   -0.10639E-03   676   0.100E-01    0.428E-01
RMM:  14    -0.257995469746E+03   -0.15033E-03   -0.36142E-04   676   0.555E-02    0.298E-01
RMM:  15    -0.257995769098E+03   -0.29935E-03   -0.42297E-04   676   0.576E-02    0.383E-01
RMM:  16    -0.257995493408E+03    0.27569E-03   -0.29382E-04   675   0.519E-02    0.285E-01
RMM:  17    -0.257995451573E+03    0.41835E-04   -0.12867E-04   676   0.340E-02    0.176E-01
RMM:  18    -0.257995509299E+03   -0.57726E-04   -0.88211E-05   676   0.267E-02    0.143E-01
RMM:  19    -0.257995547524E+03   -0.38225E-04   -0.76371E-05   676   0.250E-02    0.152E-01
RMM:  20    -0.257995518945E+03    0.28579E-04   -0.41474E-05   672   0.197E-02    0.129E-01
RMM:  21    -0.257995498546E+03    0.20400E-04   -0.22473E-05   670   0.140E-02    0.569E-02
RMM:  22    -0.257995547939E+03   -0.49393E-04   -0.14242E-05   668   0.108E-02    0.836E-02
RMM:  23    -0.257995536748E+03    0.11191E-04   -0.10844E-05   659   0.960E-03    0.825E-02
RMM:  24    -0.257995533290E+03    0.34579E-05   -0.85807E-06   656   0.894E-03    0.363E-02
RMM:  25    -0.257995544340E+03   -0.11050E-04   -0.28248E-06   403   0.524E-03    0.315E-02
RMM:  26    -0.257995548628E+03   -0.42885E-05   -0.27562E-06   393   0.516E-03    0.316E-02
RMM:  27    -0.257995548858E+03   -0.22943E-06   -0.19794E-06   369   0.482E-03
   8 F= -.25799555E+03 E0= -.25773315E+03  d E =-.155751E-01
       N       E                     dE             d eps       ncg     rms          rms(c)
DAV:   1    -0.258004410176E+03   -0.88615E-02   -0.35529E+00   672   0.341E+00    0.452E-01
RMM:   2    -0.258261488547E+03   -0.25708E+00   -0.11006E-01   676   0.922E-01    0.118E+01
RMM:   3    -0.258051821964E+03    0.20967E+00   -0.38334E-02   681   0.586E-01    0.553E+00
RMM:   4    -0.258014960744E+03    0.36861E-01   -0.23483E-02   677   0.446E-01    0.226E+00
RMM:   5    -0.258016411837E+03   -0.14511E-02   -0.73538E-03   676   0.241E-01    0.273E+00
RMM:   6    -0.258014163233E+03    0.22486E-02   -0.62249E-03   676   0.217E-01    0.217E+00
RMM:   7    -0.258018805612E+03   -0.46424E-02   -0.65121E-03   676   0.228E-01    0.265E+00
RMM:   8    -0.258017624233E+03    0.11814E-02   -0.41220E-03   676   0.190E-01    0.291E+00
RMM:   9    -0.258007414224E+03    0.10210E-01   -0.34006E-03   676   0.171E-01    0.944E-01
RMM:  10    -0.258007498147E+03   -0.83923E-04   -0.18766E-03   676   0.125E-01    0.575E-01
RMM:  11    -0.258008528860E+03   -0.10307E-02   -0.13942E-03   676   0.103E-01    0.818E-01
RMM:  12    -0.258008211641E+03    0.31722E-03   -0.13152E-03   675   0.104E-01    0.757E-01
RMM:  13    -0.258006965019E+03    0.12466E-02   -0.88110E-04   676   0.899E-02    0.302E-01
RMM:  14    -0.258007217494E+03   -0.25247E-03   -0.30908E-04   676   0.508E-02    0.297E-01
RMM:  15    -0.258007451248E+03   -0.23375E-03   -0.31416E-04   676   0.497E-02    0.398E-01
RMM:  16    -0.258007179286E+03    0.27196E-03   -0.23691E-04   676   0.459E-02    0.273E-01
RMM:  17    -0.258007130637E+03    0.48648E-04   -0.13356E-04   676   0.345E-02    0.139E-01
RMM:  18    -0.258007200989E+03   -0.70352E-04   -0.61154E-05   675   0.225E-02    0.133E-01
RMM:  19    -0.258007238019E+03   -0.37030E-04   -0.50844E-05   673   0.202E-02    0.168E-01
RMM:  20    -0.258007201714E+03    0.36305E-04   -0.40039E-05   671   0.189E-02    0.111E-01
RMM:  21    -0.258007201691E+03    0.22344E-07   -0.22602E-05   671   0.144E-02    0.627E-02
RMM:  22    -0.258007215707E+03   -0.14015E-04   -0.99116E-06   661   0.916E-03    0.508E-02
RMM:  23    -0.258007227904E+03   -0.12197E-04   -0.98116E-06   663   0.897E-03    0.729E-02
RMM:  24    -0.258007215673E+03    0.12231E-04   -0.61832E-06   621   0.760E-03    0.479E-02
RMM:  25    -0.258007222630E+03   -0.69569E-05   -0.35349E-06   446   0.587E-03    0.231E-02
RMM:  26    -0.258007227469E+03   -0.48390E-05   -0.26415E-06   384   0.500E-03    0.266E-02
RMM:  27    -0.258007228223E+03   -0.75369E-06   -0.21609E-06   365   0.494E-03
   9 F= -.25800723E+03 E0= -.25774520E+03  d E =-.116794E-01
       N       E                     dE             d eps       ncg     rms          rms(c)
DAV:   1    -0.258010402093E+03   -0.31746E-02   -0.55674E-01   672   0.133E+00    0.163E-01
RMM:   2    -0.258045350238E+03   -0.34948E-01   -0.16221E-02   676   0.347E-01    0.480E+00
RMM:   3    -0.258012920568E+03    0.32430E-01   -0.54455E-03   684   0.218E-01    0.179E+00
RMM:   4    -0.258011418612E+03    0.15020E-02   -0.30402E-03   677   0.163E-01    0.740E-01
RMM:   5    -0.258012092784E+03   -0.67417E-03   -0.11369E-03   676   0.950E-02    0.102E+00
RMM:   6    -0.258012470293E+03   -0.37751E-03   -0.80818E-04   676   0.791E-02    0.113E+00
RMM:   7    -0.258012131501E+03    0.33879E-03   -0.98079E-04   676   0.906E-02    0.953E-01
RMM:   8    -0.258011439745E+03    0.69176E-03   -0.47597E-04   676   0.658E-02    0.801E-01
RMM:   9    -0.258010766938E+03    0.67281E-03   -0.33545E-04   676   0.530E-02    0.278E-01
RMM:  10    -0.258011226379E+03   -0.45944E-03   -0.29168E-04   676   0.475E-02    0.344E-01
RMM:  11    -0.258011242797E+03   -0.16418E-04   -0.26708E-04   676   0.459E-02    0.377E-01
RMM:  12    -0.258010990225E+03    0.25257E-03   -0.20779E-04   675   0.429E-02    0.213E-01
RMM:  13    -0.258010992196E+03   -0.19711E-05   -0.10140E-04   676   0.293E-02    0.131E-01
RMM:  14    -0.258011066101E+03   -0.73905E-04   -0.74855E-05   676   0.243E-02    0.175E-01
RMM:  15    -0.258011038641E+03    0.27460E-04   -0.61707E-05   674   0.232E-02    0.168E-01
RMM:  16    -0.258011005860E+03    0.32782E-04   -0.32262E-05   672   0.170E-02    0.840E-02
RMM:  17    -0.258011029922E+03   -0.24063E-04   -0.20640E-05   672   0.131E-02    0.589E-02
RMM:  18    -0.258011048599E+03   -0.18676E-04   -0.18154E-05   670   0.122E-02    0.780E-02
RMM:  19    -0.258011038476E+03    0.10123E-04   -0.10989E-05   656   0.100E-02    0.604E-02
RMM:  20    -0.258011039131E+03   -0.65479E-06   -0.61192E-06   618   0.747E-03
  10 F= -.25801104E+03 E0= -.25774915E+03  d E =-.381091E-02
       N       E                     dE             d eps       ncg     rms          rms(c)
DAV:   1    -0.258013760454E+03   -0.27220E-02   -0.21120E-01   672   0.834E-01    0.112E-01
RMM:   2    -0.258036117904E+03   -0.22357E-01   -0.61562E-03   676   0.219E-01    0.395E+00
RMM:   3    -0.258013994833E+03    0.22123E-01   -0.28799E-03   678   0.163E-01    0.130E+00
RMM:   4    -0.258013839378E+03    0.15546E-03   -0.16519E-03   676   0.121E-01    0.499E-01
RMM:   5    -0.258014485595E+03   -0.64622E-03   -0.67781E-04   676   0.734E-02    0.742E-01
RMM:   6    -0.258014639785E+03   -0.15419E-03   -0.44028E-04   676   0.584E-02    0.837E-01
RMM:   7    -0.258014030438E+03    0.60935E-03   -0.55999E-04   676   0.688E-02    0.472E-01
RMM:   8    -0.258014016341E+03    0.14097E-04   -0.29722E-04   676   0.524E-02    0.515E-01
RMM:   9    -0.258013770698E+03    0.24564E-03   -0.10798E-04   676   0.305E-02    0.251E-01
RMM:  10    -0.258013849958E+03   -0.79260E-04   -0.89940E-05   673   0.269E-02    0.134E-01
RMM:  11    -0.258013994390E+03   -0.14443E-03   -0.92700E-05   676   0.264E-02    0.249E-01
RMM:  12    -0.258013858165E+03    0.13622E-03   -0.69615E-05   673   0.247E-02    0.171E-01
RMM:  13    -0.258013850844E+03    0.73210E-05   -0.42739E-05   672   0.195E-02    0.744E-02
RMM:  14    -0.258013885060E+03   -0.34216E-04   -0.18567E-05   671   0.123E-02    0.721E-02
RMM:  15    -0.258013901983E+03   -0.16923E-04   -0.18789E-05   672   0.122E-02    0.110E-01
RMM:  16    -0.258013877023E+03    0.24960E-04   -0.14778E-05   668   0.115E-02    0.704E-02
RMM:  17    -0.258013885312E+03   -0.82883E-05   -0.90968E-06   661   0.901E-03    0.365E-02
RMM:  18    -0.258013892205E+03   -0.68935E-05   -0.38893E-06   479   0.587E-03    0.281E-02
RMM:  19    -0.258013896112E+03   -0.39069E-05   -0.33175E-06   428   0.556E-03    0.400E-02
RMM:  20    -0.258013893809E+03    0.23031E-05   -0.22231E-06   380   0.504E-03    0.277E-02
RMM:  21    -0.258013894681E+03   -0.87231E-06   -0.12404E-06   364   0.374E-03
  11 F= -.25801389E+03 E0= -.25775211E+03  d E =-.285555E-02
       N       E                     dE             d eps       ncg     rms          rms(c)
DAV:   1    -0.258016999692E+03   -0.31059E-02   -0.32435E-01   672   0.103E+00    0.131E-01
RMM:   2    -0.258048846185E+03   -0.31846E-01   -0.78600E-03   676   0.250E-01    0.476E+00
RMM:   3    -0.258017344445E+03    0.31502E-01   -0.38964E-03   678   0.190E-01    0.141E+00
RMM:   4    -0.258017285418E+03    0.59026E-04   -0.22346E-03   676   0.141E-01    0.606E-01
RMM:   5    -0.258018042841E+03   -0.75742E-03   -0.83350E-04   676   0.818E-02    0.947E-01
RMM:   6    -0.258018150098E+03   -0.10726E-03   -0.64710E-04   676   0.705E-02    0.967E-01
RMM:   7    -0.258017952709E+03    0.19739E-03   -0.75785E-04   676   0.801E-02    0.884E-01
RMM:   8    -0.258017365155E+03    0.58755E-03   -0.34686E-04   676   0.564E-02    0.666E-01
RMM:   9    -0.258016936518E+03    0.42864E-03   -0.27980E-04   676   0.489E-02    0.222E-01
RMM:  10    -0.258017114786E+03   -0.17827E-03   -0.14738E-04   676   0.341E-02    0.178E-01
RMM:  11    -0.258017247406E+03   -0.13262E-03   -0.13663E-04   676   0.322E-02    0.288E-01
RMM:  12    -0.258017113999E+03    0.13341E-03   -0.11342E-04   676   0.313E-02    0.212E-01
RMM:  13    -0.258017064739E+03    0.49260E-04   -0.70376E-05   676   0.253E-02    0.908E-02
RMM:  14    -0.258017107874E+03   -0.43135E-04   -0.24643E-05   671   0.144E-02    0.800E-02
RMM:  15    -0.258017136725E+03   -0.28851E-04   -0.24129E-05   671   0.138E-02    0.117E-01
RMM:  16    -0.258017115397E+03    0.21328E-04   -0.20068E-05   670   0.132E-02    0.956E-02
RMM:  17    -0.258017111026E+03    0.43706E-05   -0.14215E-05   668   0.113E-02    0.427E-02
RMM:  18    -0.258017124436E+03   -0.13410E-04   -0.56469E-06   582   0.702E-03    0.327E-02
RMM:  19    -0.258017129107E+03   -0.46712E-05   -0.36060E-06   444   0.570E-03    0.433E-02
RMM:  20    -0.258017128444E+03    0.66317E-06   -0.34017E-06   438   0.592E-03
  12 F= -.25801713E+03 E0= -.25775542E+03  d E =-.323376E-02
       N       E                     dE             d eps       ncg     rms          rms(c)
DAV:   1    -0.258020545881E+03   -0.34168E-02   -0.45529E-01   672   0.122E+00    0.155E-01
RMM:   2    -0.258066387967E+03   -0.45842E-01   -0.10958E-02   676   0.295E-01    0.569E+00
RMM:   3    -0.258021604677E+03    0.44783E-01   -0.54955E-03   678   0.226E-01    0.166E+00
RMM:   4    -0.258021076590E+03    0.52809E-03   -0.30763E-03   676   0.166E-01    0.722E-01
RMM:   5    -0.258022122718E+03   -0.10461E-02   -0.11377E-03   676   0.957E-02    0.115E+00
RMM:   6    -0.258022180008E+03   -0.57290E-04   -0.92167E-04   676   0.841E-02    0.112E+00
RMM:   7    -0.258022054050E+03    0.12596E-03   -0.10540E-03   676   0.949E-02    0.111E+00
RMM:   8    -0.258020897248E+03    0.11568E-02   -0.46917E-04   676   0.656E-02    0.696E-01
RMM:   9    -0.258020562642E+03    0.33461E-03   -0.38206E-04   676   0.572E-02    0.266E-01
RMM:  10    -0.258020706165E+03   -0.14352E-03   -0.19100E-04   676   0.387E-02    0.218E-01
RMM:  11    -0.258020882655E+03   -0.17649E-03   -0.19207E-04   676   0.383E-02    0.332E-01
RMM:  12    -0.258020700838E+03    0.18182E-03   -0.15734E-04   675   0.370E-02    0.239E-01
RMM:  13    -0.258020639673E+03    0.61165E-04   -0.88086E-05   676   0.283E-02    0.996E-02
RMM:  14    -0.258020694575E+03   -0.54902E-04   -0.31482E-05   671   0.162E-02    0.956E-02
RMM:  15    -0.258020732332E+03   -0.37757E-04   -0.33936E-05   672   0.163E-02    0.142E-01
RMM:  16    -0.258020694795E+03    0.37537E-04   -0.27303E-05   671   0.155E-02    0.101E-01
RMM:  17    -0.258020697167E+03   -0.23719E-05   -0.17448E-05   668   0.125E-02    0.461E-02
RMM:  18    -0.258020712270E+03   -0.15103E-04   -0.67790E-06   630   0.760E-03    0.387E-02
RMM:  19    -0.258020717148E+03   -0.48771E-05   -0.50028E-06   558   0.646E-03    0.487E-02
RMM:  20    -0.258020717232E+03   -0.84321E-07   -0.41418E-06   495   0.636E-03
  13 F= -.25802072E+03 E0= -.25775914E+03  d E =-.358879E-02
       N       E                     dE             d eps       ncg     rms          rms(c)
DAV:   1    -0.258024440242E+03   -0.37231E-02   -0.58799E-01   672   0.139E+00    0.177E-01
RMM:   2    -0.258088496128E+03   -0.64056E-01   -0.14317E-02   676   0.337E-01    0.672E+00
RMM:   3    -0.258025877937E+03    0.62618E-01   -0.74833E-03   678   0.264E-01    0.183E+00
RMM:   4    -0.258025323724E+03    0.55421E-03   -0.39500E-03   676   0.188E-01    0.829E-01
RMM:   5    -0.258026802560E+03   -0.14788E-02   -0.14315E-03   676   0.108E-01    0.140E+00
RMM:   6    -0.258026640804E+03    0.16176E-03   -0.13387E-03   676   0.101E-01    0.126E+00
RMM:   7    -0.258026592757E+03    0.48047E-04   -0.13892E-03   676   0.110E-01    0.132E+00
RMM:   8    -0.258024773621E+03    0.18191E-02   -0.60512E-04   676   0.744E-02    0.709E-01
RMM:   9    -0.258024516497E+03    0.25712E-03   -0.45945E-04   676   0.627E-02    0.292E-01
RMM:  10    -0.258024681019E+03   -0.16452E-03   -0.24457E-04   676   0.437E-02    0.264E-01
RMM:  11    -0.258024896888E+03   -0.21587E-03   -0.25626E-04   675   0.444E-02    0.384E-01
RMM:  12    -0.258024619566E+03    0.27732E-03   -0.20343E-04   675   0.424E-02    0.242E-01
RMM:  13    -0.258024581240E+03    0.38326E-04   -0.10166E-04   676   0.302E-02    0.106E-01
RMM:  14    -0.258024640919E+03   -0.59680E-04   -0.39453E-05   672   0.181E-02    0.113E-01
RMM:  15    -0.258024685640E+03   -0.44721E-04   -0.43572E-05   673   0.185E-02    0.166E-01
RMM:  16    -0.258024629097E+03    0.56542E-04   -0.34432E-05   672   0.176E-02    0.104E-01
RMM:  17    -0.258024639860E+03   -0.10763E-04   -0.20017E-05   669   0.134E-02    0.469E-02
RMM:  18    -0.258024657608E+03   -0.17748E-04   -0.82873E-06   651   0.831E-03    0.466E-02
RMM:  19    -0.258024662168E+03   -0.45596E-05   -0.68419E-06   633   0.746E-03    0.597E-02
RMM:  20    -0.258024659943E+03    0.22247E-05   -0.53631E-06   595   0.707E-03    0.417E-02
RMM:  21    -0.258024660803E+03   -0.86044E-06   -0.28042E-06   401   0.542E-03
  14 F= -.25802466E+03 E0= -.25776322E+03  d E =-.394357E-02
       N       E                     dE             d eps       ncg     rms          rms(c)
DAV:   1    -0.258028570787E+03   -0.39108E-02   -0.71646E-01   672   0.154E+00    0.198E-01
RMM:   2    -0.258111702996E+03   -0.83132E-01   -0.17823E-02   676   0.377E-01    0.762E+00
RMM:   3    -0.258030215723E+03    0.81487E-01   -0.95256E-03   678   0.298E-01    0.198E+00
RMM:   4    -0.258029818917E+03    0.39681E-03   -0.49696E-03   676   0.211E-01    0.897E-01
RMM:   5    -0.258031529458E+03   -0.17105E-02   -0.18466E-03   676   0.122E-01    0.154E+00
RMM:   6    -0.258031680647E+03   -0.15119E-03   -0.16433E-03   676   0.113E-01    0.149E+00
RMM:   7    -0.258031070056E+03    0.61059E-03   -0.17140E-03   676   0.122E-01    0.143E+00
RMM:   8    -0.258028999722E+03    0.20703E-02   -0.71099E-04   676   0.809E-02    0.758E-01
RMM:   9    -0.258028663553E+03    0.33617E-03   -0.52209E-04   676   0.668E-02    0.293E-01
RMM:  10    -0.258028921242E+03   -0.25769E-03   -0.30627E-04   676   0.487E-02    0.311E-01
RMM:  11    -0.258029148372E+03   -0.22713E-03   -0.31423E-04   676   0.495E-02    0.446E-01
RMM:  12    -0.258028763580E+03    0.38479E-03   -0.24058E-04   676   0.465E-02    0.246E-01
RMM:  13    -0.258028758026E+03    0.55535E-05   -0.12377E-04   676   0.331E-02    0.118E-01
RMM:  14    -0.258028815614E+03   -0.57588E-04   -0.51329E-05   674   0.205E-02    0.124E-01
RMM:  15    -0.258028875950E+03   -0.60336E-04   -0.53644E-05   673   0.206E-02    0.193E-01
RMM:  16    -0.258028801687E+03    0.74262E-04   -0.41818E-05   673   0.194E-02    0.122E-01
RMM:  17    -0.258028809651E+03   -0.79637E-05   -0.24959E-05   669   0.149E-02    0.513E-02
RMM:  18    -0.258028832712E+03   -0.23061E-04   -0.10856E-05   661   0.956E-03    0.536E-02
RMM:  19    -0.258028840704E+03   -0.79923E-05   -0.93203E-06   656   0.868E-03    0.730E-02
RMM:  20    -0.258028833452E+03    0.72521E-05   -0.73269E-06   643   0.817E-03    0.443E-02
RMM:  21    -0.258028836808E+03   -0.33558E-05   -0.38095E-06   471   0.612E-03    0.198E-02
RMM:  22    -0.258028840073E+03   -0.32652E-05   -0.13177E-06   364   0.363E-03    0.177E-02
RMM:  23    -0.258028841715E+03   -0.16425E-05   -0.11973E-06   361   0.341E-03    0.216E-02
RMM:  24    -0.258028841122E+03    0.59362E-06   -0.84964E-07   355   0.322E-03
  15 F= -.25802884E+03 E0= -.25776756E+03  d E =-.418032E-02
