 vasp.5.4.4.18Apr17-6-g9f103f2a35 (build Oct 13 2018 23:10:52) complex          
  
 executed on           IFC91_ompi date 2020.07.23  05:24:20
 running on  120 total cores
 each image running on   24 cores
 distrk:  each k-point on   24 cores,    1 groups
 distr:  one band on NCORES_PER_BAND=   1 cores,   24 groups


--------------------------------------------------------------------------------------------------------


 INCAR:
 POTCAR:   PAW_PBE Ni 06Sep2000                   
 POTCAR:    PAW_PBE S 17Jan2003                   

 ----------------------------------------------------------------------------- 
|                                                                             |
|           W    W    AA    RRRRR   N    N  II  N    N   GGGG   !!!           |
|           W    W   A  A   R    R  NN   N  II  NN   N  G    G  !!!           |
|           W    W  A    A  R    R  N N  N  II  N N  N  G       !!!           |
|           W WW W  AAAAAA  RRRRR   N  N N  II  N  N N  G  GGG   !            |
|           WW  WW  A    A  R   R   N   NN  II  N   NN  G    G                |
|           W    W  A    A  R    R  N    N  II  N    N   GGGG   !!!           |
|                                                                             |
|      For optimal performance we recommend to set                            |
|        NCORE= 4 - approx SQRT( number of cores)                             |
|      NCORE specifies how many cores store one orbital (NPAR=cpu/NCORE).     |
|      This setting can  greatly improve the performance of VASP for DFT.     |
|      The default,   NCORE=1            might be grossly inefficient         |
|      on modern multi-core architectures or massively parallel machines.     |
|      Do your own testing !!!!                                               |
|      Unfortunately you need to use the default for GW and RPA calculations. |
|      (for HF NCORE is supported but not extensively tested yet)             |
|                                                                             |
 ----------------------------------------------------------------------------- 

 POTCAR:   PAW_PBE Ni 06Sep2000                   
  local pseudopotential read in
  partial core-charges read in
  atomic valenz-charges read in
  non local Contribution for L=           2  read in
    real space projection operators read in
  non local Contribution for L=           2  read in
    real space projection operators read in
  non local Contribution for L=           0  read in
    real space projection operators read in
  non local Contribution for L=           0  read in
    real space projection operators read in
  non local Contribution for L=           1  read in
    real space projection operators read in
  non local Contribution for L=           1  read in
    real space projection operators read in
    PAW grid and wavefunctions read in
 
   number of l-projection  operators is LMAX  =           6
   number of lm-projection operators is LMMAX =          18
 
 POTCAR:    PAW_PBE S 17Jan2003                   
  local pseudopotential read in
  partial core-charges read in
  atomic valenz-charges read in
  non local Contribution for L=           0  read in
    real space projection operators read in
  non local Contribution for L=           0  read in
    real space projection operators read in
  non local Contribution for L=           1  read in
    real space projection operators read in
  non local Contribution for L=           1  read in
    real space projection operators read in
    PAW grid and wavefunctions read in
 
   number of l-projection  operators is LMAX  =           4
   number of lm-projection operators is LMMAX =           8
 

 ----------------------------------------------------------------------------- 
|                                                                             |
|  ADVICE TO THIS USER RUNNING 'VASP/VAMP'   (HEAR YOUR MASTER'S VOICE ...):  |
|                                                                             |
|      You have a (more or less) 'large supercell' and for larger cells       |
|      it might be more efficient to use real space projection operators      |
|      So try LREAL= Auto  in the INCAR   file.                               |
|      Mind: If you want to do a very accurate calculations keep the          |
|      reciprocal projection scheme          (i.e. LREAL=.FALSE.)             |
|                                                                             |
 ----------------------------------------------------------------------------- 

 PAW_PBE Ni 06Sep2000                   :
 energy of atom  1       EATOM=-1077.9025
 kinetic energy error for atom=    0.0101 (will be added to EATOM!!)
  PAW_PBE S 17Jan2003                   :
 energy of atom  2       EATOM= -276.8230
 kinetic energy error for atom=    0.0046 (will be added to EATOM!!)
 
 
 POSCAR: Ni   S                                  
  positions in direct lattice
  No initial velocities read in
 exchange correlation table for  LEXCH =        8
   RHO(1)=    0.500       N(1)  =     2000
   RHO(2)=  100.500       N(2)  =     4000

 VTST: version 3.2, (02/03/18)

 CHAIN: initializing optimizer
 
 OPT: Using Quick-Min optimizer
 OPT: QM, Init
 OPT: QM, MAXMOVE       0.200000
 OPT: QM, TIMESTEP      0.100000
 
 CHAIN: Read ICHAIN            0
 CHAIN: Running the NEB
 NEB:          SPRING     -5.000000
 NEB:          LCLIMB      T
 NEB:     LTANGENTOLD      F
 NEB:           LDNEB      F
 NEB:        LDNEBORG      F
 NEB:        LNEBCELL      F
 NEB:          EFIRST      0.000000
 NEB:           ELAST      0.000000
 
 POSCAR: Ni   S                                  
  positions in direct lattice
  No initial velocities read in
 
 POSCAR: Ni   S                                  
  positions in direct lattice
  No initial velocities read in
 


--------------------------------------------------------------------------------------------------------


 ion  position               nearest neighbor table
   1  0.350  0.596  0.410-  10 2.41  19 2.41   8 2.45  16 2.45   3 2.51  17 2.52   2 2.52  24 2.53

   2  0.451  0.663  0.378-  19 2.41   5 2.41   4 2.45  16 2.45   6 2.51  20 2.52   3 2.52   1 2.52

   3  0.412  0.663  0.497-  10 2.41   5 2.41   8 2.44   4 2.45   1 2.51   2 2.52  12 2.52  11 2.53

   4  0.513  0.723  0.464-   5 2.30   3 2.45   2 2.45  12 2.45   7 2.45   6 2.45
   5  0.515  0.609  0.464-   4 2.30  28 2.36  12 2.40   7 2.41   2 2.41   3 2.41   6 2.41  14 2.47
                            23 2.47  10 2.48  19 2.48  13 2.49
   6  0.577  0.665  0.378-  23 2.41   5 2.41  35 2.45   4 2.45   7 2.51   2 2.51  32 2.52  20 2.52

   7  0.616  0.665  0.497-   5 2.41  14 2.41   4 2.45  33 2.45   6 2.51  32 2.51  12 2.52  15 2.53

   8  0.317  0.593  0.528-  10 2.30   3 2.44   1 2.45   9 2.45  24 2.46  11 2.46
   9  0.350  0.488  0.583-  10 2.41  27 2.42   8 2.45  42 2.47  24 2.49  25 2.52  11 2.53  39 2.60

  10  0.415  0.542  0.497-   8 2.30  28 2.36   3 2.41   1 2.41  24 2.41  11 2.41   9 2.41  19 2.48
                            26 2.48   5 2.48  13 2.48  27 2.49
  11  0.413  0.596  0.604-  13 2.40  10 2.41  40 2.45   8 2.46  12 2.52   3 2.53  39 2.53   9 2.53

  12  0.514  0.663  0.571-   5 2.40  13 2.41  40 2.43   4 2.45  15 2.51  11 2.52   3 2.52   7 2.52

  13  0.515  0.543  0.570-  40 2.30  28 2.36  11 2.40  41 2.40  12 2.41  15 2.41  27 2.46  39 2.46
                            10 2.48  31 2.48   5 2.49  14 2.49
  14  0.615  0.545  0.497-  33 2.29  28 2.35  15 2.41  34 2.41   7 2.41  37 2.42  32 2.42  23 2.47
                             5 2.47  30 2.48  31 2.49  13 2.49
  15  0.616  0.599  0.604-  14 2.41  13 2.41  40 2.44  33 2.45  41 2.49  12 2.51  34 2.52   7 2.53

  16  0.393  0.594  0.296-  19 2.30  18 2.45   2 2.45   1 2.45  17 2.45  20 2.45
  17  0.352  0.489  0.344-  19 2.40  26 2.42  50 2.44  16 2.45  47 2.51   1 2.52  18 2.52  24 2.52

  18  0.454  0.491  0.270-  19 2.41  21 2.41  48 2.45  16 2.45  20 2.50  22 2.51  17 2.52  47 2.53

  19  0.454  0.543  0.379-  16 2.30  28 2.36  17 2.40   2 2.41  18 2.41   1 2.41  20 2.42  21 2.47
                            10 2.48  23 2.48   5 2.48  26 2.49
  20  0.515  0.598  0.291-  23 2.41  19 2.42  35 2.45  16 2.45  18 2.50  22 2.50   2 2.52   6 2.52

  21  0.517  0.438  0.359-  48 2.30  28 2.36  47 2.41  49 2.41  52 2.41  18 2.41  22 2.42  19 2.47
                            29 2.48  23 2.48  30 2.48  26 2.49
  22  0.579  0.492  0.271-  23 2.41  21 2.42  35 2.45  48 2.45  20 2.50  18 2.51  49 2.51  36 2.52

  23  0.578  0.545  0.379-  35 2.30  28 2.37  32 2.41   6 2.41  22 2.41  36 2.41  20 2.41  14 2.47
                             5 2.47  30 2.48  19 2.48  21 2.48
  24  0.313  0.488  0.464-  26 2.40  10 2.41  50 2.45   8 2.46   9 2.49  25 2.51  17 2.52   1 2.53

  25  0.352  0.381  0.517-  26 2.40  27 2.43  42 2.46  50 2.47  43 2.50  51 2.51  24 2.51   9 2.52

  26  0.416  0.437  0.432-  50 2.30  28 2.36  24 2.40  25 2.40  51 2.40  17 2.42  47 2.42  29 2.48
                            10 2.48  27 2.48  21 2.49  19 2.49
  27  0.455  0.437  0.550-  42 2.33  28 2.35  43 2.41   9 2.42  25 2.43  13 2.46  31 2.46  26 2.48
                            10 2.49  29 2.49  44 2.49  39 2.51
  28  0.516  0.491  0.465-  27 2.35  14 2.35  26 2.36  10 2.36  29 2.36   5 2.36  31 2.36  13 2.36
                            30 2.36  21 2.36  19 2.36  23 2.37
  29  0.518  0.373  0.464-  55 2.30  28 2.36  43 2.40  53 2.41  51 2.41  52 2.41  45 2.41  26 2.48
                            21 2.48  30 2.48  31 2.48  27 2.49
  30  0.617  0.439  0.432-  54 2.30  28 2.36  38 2.41  37 2.41  49 2.41  53 2.41  36 2.41  14 2.48
                            23 2.48  29 2.48  21 2.48  31 2.49
  31  0.578  0.438  0.550-  46 2.30  28 2.36  41 2.40  45 2.40  34 2.41  38 2.41  44 2.45  27 2.46
                            29 2.48  13 2.48  30 2.49  14 2.49
  32  0.680  0.600  0.411-  23 2.41  14 2.42  35 2.45  33 2.45   7 2.51  37 2.51  36 2.52   6 2.52

  33  0.712  0.597  0.529-  14 2.29  34 2.45  15 2.45  32 2.45  37 2.45   7 2.45
  34  0.680  0.492  0.584-  14 2.41  31 2.41  46 2.44  33 2.45  41 2.50  38 2.51  15 2.52  37 2.52

  35  0.637  0.597  0.296-  23 2.30  22 2.45  20 2.45  36 2.45   6 2.45  32 2.45
  36  0.681  0.493  0.345-  23 2.41  30 2.41  35 2.45  54 2.45  37 2.51  49 2.51  22 2.52  32 2.52

  37  0.720  0.493  0.464-  30 2.41  14 2.42  54 2.45  33 2.45  36 2.51  32 2.51  38 2.52  34 2.52

  38  0.682  0.386  0.518-  30 2.41  31 2.41  46 2.43  54 2.45  34 2.51  53 2.52  45 2.52  37 2.52

  39  0.452  0.492  0.663-  56 1.97  40 2.44  13 2.46  27 2.51  11 2.53  42 2.53  41 2.55   9 2.60
                            44 2.62
  40  0.515  0.596  0.673-  13 2.30  12 2.43  15 2.44  39 2.44  11 2.45  41 2.48
  41  0.580  0.492  0.657-  13 2.40  31 2.40  46 2.48  40 2.48  15 2.49  34 2.50  44 2.54  39 2.55

  42  0.393  0.384  0.633-  56 1.94  27 2.33  25 2.46  43 2.46   9 2.47  44 2.52  39 2.53
  43  0.455  0.317  0.550-  29 2.40  27 2.41  55 2.46  42 2.46  51 2.49  25 2.50  45 2.52  44 2.58

  44  0.519  0.381  0.641-  56 2.37  46 2.44  31 2.45  27 2.49  45 2.52  42 2.52  41 2.54  43 2.58
                            39 2.62
  45  0.581  0.318  0.551-  31 2.40  29 2.41  46 2.45  55 2.45  44 2.52  38 2.52  43 2.52  53 2.53

  46  0.641  0.387  0.632-  31 2.30  38 2.43  34 2.44  44 2.44  45 2.45  41 2.48
  47  0.416  0.383  0.324-  21 2.41  26 2.42  50 2.44  48 2.45  17 2.51  52 2.52  18 2.53  51 2.53

  48  0.517  0.387  0.256-  21 2.30  47 2.45  18 2.45  52 2.45  49 2.45  22 2.45
  49  0.619  0.386  0.324-  21 2.41  30 2.41  48 2.45  54 2.45  36 2.51  22 2.51  53 2.51  52 2.52

  50  0.320  0.385  0.398-  26 2.30  47 2.44  17 2.44  24 2.45  51 2.45  25 2.47
  51  0.416  0.317  0.431-  26 2.40  29 2.41  50 2.45  55 2.46  43 2.49  25 2.51  47 2.53  52 2.53

  52  0.518  0.318  0.356-  21 2.41  29 2.41  55 2.45  48 2.45  53 2.51  47 2.52  49 2.52  51 2.53

  53  0.620  0.319  0.430-  29 2.41  30 2.41  55 2.44  54 2.45  52 2.51  49 2.51  38 2.52  45 2.53

  54  0.715  0.389  0.400-  30 2.30  53 2.45  37 2.45  38 2.45  49 2.45  36 2.45
  55  0.519  0.258  0.463-  29 2.30  53 2.44  52 2.45  45 2.45  51 2.46  43 2.46
  56  0.434  0.411  0.717-  42 1.94  39 1.97  44 2.37
 

IMPORTANT INFORMATION: All symmetrisations will be switched off!
NOSYMM: (Re-)initialisation of all symmetry stuff for point group C_1.

 
 
 KPOINTS: 4x2x1                                   

Automatic generation of k-mesh.
Space group operators:
 irot       det(A)        alpha          n_x          n_y          n_z        tau_x        tau_y        tau_z
    1     1.000000     0.000000     1.000000     0.000000     0.000000     0.000000     0.000000     0.000000
 
 Subroutine IBZKPT returns following result:
 ===========================================
 
 Found      1 irreducible k-points:
 
 Following reciprocal coordinates:
            Coordinates               Weight
  0.000000  0.000000  0.000000      1.000000
 
 Following cartesian coordinates:
            Coordinates               Weight
  0.000000  0.000000  0.000000      1.000000
 


--------------------------------------------------------------------------------------------------------




 Dimension of arrays:
   k-points           NKPTS =      1   k-points in BZ     NKDIM =      1   number of bands    NBANDS=    336
   number of dos      NEDOS =    301   number of ions     NIONS =     56
   non local maximal  LDIM  =      6   non local SUM 2l+1 LMDIM =     18
   total plane-waves  NPLWV = 941192
   max r-space proj   IRMAX =      1   max aug-charges    IRDMAX=   4013
   dimension x,y,z NGX =    98 NGY =   98 NGZ =   98
   dimension x,y,z NGXF=   196 NGYF=  196 NGZF=  196
   support grid    NGXF=   196 NGYF=  196 NGZF=  196
   ions per type =              55   1
   NGX,Y,Z   is equivalent  to a cutoff of   8.15,  8.15,  8.15 a.u.
   NGXF,Y,Z  is equivalent  to a cutoff of  16.29, 16.29, 16.29 a.u.

 SYSTEM =  neb_test                                
 POSCAR =  Ni   S                                  

 Startparameter for this run:
   NWRITE =      1    write-flag & timer
   PREC   = normal    normal or accurate (medium, high low for compatibility)
   ISTART =      0    job   : 0-new  1-cont  2-samecut
   ICHARG =      2    charge: 1-file 2-atom 10-const
   ISPIN  =      1    spin polarized calculation?
   LNONCOLLINEAR =      F non collinear calculations
   LSORBIT =      F    spin-orbit coupling
   INIWAV =      1    electr: 0-lowe 1-rand  2-diag
   LASPH  =      F    aspherical Exc in radial PAW
   METAGGA=      F    non-selfconsistent MetaGGA calc.

 Electronic Relaxation 1
   ENCUT  =  400.0 eV  29.40 Ry    5.42 a.u.  32.61 32.61 32.61*2*pi/ulx,y,z
   ENINI  =  400.0     initial cutoff
   ENAUG  =  544.6 eV  augmentation charge cutoff
   NELM   =    100;   NELMIN=  8; NELMDL= -5     # of ELM steps 
   EDIFF  = 0.1E-05   stopping-criterion for ELM
   LREAL  =      F    real-space projection
   NLSPLINE    = F    spline interpolate recip. space projectors
   LCOMPAT=      F    compatible to vasp.4.4
   GGA_COMPAT  = T    GGA compatible to vasp.4.4-vasp.4.6
   LMAXPAW     = -100 max onsite density
   LMAXMIX     =    2 max onsite mixed and CHGCAR
   VOSKOWN=      0    Vosko Wilk Nusair interpolation
   ROPT   =    0.00000   0.00000
 Ionic relaxation
   EDIFFG = -.1E+00   stopping-criterion for IOM
   NSW    =    500    number of steps for IOM
   NBLOCK =      1;   KBLOCK =    500    inner block; outer block 
   IBRION =      3    ionic relax: 0-MD 1-quasi-New 2-CG
   NFREE  =      0    steps in history (QN), initial steepest desc. (CG)
   ISIF   =      2    stress and relaxation
   IWAVPR =     11    prediction:  0-non 1-charg 2-wave 3-comb
   ISYM   =      0    0-nonsym 1-usesym 2-fastsym
   LCORR  =      T    Harris-Foulkes like correction to forces

   POTIM  = 0.0000    time-step for ionic-motion
   TEIN   =    0.0    initial temperature
   TEBEG  =    0.0;   TEEND  =   0.0 temperature during run
   SMASS  =  -3.00    Nose mass-parameter (am)
   estimated Nose-frequenzy (Omega)   =  0.10E-29 period in steps =  0.00 mass=  -0.914E-26a.u.
   SCALEE = 1.0000    scale energy and forces
   NPACO  =    256;   APACO  = 16.0  distance and # of slots for P.C.
   PSTRESS=    0.0 pullay stress

  Mass of Ions in am
   POMASS =  58.69 32.07
  Ionic Valenz
   ZVAL   =  10.00  6.00
  Atomic Wigner-Seitz radii
   RWIGS  =  -1.00 -1.00
  virtual crystal weights 
   VCA    =   1.00  1.00
   NELECT =     556.0000    total number of electrons
   NUPDOWN=      -1.0000    fix difference up-down

 DOS related values:
   EMIN   =  10.00;   EMAX   =-10.00  energy-range for DOS
   EFERMI =   0.00
   ISMEAR =     0;   SIGMA  =   0.05  broadening in eV -4-tet -1-fermi 0-gaus

 Electronic relaxation 2 (details)
   IALGO  =     68    algorithm
   LDIAG  =      T    sub-space diagonalisation (order eigenvalues)
   LSUBROT=      F    optimize rotation matrix (better conditioning)
   TURBO    =      0    0=normal 1=particle mesh
   IRESTART =      0    0=no restart 2=restart with 2 vectors
   NREBOOT  =      0    no. of reboots
   NMIN     =      0    reboot dimension
   EREF     =   0.00    reference energy to select bands
   IMIX   =      4    mixing-type and parameters
     AMIX     =   0.40;   BMIX     =  1.00
     AMIX_MAG =   1.60;   BMIX_MAG =  1.00
     AMIN     =   0.10
     WC   =   100.;   INIMIX=   1;  MIXPRE=   1;  MAXMIX= -45

 Intra band minimization:
   WEIMIN = 0.0010     energy-eigenvalue tresh-hold
   EBREAK =  0.74E-09  absolut break condition
   DEPER  =   0.30     relativ break condition  

   TIME   =   0.40     timestep for ELM

  volume/ion in A,a.u.               =     142.86       964.05
  Fermi-wavevector in a.u.,A,eV,Ry     =   0.673085  1.271946  6.164026  0.453043
  Thomas-Fermi vector in A             =   1.749399
 
 Write flags
   LWAVE        =      F    write WAVECAR
   LDOWNSAMPLE  =      F    k-point downsampling of WAVECAR
   LCHARG       =      F    write CHGCAR
   LVTOT        =      F    write LOCPOT, total local potential
   LVHAR        =      F    write LOCPOT, Hartree potential only
   LELF         =      F    write electronic localiz. function (ELF)
   LORBIT       =      0    0 simple, 1 ext, 2 COOP (PROOUT), +10 PAW based schemes


 Dipole corrections
   LMONO  =      F    monopole corrections only (constant potential shift)
   LDIPOL =      F    correct potential (dipole corrections)
   IDIPOL =      0    1-x, 2-y, 3-z, 4-all directions 
   EPSILON=  1.0000000 bulk dielectric constant

 Exchange correlation treatment:
   GGA     =    --    GGA type
   LEXCH   =     8    internal setting for exchange type
   VOSKOWN=      0    Vosko Wilk Nusair interpolation
   LHFCALC =     F    Hartree Fock is set to
   LHFONE  =     F    Hartree Fock one center treatment
   AEXX    =    0.0000 exact exchange contribution

 Linear response parameters
   LEPSILON=     F    determine dielectric tensor
   LRPA    =     F    only Hartree local field effects (RPA)
   LNABLA  =     F    use nabla operator in PAW spheres
   LVEL    =     F    velocity operator in full k-point grid
   LINTERFAST=   F  fast interpolation
   KINTER  =     0    interpolate to denser k-point grid
   CSHIFT  =0.1000    complex shift for real part using Kramers Kronig
   OMEGAMAX=  -1.0    maximum frequency
   DEG_THRESHOLD= 0.2000000E-02 threshold for treating states as degnerate
   RTIME   =   -0.100 relaxation time in fs
  (WPLASMAI=    0.000 imaginary part of plasma frequency in eV, 0.658/RTIME)
   DFIELD  = 0.0000000 0.0000000 0.0000000 field for delta impulse in time
 
 Orbital magnetization related:
   ORBITALMAG=     F  switch on orbital magnetization
   LCHIMAG   =     F  perturbation theory with respect to B field
   DQ        =  0.001000  dq finite difference perturbation B field
   LLRAUG    =     F  two centre corrections for induced B field



--------------------------------------------------------------------------------------------------------


 quickmin algorithm: (dynamic with friction)
 charge density and potential will be updated during run
 non-spin polarized calculation
 RMM-DIIS sequential band-by-band and
  variant of blocked Davidson during initial phase
 perform sub-space diagonalisation
    before iterative eigenvector-optimisation
 modified Broyden-mixing scheme, WC =      100.0
 initial mixing is a Kerker type mixing with AMIX =  0.4000 and BMIX =      1.0000
 Hartree-type preconditioning will be used
 using additional bands           58
 reciprocal scheme for non local part
 use partial core corrections
 calculate Harris-corrections to forces 
   (improved forces if not selfconsistent)
 use gradient corrections 
 use of overlap-Matrix (Vanderbilt PP)
 Gauss-broadening in eV      SIGMA  =   0.05


--------------------------------------------------------------------------------------------------------


  energy-cutoff  :      400.00
  volume of cell :     8000.00
      direct lattice vectors                 reciprocal lattice vectors
    20.000000000  0.000000000  0.000000000     0.050000000  0.000000000  0.000000000
     0.000000000 20.000000000  0.000000000     0.000000000  0.050000000  0.000000000
     0.000000000  0.000000000 20.000000000     0.000000000  0.000000000  0.050000000

  length of vectors
    20.000000000 20.000000000 20.000000000     0.050000000  0.050000000  0.050000000


 
 k-points in units of 2pi/SCALE and weight: 4x2x1                                   
   0.00000000  0.00000000  0.00000000       1.000
 
 k-points in reciprocal lattice and weights: 4x2x1                                   
   0.00000000  0.00000000  0.00000000       1.000
 
 position of ions in fractional coordinates (direct lattice) 
   0.35000293  0.59602216  0.41030693
   0.45137945  0.66319976  0.37751942
   0.41182470  0.66271010  0.49705177
   0.51283502  0.72347861  0.46448592
   0.51462933  0.60858199  0.46442791
   0.57701518  0.66506980  0.37786420
   0.61567126  0.66531181  0.49702740
   0.31659221  0.59269282  0.52789017
   0.35032149  0.48842717  0.58298292
   0.41494109  0.54248257  0.49654201
   0.41267935  0.59623379  0.60447671
   0.51363796  0.66348349  0.57129015
   0.51453969  0.54290341  0.57038072
   0.61533463  0.54461749  0.49699647
   0.61599919  0.59871613  0.60446312
   0.39266219  0.59380183  0.29555873
   0.35180310  0.48901811  0.34417512
   0.45389718  0.49092957  0.27012795
   0.45352132  0.54274116  0.37890700
   0.51517144  0.59796881  0.29094379
   0.51659933  0.43843396  0.35876291
   0.57914884  0.49228854  0.27059694
   0.57751680  0.54451279  0.37926218
   0.31250138  0.48788106  0.46412725
   0.35210368  0.38114797  0.51714689
   0.41627080  0.43665569  0.43222769
   0.45488592  0.43741506  0.54996374
   0.51584733  0.49068488  0.46462031
   0.51752681  0.37282676  0.46383771
   0.61692471  0.43946441  0.43170797
   0.57811708  0.43821283  0.54994692
   0.67958615  0.60002922  0.41103882
   0.71225280  0.59688448  0.52905272
   0.68037261  0.49232525  0.58386195
   0.63739402  0.59677434  0.29612399
   0.68093871  0.49315055  0.34455967
   0.71957876  0.49334497  0.46399713
   0.68176561  0.38566258  0.51759736
   0.45242366  0.49162810  0.66320607
   0.51473374  0.59624895  0.67250381
   0.57955537  0.49182429  0.65739146
   0.39313450  0.38376493  0.63297186
   0.45452809  0.31700500  0.54962420
   0.51902558  0.38122213  0.64084823
   0.58063045  0.31809676  0.55081895
   0.64077230  0.38723761  0.63199357
   0.41573926  0.38308486  0.32360680
   0.51738899  0.38731443  0.25560150
   0.61917908  0.38571331  0.32384033
   0.31951111  0.38468131  0.39827198
   0.41616557  0.31656831  0.43096144
   0.51817362  0.31793075  0.35647440
   0.61986205  0.31895991  0.43040374
   0.71532981  0.38919712  0.39982659
   0.51920696  0.25803992  0.46323463
   0.43352488  0.41147469  0.71686815
 
 position of ions in cartesian coordinates  (Angst):
   7.00005859 11.92044318  8.20613861
   9.02758896 13.26399511  7.55038830
   8.23649404 13.25420200  9.94103550
  10.25670043 14.46957230  9.28971832
  10.29258664 12.17163974  9.28855810
  11.54030369 13.30139604  7.55728392
  12.31342513 13.30623627  9.94054798
   6.33184429 11.85385635 10.55780344
   7.00642987  9.76854349 11.65965843
   8.29882181 10.84965132  9.93084022
   8.25358709 11.92467588 12.08953419
  10.27275917 13.26966972 11.42580307
  10.29079376 10.85806810 11.40761441
  12.30669266 10.89234983  9.93992948
  12.31998382 11.97432257 12.08926241
   7.85324389 11.87603655  5.91117469
   7.03606206  9.78036223  6.88350230
   9.07794354  9.81859150  5.40255907
   9.07042632 10.85482313  7.57813996
  10.30342889 11.95937629  5.81887575
  10.33198664  8.76867919  7.17525827
  11.58297678  9.84577076  5.41193873
  11.55033596 10.89025578  7.58524359
   6.25002768  9.75762128  9.28254510
   7.04207357  7.62295939 10.34293788
   8.32541591  8.73311387  8.64455386
   9.09771839  8.74830117 10.99927473
  10.31694670  9.81369764  9.29240625
  10.35053618  7.45653522  9.27675423
  12.33849427  8.78928813  8.63415931
  11.56234166  8.76425655 10.99893831
  13.59172301 12.00058441  8.22077645
  14.24505591 11.93768966 10.58105438
  13.60745228  9.84650493 11.67723898
  12.74788047 11.93548672  5.92247976
  13.61877411  9.86301105  6.89119350
  14.39157513  9.86689937  9.27994260
  13.63531216  7.71325163 10.35194722
   9.04847311  9.83256209 13.26412133
  10.29467478 11.92497908 13.45007623
  11.59110733  9.83648574 13.14782928
   7.86268996  7.67529869 12.65943720
   9.09056189  6.34009994 10.99248409
  10.38051157  7.62444260 12.81696457
  11.61260898  6.36193521 11.01637891
  12.81544595  7.74475210 12.63987144
   8.31478525  7.66169719  6.47213598
  10.34777976  7.74628862  5.11202996
  12.38358166  7.71426617  6.47680655
   6.39022228  7.69362619  7.96543966
   8.32331132  6.33136623  8.61922875
  10.36347242  6.35861498  7.12948795
  12.39724093  6.37919821  8.60807490
  14.30659614  7.78394241  7.99653177
  10.38413915  5.16079832  9.26469250
   8.67049768  8.22949380 14.33736302
 


--------------------------------------------------------------------------------------------------------


 k-point  1 :   0.0000 0.0000 0.0000  plane waves:  145165

 maximum and minimum number of plane-waves per node :    145165   145165

 maximum number of plane-waves:    145165
 maximum index in each direction: 
   IXMAX=   32   IYMAX=   32   IZMAX=   32
   IXMIN=  -32   IYMIN=  -32   IZMIN=  -32


 serial   3D FFT for wavefunctions
 parallel 3D FFT for charge:
    minimum data exchange during FFTs selected (reduces bandwidth)


 total amount of memory used by VASP MPI-rank0   308125. kBytes
=======================================================================

   base      :      30000. kBytes
   nonl-proj :     171888. kBytes
   fftplans  :      15318. kBytes
   grid      :      57304. kBytes
   one-center:        870. kBytes
   wavefun   :      32745. kBytes
 
     INWAV:  cpu time    0.0000: real time    0.0000
 Broyden mixing: mesh for mixing (old mesh)
   NGX = 65   NGY = 65   NGZ = 65
  (NGX  =196   NGY  =196   NGZ  =196)
  gives a total of 274625 points

 initial charge density was supplied:
 charge density of overlapping atoms calculated
 number of electron     556.0000000 magnetization 
 keeping initial charge density in first step


--------------------------------------------------------------------------------------------------------


 Maximum index for augmentation-charges          288 (set IRDMAX)


--------------------------------------------------------------------------------------------------------


 First call to EWALD:  gamma=   0.089
 Maximum number of real-space cells 3x 3x 3
 Maximum number of reciprocal cells 3x 3x 3

    FEWALD:  cpu time    0.0027: real time    0.0027


--------------------------------------- Iteration      1(   1)  ---------------------------------------


    POTLOK:  cpu time    0.2873: real time    0.2907
    SETDIJ:  cpu time    0.0078: real time    0.0078
     EDDAV:  cpu time   53.2700: real time   53.4624
       DOS:  cpu time    0.0007: real time    0.0007
    --------------------------------------------
      LOOP:  cpu time   53.5657: real time   53.7616

 eigenvalue-minimisations  :   672
 total energy-change (2. order) : 0.2851793E+04  (-0.1621787E+05)
 number of electron     556.0000000 magnetization 
 augmentation part      556.0000000 magnetization 

 Free energy of the ion-electron system (eV)
  ---------------------------------------------------
  alpha Z        PSCENC =       387.12086559
  Ewald energy   TEWEN  =    181052.55010223
  -Hartree energ DENC   =   -235826.34083924
  -exchange      EXHF   =         0.00000000
  -V(xc)+E(xc)   XCENC  =      1717.62161618
  PAW double counting   =     47983.58147063   -51655.55533713
  entropy T*S    EENTRO =        -0.06599254
  eigenvalues    EBANDS =      -368.02108046
  atomic energy  EATOM  =     59560.90262231
  Solvation  Ediel_sol  =         0.00000000
  ---------------------------------------------------
  free energy    TOTEN  =      2851.79342757 eV

  energy without entropy =     2851.85942011  energy(sigma->0) =     2851.82642384


--------------------------------------------------------------------------------------------------------




--------------------------------------- Iteration      1(   2)  ---------------------------------------


     EDDAV:  cpu time   54.7861: real time   54.9716
       DOS:  cpu time    0.0002: real time    0.0002
    --------------------------------------------
      LOOP:  cpu time   54.7863: real time   54.9719

 eigenvalue-minimisations  :   696
 total energy-change (2. order) :-0.2966267E+04  (-0.2899519E+04)
 number of electron     556.0000000 magnetization 
 augmentation part      556.0000000 magnetization 

 Free energy of the ion-electron system (eV)
  ---------------------------------------------------
  alpha Z        PSCENC =       387.12086559
  Ewald energy   TEWEN  =    181052.55010223
  -Hartree energ DENC   =   -235826.34083924
  -exchange      EXHF   =         0.00000000
  -V(xc)+E(xc)   XCENC  =      1717.62161618
  PAW double counting   =     47983.58147063   -51655.55533713
  entropy T*S    EENTRO =        -0.12981669
  eigenvalues    EBANDS =     -3334.22453443
  atomic energy  EATOM  =     59560.90262231
  Solvation  Ediel_sol  =         0.00000000
  ---------------------------------------------------
  free energy    TOTEN  =      -114.47385055 eV

  energy without entropy =     -114.34403386  energy(sigma->0) =     -114.40894221


--------------------------------------------------------------------------------------------------------




--------------------------------------- Iteration      1(   3)  ---------------------------------------


     EDDAV:  cpu time   60.7542: real time   60.9595
       DOS:  cpu time    0.0002: real time    0.0002
    --------------------------------------------
      LOOP:  cpu time   60.7544: real time   60.9598

 eigenvalue-minimisations  :   792
 total energy-change (2. order) :-0.1817146E+03  (-0.1686272E+03)
 number of electron     556.0000000 magnetization 
 augmentation part      556.0000000 magnetization 

 Free energy of the ion-electron system (eV)
  ---------------------------------------------------
  alpha Z        PSCENC =       387.12086559
  Ewald energy   TEWEN  =    181052.55010223
  -Hartree energ DENC   =   -235826.34083924
  -exchange      EXHF   =         0.00000000
  -V(xc)+E(xc)   XCENC  =      1717.62161618
  PAW double counting   =     47983.58147063   -51655.55533713
  entropy T*S    EENTRO =        -0.31513526
  eigenvalues    EBANDS =     -3515.75384837
  atomic energy  EATOM  =     59560.90262231
  Solvation  Ediel_sol  =         0.00000000
  ---------------------------------------------------
  free energy    TOTEN  =      -296.18848307 eV

  energy without entropy =     -295.87334781  energy(sigma->0) =     -296.03091544


--------------------------------------------------------------------------------------------------------




--------------------------------------- Iteration      1(   4)  ---------------------------------------


     EDDAV:  cpu time   54.7152: real time   54.9097
       DOS:  cpu time    0.0002: real time    0.0002
    --------------------------------------------
      LOOP:  cpu time   54.7154: real time   54.9100

 eigenvalue-minimisations  :   696
 total energy-change (2. order) :-0.7836213E+01  (-0.7516841E+01)
 number of electron     556.0000000 magnetization 
 augmentation part      556.0000000 magnetization 

 Free energy of the ion-electron system (eV)
  ---------------------------------------------------
  alpha Z        PSCENC =       387.12086559
  Ewald energy   TEWEN  =    181052.55010223
  -Hartree energ DENC   =   -235826.34083924
  -exchange      EXHF   =         0.00000000
  -V(xc)+E(xc)   XCENC  =      1717.62161618
  PAW double counting   =     47983.58147063   -51655.55533713
  entropy T*S    EENTRO =        -0.31412765
  eigenvalues    EBANDS =     -3523.59106934
  atomic energy  EATOM  =     59560.90262231
  Solvation  Ediel_sol  =         0.00000000
  ---------------------------------------------------
  free energy    TOTEN  =      -304.02469642 eV

  energy without entropy =     -303.71056877  energy(sigma->0) =     -303.86763260


--------------------------------------------------------------------------------------------------------




--------------------------------------- Iteration      1(   5)  ---------------------------------------


     EDDAV:  cpu time   60.6353: real time   60.8658
       DOS:  cpu time    0.0002: real time    0.0002
    CHARGE:  cpu time    0.4708: real time    0.4720
    MIXING:  cpu time    0.0106: real time    0.0107
    --------------------------------------------
      LOOP:  cpu time   61.1170: real time   61.3487

 eigenvalue-minimisations  :   792
 total energy-change (2. order) :-0.2588379E+00  (-0.2571472E+00)
 number of electron     556.0000129 magnetization 
 augmentation part      316.5608304 magnetization 

 Broyden mixing:
  rms(total) = 0.53744E+01    rms(broyden)= 0.53733E+01
  rms(prec ) = 0.59987E+01
  weight for this iteration     100.00

 Free energy of the ion-electron system (eV)
  ---------------------------------------------------
  alpha Z        PSCENC =       387.12086559
  Ewald energy   TEWEN  =    181052.55010223
  -Hartree energ DENC   =   -235826.34083924
  -exchange      EXHF   =         0.00000000
  -V(xc)+E(xc)   XCENC  =      1717.62161618
  PAW double counting   =     47983.58147063   -51655.55533713
  entropy T*S    EENTRO =        -0.31388115
  eigenvalues    EBANDS =     -3523.85015374
  atomic energy  EATOM  =     59560.90262231
  Solvation  Ediel_sol  =         0.00000000
  ---------------------------------------------------
  free energy    TOTEN  =      -304.28353432 eV

  energy without entropy =     -303.96965317  energy(sigma->0) =     -304.12659374


--------------------------------------------------------------------------------------------------------




--------------------------------------- Iteration      1(   6)  ---------------------------------------


    POTLOK:  cpu time    0.2470: real time    0.2515
    SETDIJ:  cpu time    0.0084: real time    0.0084
    EDDIAG:  cpu time    1.4621: real time    1.4659
  RMM-DIIS:  cpu time   42.0722: real time   42.2306
    ORTHCH:  cpu time    0.4020: real time    0.4035
       DOS:  cpu time    0.0004: real time    0.0004
    CHARGE:  cpu time    0.4308: real time    0.4319
    MIXING:  cpu time    0.0125: real time    0.0125
    --------------------------------------------
      LOOP:  cpu time   44.6353: real time   44.8048

 eigenvalue-minimisations  :   672
 total energy-change (2. order) :-0.1548910E+03  (-0.7804201E+02)
 number of electron     556.0000157 magnetization 
 augmentation part      343.5505750 magnetization 

 Broyden mixing:
  rms(total) = 0.13663E+02    rms(broyden)= 0.13663E+02
  rms(prec ) = 0.16200E+02
  weight for this iteration     100.00

 eigenvalues of (default mixing * dielectric matrix)
  average eigenvalue GAMMA=   0.2078
  0.2078

 Free energy of the ion-electron system (eV)
  ---------------------------------------------------
  alpha Z        PSCENC =       387.12086559
  Ewald energy   TEWEN  =    181052.55010223
  -Hartree energ DENC   =   -235201.90846833
  -exchange      EXHF   =         0.00000000
  -V(xc)+E(xc)   XCENC  =      1661.11906583
  PAW double counting   =     47706.05135474   -51192.07269345
  entropy T*S    EENTRO =        -0.11323069
  eigenvalues    EBANDS =     -4432.82417015
  atomic energy  EATOM  =     59560.90262231
  Solvation  Ediel_sol  =         0.00000000
  ---------------------------------------------------
  free energy    TOTEN  =      -459.17455192 eV

  energy without entropy =     -459.06132124  energy(sigma->0) =     -459.11793658


--------------------------------------------------------------------------------------------------------




--------------------------------------- Iteration      1(   7)  ---------------------------------------


    POTLOK:  cpu time    0.2468: real time    0.2513
    SETDIJ:  cpu time    0.0063: real time    0.0063
    EDDIAG:  cpu time    1.4651: real time    1.4694
  RMM-DIIS:  cpu time   42.2624: real time   42.4192
    ORTHCH:  cpu time    0.3969: real time    0.3979
       DOS:  cpu time    0.0003: real time    0.0003
    CHARGE:  cpu time    0.4534: real time    0.4545
    MIXING:  cpu time    0.0093: real time    0.0093
    --------------------------------------------
      LOOP:  cpu time   44.8405: real time   45.0083

 eigenvalue-minimisations  :   673
 total energy-change (2. order) : 0.1149657E+03  (-0.4013822E+02)
 number of electron     556.0000030 magnetization 
 augmentation part      351.9528285 magnetization 

 Broyden mixing:
  rms(total) = 0.75227E+01    rms(broyden)= 0.75208E+01
  rms(prec ) = 0.86987E+01
  weight for this iteration     100.00

 eigenvalues of (default mixing * dielectric matrix)
  average eigenvalue GAMMA=   0.2807
  0.3922  0.1691

 Free energy of the ion-electron system (eV)
  ---------------------------------------------------
  alpha Z        PSCENC =       387.12086559
  Ewald energy   TEWEN  =    181052.55010223
  -Hartree energ DENC   =   -234987.04599496
  -exchange      EXHF   =         0.00000000
  -V(xc)+E(xc)   XCENC  =      1665.22969314
  PAW double counting   =     47894.99597953   -51425.51573973
  entropy T*S    EENTRO =        -0.26131386
  eigenvalues    EBANDS =     -4492.18511420
  atomic energy  EATOM  =     59560.90262231
  Solvation  Ediel_sol  =         0.00000000
  ---------------------------------------------------
  free energy    TOTEN  =      -344.20889996 eV

  energy without entropy =     -343.94758610  energy(sigma->0) =     -344.07824303


--------------------------------------------------------------------------------------------------------




--------------------------------------- Iteration      1(   8)  ---------------------------------------


    POTLOK:  cpu time    0.2454: real time    0.2503
    SETDIJ:  cpu time    0.0065: real time    0.0065
    EDDIAG:  cpu time    1.4591: real time    1.4631
  RMM-DIIS:  cpu time   42.1519: real time   42.4561
    ORTHCH:  cpu time    0.4035: real time    0.4045
       DOS:  cpu time    0.0004: real time    0.0004
    CHARGE:  cpu time    0.4490: real time    0.4502
    MIXING:  cpu time    0.0092: real time    0.0092
    --------------------------------------------
      LOOP:  cpu time   44.7250: real time   45.0404

 eigenvalue-minimisations  :   674
 total energy-change (2. order) : 0.3143231E+02  (-0.1916070E+02)
 number of electron     556.0000148 magnetization 
 augmentation part      346.7765511 magnetization 

 Broyden mixing:
  rms(total) = 0.83605E+01    rms(broyden)= 0.83593E+01
  rms(prec ) = 0.10352E+02
  weight for this iteration     100.00

 eigenvalues of (default mixing * dielectric matrix)
  average eigenvalue GAMMA=   0.2747
  0.5166  0.1538  0.1538

 Free energy of the ion-electron system (eV)
  ---------------------------------------------------
  alpha Z        PSCENC =       387.12086559
  Ewald energy   TEWEN  =    181052.55010223
  -Hartree energ DENC   =   -235260.34718097
  -exchange      EXHF   =         0.00000000
  -V(xc)+E(xc)   XCENC  =      1672.12722642
  PAW double counting   =     48406.23039297   -52018.74599534
  entropy T*S    EENTRO =        -0.12066184
  eigenvalues    EBANDS =     -4112.49395792
  atomic energy  EATOM  =     59560.90262231
  Solvation  Ediel_sol  =         0.00000000
  ---------------------------------------------------
  free energy    TOTEN  =      -312.77658655 eV

  energy without entropy =     -312.65592471  energy(sigma->0) =     -312.71625563


--------------------------------------------------------------------------------------------------------




--------------------------------------- Iteration      1(   9)  ---------------------------------------


    POTLOK:  cpu time    0.2412: real time    0.2459
    SETDIJ:  cpu time    0.0063: real time    0.0063
    EDDIAG:  cpu time    1.4568: real time    1.4696
  RMM-DIIS:  cpu time   42.2667: real time   42.3806
    ORTHCH:  cpu time    0.4005: real time    0.4015
       DOS:  cpu time    0.0003: real time    0.0003
    CHARGE:  cpu time    0.4264: real time    0.4291
    MIXING:  cpu time    0.0096: real time    0.0096
    --------------------------------------------
      LOOP:  cpu time   44.8078: real time   44.9428

 eigenvalue-minimisations  :   674
 total energy-change (2. order) :-0.2803538E+00  (-0.6136358E+01)
 number of electron     556.0000304 magnetization 
 augmentation part      343.2730925 magnetization 

 Broyden mixing:
  rms(total) = 0.11076E+02    rms(broyden)= 0.11076E+02
  rms(prec ) = 0.13101E+02
  weight for this iteration     100.00

 eigenvalues of (default mixing * dielectric matrix)
  average eigenvalue GAMMA=   0.2608
  0.6520  0.1513  0.1513  0.0888

 Free energy of the ion-electron system (eV)
  ---------------------------------------------------
  alpha Z        PSCENC =       387.12086559
  Ewald energy   TEWEN  =    181052.55010223
  -Hartree energ DENC   =   -235408.95502131
  -exchange      EXHF   =         0.00000000
  -V(xc)+E(xc)   XCENC  =      1674.80846873
  PAW double counting   =     48681.54129690   -52334.38500189
  entropy T*S    EENTRO =        -0.06066496
  eigenvalues    EBANDS =     -3926.57960795
  atomic energy  EATOM  =     59560.90262231
  Solvation  Ediel_sol  =         0.00000000
  ---------------------------------------------------
  free energy    TOTEN  =      -313.05694034 eV

  energy without entropy =     -312.99627539  energy(sigma->0) =     -313.02660787


--------------------------------------------------------------------------------------------------------




--------------------------------------- Iteration      1(  10)  ---------------------------------------


    POTLOK:  cpu time    0.2466: real time    0.2510
    SETDIJ:  cpu time    0.0064: real time    0.0064
    EDDIAG:  cpu time    1.4597: real time    1.4639
  RMM-DIIS:  cpu time   42.2921: real time   42.4312
    ORTHCH:  cpu time    0.3976: real time    0.3985
       DOS:  cpu time    0.0002: real time    0.0002
    CHARGE:  cpu time    0.4534: real time    0.4546
    MIXING:  cpu time    0.0100: real time    0.0100
    --------------------------------------------
      LOOP:  cpu time   44.8660: real time   45.0159

 eigenvalue-minimisations  :   674
 total energy-change (2. order) : 0.2069633E+02  (-0.5748702E+01)
 number of electron     556.0000189 magnetization 
 augmentation part      341.1926371 magnetization 

 Broyden mixing:
  rms(total) = 0.78621E+01    rms(broyden)= 0.78613E+01
  rms(prec ) = 0.93658E+01
  weight for this iteration     100.00

 eigenvalues of (default mixing * dielectric matrix)
  average eigenvalue GAMMA=   0.2349
  0.6949  0.1523  0.1523  0.1065  0.0687

 Free energy of the ion-electron system (eV)
  ---------------------------------------------------
  alpha Z        PSCENC =       387.12086559
  Ewald energy   TEWEN  =    181052.55010223
  -Hartree energ DENC   =   -235527.18997225
  -exchange      EXHF   =         0.00000000
  -V(xc)+E(xc)   XCENC  =      1676.84532598
  PAW double counting   =     48916.93795165   -52604.82181023
  entropy T*S    EENTRO =        -0.17289762
  eigenvalues    EBANDS =     -3754.53279346
  atomic energy  EATOM  =     59560.90262231
  Solvation  Ediel_sol  =         0.00000000
  ---------------------------------------------------
  free energy    TOTEN  =      -292.36060580 eV

  energy without entropy =     -292.18770818  energy(sigma->0) =     -292.27415699


--------------------------------------------------------------------------------------------------------




--------------------------------------- Iteration      1(  11)  ---------------------------------------


    POTLOK:  cpu time    0.2412: real time    0.2455
    SETDIJ:  cpu time    0.0063: real time    0.0063
    EDDIAG:  cpu time    1.4686: real time    1.4724
  RMM-DIIS:  cpu time   42.3298: real time   42.4968
    ORTHCH:  cpu time    0.4072: real time    0.4083
       DOS:  cpu time    0.0003: real time    0.0003
    CHARGE:  cpu time    0.4555: real time    0.4567
    MIXING:  cpu time    0.0105: real time    0.0105
    --------------------------------------------
      LOOP:  cpu time   44.9195: real time   45.0968

 eigenvalue-minimisations  :   676
 total energy-change (2. order) : 0.1964007E+02  (-0.2098534E+01)
 number of electron     556.0000109 magnetization 
 augmentation part      341.4719963 magnetization 

 Broyden mixing:
  rms(total) = 0.48552E+01    rms(broyden)= 0.48536E+01
  rms(prec ) = 0.57785E+01
  weight for this iteration     100.00

 eigenvalues of (default mixing * dielectric matrix)
  average eigenvalue GAMMA=   0.2079
  0.6969  0.1620  0.1620  0.0856  0.0856  0.0549

 Free energy of the ion-electron system (eV)
  ---------------------------------------------------
  alpha Z        PSCENC =       387.12086559
  Ewald energy   TEWEN  =    181052.55010223
  -Hartree energ DENC   =   -235568.88596328
  -exchange      EXHF   =         0.00000000
  -V(xc)+E(xc)   XCENC  =      1677.29412416
  PAW double counting   =     49013.96082392   -52714.26048065
  entropy T*S    EENTRO =        -0.24038542
  eigenvalues    EBANDS =     -3681.16224414
  atomic energy  EATOM  =     59560.90262231
  Solvation  Ediel_sol  =         0.00000000
  ---------------------------------------------------
  free energy    TOTEN  =      -272.72053528 eV

  energy without entropy =     -272.48014986  energy(sigma->0) =     -272.60034257


--------------------------------------------------------------------------------------------------------




--------------------------------------- Iteration      1(  12)  ---------------------------------------


    POTLOK:  cpu time    0.2436: real time    0.2488
    SETDIJ:  cpu time    0.0064: real time    0.0064
    EDDIAG:  cpu time    1.4655: real time    1.4701
  RMM-DIIS:  cpu time   42.2637: real time   42.4809
    ORTHCH:  cpu time    0.4028: real time    0.4038
       DOS:  cpu time    0.0003: real time    0.0003
    CHARGE:  cpu time    0.4492: real time    0.4503
    MIXING:  cpu time    0.0111: real time    0.0111
    --------------------------------------------
      LOOP:  cpu time   44.8424: real time   45.0717

 eigenvalue-minimisations  :   676
 total energy-change (2. order) : 0.5449255E+01  (-0.4419143E+00)
 number of electron     556.0000161 magnetization 
 augmentation part      341.5725287 magnetization 

 Broyden mixing:
  rms(total) = 0.42102E+01    rms(broyden)= 0.42089E+01
  rms(prec ) = 0.50994E+01
  weight for this iteration     100.00

 eigenvalues of (default mixing * dielectric matrix)
  average eigenvalue GAMMA=   0.1921
  0.6986  0.1936  0.1610  0.0876  0.0876  0.0580  0.0580

 Free energy of the ion-electron system (eV)
  ---------------------------------------------------
  alpha Z        PSCENC =       387.12086559
  Ewald energy   TEWEN  =    181052.55010223
  -Hartree energ DENC   =   -235582.06577157
  -exchange      EXHF   =         0.00000000
  -V(xc)+E(xc)   XCENC  =      1677.41419446
  PAW double counting   =     49062.40669849   -52766.40498027
  entropy T*S    EENTRO =        -0.26193116
  eigenvalues    EBANDS =     -3658.93308018
  atomic energy  EATOM  =     59560.90262231
  Solvation  Ediel_sol  =         0.00000000
  ---------------------------------------------------
  free energy    TOTEN  =      -267.27128010 eV

  energy without entropy =     -267.00934894  energy(sigma->0) =     -267.14031452


--------------------------------------------------------------------------------------------------------




--------------------------------------- Iteration      1(  13)  ---------------------------------------


    POTLOK:  cpu time    0.2404: real time    0.2449
    SETDIJ:  cpu time    0.0063: real time    0.0063
    EDDIAG:  cpu time    1.4657: real time    1.4702
  RMM-DIIS:  cpu time   42.3654: real time   42.4811
    ORTHCH:  cpu time    0.4088: real time    0.4098
       DOS:  cpu time    0.0003: real time    0.0003
    CHARGE:  cpu time    0.4558: real time    0.4569
    MIXING:  cpu time    0.0117: real time    0.0117
    --------------------------------------------
      LOOP:  cpu time   44.9542: real time   45.0811

 eigenvalue-minimisations  :   676
 total energy-change (2. order) : 0.1791929E+01  (-0.2838058E+00)
 number of electron     556.0000112 magnetization 
 augmentation part      341.5269490 magnetization 

 Broyden mixing:
  rms(total) = 0.41097E+01    rms(broyden)= 0.41084E+01
  rms(prec ) = 0.49556E+01
  weight for this iteration     100.00

 eigenvalues of (default mixing * dielectric matrix)
  average eigenvalue GAMMA=   0.1957
  0.7091  0.3145  0.1377  0.1116  0.1116  0.0815  0.0658  0.0339

 Free energy of the ion-electron system (eV)
  ---------------------------------------------------
  alpha Z        PSCENC =       387.12086559
  Ewald energy   TEWEN  =    181052.55010223
  -Hartree energ DENC   =   -235597.19173106
  -exchange      EXHF   =         0.00000000
  -V(xc)+E(xc)   XCENC  =      1677.50987204
  PAW double counting   =     49115.66222678   -52823.18557934
  entropy T*S    EENTRO =        -0.23920372
  eigenvalues    EBANDS =     -3638.60852575
  atomic energy  EATOM  =     59560.90262231
  Solvation  Ediel_sol  =         0.00000000
  ---------------------------------------------------
  free energy    TOTEN  =      -265.47935093 eV

  energy without entropy =     -265.24014721  energy(sigma->0) =     -265.35974907


--------------------------------------------------------------------------------------------------------




--------------------------------------- Iteration      1(  14)  ---------------------------------------


    POTLOK:  cpu time    0.2459: real time    0.2498
    SETDIJ:  cpu time    0.0064: real time    0.0065
    EDDIAG:  cpu time    1.4651: real time    1.4692
  RMM-DIIS:  cpu time   42.2818: real time   42.4332
    ORTHCH:  cpu time    0.4053: real time    0.4063
       DOS:  cpu time    0.0003: real time    0.0003
    CHARGE:  cpu time    0.4546: real time    0.4558
    MIXING:  cpu time    0.0121: real time    0.0121
    --------------------------------------------
      LOOP:  cpu time   44.8714: real time   45.0331

 eigenvalue-minimisations  :   675
 total energy-change (2. order) :-0.4030060E+00  (-0.4885253E+00)
 number of electron     556.0000043 magnetization 
 augmentation part      340.8644432 magnetization 

 Broyden mixing:
  rms(total) = 0.46644E+01    rms(broyden)= 0.46630E+01
  rms(prec ) = 0.53663E+01
  weight for this iteration     100.00

 eigenvalues of (default mixing * dielectric matrix)
  average eigenvalue GAMMA=   0.2059
  0.7236  0.4892  0.1344  0.1344  0.1213  0.1067  0.0597  0.0461  0.0376

 Free energy of the ion-electron system (eV)
  ---------------------------------------------------
  alpha Z        PSCENC =       387.12086559
  Ewald energy   TEWEN  =    181052.55010223
  -Hartree energ DENC   =   -235635.97044373
  -exchange      EXHF   =         0.00000000
  -V(xc)+E(xc)   XCENC  =      1677.80445694
  PAW double counting   =     49239.46215307   -52955.51930696
  entropy T*S    EENTRO =        -0.23631632
  eigenvalues    EBANDS =     -3591.99649008
  atomic energy  EATOM  =     59560.90262231
  Solvation  Ediel_sol  =         0.00000000
  ---------------------------------------------------
  free energy    TOTEN  =      -265.88235694 eV

  energy without entropy =     -265.64604062  energy(sigma->0) =     -265.76419878


--------------------------------------------------------------------------------------------------------




--------------------------------------- Iteration      1(  15)  ---------------------------------------


    POTLOK:  cpu time    0.2435: real time    0.2482
    SETDIJ:  cpu time    0.0063: real time    0.0063
    EDDIAG:  cpu time    1.4638: real time    1.4697
  RMM-DIIS:  cpu time   42.3037: real time   42.4699
    ORTHCH:  cpu time    0.4053: real time    0.4064
       DOS:  cpu time    0.0003: real time    0.0003
    CHARGE:  cpu time    0.4560: real time    0.4572
    MIXING:  cpu time    0.0132: real time    0.0132
    --------------------------------------------
      LOOP:  cpu time   44.8922: real time   45.0712

 eigenvalue-minimisations  :   675
 total energy-change (2. order) : 0.1973651E+01  (-0.4868106E+00)
 number of electron     556.0000126 magnetization 
 augmentation part      340.0396910 magnetization 

 Broyden mixing:
  rms(total) = 0.37520E+01    rms(broyden)= 0.37505E+01
  rms(prec ) = 0.44262E+01
  weight for this iteration     100.00

 eigenvalues of (default mixing * dielectric matrix)
  average eigenvalue GAMMA=   0.2116
  0.7836  0.5815  0.1517  0.1517  0.1189  0.1189  0.0626  0.0563  0.0563  0.0349

 Free energy of the ion-electron system (eV)
  ---------------------------------------------------
  alpha Z        PSCENC =       387.12086559
  Ewald energy   TEWEN  =    181052.55010223
  -Hartree energ DENC   =   -235688.15015008
  -exchange      EXHF   =         0.00000000
  -V(xc)+E(xc)   XCENC  =      1678.10513506
  PAW double counting   =     49412.82943939   -53139.43636483
  entropy T*S    EENTRO =        -0.23998796
  eigenvalues    EBANDS =     -3527.59036798
  atomic energy  EATOM  =     59560.90262231
  Solvation  Ediel_sol  =         0.00000000
  ---------------------------------------------------
  free energy    TOTEN  =      -263.90870627 eV

  energy without entropy =     -263.66871830  energy(sigma->0) =     -263.78871229


--------------------------------------------------------------------------------------------------------




--------------------------------------- Iteration      1(  16)  ---------------------------------------


    POTLOK:  cpu time    0.2437: real time    0.2486
    SETDIJ:  cpu time    0.0065: real time    0.0066
    EDDIAG:  cpu time    1.4678: real time    1.4725
  RMM-DIIS:  cpu time   42.3311: real time   42.4901
    ORTHCH:  cpu time    0.4067: real time    0.4083
       DOS:  cpu time    0.0003: real time    0.0003
    CHARGE:  cpu time    0.4568: real time    0.4580
    MIXING:  cpu time    0.0137: real time    0.0137
    --------------------------------------------
      LOOP:  cpu time   44.9266: real time   45.0980

 eigenvalue-minimisations  :   676
 total energy-change (2. order) : 0.2296774E+01  (-0.3820613E+00)
 number of electron     556.0000124 magnetization 
 augmentation part      339.7406375 magnetization 

 Broyden mixing:
  rms(total) = 0.32441E+01    rms(broyden)= 0.32423E+01
  rms(prec ) = 0.39821E+01
  weight for this iteration     100.00

 eigenvalues of (default mixing * dielectric matrix)
  average eigenvalue GAMMA=   0.2062
  0.8239  0.5685  0.1751  0.1751  0.1260  0.1260  0.0718  0.0718  0.0476  0.0476
  0.0346

 Free energy of the ion-electron system (eV)
  ---------------------------------------------------
  alpha Z        PSCENC =       387.12086559
  Ewald energy   TEWEN  =    181052.55010223
  -Hartree energ DENC   =   -235726.86199850
  -exchange      EXHF   =         0.00000000
  -V(xc)+E(xc)   XCENC  =      1678.32875666
  PAW double counting   =     49569.72447956   -53305.05536287
  entropy T*S    EENTRO =        -0.23907722
  eigenvalues    EBANDS =     -3478.08232037
  atomic energy  EATOM  =     59560.90262231
  Solvation  Ediel_sol  =         0.00000000
  ---------------------------------------------------
  free energy    TOTEN  =      -261.61193262 eV

  energy without entropy =     -261.37285539  energy(sigma->0) =     -261.49239400


--------------------------------------------------------------------------------------------------------




--------------------------------------- Iteration      1(  17)  ---------------------------------------


    POTLOK:  cpu time    0.2434: real time    0.2477
    SETDIJ:  cpu time    0.0063: real time    0.0063
    EDDIAG:  cpu time    1.4677: real time    1.4717
  RMM-DIIS:  cpu time   42.3415: real time   42.4625
    ORTHCH:  cpu time    0.4085: real time    0.4095
       DOS:  cpu time    0.0003: real time    0.0003
    CHARGE:  cpu time    0.4512: real time    0.4523
    MIXING:  cpu time    0.0141: real time    0.0141
    --------------------------------------------
      LOOP:  cpu time   44.9330: real time   45.0644

 eigenvalue-minimisations  :   676
 total energy-change (2. order) : 0.1469505E+01  (-0.1735759E+00)
 number of electron     556.0000135 magnetization 
 augmentation part      339.6825995 magnetization 

 Broyden mixing:
  rms(total) = 0.24353E+01    rms(broyden)= 0.24335E+01
  rms(prec ) = 0.28640E+01
  weight for this iteration     100.00

 eigenvalues of (default mixing * dielectric matrix)
  average eigenvalue GAMMA=   0.2076
  0.8829  0.4450  0.3973  0.1684  0.1220  0.1220  0.0863  0.0863  0.0558  0.0345
  0.0456  0.0456

 Free energy of the ion-electron system (eV)
  ---------------------------------------------------
  alpha Z        PSCENC =       387.12086559
  Ewald energy   TEWEN  =    181052.55010223
  -Hartree energ DENC   =   -235739.79619426
  -exchange      EXHF   =         0.00000000
  -V(xc)+E(xc)   XCENC  =      1678.32034446
  PAW double counting   =     49629.81451383   -53367.70452262
  entropy T*S    EENTRO =        -0.29741818
  eigenvalues    EBANDS =     -3461.05274096
  atomic energy  EATOM  =     59560.90262231
  Solvation  Ediel_sol  =         0.00000000
  ---------------------------------------------------
  free energy    TOTEN  =      -260.14242761 eV

  energy without entropy =     -259.84500943  energy(sigma->0) =     -259.99371852


--------------------------------------------------------------------------------------------------------




--------------------------------------- Iteration      1(  18)  ---------------------------------------


    POTLOK:  cpu time    0.2430: real time    0.2477
    SETDIJ:  cpu time    0.0064: real time    0.0064
    EDDIAG:  cpu time    1.4661: real time    1.4706
  RMM-DIIS:  cpu time   42.2694: real time   42.4610
    ORTHCH:  cpu time    0.4060: real time    0.4071
       DOS:  cpu time    0.0003: real time    0.0003
    CHARGE:  cpu time    0.4373: real time    0.4384
    MIXING:  cpu time    0.0148: real time    0.0149
    --------------------------------------------
      LOOP:  cpu time   44.8433: real time   45.0464

 eigenvalue-minimisations  :   676
 total energy-change (2. order) :-0.7361597E-01  (-0.1499347E+00)
 number of electron     556.0000170 magnetization 
 augmentation part      339.7117716 magnetization 

 Broyden mixing:
  rms(total) = 0.27826E+01    rms(broyden)= 0.27812E+01
  rms(prec ) = 0.34806E+01
  weight for this iteration     100.00

 eigenvalues of (default mixing * dielectric matrix)
  average eigenvalue GAMMA=   0.2160
  0.9365  0.5245  0.5245  0.1505  0.1261  0.1261  0.0936  0.0936  0.0554  0.0554
  0.0479  0.0347  0.0389

 Free energy of the ion-electron system (eV)
  ---------------------------------------------------
  alpha Z        PSCENC =       387.12086559
  Ewald energy   TEWEN  =    181052.55010223
  -Hartree energ DENC   =   -235751.87840172
  -exchange      EXHF   =         0.00000000
  -V(xc)+E(xc)   XCENC  =      1678.23876867
  PAW double counting   =     49708.48388493   -53448.81471515
  entropy T*S    EENTRO =        -0.26542044
  eigenvalues    EBANDS =     -3446.55374999
  atomic energy  EATOM  =     59560.90262231
  Solvation  Ediel_sol  =         0.00000000
  ---------------------------------------------------
  free energy    TOTEN  =      -260.21604358 eV

  energy without entropy =     -259.95062313  energy(sigma->0) =     -260.08333335


--------------------------------------------------------------------------------------------------------




--------------------------------------- Iteration      1(  19)  ---------------------------------------


    POTLOK:  cpu time    0.2432: real time    0.2480
    SETDIJ:  cpu time    0.0064: real time    0.0064
    EDDIAG:  cpu time    1.4653: real time    1.4700
  RMM-DIIS:  cpu time   42.2444: real time   42.4816
    ORTHCH:  cpu time    0.4067: real time    0.4077
       DOS:  cpu time    0.0003: real time    0.0003
    CHARGE:  cpu time    0.4489: real time    0.4500
    MIXING:  cpu time    0.0153: real time    0.0153
    --------------------------------------------
      LOOP:  cpu time   44.8304: real time   45.0793

 eigenvalue-minimisations  :   676
 total energy-change (2. order) :-0.9766470E-01  (-0.8753395E-01)
 number of electron     556.0000145 magnetization 
 augmentation part      339.9077396 magnetization 

 Broyden mixing:
  rms(total) = 0.33121E+01    rms(broyden)= 0.33110E+01
  rms(prec ) = 0.40965E+01
  weight for this iteration     100.00

 eigenvalues of (default mixing * dielectric matrix)
  average eigenvalue GAMMA=   0.2200
  0.9742  0.6097  0.6097  0.1307  0.1307  0.1329  0.1073  0.1073  0.0625  0.0625
  0.0456  0.0456  0.0346  0.0268

 Free energy of the ion-electron system (eV)
  ---------------------------------------------------
  alpha Z        PSCENC =       387.12086559
  Ewald energy   TEWEN  =    181052.55010223
  -Hartree energ DENC   =   -235759.06518371
  -exchange      EXHF   =         0.00000000
  -V(xc)+E(xc)   XCENC  =      1678.07495173
  PAW double counting   =     49765.99676288   -53507.62819261
  entropy T*S    EENTRO =        -0.30065235
  eigenvalues    EBANDS =     -3437.96498435
  atomic energy  EATOM  =     59560.90262231
  Solvation  Ediel_sol  =         0.00000000
  ---------------------------------------------------
  free energy    TOTEN  =      -260.31370828 eV

  energy without entropy =     -260.01305593  energy(sigma->0) =     -260.16338210


--------------------------------------------------------------------------------------------------------




--------------------------------------- Iteration      1(  20)  ---------------------------------------


    POTLOK:  cpu time    0.2441: real time    0.2488
    SETDIJ:  cpu time    0.0063: real time    0.0063
    EDDIAG:  cpu time    1.4644: real time    1.4686
  RMM-DIIS:  cpu time   42.2826: real time   42.5066
    ORTHCH:  cpu time    0.4082: real time    0.4092
       DOS:  cpu time    0.0003: real time    0.0003
    CHARGE:  cpu time    0.4481: real time    0.4493
    MIXING:  cpu time    0.0171: real time    0.0171
    --------------------------------------------
      LOOP:  cpu time   44.8711: real time   45.1062

 eigenvalue-minimisations  :   676
 total energy-change (2. order) : 0.1144819E+01  (-0.9562783E-01)
 number of electron     556.0000126 magnetization 
 augmentation part      340.0500403 magnetization 

 Broyden mixing:
  rms(total) = 0.24942E+01    rms(broyden)= 0.24930E+01
  rms(prec ) = 0.29933E+01
  weight for this iteration     100.00

 eigenvalues of (default mixing * dielectric matrix)
  average eigenvalue GAMMA=   0.2177
  0.9934  0.6477  0.6477  0.1327  0.1327  0.1403  0.1403  0.0940  0.0700  0.0700
  0.0492  0.0492  0.0349  0.0393  0.0245

 Free energy of the ion-electron system (eV)
  ---------------------------------------------------
  alpha Z        PSCENC =       387.12086559
  Ewald energy   TEWEN  =    181052.55010223
  -Hartree energ DENC   =   -235763.66778056
  -exchange      EXHF   =         0.00000000
  -V(xc)+E(xc)   XCENC  =      1677.85140294
  PAW double counting   =     49809.40770406   -53551.70168611
  entropy T*S    EENTRO =        -0.35690752
  eigenvalues    EBANDS =     -3431.27521237
  atomic energy  EATOM  =     59560.90262231
  Solvation  Ediel_sol  =         0.00000000
  ---------------------------------------------------
  free energy    TOTEN  =      -259.16888944 eV

  energy without entropy =     -258.81198191  energy(sigma->0) =     -258.99043567


--------------------------------------------------------------------------------------------------------




--------------------------------------- Iteration      1(  21)  ---------------------------------------


    POTLOK:  cpu time    0.2442: real time    0.2485
    SETDIJ:  cpu time    0.0063: real time    0.0064
    EDDIAG:  cpu time    1.4662: real time    1.4702
  RMM-DIIS:  cpu time   42.3870: real time   42.4929
    ORTHCH:  cpu time    0.4072: real time    0.4082
       DOS:  cpu time    0.0004: real time    0.0004
    CHARGE:  cpu time    0.4473: real time    0.4484
    MIXING:  cpu time    0.0165: real time    0.0166
    --------------------------------------------
      LOOP:  cpu time   44.9751: real time   45.0916

 eigenvalue-minimisations  :   676
 total energy-change (2. order) : 0.7468302E+00  (-0.5600227E-01)
 number of electron     556.0000122 magnetization 
 augmentation part      340.0923265 magnetization 

 Broyden mixing:
  rms(total) = 0.15601E+01    rms(broyden)= 0.15589E+01
  rms(prec ) = 0.18017E+01
  weight for this iteration     100.00

 eigenvalues of (default mixing * dielectric matrix)
  average eigenvalue GAMMA=   0.2158
  1.0189  0.6641  0.6641  0.1756  0.1756  0.1298  0.1298  0.0938  0.0741  0.0693
  0.0693  0.0459  0.0459  0.0358  0.0358  0.0245

 Free energy of the ion-electron system (eV)
  ---------------------------------------------------
  alpha Z        PSCENC =       387.12086559
  Ewald energy   TEWEN  =    181052.55010223
  -Hartree energ DENC   =   -235766.75069027
  -exchange      EXHF   =         0.00000000
  -V(xc)+E(xc)   XCENC  =      1677.65481363
  PAW double counting   =     49831.29791125   -53573.90067776
  entropy T*S    EENTRO =        -0.45910419
  eigenvalues    EBANDS =     -3426.83790204
  atomic energy  EATOM  =     59560.90262231
  Solvation  Ediel_sol  =         0.00000000
  ---------------------------------------------------
  free energy    TOTEN  =      -258.42205926 eV

  energy without entropy =     -257.96295507  energy(sigma->0) =     -258.19250717


--------------------------------------------------------------------------------------------------------




--------------------------------------- Iteration      1(  22)  ---------------------------------------


    POTLOK:  cpu time    0.2451: real time    0.2496
    SETDIJ:  cpu time    0.0064: real time    0.0064
    EDDIAG:  cpu time    1.4685: real time    1.4727
  RMM-DIIS:  cpu time   42.2711: real time   42.4097
    ORTHCH:  cpu time    0.4058: real time    0.4068
       DOS:  cpu time    0.0003: real time    0.0003
    CHARGE:  cpu time    0.4423: real time    0.4434
    MIXING:  cpu time    0.0177: real time    0.0177
    --------------------------------------------
      LOOP:  cpu time   44.8571: real time   45.0065

 eigenvalue-minimisations  :   675
 total energy-change (2. order) : 0.3317572E+00  (-0.3921323E-01)
 number of electron     556.0000113 magnetization 
 augmentation part      340.1335253 magnetization 

 Broyden mixing:
  rms(total) = 0.11765E+01    rms(broyden)= 0.11753E+01
  rms(prec ) = 0.13892E+01
  weight for this iteration     100.00

 eigenvalues of (default mixing * dielectric matrix)
  average eigenvalue GAMMA=   0.2189
  1.0496  0.7028  0.7028  0.2659  0.1658  0.1297  0.1297  0.1080  0.0786  0.0786
  0.0603  0.0603  0.0475  0.0475  0.0353  0.0353  0.0242

 Free energy of the ion-electron system (eV)
  ---------------------------------------------------
  alpha Z        PSCENC =       387.12086559
  Ewald energy   TEWEN  =    181052.55010223
  -Hartree energ DENC   =   -235770.00851266
  -exchange      EXHF   =         0.00000000
  -V(xc)+E(xc)   XCENC  =      1677.41376269
  PAW double counting   =     49850.97906049   -53594.08613172
  entropy T*S    EENTRO =        -0.50280284
  eigenvalues    EBANDS =     -3422.45926814
  atomic energy  EATOM  =     59560.90262231
  Solvation  Ediel_sol  =         0.00000000
  ---------------------------------------------------
  free energy    TOTEN  =      -258.09030204 eV

  energy without entropy =     -257.58749921  energy(sigma->0) =     -257.83890062


--------------------------------------------------------------------------------------------------------




--------------------------------------- Iteration      1(  23)  ---------------------------------------


    POTLOK:  cpu time    0.2458: real time    0.2499
    SETDIJ:  cpu time    0.0064: real time    0.0065
    EDDIAG:  cpu time    1.4678: real time    1.4716
  RMM-DIIS:  cpu time   42.3079: real time   42.4895
    ORTHCH:  cpu time    0.4059: real time    0.4069
       DOS:  cpu time    0.0003: real time    0.0003
    CHARGE:  cpu time    0.4492: real time    0.4503
    MIXING:  cpu time    0.0187: real time    0.0187
    --------------------------------------------
      LOOP:  cpu time   44.9019: real time   45.0936

 eigenvalue-minimisations  :   676
 total energy-change (2. order) : 0.1532876E+00  (-0.3124119E-01)
 number of electron     556.0000113 magnetization 
 augmentation part      340.4691156 magnetization 

 Broyden mixing:
  rms(total) = 0.10907E+01    rms(broyden)= 0.10894E+01
  rms(prec ) = 0.13011E+01
  weight for this iteration     100.00

 eigenvalues of (default mixing * dielectric matrix)
  average eigenvalue GAMMA=   0.2194
  1.0520  0.7410  0.7410  0.2930  0.1711  0.1333  0.1333  0.1079  0.1079  0.0900
  0.0662  0.0662  0.0614  0.0454  0.0454  0.0351  0.0351  0.0242

 Free energy of the ion-electron system (eV)
  ---------------------------------------------------
  alpha Z        PSCENC =       387.12086559
  Ewald energy   TEWEN  =    181052.55010223
  -Hartree energ DENC   =   -235775.07575937
  -exchange      EXHF   =         0.00000000
  -V(xc)+E(xc)   XCENC  =      1677.02606159
  PAW double counting   =     49879.98878408   -53623.72553092
  entropy T*S    EENTRO =        -0.49174214
  eigenvalues    EBANDS =     -3416.23241776
  atomic energy  EATOM  =     59560.90262231
  Solvation  Ediel_sol  =         0.00000000
  ---------------------------------------------------
  free energy    TOTEN  =      -257.93701440 eV

  energy without entropy =     -257.44527226  energy(sigma->0) =     -257.69114333


--------------------------------------------------------------------------------------------------------




--------------------------------------- Iteration      1(  24)  ---------------------------------------


    POTLOK:  cpu time    0.2457: real time    0.2511
    SETDIJ:  cpu time    0.0063: real time    0.0063
    EDDIAG:  cpu time    1.4664: real time    1.4705
  RMM-DIIS:  cpu time   42.3841: real time   42.5357
    ORTHCH:  cpu time    0.4164: real time    0.4175
       DOS:  cpu time    0.0003: real time    0.0003
    CHARGE:  cpu time    0.4456: real time    0.4467
    MIXING:  cpu time    0.0208: real time    0.0209
    --------------------------------------------
      LOOP:  cpu time   44.9857: real time   45.1490

 eigenvalue-minimisations  :   676
 total energy-change (2. order) :-0.6196907E-01  (-0.2549458E-01)
 number of electron     556.0000120 magnetization 
 augmentation part      340.5934649 magnetization 

 Broyden mixing:
  rms(total) = 0.12179E+01    rms(broyden)= 0.12166E+01
  rms(prec ) = 0.14385E+01
  weight for this iteration     100.00

 eigenvalues of (default mixing * dielectric matrix)
  average eigenvalue GAMMA=   0.2384
  1.0383  0.8612  0.8612  0.3672  0.3672  0.1449  0.1293  0.1293  0.1117  0.0909
  0.0684  0.0684  0.0658  0.0469  0.0469  0.0383  0.0346  0.0346  0.0242

 Free energy of the ion-electron system (eV)
  ---------------------------------------------------
  alpha Z        PSCENC =       387.12086559
  Ewald energy   TEWEN  =    181052.55010223
  -Hartree energ DENC   =   -235779.32283915
  -exchange      EXHF   =         0.00000000
  -V(xc)+E(xc)   XCENC  =      1676.87576004
  PAW double counting   =     49895.66340158   -53639.90081127
  entropy T*S    EENTRO =        -0.47192284
  eigenvalues    EBANDS =     -3411.41616196
  atomic energy  EATOM  =     59560.90262231
  Solvation  Ediel_sol  =         0.00000000
  ---------------------------------------------------
  free energy    TOTEN  =      -257.99898347 eV

  energy without entropy =     -257.52706063  energy(sigma->0) =     -257.76302205


--------------------------------------------------------------------------------------------------------




--------------------------------------- Iteration      1(  25)  ---------------------------------------


    POTLOK:  cpu time    0.2434: real time    0.2484
    SETDIJ:  cpu time    0.0064: real time    0.0064
    EDDIAG:  cpu time    1.4693: real time    1.4740
  RMM-DIIS:  cpu time   42.3230: real time   42.4447
    ORTHCH:  cpu time    0.4144: real time    0.4154
       DOS:  cpu time    0.0003: real time    0.0003
    CHARGE:  cpu time    0.4519: real time    0.4532
    MIXING:  cpu time    0.0212: real time    0.0212
    --------------------------------------------
      LOOP:  cpu time   44.9300: real time   45.0636

 eigenvalue-minimisations  :   675
 total energy-change (2. order) :-0.1727640E+00  (-0.3730798E-01)
 number of electron     556.0000141 magnetization 
 augmentation part      340.7062518 magnetization 

 Broyden mixing:
  rms(total) = 0.13660E+01    rms(broyden)= 0.13646E+01
  rms(prec ) = 0.16139E+01
  weight for this iteration     100.00

 eigenvalues of (default mixing * dielectric matrix)
  average eigenvalue GAMMA=   0.2468
  1.0555  0.9307  0.9307  0.4596  0.4596  0.1295  0.1295  0.1430  0.1172  0.0899
  0.0718  0.0718  0.0617  0.0617  0.0469  0.0469  0.0372  0.0345  0.0345  0.0242

 Free energy of the ion-electron system (eV)
  ---------------------------------------------------
  alpha Z        PSCENC =       387.12086559
  Ewald energy   TEWEN  =    181052.55010223
  -Hartree energ DENC   =   -235793.06858136
  -exchange      EXHF   =         0.00000000
  -V(xc)+E(xc)   XCENC  =      1676.70946151
  PAW double counting   =     49941.80026409   -53687.46887445
  entropy T*S    EENTRO =        -0.42202282
  eigenvalues    EBANDS =     -3396.29558453
  atomic energy  EATOM  =     59560.90262231
  Solvation  Ediel_sol  =         0.00000000
  ---------------------------------------------------
  free energy    TOTEN  =      -258.17174743 eV

  energy without entropy =     -257.74972461  energy(sigma->0) =     -257.96073602


--------------------------------------------------------------------------------------------------------




--------------------------------------- Iteration      1(  26)  ---------------------------------------


    POTLOK:  cpu time    0.2463: real time    0.2509
    SETDIJ:  cpu time    0.0063: real time    0.0063
    EDDIAG:  cpu time    1.4686: real time    1.4733
  RMM-DIIS:  cpu time   42.2413: real time   42.3957
    ORTHCH:  cpu time    0.4099: real time    0.4110
       DOS:  cpu time    0.0003: real time    0.0003
    CHARGE:  cpu time    0.4458: real time    0.4469
    MIXING:  cpu time    0.0213: real time    0.0214
    --------------------------------------------
      LOOP:  cpu time   44.8398: real time   45.0058

 eigenvalue-minimisations  :   675
 total energy-change (2. order) : 0.2409153E+00  (-0.2933897E-01)
 number of electron     556.0000126 magnetization 
 augmentation part      340.7818108 magnetization 

 Broyden mixing:
  rms(total) = 0.12206E+01    rms(broyden)= 0.12190E+01
  rms(prec ) = 0.14767E+01
  weight for this iteration     100.00

 eigenvalues of (default mixing * dielectric matrix)
  average eigenvalue GAMMA=   0.2474
  1.0125  1.0125  0.9800  0.5030  0.5030  0.1297  0.1297  0.1396  0.1396  0.0877
  0.0877  0.0684  0.0684  0.0627  0.0467  0.0467  0.0490  0.0357  0.0357  0.0337
  0.0242

 Free energy of the ion-electron system (eV)
  ---------------------------------------------------
  alpha Z        PSCENC =       387.12086559
  Ewald energy   TEWEN  =    181052.55010223
  -Hartree energ DENC   =   -235807.61047350
  -exchange      EXHF   =         0.00000000
  -V(xc)+E(xc)   XCENC  =      1676.65339228
  PAW double counting   =     49996.75085586   -53743.74460071
  entropy T*S    EENTRO =        -0.46517199
  eigenvalues    EBANDS =     -3380.08842422
  atomic energy  EATOM  =     59560.90262231
  Solvation  Ediel_sol  =         0.00000000
  ---------------------------------------------------
  free energy    TOTEN  =      -257.93083214 eV

  energy without entropy =     -257.46566015  energy(sigma->0) =     -257.69824614


--------------------------------------------------------------------------------------------------------




--------------------------------------- Iteration      1(  27)  ---------------------------------------


    POTLOK:  cpu time    0.2466: real time    0.2510
    SETDIJ:  cpu time    0.0063: real time    0.0063
    EDDIAG:  cpu time    1.4731: real time    1.4769
  RMM-DIIS:  cpu time   42.3166: real time   42.4467
    ORTHCH:  cpu time    0.4111: real time    0.4122
       DOS:  cpu time    0.0003: real time    0.0003
    CHARGE:  cpu time    0.4455: real time    0.4466
    MIXING:  cpu time    0.0227: real time    0.0228
    --------------------------------------------
      LOOP:  cpu time   44.9223: real time   45.0628

 eigenvalue-minimisations  :   676
 total energy-change (2. order) : 0.8293480E-01  (-0.2294741E-01)
 number of electron     556.0000130 magnetization 
 augmentation part      340.8145363 magnetization 

 Broyden mixing:
  rms(total) = 0.97550E+00    rms(broyden)= 0.97401E+00
  rms(prec ) = 0.11520E+01
  weight for this iteration     100.00

 eigenvalues of (default mixing * dielectric matrix)
  average eigenvalue GAMMA=   0.2585
  1.2156  1.2156  0.8007  0.5488  0.5488  0.2007  0.1729  0.1301  0.1301  0.0972
  0.0972  0.0693  0.0693  0.0692  0.0626  0.0469  0.0469  0.0242  0.0388  0.0352
  0.0352  0.0326

 Free energy of the ion-electron system (eV)
  ---------------------------------------------------
  alpha Z        PSCENC =       387.12086559
  Ewald energy   TEWEN  =    181052.55010223
  -Hartree energ DENC   =   -235816.63637320
  -exchange      EXHF   =         0.00000000
  -V(xc)+E(xc)   XCENC  =      1676.62313095
  PAW double counting   =     50024.55306046   -53772.09201282
  entropy T*S    EENTRO =        -0.49079723
  eigenvalues    EBANDS =     -3370.37849563
  atomic energy  EATOM  =     59560.90262231
  Solvation  Ediel_sol  =         0.00000000
  ---------------------------------------------------
  free energy    TOTEN  =      -257.84789734 eV

  energy without entropy =     -257.35710011  energy(sigma->0) =     -257.60249873


--------------------------------------------------------------------------------------------------------




--------------------------------------- Iteration      1(  28)  ---------------------------------------


    POTLOK:  cpu time    0.2466: real time    0.2598
    SETDIJ:  cpu time    0.0063: real time    0.0064
    EDDIAG:  cpu time    1.4699: real time    1.4740
  RMM-DIIS:  cpu time   42.2583: real time   42.4567
    ORTHCH:  cpu time    0.4099: real time    0.4109
[...]
    FORCOR:  cpu time    0.3307: real time    0.3322
    FORHAR:  cpu time    0.1598: real time    0.1601
    MIXING:  cpu time    0.0256: real time    0.0257
    OFIELD:  cpu time    0.0001: real time    0.0001

  FORCE on cell =-STRESS in cart. coord.  units (eV):
  Direction    XX          YY          ZZ          XY          YZ          ZX
  --------------------------------------------------------------------------------------
  Alpha Z   387.12087   387.12087   387.12087
  Ewald   59399.32197 59458.85806 63379.78626   509.92641  -771.47168  -848.71071
  Hartree 77821.74677 77849.66793 81505.09936   473.60206  -690.38239  -774.01819
  E(xc)   -3038.37290 -3038.34973 -3037.68188     0.05153    -0.17613    -0.20676
  Local  ************************************  -983.66968  1458.59327  1620.14096
  n-local -1801.14465 -1800.16547 -1797.03118     0.27242    -0.89214    -0.11828
  augment  2817.53115  2816.27085  2811.65852     0.13901     1.94509     1.73666
  Kinetic  4369.46241  4367.91713  4361.94741    -0.30541     1.71814     2.36032
  Fock        0.00000     0.00000     0.00000     0.00000     0.00000     0.00000
  -------------------------------------------------------------------------------------
  Total      -3.51546    -2.65917    -2.49655     0.01634    -0.66586     1.18399
  in kB      -0.70405    -0.53256    -0.49999     0.00327    -0.13335     0.23712
  external pressure =       -0.58 kB  Pullay stress =        0.00 kB


 VOLUME and BASIS-vectors are now :
 -----------------------------------------------------------------------------
  energy-cutoff  :      400.00
  volume of cell :     8000.00
      direct lattice vectors                 reciprocal lattice vectors
    20.000000000  0.000000000  0.000000000     0.050000000  0.000000000  0.000000000
     0.000000000 20.000000000  0.000000000     0.000000000  0.050000000  0.000000000
     0.000000000  0.000000000 20.000000000     0.000000000  0.000000000  0.050000000

  length of vectors
    20.000000000 20.000000000 20.000000000     0.050000000  0.050000000  0.050000000


 FORCES acting on ions
    electron-ion (+dipol)            ewald-force                    non-local-force                 convergence-correction
 -----------------------------------------------------------------------------------------------
   0.183E+04 -.117E+04 0.607E+03   -.183E+04 0.117E+04 -.607E+03   -.190E+01 0.128E+01 -.676E+00   -.238E-01 0.311E-02 -.279E-02
   0.724E+03 -.190E+04 0.968E+03   -.723E+03 0.190E+04 -.967E+03   -.817E+00 0.207E+01 -.939E+00   -.203E-02 0.132E-01 -.129E-01
   0.116E+04 -.190E+04 -.356E+03   -.115E+04 0.190E+04 0.355E+03   -.113E+01 0.211E+01 0.339E+00   -.135E-01 0.107E-01 0.113E-01
   0.287E+02 -.229E+04 0.971E+01   -.286E+02 0.228E+04 -.966E+01   -.875E-01 0.683E+01 -.535E-01   0.402E-02 0.135E-01 0.136E-02
   0.643E+01 -.131E+04 0.146E+02   -.648E+01 0.131E+04 -.146E+02   0.411E-01 -.133E+00 -.536E-01   0.181E-01 -.443E-02 0.618E-02
   -.686E+03 -.192E+04 0.966E+03   0.685E+03 0.191E+04 -.964E+03   0.664E+00 0.217E+01 -.105E+01   0.164E-01 -.129E-02 -.132E-01
   -.112E+04 -.192E+04 -.364E+03   0.112E+04 0.192E+04 0.364E+03   0.123E+01 0.214E+01 0.488E+00   0.106E-01 0.447E-03 -.407E-03
   0.198E+04 -.104E+04 -.629E+03   -.197E+04 0.104E+04 0.627E+03   -.587E+01 0.304E+01 0.193E+01   -.152E-01 -.134E-02 0.956E-02
   0.183E+04 0.382E+01 -.127E+04   -.182E+04 -.382E+01 0.127E+04   -.167E+01 0.120E-01 0.230E+01   -.461E-02 -.696E-02 0.125E-01
   0.111E+04 -.587E+03 -.351E+03   -.111E+04 0.587E+03 0.351E+03   0.139E+00 0.394E-02 -.121E+00   -.905E-02 -.116E-01 0.210E-01
   0.116E+04 -.120E+04 -.152E+04   -.115E+04 0.120E+04 0.151E+04   -.171E+01 0.148E+01 0.189E+01   -.367E-02 -.726E-02 0.150E-01
   0.210E+02 -.192E+04 -.117E+04   -.210E+02 0.192E+04 0.116E+04   -.313E-01 0.189E+01 0.933E+00   0.140E-02 0.770E-03 0.155E-01
   0.781E+00 -.591E+03 -.114E+04   -.108E+01 0.591E+03 0.114E+04   0.277E+00 0.766E-01 -.197E+00   0.108E-01 -.207E-01 0.200E-01
   -.112E+04 -.594E+03 -.354E+03   0.112E+04 0.594E+03 0.354E+03   -.121E+00 -.122E+00 -.101E+00   0.954E-02 -.276E-01 -.534E-02
   -.114E+04 -.121E+04 -.153E+04   0.113E+04 0.121E+04 0.153E+04   0.119E+01 0.130E+01 0.145E+01   -.768E-03 -.131E-01 0.101E-01
   0.124E+04 -.104E+04 0.168E+04   -.123E+04 0.104E+04 -.168E+04   -.363E+01 0.295E+01 -.506E+01   -.115E-01 0.472E-02 -.162E-01
   0.181E+04 0.127E+02 0.134E+04   -.181E+04 -.128E+02 -.134E+04   -.172E+01 0.124E+00 -.152E+01   -.183E-01 -.122E-01 -.567E-02
   0.692E+03 0.298E+00 0.212E+04   -.691E+03 -.216E+00 -.212E+04   -.911E+00 -.740E-01 -.232E+01   0.452E-03 -.439E-02 -.111E-01
   0.692E+03 -.579E+03 0.954E+03   -.692E+03 0.580E+03 -.954E+03   0.217E-01 -.146E+00 0.153E+00   0.474E-02 -.829E-02 -.108E-01
   0.898E+01 -.120E+04 0.190E+04   -.894E+01 0.119E+04 -.190E+04   -.560E-01 0.135E+01 -.210E+01   0.163E-01 0.257E-02 -.138E-01
   -.155E+02 0.584E+03 0.117E+04   0.155E+02 -.584E+03 -.117E+04   -.331E-01 0.294E-01 0.177E+00   0.264E-01 -.141E-01 0.795E-02
   -.711E+03 -.126E+02 0.212E+04   0.710E+03 0.126E+02 -.212E+04   0.788E+00 -.552E-01 -.236E+01   0.204E-01 -.836E-03 0.457E-02
   -.688E+03 -.597E+03 0.954E+03   0.688E+03 0.597E+03 -.954E+03   -.662E-01 -.557E-01 0.134E+00   0.320E-01 -.179E-01 -.550E-02
   0.223E+04 0.177E+02 0.286E+02   -.223E+04 -.175E+02 -.286E+02   -.244E+01 -.114E+00 -.468E-01   -.145E-01 -.958E-02 0.373E-02
   0.181E+04 0.121E+04 -.530E+03   -.181E+04 -.121E+04 0.530E+03   -.209E+01 -.110E+01 -.393E+00   -.113E-02 -.561E-02 0.374E-02
   0.110E+04 0.597E+03 0.376E+03   -.110E+04 -.597E+03 -.376E+03   0.133E+00 0.417E-01 0.232E+00   -.414E-02 -.243E-01 0.365E-02
   0.667E+03 0.591E+03 -.932E+03   -.667E+03 -.591E+03 0.932E+03   0.183E-01 0.470E-01 -.123E+00   0.977E-02 -.117E-01 0.145E-01
   -.783E+01 0.113E+01 0.340E+01   0.773E+01 -.115E+01 -.331E+01   0.663E-01 0.394E-01 -.945E-01   0.320E-01 -.274E-01 0.108E-01
   -.353E+02 0.131E+04 0.140E+02   0.353E+02 -.131E+04 -.139E+02   0.350E-01 0.168E+00 -.161E+00   0.142E-01 0.256E-02 0.499E-02
   -.113E+04 0.574E+03 0.366E+03   0.113E+04 -.574E+03 -.366E+03   -.144E+00 0.121E+00 0.963E-02   0.154E-01 -.508E-02 -.217E-02
   -.686E+03 0.595E+03 -.943E+03   0.686E+03 -.595E+03 0.943E+03   0.131E+00 0.215E+00 -.241E+00   0.369E-02 -.200E-02 -.259E-02
   -.181E+04 -.121E+04 0.596E+03   0.181E+04 0.121E+04 -.595E+03   0.193E+01 0.127E+01 -.616E+00   0.586E-02 -.157E-01 -.112E-01
   -.196E+04 -.107E+04 -.647E+03   0.195E+04 0.107E+04 0.646E+03   0.567E+01 0.301E+01 0.190E+01   0.580E-02 -.107E-01 -.341E-02
   -.182E+04 -.137E+02 -.132E+04   0.182E+04 0.137E+02 0.131E+04   0.194E+01 0.284E-01 0.129E+01   -.480E-02 -.989E-02 -.274E-02
   -.122E+04 -.107E+04 0.168E+04   0.122E+04 0.106E+04 -.167E+04   0.354E+01 0.309E+01 -.486E+01   0.760E-02 -.101E-01 0.121E-02
   -.182E+04 -.232E+02 0.133E+04   0.182E+04 0.233E+02 -.132E+04   0.205E+01 -.739E-01 -.147E+01   -.406E-03 -.107E-01 0.865E-02
   -.223E+04 -.194E+02 -.302E+01   0.223E+04 0.195E+02 0.299E+01   0.253E+01 -.356E-02 0.539E-01   -.703E-02 -.158E-01 -.126E-01
   -.182E+04 0.118E+04 -.594E+03   0.182E+04 -.118E+04 0.594E+03   0.186E+01 -.120E+01 0.464E+00   -.300E-02 0.750E-02 -.153E-01
   0.690E+03 -.143E+03 -.198E+04   -.689E+03 0.146E+03 0.198E+04   -.277E+00 -.264E+01 0.773E+00   0.683E-02 -.783E-02 0.258E-02
   -.186E+02 -.111E+04 -.203E+04   0.186E+02 0.111E+04 0.202E+04   0.221E-01 0.289E+01 0.637E+01   0.179E-02 -.140E-01 0.525E-02
   -.750E+03 -.411E+02 -.208E+04   0.750E+03 0.415E+02 0.208E+04   -.572E-01 -.405E+00 0.292E+01   -.459E-02 -.692E-02 0.273E-03
   0.130E+04 0.110E+04 -.145E+04   -.130E+04 -.110E+04 0.145E+04   -.384E+00 -.552E+00 0.399E+01   0.540E-02 0.147E-02 0.161E-02
   0.659E+03 0.192E+04 -.914E+03   -.659E+03 -.192E+04 0.913E+03   -.248E+00 -.197E+01 0.141E+01   0.125E-02 0.241E-02 0.413E-02
   -.888E+02 0.117E+04 -.179E+04   0.905E+02 -.117E+04 0.179E+04   -.161E+01 -.450E-01 0.179E+01   -.376E-03 0.688E-02 0.185E-03
   -.712E+03 0.189E+04 -.963E+03   0.711E+03 -.189E+04 0.961E+03   0.790E+00 -.256E+01 0.112E+01   -.217E-03 0.874E-02 -.203E-02
   -.126E+04 0.104E+04 -.166E+04   0.125E+04 -.104E+04 0.165E+04   0.368E+01 -.297E+01 0.517E+01   -.592E-02 0.686E-02 -.349E-02
   0.110E+04 0.120E+04 0.156E+04   -.110E+04 -.119E+04 -.156E+04   -.985E+00 -.108E+01 -.169E+01   -.788E-02 -.116E-01 0.213E-02
   -.251E+02 0.104E+04 0.206E+04   0.251E+02 -.104E+04 -.205E+04   -.350E-02 -.300E+01 -.620E+01   0.892E-02 -.557E-02 0.182E-02
   -.115E+04 0.117E+04 0.155E+04   0.115E+04 -.117E+04 -.155E+04   0.124E+01 -.129E+01 -.165E+01   0.147E-01 0.708E-02 0.138E-01
   0.195E+04 0.107E+04 0.693E+03   -.194E+04 -.106E+04 -.692E+03   -.591E+01 -.332E+01 -.142E+01   -.500E-02 -.641E-02 -.132E-02
   0.110E+04 0.192E+04 0.398E+03   -.110E+04 -.192E+04 -.398E+03   -.130E+01 -.220E+01 -.476E+00   -.236E-02 -.130E-02 0.195E-02
   -.307E+02 0.190E+04 0.120E+04   0.306E+02 -.190E+04 -.120E+04   0.414E-01 -.203E+01 -.132E+01   0.642E-02 -.681E-04 0.323E-02
   -.116E+04 0.189E+04 0.368E+03   0.116E+04 -.189E+04 -.368E+03   0.141E+01 -.207E+01 -.365E+00   0.832E-02 0.170E-01 -.245E-02
   -.198E+04 0.103E+04 0.648E+03   0.197E+04 -.103E+04 -.646E+03   0.587E+01 -.298E+01 -.188E+01   -.906E-02 0.993E-02 0.108E-02
   -.463E+02 0.229E+04 0.165E+02   0.462E+02 -.228E+04 -.165E+02   0.822E-01 -.693E+01 0.386E-02   0.867E-03 0.519E-02 0.150E-02
   0.353E+03 0.361E+03 -.118E+04   -.354E+03 -.362E+03 0.119E+04   0.152E+01 0.361E+00 -.263E+01   0.348E-02 0.114E-02 -.365E-02
 -----------------------------------------------------------------------------------------------
   -.386E+01 -.789E+00 0.486E+01   -.739E-12 0.909E-12 0.182E-11   0.370E+01 0.103E+01 -.491E+01   0.151E+00 -.238E+00 0.652E-01
 
 
 POSITION                                       TOTAL-FORCE (eV/Angst)
 -----------------------------------------------------------------------------------
      7.00703     11.90163      8.20561        -0.002990     -0.000945     -0.009358
      9.02383     13.25451      7.55521         0.003887     -0.002514      0.000824
      8.25163     13.24857      9.94097         0.000563      0.007715     -0.015668
     10.26274     14.45831      9.28048         0.004969      0.006068     -0.008663
     10.30283     12.15929      9.27154         0.012409      0.003227     -0.002966
     11.54637     13.29823      7.56279         0.007172      0.001484     -0.003718
     12.31165     13.30239      9.94505         0.004296      0.004017     -0.007063
      6.34986     11.84880     10.54762         0.001070      0.008315     -0.013178
      7.00697      9.77081     11.61643        -0.022881      0.005049     -0.047496
      8.32351     10.85085      9.93277         0.003491      0.014980     -0.002927
      8.24793     11.94034     12.08667        -0.021603      0.005847      0.003915
     10.27491     13.27771     11.40067        -0.006011      0.005114     -0.012005
     10.30878     10.86866     11.38702        -0.009246      0.008065      0.003299
     12.30106     10.87707      9.92778        -0.004036     -0.004742      0.006817
     12.33197     11.98567     12.07188        -0.007802      0.011888     -0.004153
      7.86371     11.87170      5.92300         0.003505      0.004663     -0.004749
      7.04038      9.78670      6.87838         0.001382      0.004746     -0.017197
      9.07219      9.81169      5.41689         0.009159      0.004034      0.000417
      9.07443     10.84349      7.59070        -0.005657     -0.002639      0.002089
     10.30135     11.96263      5.82963         0.001278      0.003039      0.003068
     10.33415      8.77286      7.18816        -0.002257     -0.001886      0.004155
     11.58529      9.84137      5.41942         0.005203     -0.002343      0.002368
     11.54059     10.88357      7.58744        -0.004843     -0.003540     -0.001606
      6.25255      9.76122      9.26500        -0.003875      0.006682     -0.030731
      7.03100      7.63264     10.28599        -0.024942      0.006479     -0.021025
      8.33803      8.74270      8.64385        -0.006480      0.001001      0.000362
      9.08306      8.74244     10.98161        -0.020324      0.004976     -0.003101
     10.32114      9.81619      9.29162        -0.003261     -0.003106     -0.000565
     10.35592      7.47601      9.27096         0.000481      0.004816     -0.004698
     12.32573      8.80170      8.63498        -0.000572      0.010053      0.006901
     11.53106      8.77178     11.00499        -0.036173      0.001656      0.021705
     13.58594     11.99493      8.22233        -0.001094     -0.009137      0.000232
     14.23581     11.92597     10.56928        -0.003188     -0.005743     -0.001498
     13.58966      9.85006     11.67644        -0.016852     -0.000821      0.005334
     12.73594     11.92688      5.93541         0.000755     -0.003837     -0.001485
     13.61529      9.86313      6.90329         0.001725     -0.003685      0.011036
     14.39127      9.85629      9.28972         0.003908     -0.005187      0.008777
     13.60176      7.71863     10.35826        -0.038495      0.006121      0.022158
      9.05003      9.91293     13.22227        -0.047965     -0.009269     -0.000550
     10.31114     11.95357     13.41590        -0.024096      0.017035     -0.010717
     11.58395      9.86369     13.14662        -0.015079      0.029589      0.006332
      7.78500      7.63570     12.56269        -0.039579      0.069052      0.019790
      9.08564      6.34987     10.96787        -0.041000      0.022385     -0.008107
     10.28399      7.70776     12.90394         0.005236      0.009979      0.057608
     11.57166      6.37733     11.04817        -0.044200      0.008241      0.034478
     12.75359      7.76795     12.64677        -0.037306      0.013139      0.027388
      8.32613      7.66593      6.47032         0.004164      0.008490     -0.014767
     10.35701      7.75354      5.12737         0.006792     -0.004405     -0.003104
     12.37901      7.71107      6.48660        -0.003928     -0.002280      0.012535
      6.40050      7.70481      7.93591        -0.003444      0.005025     -0.039195
      8.32354      6.33128      8.59859        -0.008793      0.009351     -0.008477
     10.35221      6.36753      7.13482        -0.003055     -0.003067     -0.000136
     12.39285      6.39003      8.62369        -0.010305     -0.000817      0.019455
     14.28886      7.79017      8.00805        -0.007291     -0.007311      0.019092
     10.38254      5.18345      9.26686        -0.017887      0.007323      0.015675
      8.67600      8.18578     14.36566         0.465068     -0.262364     -0.016908
 -----------------------------------------------------------------------------------
    total drift:                               -0.006077      0.004530      0.011137


--------------------------------------------------------------------------------------------------------



  FREE ENERGIE OF THE ION-ELECTRON SYSTEM (eV)
  ---------------------------------------------------
  free  energy   TOTEN  =      -258.02884112 eV

  energy  without entropy=     -257.50627228  energy(sigma->0) =     -257.76755670
 
 d Force = 0.4172949E-02[ 0.405E-02, 0.430E-02]  d Energy = 0.4180319E-02-0.737E-05
 d Force =-0.6773540E+01[-0.674E+01,-0.680E+01]  d Ewald  =-0.6773537E+01-0.309E-05


--------------------------------------------------------------------------------------------------------


    POTLOK:  cpu time    0.2690: real time    0.2701


--------------------------------------------------------------------------------------------------------


 NEB: the previous image is higher in energy: F
 NEB: the next image is higher in energy    : T
 NEB: only next energy greater

 NEB: Tangent
 ----------------------------------------------
      0.00643      0.00061      0.01139
     -0.00656      0.00507     -0.00503
      0.00670     -0.00772      0.01857
     -0.00180     -0.00479     -0.00361
     -0.00795      0.00120     -0.00975
     -0.00205      0.00157     -0.00243
      0.00106     -0.00317      0.00263
      0.00396     -0.01022      0.01722
      0.02971     -0.00594      0.06829
     -0.00191     -0.01419      0.00774
      0.03395      0.00709     -0.00935
      0.01465      0.00577      0.00119
      0.01046      0.00143     -0.00592
      0.00989      0.00767     -0.01636
      0.01375     -0.00313     -0.00628
     -0.00350     -0.00513      0.00476
     -0.00189     -0.00330      0.00850
     -0.00691     -0.00292     -0.00480
      0.00538      0.00226     -0.00511
     -0.00007     -0.00173     -0.00273
      0.00601      0.00352     -0.00552
     -0.00200      0.00148     -0.00454
      0.00591      0.00180     -0.00391
      0.01080     -0.00601      0.03411
      0.02333     -0.01149      0.00560
      0.00719      0.00318     -0.01133
      0.01340     -0.00686     -0.00290
      0.00362      0.00470     -0.00513
     -0.00703     -0.00061      0.00786
     -0.00364     -0.01250     -0.00609
      0.03403      0.01259     -0.02566
      0.00296      0.00983     -0.00282
      0.01101      0.00439     -0.00492
      0.00796      0.01021      0.00034
      0.00278      0.00261      0.00048
     -0.00197     -0.00001     -0.00910
     -0.00559     -0.00063     -0.00352
      0.02675     -0.00589     -0.01189
      0.06467      0.02658      0.00243
      0.03557      0.00059      0.00733
      0.00583     -0.01555     -0.00071
      0.03483     -0.11762     -0.05134
      0.03455     -0.03321     -0.00437
     -0.02462      0.00096     -0.11446
      0.03002      0.00051     -0.03156
      0.01777      0.00330     -0.01511
      0.00036     -0.01117      0.00788
     -0.00177      0.00629      0.00155
      0.00808     -0.00307     -0.00973
      0.00564     -0.00181      0.03024
      0.01037     -0.01143     -0.00906
      0.00666      0.00218     -0.00317
      0.00884     -0.00078     -0.01350
      0.00426      0.00318     -0.00978
      0.01840     -0.00950     -0.02235
     -0.85378      0.45721      0.00420

 NEB: forces: par spring, perp REAL, dneb     0.046710    0.104171    0.000000
 NEB: distance to prev, next image, angle between     0.464769    0.455428  137.749624
 NEB: projections on to tangent (spring, REAL)    -0.046710   -0.560644

 stress matrix after NEB project (eV)
     -3.51546      0.01634      1.18399
      0.01634     -2.65917     -0.66586
      1.18399     -0.66586     -2.49655
  FORCES: max atom, RMS     0.040722    0.015256
  FORCE total and by dimension    0.114164    0.028773
  Stress total and by dimension    5.417864    3.515458
 OPT: skip step - force has converged


--------------------------------------------------------------------------------------------------------


  
 reached required accuracy - stopping structural energy minimisation
     LOOP+:  cpu time 1168.6544: real time 1173.5544
    4ORBIT:  cpu time    0.0000: real time    0.0000

 total amount of memory used by VASP MPI-rank0   308125. kBytes
=======================================================================

   base      :      30000. kBytes
   nonl-proj :     171888. kBytes
   fftplans  :      15318. kBytes
   grid      :      57304. kBytes
   one-center:        870. kBytes
   wavefun   :      32745. kBytes
 
  
  
 General timing and accounting informations for this job:
 ========================================================
  
                  Total CPU time used (sec):    26263.762
                            User time (sec):    26149.427
                          System time (sec):      114.336
                         Elapsed time (sec):    26363.749
  
                   Maximum memory used (kb):      658972.
                   Average memory used (kb):           0.
  
                          Minor page faults:     35032017
                          Major page faults:            2
                 Voluntary context switches:        19754
