neb_test                                
           1
    20.000000    0.000000    0.000000
     0.000000   20.000000    0.000000
     0.000000    0.000000   20.000000
   Ni   S 
  55   1
Direct configuration=     1
   0.35002574  0.59597103  0.41030545
   0.45138081  0.66317303  0.37751703
   0.41186667  0.66268890  0.49705794
   0.51284941  0.72343844  0.46448496
   0.51463494  0.60850491  0.46441100
   0.57701671  0.66504572  0.37788148
   0.61566590  0.66530439  0.49703870
   0.31662251  0.59267509  0.52787434
   0.35030373  0.48846625  0.58291593
   0.41501434  0.54244154  0.49652497
   0.41266452  0.59623696  0.60448429
   0.51363642  0.66347286  0.57124955
   0.51457948  0.54287363  0.57033414
   0.61526030  0.54456669  0.49697007
   0.61600608  0.59871128  0.60443846
   0.39268525  0.59379060  0.29559106
   0.35181730  0.48903740  0.34417849
   0.45386954  0.49090034  0.27016790
   0.45355134  0.54270109  0.37897675
   0.51517208  0.59798360  0.29096195
   0.51659563  0.43845351  0.35883981
   0.57915720  0.49227723  0.27061030
   0.57748937  0.54448649  0.37930748
   0.31250631  0.48787900  0.46413454
   0.35215620  0.38119313  0.51708809
   0.41634735  0.43669178  0.43226419
   0.45484484  0.43740212  0.54989529
   0.51587877  0.49071283  0.46457743
   0.51752820  0.37292019  0.46384397
   0.61685170  0.43950279  0.43172293
   0.57810753  0.43826322  0.54989100
   0.67956916  0.60001977  0.41104142
   0.71222475  0.59686471  0.52903757
   0.68036389  0.49233885  0.58384680
   0.63736452  0.59674844  0.29615788
   0.68092556  0.49315349  0.34458143
   0.71956487  0.49332807  0.46400564
   0.68175000  0.38567045  0.51756319
   0.45271028  0.49255213  0.66266963
   0.51474577  0.59620524  0.67244202
   0.57953162  0.49181521  0.65737091
   0.39262309  0.38337984  0.63193346
   0.45455741  0.31701656  0.54958805
   0.51879401  0.38136777  0.64101115
   0.58061695  0.31808770  0.55083924
   0.64071694  0.38727772  0.63195233
   0.41577186  0.38308452  0.32361522
   0.51740460  0.38733923  0.25564237
   0.61917054  0.38572422  0.32385082
   0.31953844  0.38469726  0.39827042
   0.41616993  0.31655489  0.43094235
   0.51814045  0.31796618  0.35649372
   0.61986766  0.31899374  0.43041079
   0.71529699  0.38922179  0.39984176
   0.51921092  0.25808329  0.46322144
   0.43315325  0.41144969  0.71794998
Direct configuration=     2
   0.35007262  0.59585950  0.41030164
   0.45137757  0.66311127  0.37752463
   0.41195653  0.66264245  0.49707631
   0.51287677  0.72334635  0.46448372
   0.51464600  0.60835327  0.46437388
   0.57701713  0.66499305  0.37792586
   0.61564446  0.66528428  0.49707027
   0.31670131  0.59262853  0.52784727
   0.35029852  0.48853521  0.58272497
   0.41517181  0.54237103  0.49648968
   0.41261334  0.59624844  0.60450041
   0.51363129  0.66345408  0.57115244
   0.51468391  0.54282306  0.57019832
   0.61511147  0.54446041  0.49691524
   0.61601956  0.59870367  0.60437692
   0.39274217  0.59376342  0.29566829
   0.35185398  0.48907991  0.34419590
   0.45381368  0.49084204  0.27025549
   0.45360919  0.54261801  0.37911449
   0.51517226  0.59801001  0.29100780
   0.51658597  0.43849289  0.35899133
   0.57917066  0.49225153  0.27064664
   0.57743311  0.54443500  0.37939728
   0.31251733  0.48787375  0.46414353
   0.35222495  0.38129057  0.51692344
   0.41649787  0.43676322  0.43234680
   0.45478095  0.43738105  0.54973717
   0.51593745  0.49076396  0.46451063
   0.51754403  0.37311023  0.46385029
   0.61670553  0.43958385  0.43174983
   0.57807003  0.43835712  0.54979533
   0.67952735  0.59999661  0.41105018
   0.71214173  0.59681203  0.52899982
   0.68033206  0.49236875  0.58381566
   0.63729247  0.59669040  0.29624317
   0.68089406  0.49315814  0.34463284
   0.71953124  0.49328956  0.46402766
   0.68170291  0.38569048  0.51749331
   0.45322497  0.49405010  0.66178265
   0.51478080  0.59616387  0.67230761
   0.57950165  0.49180686  0.65732239
   0.39181459  0.38271225  0.63022020
   0.45462229  0.31704377  0.54948223
   0.51822502  0.38171451  0.64146597
   0.58056962  0.31808397  0.55090092
   0.64058803  0.38736237  0.63185694
   0.41584260  0.38309095  0.32364437
   0.51744027  0.38739780  0.25574298
   0.61914610  0.38574034  0.32388327
   0.31960600  0.38473965  0.39825619
   0.41617358  0.31653139  0.43089747
   0.51806136  0.31804163  0.35653940
   0.61987401  0.31906807  0.43043313
   0.71521127  0.38927881  0.39987841
   0.51921003  0.25819452  0.46320752
   0.43297324  0.41110797  0.71978399
Direct configuration=     3
   0.35016521  0.59562369  0.41030039
   0.45135918  0.66297261  0.37757311
   0.41213889  0.66252966  0.49712814
   0.51293020  0.72311969  0.46447307
   0.51466975  0.60812653  0.46428013
   0.57701957  0.66488471  0.37802615
   0.61558704  0.66522019  0.49715819
   0.31689361  0.59252437  0.52778324
   0.35032556  0.48866375  0.58226251
   0.41546818  0.54228984  0.49644882
   0.41246599  0.59634972  0.60448119
   0.51363002  0.66342984  0.57091880
   0.51499474  0.54280411  0.56978205
   0.61490183  0.54427922  0.49681361
   0.61606945  0.59870756  0.60421974
   0.39288866  0.59368908  0.29585088
   0.35194316  0.48915860  0.34425877
   0.45370743  0.49073492  0.27044669
   0.45369614  0.54247497  0.37932389
   0.51516698  0.59804314  0.29111774
   0.51657345  0.43855471  0.35922032
   0.57918369  0.49219621  0.27074399
   0.57733688  0.54435638  0.37951709
   0.31254306  0.48786948  0.46412376
   0.35222689  0.38147029  0.51638420
   0.41673462  0.43688183  0.43246194
   0.45474109  0.43736599  0.54939196
   0.51601094  0.49081965  0.46446662
   0.51761491  0.37342150  0.46384814
   0.61647463  0.43972644  0.43175996
   0.57795647  0.43848194  0.54970169
   0.67943638  0.59994209  0.41107771
   0.71192994  0.59668304  0.52890433
   0.68024280  0.49243027  0.58375266
   0.63712401  0.59656448  0.29644397
   0.68082007  0.49316908  0.34474758
   0.71945268  0.49321269  0.46409708
   0.68156487  0.38573559  0.51736683
   0.45365224  0.49504735  0.66117309
   0.51496505  0.59631002  0.67203256
   0.57950599  0.49182065  0.65721948
   0.39124055  0.38207137  0.62899563
   0.45479713  0.31705696  0.54916402
   0.51680957  0.38257724  0.64262727
   0.58040718  0.31814169  0.55107342
   0.64024141  0.38754740  0.63164774
   0.41598312  0.38312002  0.32373248
   0.51752136  0.38753491  0.25598519
   0.61908525  0.38575979  0.32397014
   0.31977848  0.38485323  0.39820594
   0.41618093  0.31649373  0.43077389
   0.51788962  0.31819538  0.35664462
   0.61986276  0.31923058  0.43049922
   0.71499275  0.38941359  0.39995860
   0.51920132  0.25847195  0.46320180
   0.43294345  0.41075571  0.72057777
Direct configuration=     4
   0.35019837  0.59553023  0.41031022
   0.45134698  0.66291856  0.37760633
   0.41220235  0.66247757  0.49714889
   0.51295455  0.72302827  0.46445461
   0.51469155  0.60810593  0.46421500
   0.57702802  0.66485298  0.37806882
   0.61556419  0.66518569  0.49719454
   0.31697901  0.59249524  0.52773282
   0.35034779  0.48868327  0.58208379
   0.41554667  0.54230935  0.49647085
   0.41244072  0.59642208  0.60444163
   0.51363362  0.66342646  0.57082449
   0.51511614  0.54288740  0.56967719
   0.61492415  0.54424593  0.49676432
   0.61611247  0.59872961  0.60415029
   0.39295705  0.59365312  0.29592538
   0.35197680  0.48917619  0.34428596
   0.45367006  0.49070000  0.27053057
   0.45370943  0.54244292  0.37934409
   0.51515653  0.59804237  0.29117048
   0.51658189  0.43856981  0.35924695
   0.57918117  0.49217506  0.27079493
   0.57730805  0.54434211  0.37950761
   0.31255206  0.48787941  0.46407244
   0.35217296  0.38151688  0.51609519
   0.41677035  0.43690480  0.43243947
   0.45472061  0.43733395  0.54933256
   0.51602681  0.49080326  0.46446749
   0.51766334  0.37346671  0.46383518
   0.61644529  0.43976552  0.43172930
   0.57787694  0.43844975  0.54975742
   0.67940204  0.59991624  0.41109814
   0.71183937  0.59662470  0.52885112
   0.68019964  0.49244344  0.58373324
   0.63705299  0.59651520  0.29652247
   0.68079258  0.49317303  0.34479771
   0.71942188  0.49318415  0.46413713
   0.68147414  0.38575077  0.51734834
   0.45353384  0.49478194  0.66132879
   0.51509990  0.59646019  0.67186555
   0.57951953  0.49186917  0.65718424
   0.39125331  0.38205894  0.62920224
   0.45486705  0.31706449  0.54903138
   0.51624008  0.38300986  0.64313543
   0.58028060  0.31822664  0.55118065
   0.63999744  0.38762897  0.63158768
   0.41602411  0.38314108  0.32376823
   0.51755925  0.38758685  0.25608532
   0.61906075  0.38576139  0.32400590
   0.31985311  0.38490881  0.39814826
   0.41619222  0.31648754  0.43069923
   0.51782968  0.31825243  0.35668762
   0.61984250  0.31929510  0.43054254
   0.71489591  0.38947107  0.39998472
   0.51920912  0.25859986  0.46319936
   0.43277945  0.41093465  0.71975820
Direct configuration=     5
   0.35023185  0.59542600  0.41031869
   0.45132583  0.66286150  0.37764102
   0.41227087  0.66243039  0.49716879
   0.51298293  0.72294906  0.46442730
   0.51472777  0.60804859  0.46412516
   0.57704663  0.66482706  0.37811564
   0.61554085  0.66515458  0.49723159
   0.31706652  0.59247114  0.52767501
   0.35038841  0.48867558  0.58187853
   0.41566121  0.54231565  0.49649285
   0.41244044  0.59648111  0.60441582
   0.51363670  0.66344054  0.57072060
   0.51521363  0.54296683  0.56960180
   0.61492355  0.54417892  0.49668585
   0.61617999  0.59876700  0.60407690
   0.39302273  0.59362098  0.29599902
   0.35200356  0.48919826  0.34429984
   0.45362629  0.49065937  0.27062201
   0.45373895  0.54239166  0.37939165
   0.51514291  0.59804562  0.29122708
   0.51659406  0.43859748  0.35929963
   0.57918161  0.49215332  0.27084641
   0.57725853  0.54431473  0.37951081
   0.31255771  0.48789686  0.46400263
   0.35212397  0.38156871  0.51580640
   0.41683645  0.43694684  0.43242205
   0.45467020  0.43728452  0.54927481
   0.51605921  0.49079889  0.46447125
   0.51770965  0.37354700  0.46381261
   0.61639541  0.43982381  0.43170861
   0.57773703  0.43843079  0.54979861
   0.67936803  0.59989006  0.41111748
   0.71176717  0.59656907  0.52879428
   0.68013955  0.49245488  0.58371921
   0.63697882  0.59646665  0.29660096
   0.68077196  0.49317847  0.34485232
   0.71940334  0.49314425  0.46418010
   0.68135051  0.38576753  0.51734599
   0.45350123  0.49498848  0.66120269
   0.51522628  0.59659621  0.67165428
   0.57951969  0.49196379  0.65715254
   0.39098709  0.38190526  0.62892603
   0.45491318  0.31710895  0.54891774
   0.51570036  0.38349104  0.64365306
   0.58010761  0.31832460  0.55132639
   0.63968986  0.38771746  0.63156615
   0.41606752  0.38316130  0.32379205
   0.51760325  0.38763550  0.25618691
   0.61903552  0.38575463  0.32404161
   0.31991955  0.38496582  0.39804423
   0.41620420  0.31647790  0.43060570
   0.51776272  0.31831119  0.35672799
   0.61982363  0.31935973  0.43060049
   0.71479847  0.38952738  0.40001222
   0.51922248  0.25872693  0.46319622
   0.43269390  0.41086311  0.71954785
Direct configuration=     6
   0.35026719  0.59531516  0.41032767
   0.45129444  0.66280512  0.37768375
   0.41234312  0.66238823  0.49718584
   0.51301239  0.72287377  0.46438776
   0.51477981  0.60799422  0.46401601
   0.57707788  0.66480995  0.37816218
   0.61551584  0.66512276  0.49727286
   0.31716672  0.59244655  0.52761029
   0.35043965  0.48865007  0.58164223
   0.41579077  0.54232867  0.49652149
   0.41243355  0.59656911  0.60438564
   0.51364659  0.66348739  0.57059187
   0.51532705  0.54304920  0.56948530
   0.61493477  0.54409659  0.49660154
   0.61627866  0.59882688  0.60398587
   0.39308703  0.59358877  0.29607359
   0.35202306  0.48922316  0.34429764
   0.45358286  0.49061924  0.27071507
   0.45376538  0.54233521  0.37944088
   0.51512594  0.59804994  0.29128852
   0.51661428  0.43862490  0.35934846
   0.57918436  0.49213266  0.27089805
   0.57720306  0.54428531  0.37950270
   0.31256481  0.48792340  0.46390124
   0.35204399  0.38161412  0.51545758
   0.41689889  0.43699519  0.43239583
   0.45461626  0.43723465  0.54920936
   0.51608003  0.49079641  0.46450748
   0.51775736  0.37362719  0.46377029
   0.61635333  0.43988651  0.43168870
   0.57754115  0.43842915  0.54985195
   0.67933563  0.59986356  0.41113260
   0.71170787  0.59650988  0.52873010
   0.68005005  0.49246154  0.58371026
   0.63690546  0.59642323  0.29667673
   0.68075494  0.49318730  0.34491173
   0.71940028  0.49309231  0.46423242
   0.68117861  0.38579001  0.51737111
   0.45335312  0.49510328  0.66116190
   0.51537508  0.59679787  0.67143586
   0.57951996  0.49211744  0.65713312
   0.39067280  0.38179209  0.62875342
   0.45493336  0.31716586  0.54879415
   0.51513729  0.38403204  0.64421240
   0.57987685  0.31843524  0.55150877
   0.63932105  0.38781842  0.63159642
   0.41611212  0.38318305  0.32380149
   0.51765131  0.38767889  0.25628721
   0.61900909  0.38573423  0.32408377
   0.31997911  0.38502819  0.39788716
   0.41621611  0.31647091  0.43048951
   0.51769493  0.31836494  0.35676388
   0.61980162  0.31942123  0.43067865
   0.71469947  0.38957818  0.40004483
   0.51923739  0.25885556  0.46320193
   0.43277539  0.41068243  0.71919208
Direct configuration=     7
   0.35030096  0.59521242  0.41033431
   0.45125437  0.66275954  0.37772735
   0.41241576  0.66236219  0.49718645
   0.51304104  0.72283463  0.46432779
   0.51485273  0.60795325  0.46388788
   0.57712480  0.66481505  0.37819998
   0.61549813  0.66509507  0.49730728
   0.31726986  0.59242540  0.52754278
   0.35048918  0.48859693  0.58139648
   0.41591023  0.54235840  0.49655767
   0.41245090  0.59665967  0.60436429
   0.51366545  0.66356579  0.57044903
   0.51540724  0.54315852  0.56945765
   0.61497265  0.54401055  0.49651015
   0.61640003  0.59891636  0.60388426
   0.39313679  0.59356483  0.29613354
   0.35203423  0.48925099  0.34426474
   0.45354804  0.49058315  0.27079559
   0.45378463  0.54227537  0.37948708
   0.51510254  0.59805871  0.29135142
   0.51664293  0.43865316  0.35939800
   0.57919050  0.49211240  0.27094026
   0.57714329  0.54424972  0.37948501
   0.31257486  0.48795775  0.46376547
   0.35194983  0.38164153  0.51512197
   0.41694660  0.43704214  0.43235567
   0.45451658  0.43715576  0.54918955
   0.51610538  0.49078782  0.46451059
   0.51779608  0.37369813  0.46370755
   0.61631916  0.43995161  0.43167729
   0.57730521  0.43842603  0.54994012
   0.67930992  0.59983818  0.41114577
   0.71168331  0.59645168  0.52865802
   0.67992791  0.49245992  0.58371009
   0.63683907  0.59638746  0.29674209
   0.68074582  0.49319492  0.34497553
   0.71942498  0.49302879  0.46429000
   0.68094820  0.38581953  0.51744419
   0.45318344  0.49538595  0.66104516
   0.51550120  0.59700070  0.67118387
   0.57948666  0.49234650  0.65712939
   0.39023444  0.38167406  0.62843998
   0.45488315  0.31726040  0.54869379
   0.51470546  0.38455036  0.64468556
   0.57958813  0.31855610  0.55172882
   0.63888621  0.38793788  0.63169155
   0.41615935  0.38320738  0.32378159
   0.51770004  0.38770308  0.25636032
   0.61898321  0.38569886  0.32413006
   0.32002087  0.38509114  0.39765925
   0.41622691  0.31647566  0.43035631
   0.51763868  0.31840450  0.35678321
   0.61977456  0.31947465  0.43078182
   0.71460864  0.38961138  0.40008851
   0.51925133  0.25897664  0.46321599
   0.43296822  0.41031240  0.71905758
Direct configuration=     8
   0.35032334  0.59514292  0.41033250
   0.45121955  0.66273648  0.37775950
   0.41247256  0.66236057  0.49716848
   0.51306443  0.72283169  0.46425666
   0.51493301  0.60793040  0.46378724
   0.57717941  0.66483782  0.37821019
   0.61549811  0.66508468  0.49732613
   0.31736074  0.59241040  0.52748967
   0.35048604  0.48856062  0.58119361
   0.41603101  0.54238969  0.49658676
   0.41243494  0.59678028  0.60434703
   0.51369320  0.66367225  0.57030891
   0.51547267  0.54320655  0.56932077
   0.61499609  0.54393804  0.49645387
   0.61651482  0.59902417  0.60378815
   0.39316165  0.59355489  0.29616406
   0.35203044  0.48927466  0.34419804
   0.45353644  0.49056407  0.27084358
   0.45377595  0.54223886  0.37950635
   0.51508173  0.59807316  0.29140210
   0.51667153  0.43865219  0.35939185
   0.57920249  0.49209934  0.27096180
   0.57710778  0.54423292  0.37944364
   0.31258595  0.48798738  0.46361236
   0.35183477  0.38164035  0.51481580
   0.41694910  0.43707246  0.43231814
   0.45446480  0.43714085  0.54913467
   0.51608737  0.49079507  0.46462735
   0.51781729  0.37373747  0.46364821
   0.61631810  0.43999802  0.43167788
   0.57704567  0.43846472  0.55001511
   0.67930036  0.59982001  0.41114188
   0.71169839  0.59640311  0.52859484
   0.67980116  0.49245723  0.58372463
   0.63680230  0.59637265  0.29677405
   0.68074595  0.49320130  0.34502920
   0.71946808  0.49296521  0.46434493
   0.68070540  0.38584981  0.51754986
   0.45288546  0.49527689  0.66119272
   0.51559264  0.59724966  0.67105476
   0.57944253  0.49259084  0.65717154
   0.38997111  0.38171083  0.62852798
   0.45477315  0.31733154  0.54860001
   0.51441244  0.38493902  0.64502039
   0.57929434  0.31865308  0.55193333
   0.63849497  0.38805322  0.63185316
   0.41619765  0.38322992  0.32372919
   0.51773945  0.38770813  0.25639866
   0.61896336  0.38565695  0.32417860
   0.32003907  0.38514447  0.39741400
   0.41622684  0.31649182  0.43023174
   0.51760984  0.31841480  0.35678203
   0.61974629  0.31949954  0.43089206
   0.71454344  0.38961367  0.40014735
   0.51924868  0.25905929  0.46324557
   0.43323867  0.41005450  0.71849827
Direct configuration=     9
   0.35032838  0.59513040  0.41032947
   0.45121212  0.66273261  0.37776270
   0.41248729  0.66236663  0.49715656
   0.51307207  0.72283901  0.46422908
   0.51496145  0.60793800  0.46375465
   0.57719654  0.66484717  0.37820805
   0.61550470  0.66508469  0.49732119
   0.31738268  0.59240945  0.52747580
   0.35048209  0.48854807  0.58114128
   0.41603539  0.54241160  0.49659833
   0.41245126  0.59679410  0.60435189
   0.51370032  0.66369246  0.57027847
   0.51546061  0.54325960  0.56940177
   0.61501844  0.54392783  0.49643797
   0.61652938  0.59905433  0.60376406
   0.39316180  0.59355833  0.29616330
   0.35202635  0.48928273  0.34416578
   0.45353793  0.49056317  0.27084893
   0.45378004  0.54222115  0.37952104
   0.51507612  0.59808157  0.29141393
   0.51667818  0.43866659  0.35942211
   0.57920892  0.49209675  0.27096278
   0.57708574  0.54421505  0.37944998
   0.31259190  0.48799632  0.46356824
   0.35181302  0.38164058  0.51476432
   0.41695333  0.43708236  0.43230460
   0.45440154  0.43710985  0.54915798
   0.51610186  0.49078389  0.46454768
   0.51781620  0.37375101  0.46362972
   0.61630409  0.44001747  0.43168609
   0.57699481  0.43845925  0.55005980
   0.67929835  0.59981238  0.41114232
   0.71171032  0.59638850  0.52857422
   0.67975918  0.49245845  0.58373185
   0.63680008  0.59637284  0.29677191
   0.68074903  0.49319903  0.34504629
   0.71948464  0.49294667  0.46435932
   0.68062695  0.38586113  0.51759203
   0.45288390  0.49550585  0.66107637
   0.51558815  0.59727316  0.67098537
   0.57940750  0.49267390  0.65718358
   0.38980197  0.38166828  0.62830895
   0.45471491  0.31736571  0.54858692
   0.51442136  0.38500277  0.64503433
   0.57920474  0.31868503  0.55199377
   0.63837574  0.38809614  0.63190686
   0.41620927  0.38323652  0.32370465
   0.51775123  0.38770197  0.25639351
   0.61896198  0.38564268  0.32419350
   0.32003510  0.38515481  0.39733119
   0.41622440  0.31649904  0.43019655
   0.51760802  0.31841014  0.35677681
   0.61973860  0.31949992  0.43092616
   0.71453472  0.38960311  0.40016982
   0.51924196  0.25907256  0.46325436
   0.43329580  0.40988588  0.71869953
Direct configuration=    10
   0.35033206  0.59512012  0.41032461
   0.45120560  0.66272919  0.37776567
   0.41249957  0.66237317  0.49714566
   0.51307879  0.72284655  0.46420429
   0.51498554  0.60793706  0.46373184
   0.57721253  0.66485494  0.37820208
   0.61551165  0.66508565  0.49731755
   0.31739919  0.59241080  0.52746490
   0.35046911  0.48854342  0.58109393
   0.41606282  0.54242407  0.49660465
   0.41244500  0.59682596  0.60434943
   0.51370738  0.66371948  0.57024457
   0.51546610  0.54327501  0.56937841
   0.61502204  0.54391304  0.49642982
   0.61654773  0.59908455  0.60373989
   0.39316446  0.59355950  0.29616537
   0.35202461  0.48929029  0.34413702
   0.45354287  0.49056308  0.27085382
   0.45377041  0.54221562  0.37952134
   0.51507237  0.59808738  0.29142522
   0.51668300  0.43866068  0.35941277
   0.57921393  0.49209342  0.27096542
   0.57708166  0.54421430  0.37943439
   0.31259588  0.48800358  0.46352488
   0.35177830  0.38163762  0.51469476
   0.41694520  0.43708809  0.43229120
   0.45437801  0.43711148  0.54914601
   0.51609525  0.49078940  0.46457433
   0.51781596  0.37375660  0.46361601
   0.61630834  0.44002542  0.43169139
   0.57692902  0.43847642  0.55008194
   0.67929658  0.59980463  0.41113890
   0.71172380  0.59637704  0.52855871
   0.67972383  0.49246068  0.58374098
   0.63679480  0.59636944  0.29677575
   0.68075004  0.49319685  0.34506118
   0.71949823  0.49292843  0.46437485
   0.68055682  0.38587079  0.51763042
   0.45281908  0.49550204  0.66109969
   0.51559457  0.59733408  0.67096234
   0.57938605  0.49274351  0.65720268
   0.38973090  0.38168382  0.62831009
   0.45466614  0.31738418  0.54856168
   0.51437585  0.38507339  0.64508337
   0.57912242  0.31870924  0.55204947
   0.63827811  0.38813149  0.63196567
   0.41622266  0.38324469  0.32368286
   0.51776216  0.38769946  0.25639437
   0.61895886  0.38563092  0.32420921
   0.32003527  0.38516698  0.39726029
   0.41622060  0.31650659  0.43016273
   0.51760680  0.31840807  0.35677165
   0.61972921  0.31950290  0.43095856
   0.71452181  0.38959447  0.40019454
   0.51923249  0.25908925  0.46326545
   0.43337243  0.40980756  0.71859623
Direct configuration=    11
   0.35033696  0.59510821  0.41031908
   0.45119993  0.66272684  0.37776861
   0.41251602  0.66238174  0.49713007
   0.51308838  0.72285725  0.46417120
   0.51501693  0.60794077  0.46370083
   0.57723309  0.66486656  0.37819388
   0.61552259  0.66508938  0.49730981
   0.31742116  0.59241260  0.52744934
   0.35044992  0.48853833  0.58103646
   0.41608675  0.54244498  0.49661393
   0.41243945  0.59686268  0.60434716
   0.51371591  0.66375170  0.57020297
   0.51546615  0.54330686  0.56937688
   0.61503330  0.54389847  0.49641959
   0.61656537  0.59912287  0.60370962
   0.39316727  0.59356240  0.29616545
   0.35202098  0.48929858  0.34409748
   0.45355064  0.49056418  0.27085659
   0.45376253  0.54220519  0.37952642
   0.51506898  0.59809594  0.29143842
   0.51668971  0.43866016  0.35941597
   0.57922220  0.49208911  0.27096721
   0.57706952  0.54420610  0.37942433
   0.31260162  0.48801361  0.46347051
   0.35173613  0.38163499  0.51461321
   0.41693980  0.43709750  0.43227395
   0.45433615  0.43710776  0.54913839
   0.51609152  0.49078894  0.46457176
   0.51781454  0.37376664  0.46359815
   0.61630561  0.44003935  0.43170008
   0.57685283  0.43849285  0.55011639
   0.67929587  0.59979465  0.41113530
   0.71173778  0.59636063  0.52853785
   0.67967698  0.49246510  0.58375291
   0.63679248  0.59636693  0.29677558
   0.68075352  0.49319224  0.34508006
   0.71951489  0.49290593  0.46439431
   0.68046603  0.38588336  0.51768171
   0.45275261  0.49554136  0.66110030
   0.51559585  0.59740141  0.67092416
   0.57935326  0.49283304  0.65722643
   0.38962619  0.38169545  0.62826783
   0.45459774  0.31740790  0.54853233
   0.51433659  0.38515100  0.64512429
   0.57901643  0.31874160  0.55212030
   0.63815237  0.38818076  0.63203760
   0.41623791  0.38325409  0.32365308
   0.51777703  0.38769470  0.25639081
   0.61895691  0.38561558  0.32422988
   0.32003315  0.38518102  0.39716824
   0.41621403  0.31651601  0.43011938
   0.51760622  0.31840299  0.35676529
   0.61971615  0.31950504  0.43100060
   0.71450838  0.38958081  0.40022779
   0.51921781  0.25910879  0.46327977
   0.43345504  0.40970005  0.71853199
Direct configuration=    12
   0.35034171  0.59509899  0.41030839
   0.45119435  0.66272658  0.37776879
   0.41253632  0.66239532  0.49710820
   0.51310114  0.72287452  0.46413044
   0.51505465  0.60794540  0.46366535
   0.57725737  0.66488018  0.37818169
   0.61553731  0.66509540  0.49729714
   0.31744531  0.59241823  0.52742995
   0.35042447  0.48853482  0.58096929
   0.41611602  0.54247119  0.49662401
   0.41243007  0.59690869  0.60434422
   0.51372577  0.66379084  0.57015180
   0.51546439  0.54334191  0.56936787
   0.61504130  0.54388252  0.49640850
   0.61658277  0.59917022  0.60367546
   0.39317186  0.59356749  0.29616419
   0.35202020  0.48931002  0.34404788
   0.45356299  0.49056809  0.27085507
   0.45375193  0.54219541  0.37953011
   0.51506535  0.59810698  0.29145296
   0.51669794  0.43865638  0.35941219
   0.57923155  0.49208368  0.27097007
   0.57705811  0.54419868  0.37940943
   0.31261037  0.48802568  0.46340456
   0.35168413  0.38163264  0.51451798
   0.41692850  0.43710810  0.43225267
   0.45428727  0.43710703  0.54912505
   0.51608648  0.49079503  0.46457854
   0.51781057  0.37377749  0.46358312
   0.61630320  0.44005623  0.43171248
   0.57676036  0.43851783  0.55015613
   0.67929486  0.59978226  0.41113049
   0.71175403  0.59634133  0.52851442
   0.67962087  0.49247294  0.58377076
   0.63678941  0.59636119  0.29677787
   0.68075467  0.49318558  0.34510510
   0.71953147  0.49287922  0.46441935
   0.68035582  0.38589739  0.51774681
   0.45267546  0.49557802  0.66110405
   0.51559236  0.59748321  0.67088258
   0.57931167  0.49293830  0.65725578
   0.38950799  0.38171441  0.62822729
   0.45451289  0.31743548  0.54849370
   0.51429301  0.38523404  0.64515963
   0.57888922  0.31877788  0.55220476
   0.63800772  0.38824219  0.63212548
   0.41625809  0.38326572  0.32361461
   0.51779660  0.38768693  0.25638045
   0.61895364  0.38559671  0.32425647
   0.32002600  0.38519578  0.39705680
   0.41620658  0.31652865  0.43006660
   0.51760707  0.31839443  0.35675697
   0.61969846  0.31950242  0.43105276
   0.71448851  0.38956402  0.40027397
   0.51919700  0.25912440  0.46329827
   0.43354988  0.40957895  0.71845312
Direct configuration=    13
   0.35034658  0.59509106  0.41029449
   0.45119125  0.66272794  0.37776608
   0.41255949  0.66241210  0.49708054
   0.51311768  0.72289861  0.46408136
   0.51509721  0.60795849  0.46362354
   0.57728471  0.66489617  0.37816439
   0.61555524  0.66510521  0.49727828
   0.31746726  0.59242882  0.52740770
   0.35039147  0.48853498  0.58089567
   0.41614356  0.54250478  0.49663396
   0.41241676  0.59696141  0.60433985
   0.51373600  0.66383667  0.57009455
   0.51545652  0.54338564  0.56936453
   0.61505167  0.54386819  0.49639848
   0.61659413  0.59922432  0.60363755
   0.39317645  0.59357627  0.29615689
   0.35201970  0.48932228  0.34398764
   0.45358187  0.49057504  0.27085087
   0.45373919  0.54218449  0.37953262
   0.51506353  0.59812047  0.29146669
   0.51670512  0.43865095  0.35941172
   0.57924510  0.49207680  0.27097124
   0.57704451  0.54418874  0.37939291
   0.31261994  0.48804105  0.46332945
   0.35162241  0.38163120  0.51441224
   0.41691595  0.43711977  0.43222601
   0.45422617  0.43710922  0.54910724
   0.51607646  0.49079629  0.46457424
   0.51780519  0.37378977  0.46356683
   0.61629613  0.44007222  0.43172926
   0.57666040  0.43854740  0.55020291
   0.67929429  0.59976600  0.41112406
   0.71176952  0.59631836  0.52848849
   0.67955497  0.49248423  0.58379376
   0.63679140  0.59635450  0.29677541
   0.68075802  0.49317400  0.34513330
   0.71954771  0.49284776  0.46444982
   0.68022885  0.38591237  0.51782480
   0.45259159  0.49561453  0.66110744
   0.51558064  0.59757767  0.67084198
   0.57926000  0.49305668  0.65729019
   0.38937956  0.38174278  0.62818281
   0.45440894  0.31746562  0.54844660
   0.51424790  0.38531451  0.64518481
   0.57874461  0.31881988  0.55230126
   0.63785016  0.38831345  0.63222851
   0.41628077  0.38327919  0.32356838
   0.51782127  0.38767947  0.25637035
   0.61895131  0.38557501  0.32428983
   0.32001955  0.38521325  0.39692988
   0.41619523  0.31654494  0.43000319
   0.51760914  0.31838554  0.35674934
   0.61967506  0.31949836  0.43111461
   0.71446404  0.38954154  0.40033314
   0.51916795  0.25914159  0.46331952
   0.43366570  0.40944098  0.71837019
Direct configuration=    14
   0.35035125  0.59508160  0.41028027
   0.45119128  0.66272556  0.37776066
   0.41258172  0.66242832  0.49704841
   0.51313722  0.72291538  0.46402378
   0.51514144  0.60796471  0.46357696
   0.57731833  0.66491143  0.37813935
   0.61558237  0.66511933  0.49725264
   0.31749315  0.59243983  0.52738113
   0.35034848  0.48854068  0.58082144
   0.41617554  0.54254251  0.49663842
   0.41239657  0.59701683  0.60433360
   0.51374575  0.66388547  0.57003340
   0.51543892  0.54343314  0.56935111
   0.61505287  0.54385359  0.49638896
   0.61659864  0.59928344  0.60359409
   0.39318555  0.59358500  0.29615016
   0.35201921  0.48933517  0.34391920
   0.45360958  0.49058454  0.27084467
   0.45372163  0.54217453  0.37953492
   0.51506749  0.59813162  0.29148166
   0.51670737  0.43864281  0.35940812
   0.57926442  0.49206856  0.27097103
   0.57702949  0.54417845  0.37937222
   0.31262775  0.48806084  0.46324982
   0.35155014  0.38163186  0.51429968
   0.41690163  0.43713505  0.43219268
   0.45415313  0.43712176  0.54908031
   0.51605709  0.49080962  0.46458094
   0.51779577  0.37380062  0.46354803
   0.61628660  0.44008521  0.43174886
   0.57655290  0.43858889  0.55024957
   0.67929719  0.59974643  0.41111628
   0.71179065  0.59629871  0.52846408
   0.67948304  0.49250302  0.58382179
   0.63679720  0.59634423  0.29677069
   0.68076458  0.49315655  0.34516448
   0.71956365  0.49281464  0.46448594
   0.68008794  0.38593127  0.51791299
   0.45250149  0.49564651  0.66111341
   0.51555711  0.59767860  0.67079511
   0.57919759  0.49318448  0.65733109
   0.38925019  0.38178516  0.62813464
   0.45428189  0.31749351  0.54839346
   0.51419929  0.38538791  0.64519716
   0.57858321  0.31886630  0.55240863
   0.63767962  0.38839765  0.63233828