  56  56   0   0
  0.1428571E+03  0.2000000E-08  0.2000000E-08  0.2000000E-08  0.5000000E-15
  1.000000000000000E-004
  CAR 
 single                                  
      2.85468114    -17.56869829  301     -3.81003039      1.00000000
    -17.569  0.0000E+00  0.0000E+00  0.0000E+00  0.0000E+00
    -17.501  0.0000E+00  0.0000E+00  0.0000E+00  0.0000E+00
    -17.433  0.0000E+00  0.0000E+00  0.0000E+00  0.0000E+00
    -17.364  0.0000E+00  0.0000E+00  0.0000E+00  0.0000E+00
    -17.296  0.0000E+00  0.0000E+00  0.0000E+00  0.0000E+00
    -17.228  0.0000E+00  0.0000E+00  0.0000E+00  0.0000E+00
    -17.160  0.8154E-15  0.0000E+00  0.5551E-16  0.0000E+00
    -17.092  0.9785E-12  0.0000E+00  0.6667E-13  0.0000E+00
    -17.024  0.8765E-09  0.0000E+00  0.5974E-10  0.0000E+00
    -16.956  0.3164E-06  0.3017E-12  0.2160E-07  0.2054E-13
    -16.888  0.4630E-04  0.3125E-09  0.3174E-05  0.2130E-10
    -16.820  0.2765E-02  0.1305E-06  0.1914E-03  0.8907E-08
    -16.752  0.6790E-01  0.2208E-04  0.4814E-02  0.1512E-05
    -16.684  0.6925E+00  0.1521E-02  0.5196E-01  0.1051E-03
    -16.616  0.2961E+01  0.4308E-01  0.2535E+00  0.3038E-02
    -16.548  0.5349E+01  0.5057E+00  0.6177E+00  0.3746E-01
    -16.479  0.4096E+01  0.2485E+01  0.8966E+00  0.2066E+00
    -16.411  0.1328E+01  0.5154E+01  0.9870E+00  0.5575E+00
    -16.343  0.1811E+00  0.4531E+01  0.9993E+00  0.8659E+00
    -16.275  0.1029E-01  0.1687E+01  0.1000E+01  0.9808E+00
    -16.207  0.2414E-03  0.2645E+00  0.1000E+01  0.9988E+00
    -16.139  0.2317E-05  0.1731E-01  0.1000E+01  0.1000E+01
    -16.071  0.9037E-08  0.4686E-03  0.1000E+01  0.1000E+01
    -16.003  0.1424E-10  0.5195E-05  0.1000E+01  0.1000E+01
    -15.935  0.9785E-14  0.2343E-07  0.1000E+01  0.1000E+01
    -15.867  0.0000E+00  0.4271E-10  0.1000E+01  0.1000E+01
    -15.799  0.0000E+00  0.3099E-13  0.1000E+01  0.1000E+01
    -15.731  0.0000E+00  0.0000E+00  0.1000E+01  0.1000E+01
    -15.663  0.0000E+00  0.0000E+00  0.1000E+01  0.1000E+01
    -15.594  0.0000E+00  0.0000E+00  0.1000E+01  0.1000E+01
    -15.526  0.0000E+00  0.0000E+00  0.1000E+01  0.1000E+01
    -15.458  0.0000E+00  0.0000E+00  0.1000E+01  0.1000E+01
    -15.390  0.0000E+00  0.0000E+00  0.1000E+01  0.1000E+01
    -15.322  0.0000E+00  0.0000E+00  0.1000E+01  0.1000E+01
    -15.254  0.0000E+00  0.0000E+00  0.1000E+01  0.1000E+01
    -15.186  0.0000E+00  0.0000E+00  0.1000E+01  0.1000E+01
    -15.118  0.0000E+00  0.0000E+00  0.1000E+01  0.1000E+01
    -15.050  0.0000E+00  0.0000E+00  0.1000E+01  0.1000E+01
    -14.982  0.0000E+00  0.0000E+00  0.1000E+01  0.1000E+01
    -14.914  0.0000E+00  0.0000E+00  0.1000E+01  0.1000E+01
    -14.846  0.0000E+00  0.0000E+00  0.1000E+01  0.1000E+01
    -14.778  0.0000E+00  0.0000E+00  0.1000E+01  0.1000E+01
    -14.709  0.0000E+00  0.0000E+00  0.1000E+01  0.1000E+01
    -14.641  0.0000E+00  0.0000E+00  0.1000E+01  0.1000E+01
    -14.573  0.0000E+00  0.0000E+00  0.1000E+01  0.1000E+01
    -14.505  0.0000E+00  0.0000E+00  0.1000E+01  0.1000E+01
    -14.437  0.0000E+00  0.0000E+00  0.1000E+01  0.1000E+01
    -14.369  0.0000E+00  0.0000E+00  0.1000E+01  0.1000E+01
    -14.301  0.0000E+00  0.0000E+00  0.1000E+01  0.1000E+01
    -14.233  0.0000E+00  0.0000E+00  0.1000E+01  0.1000E+01
    -14.165  0.0000E+00  0.0000E+00  0.1000E+01  0.1000E+01
    -14.097  0.0000E+00  0.0000E+00  0.1000E+01  0.1000E+01
    -14.029  0.0000E+00  0.0000E+00  0.1000E+01  0.1000E+01
    -13.961  0.0000E+00  0.0000E+00  0.1000E+01  0.1000E+01
    -13.892  0.0000E+00  0.0000E+00  0.1000E+01  0.1000E+01
    -13.824  0.0000E+00  0.0000E+00  0.1000E+01  0.1000E+01
    -13.756  0.0000E+00  0.0000E+00  0.1000E+01  0.1000E+01
    -13.688  0.0000E+00  0.0000E+00  0.1000E+01  0.1000E+01
    -13.620  0.0000E+00  0.0000E+00  0.1000E+01  0.1000E+01
    -13.552  0.0000E+00  0.0000E+00  0.1000E+01  0.1000E+01
    -13.484  0.0000E+00  0.0000E+00  0.1000E+01  0.1000E+01
    -13.416  0.0000E+00  0.0000E+00  0.1000E+01  0.1000E+01
    -13.348  0.0000E+00  0.0000E+00  0.1000E+01  0.1000E+01
    -13.280  0.0000E+00  0.0000E+00  0.1000E+01  0.1000E+01
    -13.212  0.0000E+00  0.0000E+00  0.1000E+01  0.1000E+01
    -13.144  0.0000E+00  0.0000E+00  0.1000E+01  0.1000E+01
    -13.076  0.0000E+00  0.0000E+00  0.1000E+01  0.1000E+01
    -13.007  0.0000E+00  0.0000E+00  0.1000E+01  0.1000E+01
    -12.939  0.0000E+00  0.0000E+00  0.1000E+01  0.1000E+01
    -12.871  0.0000E+00  0.0000E+00  0.1000E+01  0.1000E+01
    -12.803  0.0000E+00  0.0000E+00  0.1000E+01  0.1000E+01
    -12.735  0.0000E+00  0.0000E+00  0.1000E+01  0.1000E+01
    -12.667  0.4077E-14  0.1631E-14  0.1000E+01  0.1000E+01
    -12.599  0.6915E-11  0.3484E-11  0.1000E+01  0.1000E+01
    -12.531  0.4824E-08  0.2655E-08  0.1000E+01  0.1000E+01
    -12.463  0.1359E-05  0.8165E-06  0.1000E+01  0.1000E+01
    -12.395  0.1554E-03  0.1019E-03  0.1000E+01  0.1000E+01
    -12.327  0.7263E-02  0.5196E-02  0.1001E+01  0.1000E+01
    -12.259  0.1400E+00  0.1092E+00  0.1010E+01  0.1008E+01
    -12.191  0.1124E+01  0.9538E+00  0.1087E+01  0.1073E+01
    -12.122  0.3793E+01  0.3500E+01  0.1345E+01  0.1311E+01
    -12.054  0.5414E+01  0.5431E+01  0.1713E+01  0.1681E+01
    -11.986  0.3277E+01  0.3573E+01  0.1937E+01  0.1924E+01
    -11.918  0.8384E+00  0.9943E+00  0.1994E+01  0.1992E+01
    -11.850  0.9000E-01  0.1162E+00  0.2000E+01  0.2000E+01
    -11.782  0.4017E-02  0.5651E-02  0.2000E+01  0.2000E+01
    -11.714  0.7380E-04  0.1132E-03  0.2000E+01  0.2000E+01
    -11.646  0.5538E-06  0.9273E-06  0.2000E+01  0.2000E+01
    -11.578  0.1685E-08  0.3081E-08  0.2000E+01  0.2000E+01
    -11.510  0.2071E-11  0.4132E-11  0.2000E+01  0.2000E+01
    -11.442  0.0000E+00  0.3262E-14  0.2000E+01  0.2000E+01
    -11.374  0.0000E+00  0.0000E+00  0.2000E+01  0.2000E+01
    -11.306  0.1631E-14  0.1631E-14  0.2000E+01  0.2000E+01
    -11.237  0.4721E-11  0.4383E-11  0.2000E+01  0.2000E+01
    -11.169  0.3698E-08  0.3440E-08  0.2000E+01  0.2000E+01
    -11.101  0.1178E-05  0.1098E-05  0.2000E+01  0.2000E+01
    -11.033  0.1535E-03  0.1437E-03  0.2000E+01  0.2000E+01
    -10.965  0.8279E-02  0.7780E-02  0.2001E+01  0.2001E+01
    -10.897  0.1873E+00  0.1768E+00  0.2013E+01  0.2013E+01
    -10.829  0.1812E+01  0.1721E+01  0.2137E+01  0.2130E+01
    -10.761  0.7687E+01  0.7372E+01  0.2660E+01  0.2632E+01
    -10.693  0.1471E+02  0.1438E+02  0.3662E+01  0.3610E+01
    -10.625  0.1305E+02  0.1321E+02  0.4550E+01  0.4510E+01
    -10.557  0.5447E+01  0.5842E+01  0.4921E+01  0.4907E+01
    -10.489  0.1063E+01  0.1233E+01  0.4993E+01  0.4991E+01
    -10.421  0.9467E-01  0.1203E+00  0.5000E+01  0.5000E+01
    -10.352  0.3715E-02  0.5194E-02  0.5000E+01  0.5000E+01
    -10.284  0.6225E-04  0.9583E-04  0.5000E+01  0.5000E+01
    -10.216  0.4351E-06  0.7366E-06  0.5000E+01  0.5000E+01
    -10.148  0.1248E-08  0.2321E-08  0.5000E+01  0.5000E+01
    -10.080  0.1454E-11  0.2966E-11  0.5000E+01  0.5000E+01
    -10.012  0.1791E-11  0.2446E-14  0.5000E+01  0.5000E+01
     -9.944  0.1543E-08  0.1411E-11  0.5000E+01  0.5000E+01
     -9.876  0.5461E-06  0.1248E-08  0.5000E+01  0.5000E+01
     -9.808  0.8039E-04  0.4528E-06  0.5000E+01  0.5000E+01
     -9.740  0.5011E-02  0.6824E-04  0.5000E+01  0.5000E+01
     -9.672  0.1350E+00  0.4349E-02  0.5010E+01  0.5000E+01
     -9.604  0.1609E+01  0.1197E+00  0.5119E+01  0.5008E+01
     -9.536  0.8666E+01  0.1456E+01  0.5709E+01  0.5108E+01
     -9.467  0.2166E+02  0.8020E+01  0.7183E+01  0.5654E+01
     -9.399  0.2641E+02  0.2044E+02  0.8981E+01  0.7045E+01
     -9.331  0.1797E+02  0.2469E+02  0.1020E+02  0.8726E+01
     -9.263  0.8447E+01  0.1505E+02  0.1078E+02  0.9750E+01
     -9.195  0.2731E+01  0.7212E+01  0.1097E+02  0.1024E+02
     -9.127  0.4743E+00  0.5942E+01  0.1100E+02  0.1065E+02
     -9.059  0.3732E-01  0.3885E+01  0.1100E+02  0.1091E+02
     -8.991  0.2078E-02  0.1162E+01  0.1100E+02  0.1099E+02
     -8.923  0.3079E-01  0.1471E+00  0.1100E+02  0.1100E+02
     -8.855  0.4922E+00  0.7764E-02  0.1104E+02  0.1100E+02
     -8.787  0.3486E+01  0.3109E-03  0.1127E+02  0.1100E+02
     -8.719  0.1122E+02  0.7176E-02  0.1204E+02  0.1100E+02
     -8.650  0.1783E+02  0.1557E+00  0.1325E+02  0.1101E+02
     -8.582  0.2061E+02  0.1503E+01  0.1465E+02  0.1111E+02
     -8.514  0.2880E+02  0.6682E+01  0.1661E+02  0.1157E+02
     -8.446  0.3245E+02  0.1405E+02  0.1882E+02  0.1252E+02
     -8.378  0.2474E+02  0.1421E+02  0.2051E+02  0.1349E+02
     -8.310  0.2516E+02  0.8250E+01  0.2222E+02  0.1405E+02
     -8.242  0.3316E+02  0.6441E+01  0.2448E+02  0.1449E+02
     -8.174  0.2703E+02  0.9710E+01  0.2632E+02  0.1515E+02
     -8.106  0.1589E+02  0.2378E+02  0.2740E+02  0.1677E+02
     -8.038  0.2253E+02  0.4669E+02  0.2893E+02  0.1995E+02
     -7.970  0.4194E+02  0.4975E+02  0.3179E+02  0.2334E+02
     -7.902  0.4545E+02  0.3286E+02  0.3488E+02  0.2557E+02
     -7.834  0.2768E+02  0.1584E+02  0.3677E+02  0.2665E+02
     -7.765  0.1791E+02  0.5866E+01  0.3799E+02  0.2705E+02
     -7.697  0.2494E+02  0.5044E+01  0.3969E+02  0.2740E+02
     -7.629  0.3799E+02  0.8513E+01  0.4227E+02  0.2798E+02
     -7.561  0.4625E+02  0.1499E+02  0.4542E+02  0.2900E+02
     -7.493  0.4564E+02  0.2490E+02  0.4853E+02  0.3069E+02
     -7.425  0.4554E+02  0.3295E+02  0.5163E+02  0.3293E+02
     -7.357  0.4682E+02  0.3739E+02  0.5482E+02  0.3548E+02
     -7.289  0.4034E+02  0.3330E+02  0.5756E+02  0.3775E+02
     -7.221  0.3239E+02  0.2446E+02  0.5977E+02  0.3941E+02
     -7.153  0.3096E+02  0.2211E+02  0.6188E+02  0.4092E+02
     -7.085  0.3099E+02  0.3096E+02  0.6398E+02  0.4302E+02
     -7.017  0.2827E+02  0.4187E+02  0.6591E+02  0.4588E+02
     -6.949  0.3116E+02  0.4747E+02  0.6803E+02  0.4911E+02
     -6.880  0.3894E+02  0.4672E+02  0.7068E+02  0.5229E+02
     -6.812  0.4183E+02  0.4495E+02  0.7353E+02  0.5535E+02
     -6.744  0.4158E+02  0.3838E+02  0.7636E+02  0.5796E+02
     -6.676  0.4236E+02  0.2960E+02  0.7924E+02  0.5998E+02
     -6.608  0.5550E+02  0.2551E+02  0.8302E+02  0.6171E+02
     -6.540  0.8510E+02  0.2811E+02  0.8881E+02  0.6363E+02
     -6.472  0.9613E+02  0.2616E+02  0.9536E+02  0.6541E+02
     -6.404  0.8244E+02  0.1702E+02  0.1010E+03  0.6657E+02
     -6.336  0.7016E+02  0.1477E+02  0.1057E+03  0.6757E+02
     -6.268  0.6922E+02  0.3032E+02  0.1105E+03  0.6964E+02
     -6.200  0.7265E+02  0.4853E+02  0.1154E+03  0.7294E+02
     -6.132  0.7090E+02  0.5024E+02  0.1202E+03  0.7636E+02
     -6.064  0.6617E+02  0.4466E+02  0.1247E+03  0.7940E+02
     -5.995  0.5390E+02  0.4563E+02  0.1284E+03  0.8251E+02
     -5.927  0.4140E+02  0.6437E+02  0.1312E+03  0.8689E+02
     -5.859  0.5091E+02  0.7767E+02  0.1347E+03  0.9218E+02
     -5.791  0.8108E+02  0.6041E+02  0.1402E+03  0.9629E+02
     -5.723  0.9872E+02  0.4598E+02  0.1469E+03  0.9942E+02
     -5.655  0.9717E+02  0.5624E+02  0.1535E+03  0.1032E+03
     -5.587  0.9817E+02  0.6706E+02  0.1602E+03  0.1078E+03
     -5.519  0.9432E+02  0.7311E+02  0.1667E+03  0.1128E+03
     -5.451  0.7292E+02  0.8855E+02  0.1716E+03  0.1188E+03
     -5.383  0.5559E+02  0.8984E+02  0.1754E+03  0.1249E+03
     -5.315  0.5693E+02  0.6180E+02  0.1793E+03  0.1291E+03
     -5.247  0.7257E+02  0.4245E+02  0.1842E+03  0.1320E+03
     -5.179  0.8351E+02  0.5080E+02  0.1899E+03  0.1355E+03
     -5.110  0.8169E+02  0.7093E+02  0.1955E+03  0.1403E+03
     -5.042  0.8755E+02  0.7501E+02  0.2014E+03  0.1454E+03
     -4.974  0.1031E+03  0.6783E+02  0.2084E+03  0.1500E+03
     -4.906  0.1125E+03  0.8082E+02  0.2161E+03  0.1555E+03
     -4.838  0.1149E+03  0.1074E+03  0.2239E+03  0.1629E+03
     -4.770  0.1250E+03  0.1064E+03  0.2324E+03  0.1701E+03
     -4.702  0.1401E+03  0.8384E+02  0.2420E+03  0.1758E+03
     -4.634  0.1662E+03  0.7327E+02  0.2533E+03  0.1808E+03
     -4.566  0.1819E+03  0.7312E+02  0.2657E+03  0.1858E+03
     -4.498  0.1531E+03  0.6448E+02  0.2761E+03  0.1902E+03
     -4.430  0.1074E+03  0.5418E+02  0.2834E+03  0.1938E+03
     -4.362  0.7009E+02  0.6603E+02  0.2882E+03  0.1983E+03
     -4.294  0.4381E+02  0.9629E+02  0.2912E+03  0.2049E+03
     -4.225  0.2347E+02  0.1135E+03  0.2928E+03  0.2126E+03
     -4.157  0.1237E+02  0.1054E+03  0.2936E+03  0.2198E+03
     -4.089  0.9710E+01  0.9582E+02  0.2943E+03  0.2263E+03
     -4.021  0.8958E+01  0.1098E+03  0.2949E+03  0.2338E+03
     -3.953  0.1087E+02  0.1221E+03  0.2956E+03  0.2421E+03
     -3.885  0.1615E+02  0.1130E+03  0.2967E+03  0.2498E+03
     -3.817  0.1688E+02  0.1092E+03  0.2979E+03  0.2572E+03
     -3.749  0.1201E+02  0.1236E+03  0.2987E+03  0.2657E+03
     -3.681  0.9522E+01  0.1329E+03  0.2993E+03  0.2747E+03
     -3.613  0.1277E+02  0.1050E+03  0.3002E+03  0.2819E+03
     -3.545  0.1544E+02  0.7057E+02  0.3012E+03  0.2867E+03
     -3.477  0.1407E+02  0.5720E+02  0.3022E+03  0.2905E+03
     -3.408  0.8571E+01  0.4638E+02  0.3028E+03  0.2937E+03
     -3.340  0.2774E+01  0.3254E+02  0.3030E+03  0.2959E+03
     -3.272  0.1105E+01  0.2379E+02  0.3031E+03  0.2975E+03
     -3.204  0.3182E+01  0.1875E+02  0.3033E+03  0.2988E+03
     -3.136  0.6670E+01  0.1767E+02  0.3037E+03  0.3000E+03
     -3.068  0.9076E+01  0.1782E+02  0.3043E+03  0.3012E+03
     -3.000  0.1121E+02  0.1503E+02  0.3051E+03  0.3023E+03
     -2.932  0.1214E+02  0.8456E+01  0.3059E+03  0.3028E+03
     -2.864  0.1021E+02  0.3692E+01  0.3066E+03  0.3031E+03
     -2.796  0.7501E+01  0.4977E+01  0.3071E+03  0.3034E+03
     -2.728  0.7144E+01  0.8602E+01  0.3076E+03  0.3040E+03
     -2.660  0.7448E+01  0.1157E+02  0.3081E+03  0.3048E+03
     -2.592  0.6908E+01  0.1386E+02  0.3086E+03  0.3057E+03
     -2.523  0.4768E+01  0.1378E+02  0.3089E+03  0.3067E+03
     -2.455  0.5191E+01  0.1119E+02  0.3093E+03  0.3074E+03
     -2.387  0.1523E+02  0.8298E+01  0.3103E+03  0.3080E+03
     -2.319  0.2707E+02  0.7717E+01  0.3122E+03  0.3085E+03
     -2.251  0.2577E+02  0.9062E+01  0.3139E+03  0.3091E+03
     -2.183  0.1735E+02  0.1122E+02  0.3151E+03  0.3099E+03
     -2.115  0.9446E+01  0.1547E+02  0.3157E+03  0.3110E+03
     -2.047  0.3267E+01  0.2185E+02  0.3160E+03  0.3125E+03
     -1.979  0.7380E+00  0.2416E+02  0.3160E+03  0.3141E+03
     -1.911  0.1337E+01  0.1788E+02  0.3161E+03  0.3153E+03
     -1.843  0.4049E+01  0.8011E+01  0.3164E+03  0.3159E+03
     -1.775  0.5374E+01  0.1892E+01  0.3167E+03  0.3160E+03
     -1.707  0.3257E+01  0.6426E+00  0.3170E+03  0.3160E+03
     -1.638  0.2951E+01  0.2321E+01  0.3172E+03  0.3162E+03
     -1.570  0.8999E+01  0.5065E+01  0.3178E+03  0.3165E+03
     -1.502  0.1637E+02  0.4947E+01  0.3189E+03  0.3169E+03
     -1.434  0.1719E+02  0.4213E+01  0.3201E+03  0.3172E+03
     -1.366  0.1772E+02  0.9482E+01  0.3213E+03  0.3178E+03
     -1.298  0.1765E+02  0.1578E+02  0.3225E+03  0.3189E+03
     -1.230  0.1377E+02  0.1343E+02  0.3234E+03  0.3198E+03
     -1.162  0.1412E+02  0.1146E+02  0.3244E+03  0.3206E+03
     -1.094  0.1796E+02  0.1647E+02  0.3256E+03  0.3217E+03
     -1.026  0.1710E+02  0.1680E+02  0.3268E+03  0.3228E+03
     -0.958  0.1399E+02  0.1209E+02  0.3277E+03  0.3237E+03
     -0.890  0.1813E+02  0.1195E+02  0.3289E+03  0.3245E+03
     -0.822  0.2843E+02  0.1801E+02  0.3309E+03  0.3257E+03
     -0.753  0.3086E+02  0.2228E+02  0.3330E+03  0.3272E+03
     -0.685  0.2234E+02  0.2606E+02  0.3345E+03  0.3290E+03
     -0.617  0.1375E+02  0.3335E+02  0.3354E+03  0.3313E+03
     -0.549  0.1013E+02  0.3167E+02  0.3361E+03  0.3334E+03
     -0.481  0.7763E+01  0.1912E+02  0.3367E+03  0.3347E+03
     -0.413  0.3960E+01  0.1161E+02  0.3369E+03  0.3355E+03
     -0.345  0.1014E+01  0.1146E+02  0.3370E+03  0.3363E+03
     -0.277  0.1151E+00  0.7726E+01  0.3370E+03  0.3368E+03
     -0.209  0.6893E-02  0.2373E+01  0.3370E+03  0.3370E+03
     -0.141  0.3982E-01  0.3135E+00  0.3370E+03  0.3370E+03
     -0.073  0.4813E+00  0.1828E-01  0.3370E+03  0.3370E+03
     -0.005  0.2520E+01  0.2492E-01  0.3372E+03  0.3370E+03
      0.063  0.6528E+01  0.3400E+00  0.3377E+03  0.3370E+03
      0.132  0.1234E+02  0.1987E+01  0.3385E+03  0.3372E+03
      0.200  0.2135E+02  0.5183E+01  0.3399E+03  0.3375E+03
      0.268  0.2593E+02  0.8164E+01  0.3417E+03  0.3381E+03
      0.336  0.2242E+02  0.1513E+02  0.3432E+03  0.3391E+03
      0.404  0.1709E+02  0.2721E+02  0.3444E+03  0.3410E+03
      0.472  0.1247E+02  0.3004E+02  0.3452E+03  0.3430E+03
      0.540  0.1071E+02  0.2206E+02  0.3460E+03  0.3445E+03
      0.608  0.1108E+02  0.1667E+02  0.3467E+03  0.3456E+03
      0.676  0.1029E+02  0.1294E+02  0.3474E+03  0.3465E+03
      0.744  0.6657E+01  0.7225E+01  0.3479E+03  0.3470E+03
      0.812  0.5684E+01  0.6826E+01  0.3483E+03  0.3475E+03
      0.880  0.1317E+02  0.1361E+02  0.3492E+03  0.3484E+03
      0.948  0.2345E+02  0.2258E+02  0.3508E+03  0.3499E+03
      1.017  0.2774E+02  0.2636E+02  0.3527E+03  0.3517E+03
      1.085  0.2860E+02  0.2262E+02  0.3546E+03  0.3533E+03
      1.153  0.3519E+02  0.2356E+02  0.3570E+03  0.3549E+03
      1.221  0.4612E+02  0.3570E+02  0.3601E+03  0.3573E+03
      1.289  0.4665E+02  0.4734E+02  0.3633E+03  0.3605E+03
      1.357  0.3451E+02  0.4437E+02  0.3657E+03  0.3635E+03
      1.425  0.2690E+02  0.3615E+02  0.3675E+03  0.3660E+03
      1.493  0.2856E+02  0.3338E+02  0.3694E+03  0.3683E+03
      1.561  0.3136E+02  0.3226E+02  0.3716E+03  0.3705E+03
      1.629  0.3341E+02  0.3290E+02  0.3738E+03  0.3727E+03
      1.697  0.3236E+02  0.3305E+02  0.3760E+03  0.3750E+03
      1.765  0.2639E+02  0.2993E+02  0.3778E+03  0.3770E+03
      1.834  0.1770E+02  0.2425E+02  0.3791E+03  0.3787E+03
      1.902  0.9531E+01  0.1411E+02  0.3797E+03  0.3796E+03
      1.970  0.3593E+01  0.4739E+01  0.3799E+03  0.3799E+03
      2.038  0.7361E+00  0.8173E+00  0.3800E+03  0.3800E+03
      2.106  0.6921E-01  0.6673E-01  0.3800E+03  0.3800E+03
      2.174  0.2781E-02  0.2422E-02  0.3800E+03  0.3800E+03
      2.242  0.4639E-04  0.3746E-04  0.3800E+03  0.3800E+03
      2.310  0.3166E-06  0.2404E-06  0.3800E+03  0.3800E+03
      2.378  0.8767E-09  0.6302E-09  0.3800E+03  0.3800E+03
      2.446  0.9785E-12  0.6686E-12  0.3800E+03  0.3800E+03
      2.514  0.0000E+00  0.0000E+00  0.3800E+03  0.3800E+03
      2.582  0.0000E+00  0.0000E+00  0.3800E+03  0.3800E+03
      2.650  0.0000E+00  0.0000E+00  0.3800E+03  0.3800E+03
      2.719  0.0000E+00  0.0000E+00  0.3800E+03  0.3800E+03
      2.787  0.0000E+00  0.0000E+00  0.3800E+03  0.3800E+03
      2.855  0.0000E+00  0.0000E+00  0.3800E+03  0.3800E+03
