   56   56    1    2
  0.1428571E+03  0.2000000E-08  0.2000000E-08  0.2000000E-08  0.5000000E-15
  1.000000000000000E-004
  CAR 
 single                                  
    556      1    380
 
  0.0000000E+00  0.0000000E+00  0.0000000E+00  0.1000000E+01
    1      -16.568698    -16.421600   1.000000   1.000000
    2      -12.094226    -12.087603   1.000000   1.000000
    3      -10.726901    -10.726616   1.000000   1.000000
    4      -10.713262    -10.710619   1.000000   1.000000
    5      -10.668018    -10.661203   1.000000   1.000000
    6       -9.493778     -9.423506   1.000000   1.000000
    7       -9.462221     -9.390656   1.000000   1.000000
    8       -9.455644     -9.385890   1.000000   1.000000
    9       -9.449244     -9.374845   1.000000   1.000000
   10       -9.411166     -9.332123   1.000000   1.000000
   11       -9.324708     -9.153938   1.000000   1.000000
   12       -8.715547     -8.483848   1.000000   1.000000
   13       -8.676680     -8.434928   1.000000   1.000000
   14       -8.673667     -8.425444   1.000000   1.000000
   15       -8.554358     -8.236750   1.000000   1.000000
   16       -8.506037     -8.069810   1.000000   1.000000
   17       -8.501718     -8.067847   1.000000   1.000000
   18       -8.498972     -8.058203   1.000000   1.000000
   19       -8.487557     -8.052979   1.000000   1.000000
   20       -8.465919     -8.048451   1.000000   1.000000
   21       -8.379523     -8.034308   1.000000   1.000000
   22       -8.277338     -8.026076   1.000000   1.000000
   23       -8.275929     -8.020615   1.000000   1.000000
   24       -8.266706     -8.016953   1.000000   1.000000
   25       -8.258623     -7.934530   1.000000   1.000000
   26       -8.239414     -7.922487   1.000000   1.000000
   27       -8.225496     -7.903808   1.000000   1.000000
   28       -8.070246     -7.674119   1.000000   1.000000
   29       -7.991733     -7.550889   1.000000   1.000000
   30       -7.984889     -7.512004   1.000000   1.000000
   31       -7.979620     -7.500269   1.000000   1.000000
   32       -7.966644     -7.485491   1.000000   1.000000
   33       -7.957434     -7.390631   1.000000   1.000000
   34       -7.953792     -7.387772   1.000000   1.000000
   35       -7.948210     -7.385345   1.000000   1.000000
   36       -7.913225     -7.379822   1.000000   1.000000
   37       -7.906160     -7.368068   1.000000   1.000000
   38       -7.768769     -7.293532   1.000000   1.000000
   39       -7.717775     -7.269241   1.000000   1.000000
   40       -7.698924     -7.249711   1.000000   1.000000
   41       -7.639077     -7.113167   1.000000   1.000000
   42       -7.623449     -7.109559   1.000000   1.000000
   43       -7.620365     -7.102768   1.000000   1.000000
   44       -7.617019     -7.094604   1.000000   1.000000
   45       -7.572265     -7.015719   1.000000   1.000000
   46       -7.571454     -7.001116   1.000000   1.000000
   47       -7.553587     -6.994951   1.000000   1.000000
   48       -7.520681     -6.988193   1.000000   1.000000
   49       -7.482690     -6.974367   1.000000   1.000000
   50       -7.474310     -6.956198   1.000000   1.000000
   51       -7.454910     -6.942455   1.000000   1.000000
   52       -7.406748     -6.867509   1.000000   1.000000
   53       -7.382280     -6.859459   1.000000   1.000000
   54       -7.379952     -6.851960   1.000000   1.000000
   55       -7.378145     -6.839658   1.000000   1.000000
   56       -7.370394     -6.831503   1.000000   1.000000
   57       -7.345770     -6.802265   1.000000   1.000000
   58       -7.299545     -6.776836   1.000000   1.000000
   59       -7.251288     -6.706667   1.000000   1.000000
   60       -7.244703     -6.703706   1.000000   1.000000
   61       -7.197040     -6.696640   1.000000   1.000000
   62       -7.136354     -6.572435   1.000000   1.000000
   63       -7.135090     -6.567297   1.000000   1.000000
   64       -7.113321     -6.551788   1.000000   1.000000
   65       -7.091590     -6.534437   1.000000   1.000000
   66       -7.032070     -6.488079   1.000000   1.000000
   67       -6.980351     -6.434693   1.000000   1.000000
   68       -6.931584     -6.261901   1.000000   1.000000
   69       -6.922656     -6.255161   1.000000   1.000000
   70       -6.918062     -6.247748   1.000000   1.000000
   71       -6.890631     -6.245641   1.000000   1.000000
   72       -6.856971     -6.240852   1.000000   1.000000
   73       -6.841647     -6.209465   1.000000   1.000000
   74       -6.814291     -6.208798   1.000000   1.000000
   75       -6.798941     -6.194306   1.000000   1.000000
   76       -6.739814     -6.130787   1.000000   1.000000
   77       -6.735014     -6.125612   1.000000   1.000000
   78       -6.724816     -6.113082   1.000000   1.000000
   79       -6.709220     -6.090661   1.000000   1.000000
   80       -6.689427     -6.088007   1.000000   1.000000
   81       -6.596499     -6.029751   1.000000   1.000000
   82       -6.588379     -6.020796   1.000000   1.000000
   83       -6.578318     -5.941077   1.000000   1.000000
   84       -6.578032     -5.939446   1.000000   1.000000
   85       -6.565784     -5.937428   1.000000   1.000000
   86       -6.557396     -5.927757   1.000000   1.000000
   87       -6.550654     -5.918347   1.000000   1.000000
   88       -6.546772     -5.907761   1.000000   1.000000
   89       -6.545674     -5.900031   1.000000   1.000000
   90       -6.537807     -5.894308   1.000000   1.000000
   91       -6.531949     -5.887662   1.000000   1.000000
   92       -6.527405     -5.881779   1.000000   1.000000
   93       -6.516368     -5.873750   1.000000   1.000000
   94       -6.504211     -5.873253   1.000000   1.000000
   95       -6.489066     -5.864545   1.000000   1.000000
   96       -6.489035     -5.849306   1.000000   1.000000
   97       -6.473356     -5.801091   1.000000   1.000000
   98       -6.444841     -5.781466   1.000000   1.000000
   99       -6.439180     -5.695788   1.000000   1.000000
  100       -6.433422     -5.688238   1.000000   1.000000
  101       -6.430483     -5.686617   1.000000   1.000000
  102       -6.392232     -5.680060   1.000000   1.000000
  103       -6.386449     -5.656033   1.000000   1.000000
  104       -6.364682     -5.649184   1.000000   1.000000
  105       -6.360247     -5.633555   1.000000   1.000000
  106       -6.356628     -5.632568   1.000000   1.000000
  107       -6.333286     -5.618128   1.000000   1.000000
  108       -6.295923     -5.588871   1.000000   1.000000
  109       -6.274345     -5.578653   1.000000   1.000000
  110       -6.274010     -5.570807   1.000000   1.000000
  111       -6.257632     -5.544814   1.000000   1.000000
  112       -6.245778     -5.530724   1.000000   1.000000
  113       -6.235196     -5.502149   1.000000   1.000000
  114       -6.233292     -5.490666   1.000000   1.000000
  115       -6.221358     -5.479040   1.000000   1.000000
  116       -6.214126     -5.466432   1.000000   1.000000
  117       -6.191168     -5.451257   1.000000   1.000000
  118       -6.176366     -5.449807   1.000000   1.000000
  119       -6.162724     -5.444968   1.000000   1.000000
  120       -6.130084     -5.439184   1.000000   1.000000
  121       -6.119766     -5.428889   1.000000   1.000000
  122       -6.109923     -5.426564   1.000000   1.000000
  123       -6.101774     -5.420510   1.000000   1.000000
  124       -6.080548     -5.418423   1.000000   1.000000
  125       -6.070139     -5.406986   1.000000   1.000000
  126       -6.067456     -5.405587   1.000000   1.000000
  127       -6.054217     -5.400999   1.000000   1.000000
  128       -6.025395     -5.391589   1.000000   1.000000
  129       -6.020381     -5.374654   1.000000   1.000000
  130       -5.997203     -5.315116   1.000000   1.000000
  131       -5.933264     -5.265491   1.000000   1.000000
  132       -5.921470     -5.264817   1.000000   1.000000
  133       -5.871427     -5.231692   1.000000   1.000000
  134       -5.829056     -5.193809   1.000000   1.000000
  135       -5.828170     -5.158021   1.000000   1.000000
  136       -5.819500     -5.150121   1.000000   1.000000
  137       -5.813537     -5.141285   1.000000   1.000000
  138       -5.795147     -5.127730   1.000000   1.000000
  139       -5.794750     -5.122116   1.000000   1.000000
  140       -5.791127     -5.116695   1.000000   1.000000
  141       -5.784609     -5.114186   1.000000   1.000000
  142       -5.783788     -5.102335   1.000000   1.000000
  143       -5.780147     -5.096542   1.000000   1.000000
  144       -5.772933     -5.095661   1.000000   1.000000
  145       -5.749327     -5.073351   1.000000   1.000000
  146       -5.748159     -5.058323   1.000000   1.000000
  147       -5.743378     -5.021476   1.000000   1.000000
  148       -5.722344     -5.008218   1.000000   1.000000
  149       -5.707075     -5.007784   1.000000   1.000000
  150       -5.702786     -5.001426   1.000000   1.000000
  151       -5.685382     -4.943417   1.000000   1.000000
  152       -5.675527     -4.934233   1.000000   1.000000
  153       -5.662215     -4.916876   1.000000   1.000000
  154       -5.653533     -4.908511   1.000000   1.000000
  155       -5.641143     -4.893627   1.000000   1.000000
  156       -5.638271     -4.877572   1.000000   1.000000
  157       -5.613176     -4.875985   1.000000   1.000000
  158       -5.611869     -4.869161   1.000000   1.000000
  159       -5.603487     -4.862200   1.000000   1.000000
  160       -5.591656     -4.855506   1.000000   1.000000
  161       -5.574115     -4.852016   1.000000   1.000000
  162       -5.560822     -4.845436   1.000000   1.000000
  163       -5.549737     -4.841586   1.000000   1.000000
  164       -5.546168     -4.832964   1.000000   1.000000
  165       -5.544235     -4.831751   1.000000   1.000000
  166       -5.542334     -4.828333   1.000000   1.000000
  167       -5.541264     -4.819627   1.000000   1.000000
  168       -5.536599     -4.818499   1.000000   1.000000
  169       -5.531725     -4.811842   1.000000   1.000000
  170       -5.523418     -4.810164   1.000000   1.000000
  171       -5.498454     -4.794229   1.000000   1.000000
  172       -5.457266     -4.772566   1.000000   1.000000
  173       -5.430199     -4.734948   1.000000   1.000000
  174       -5.418328     -4.731941   1.000000   1.000000
  175       -5.406262     -4.721549   1.000000   1.000000
  176       -5.380263     -4.715603   1.000000   1.000000
  177       -5.356776     -4.694054   1.000000   1.000000
  178       -5.348944     -4.693037   1.000000   1.000000
  179       -5.321581     -4.666848   1.000000   1.000000
  180       -5.281658     -4.655903   1.000000   1.000000
  181       -5.261227     -4.615337   1.000000   1.000000
  182       -5.260021     -4.614497   1.000000   1.000000
  183       -5.252946     -4.597408   1.000000   1.000000
  184       -5.247236     -4.585685   1.000000   1.000000
  185       -5.242364     -4.584156   1.000000   1.000000
  186       -5.229333     -4.571341   1.000000   1.000000
  187       -5.227589     -4.568970   1.000000   1.000000
  188       -5.214348     -4.555223   1.000000   1.000000
  189       -5.206151     -4.549827   1.000000   1.000000
  190       -5.195458     -4.546053   1.000000   1.000000
  191       -5.170253     -4.490742   1.000000   1.000000
  192       -5.169459     -4.485081   1.000000   1.000000
  193       -5.159637     -4.449507   1.000000   1.000000
  194       -5.143107     -4.445489   1.000000   1.000000
  195       -5.115856     -4.400678   1.000000   1.000000
  196       -5.105238     -4.382076   1.000000   1.000000
  197       -5.089801     -4.347931   1.000000   1.000000
  198       -5.069215     -4.345006   1.000000   1.000000
  199       -5.062965     -4.329658   1.000000   1.000000
  200       -5.042857     -4.318749   1.000000   1.000000
  201       -5.039991     -4.317656   1.000000   1.000000
  202       -5.033551     -4.316915   1.000000   1.000000
  203       -5.029272     -4.313566   1.000000   1.000000
  204       -5.028885     -4.309307   1.000000   1.000000
  205       -5.019195     -4.292598   1.000000   1.000000
  206       -4.997780     -4.287869   1.000000   1.000000
  207       -4.973059     -4.279321   1.000000   1.000000
  208       -4.967243     -4.278627   1.000000   1.000000
  209       -4.966535     -4.260092   1.000000   1.000000
  210       -4.953230     -4.258595   1.000000   1.000000
  211       -4.949388     -4.247783   1.000000   1.000000
  212       -4.943122     -4.232375   1.000000   1.000000
  213       -4.942644     -4.220153   1.000000   1.000000
  214       -4.936394     -4.212330   1.000000   1.000000
  215       -4.924254     -4.204006   1.000000   1.000000
  216       -4.921497     -4.199634   1.000000   1.000000
  217       -4.903809     -4.197183   1.000000   1.000000
  218       -4.900109     -4.194264   1.000000   1.000000
  219       -4.898045     -4.188408   1.000000   1.000000
  220       -4.887380     -4.185008   1.000000   1.000000
  221       -4.876420     -4.179649   1.000000   1.000000
  222       -4.857435     -4.163336   1.000000   1.000000
  223       -4.854095     -4.134468   1.000000   0.999998
  224       -4.829718     -4.118227   1.000000   0.999993
  225       -4.793520     -4.081956   1.000000   0.999940
  226       -4.791405     -4.074510   1.000000   0.999908
  227       -4.789812     -4.065880   1.000000   0.999852
  228       -4.788906     -4.058888   1.000000   0.999784
  229       -4.787095     -4.055000   1.000000   0.999734
  230       -4.786001     -4.047217   1.000000   0.999602
  231       -4.783497     -4.039116   1.000000   0.999402
  232       -4.782803     -4.038598   1.000000   0.999386
  233       -4.777370     -4.026286   1.000000   0.998887
  234       -4.775462     -4.018221   1.000000   0.998381
  235       -4.774791     -4.014100   1.000000   0.998049
  236       -4.768589     -3.994956   1.000000   0.995542
  237       -4.761258     -3.983372   1.000000   0.992885
  238       -4.745833     -3.983151   1.000000   0.992823
  239       -4.717399     -3.980684   1.000000   0.992098
  240       -4.717225     -3.977947   1.000000   0.991218
  241       -4.704431     -3.975108   1.000000   0.990216
  242       -4.676300     -3.972820   1.000000   0.989338
  243       -4.675691     -3.967150   1.000000   0.986858
  244       -4.670559     -3.959502   1.000000   0.982736
  245       -4.669204     -3.951567   1.000000   0.977338
  246       -4.657889     -3.939193   1.000000   0.966123
  247       -4.655906     -3.935830   1.000000   0.962386
  248       -4.654766     -3.907272   1.000000   0.915465
  249       -4.650578     -3.907003   1.000000   0.914874
  250       -4.647343     -3.898948   1.000000   0.895710
  251       -4.643656     -3.849969   1.000000   0.713899
  252       -4.638558     -3.849409   1.000000   0.711201
  253       -4.627205     -3.848464   1.000000   0.706619
  254       -4.626570     -3.847338   1.000000   0.701115
  255       -4.620378     -3.836064   1.000000   0.643626
  256       -4.618386     -3.829769   1.000000   0.609935
  257       -4.609647     -3.827965   1.000000   0.600109
  258       -4.604205     -3.817219   1.000000   0.540490
  259       -4.602539     -3.812457   1.000000   0.513686
  260       -4.599597     -3.809481   1.000000   0.496902
  261       -4.597443     -3.791470   1.000000   0.396473
  262       -4.587660     -3.772660   1.000000   0.298576
  263       -4.586900     -3.752066   1.000000   0.206183
  264       -4.583796     -3.748746   1.000000   0.193055
  265       -4.581174     -3.735914   1.000000   0.147281
  266       -4.578340     -3.723004   1.000000   0.109211
  267       -4.575804     -3.715770   1.000000   0.091258
  268       -4.570102     -3.711718   1.000000   0.082213
  269       -4.560271     -3.710588   1.000000   0.079813
  270       -4.559211     -3.709197   1.000000   0.076935
  271       -4.556788     -3.705150   1.000000   0.069006
  272       -4.555611     -3.703355   1.000000   0.065698
  273       -4.552341     -3.700097   1.000000   0.060009
  274       -4.551312     -3.697987   1.000000   0.056536
  275       -4.543888     -3.694263   1.000000   0.050794
  276       -4.503225     -3.690682   1.000000   0.045721
  277       -4.493951     -3.688751   1.000000   0.043159
  278       -4.478930     -3.687945   1.000000   0.042124
  279       -4.476204     -3.687184   1.000000   0.041167
  280       -4.473267     -3.684875   1.000000   0.038366
  281       -4.472498     -3.681619   1.000000   0.034685
  282       -4.463171     -3.678159   1.000000   0.031095
  283       -4.461344     -3.608503   1.000000   0.002186
  284       -4.456786     -3.580511   1.000000   0.000585
  285       -4.454954     -3.570876   1.000000   0.000360
  286       -4.430428     -3.570414   1.000000   0.000351
  287       -4.421566     -3.568946   1.000000   0.000325
  288       -4.373863     -3.547831   1.000000   0.000104
  289       -4.343502     -3.493135   1.000000   0.000004
  290       -4.338963     -3.490213   1.000000   0.000003
  291       -4.335556     -3.474116   1.000000   0.000001
  292       -4.334147     -3.471911   1.000000   0.000001
  293       -4.281894     -3.452373   1.000000   0.000000
  294       -4.167475     -3.446668   1.000000   0.000000
  295       -4.068618     -3.422513   0.999872   0.000000
  296       -3.929751     -3.342136   0.954782   0.000000
  297       -3.889380     -3.323622   0.869104   0.000000
  298       -3.863069     -3.301823   0.773396   0.000000
  299       -3.783945     -3.225878   0.356099   0.000000
  300       -3.621705     -3.141065   0.003869   0.000000
  301       -3.619169     -3.132588   0.003476   0.000000
  302       -3.514441     -3.038279   0.000015   0.000000
  303       -3.484146     -3.018976   0.000002   0.000000
  304       -3.158247     -2.774247   0.000000   0.000000
  305       -3.041902     -2.672834   0.000000   0.000000
  306       -2.968741     -2.604173   0.000000   0.000000
  307       -2.892577     -2.547772   0.000000   0.000000
  308       -2.742270     -2.460521   0.000000   0.000000
  309       -2.612260     -2.317716   0.000000   0.000000
  310       -2.356493     -2.208664   0.000000   0.000000
  311       -2.350529     -2.130378   0.000000   0.000000
  312       -2.348986     -2.050033   0.000000   0.000000
  313       -2.348062     -2.040166   0.000000   0.000000
  314       -2.290482     -2.035379   0.000000   0.000000
  315       -2.229797     -1.953845   0.000000   0.000000
  316       -2.173822     -1.944576   0.000000   0.000000
  317       -1.820349     -1.576453   0.000000   0.000000
  318       -1.539368     -1.335919   0.000000   0.000000
  319       -1.532349     -1.332263   0.000000   0.000000
  320       -1.496313     -1.294344   0.000000   0.000000
  321       -1.372338     -1.119273   0.000000   0.000000
  322       -1.355622     -1.102051   0.000000   0.000000
  323       -1.333953     -1.085973   0.000000   0.000000
  324       -1.216295     -0.980245   0.000000   0.000000
  325       -1.116145     -0.846299   0.000000   0.000000
  326       -1.113641     -0.816507   0.000000   0.000000
  327       -1.067766     -0.813485   0.000000   0.000000
  328       -0.971430     -0.738417   0.000000   0.000000
  329       -0.859657     -0.662533   0.000000   0.000000
  330       -0.855074     -0.660045   0.000000   0.000000
  331       -0.819554     -0.636428   0.000000   0.000000
  332       -0.817435     -0.605883   0.000000   0.000000
  333       -0.792180     -0.601528   0.000000   0.000000
  334       -0.738407     -0.567649   0.000000   0.000000
  335       -0.722224     -0.543668   0.000000   0.000000
  336       -0.614663     -0.382595   0.000000   0.000000
  337       -0.514832     -0.361225   0.000000   0.000000
  338        0.055201      0.202285   0.000000   0.000000
  339        0.176924      0.345613   0.000000   0.000000
  340        0.203988      0.383587   0.000000   0.000000
  341        0.213923      0.403794   0.000000   0.000000
  342        0.227859      0.415482   0.000000   0.000000
  343        0.303247      0.428567   0.000000   0.000000
  344        0.339198      0.460784   0.000000   0.000000
  345        0.391621      0.532424   0.000000   0.000000
  346        0.495488      0.623656   0.000000   0.000000
  347        0.593286      0.627469   0.000000   0.000000
  348        0.666223      0.839968   0.000000   0.000000
  349        0.891508      0.909625   0.000000   0.000000
  350        0.898267      0.943250   0.000000   0.000000
  351        0.937455      0.988916   0.000000   0.000000
  352        0.989948      0.992050   0.000000   0.000000
  353        1.002626      1.009702   0.000000   0.000000
  354        1.027798      1.115534   0.000000   0.000000
  355        1.119252      1.142410   0.000000   0.000000
  356        1.121736      1.215344   0.000000   0.000000
  357        1.130471      1.231043   0.000000   0.000000
  358        1.198976      1.236549   0.000000   0.000000
  359        1.206022      1.252592   0.000000   0.000000
  360        1.214521      1.253780   0.000000   0.000000
  361        1.235266      1.287561   0.000000   0.000000
  362        1.235413      1.304917   0.000000   0.000000
  363        1.246941      1.310293   0.000000   0.000000
  364        1.264238      1.325875   0.000000   0.000000
  365        1.298076      1.383706   0.000000   0.000000
  366        1.339943      1.412057   0.000000   0.000000
  367        1.380290      1.440258   0.000000   0.000000
  368        1.456108      1.480628   0.000000   0.000000
  369        1.464884      1.493905   0.000000   0.000000
  370        1.485836      1.508147   0.000000   0.000000
  371        1.516748      1.575354   0.000000   0.000000
  372        1.583369      1.602090   0.000000   0.000000
  373        1.594427      1.629489   0.000000   0.000000
  374        1.612399      1.643840   0.000000   0.000000
  375        1.642856      1.678326   0.000000   0.000000
  376        1.668691      1.698153   0.000000   0.000000
  377        1.714225      1.756568   0.000000   0.000000
  378        1.736102      1.787802   0.000000   0.000000
  379        1.770380      1.796441   0.000000   0.000000
  380        1.854681      1.851086   0.000000   0.000000
