       N       E                     dE             d eps       ncg     rms          rms(c)
DAV:   1     0.284486867030E+04    0.28449E+04   -0.16163E+05  1520   0.882E+02
DAV:   2    -0.141901713247E+03   -0.29868E+04   -0.28868E+04  1640   0.275E+02
DAV:   3    -0.302738426119E+03   -0.16084E+03   -0.15329E+03  1840   0.773E+01
DAV:   4    -0.306618857741E+03   -0.38804E+01   -0.38160E+01  1640   0.130E+01
DAV:   5    -0.306700272712E+03   -0.81415E-01   -0.81367E-01  1740   0.145E+00    0.544E+01
RMM:   6    -0.392576816827E+03   -0.85877E+02   -0.58521E+02  1632   0.652E+01    0.131E+02
RMM:   7    -0.328523472626E+03    0.64053E+02   -0.27734E+02  1652   0.428E+01    0.775E+01
RMM:   8    -0.292002089428E+03    0.36521E+02   -0.10341E+02  1552   0.263E+01    0.966E+01
RMM:   9    -0.265979466094E+03    0.26023E+02   -0.45578E+01  1583   0.181E+01    0.508E+01
RMM:  10    -0.264857175290E+03    0.11223E+01   -0.55446E+00  1587   0.582E+00    0.518E+01
RMM:  11    -0.262955443223E+03    0.19017E+01   -0.54361E+00  1579   0.573E+00    0.541E+01
RMM:  12    -0.258780890231E+03    0.41746E+01   -0.37574E+00  1575   0.475E+00    0.368E+01
RMM:  13    -0.256759991868E+03    0.20209E+01   -0.31999E+00  1571   0.446E+00    0.306E+01
RMM:  14    -0.255720665192E+03    0.10393E+01   -0.72212E-01  1588   0.205E+00    0.240E+01
RMM:  15    -0.255036960076E+03    0.68371E+00   -0.25653E-01  1591   0.120E+00    0.182E+01
RMM:  16    -0.254687305907E+03    0.34965E+00   -0.59684E-01  1579   0.182E+00    0.169E+01
RMM:  17    -0.255341461606E+03   -0.65416E+00   -0.95283E-01  1567   0.232E+00    0.257E+01
RMM:  18    -0.253725516771E+03    0.16159E+01   -0.93348E-01  1577   0.240E+00    0.104E+01
RMM:  19    -0.253565467469E+03    0.16005E+00   -0.46956E-01  1597   0.168E+00    0.912E+00
RMM:  20    -0.254041554488E+03   -0.47609E+00   -0.43890E-01  1570   0.158E+00    0.142E+01
RMM:  21    -0.254210413914E+03   -0.16886E+00   -0.37688E-01  1560   0.152E+00    0.762E+00
RMM:  22    -0.254237048903E+03   -0.26635E-01   -0.14457E-01  1587   0.933E-01    0.729E+00
RMM:  23    -0.254533036927E+03   -0.29599E+00   -0.13243E-01  1584   0.846E-01    0.709E+00
RMM:  24    -0.255135842116E+03   -0.60281E+00   -0.17461E-01  1558   0.869E-01    0.422E+00
RMM:  25    -0.255339750746E+03   -0.20391E+00   -0.54270E-02  1599   0.534E-01    0.356E+00
RMM:  26    -0.256310751870E+03   -0.97100E+00   -0.14894E-01  1545   0.615E-01    0.383E+00
RMM:  27    -0.256780100078E+03   -0.46935E+00   -0.67200E-02  1569   0.525E-01    0.307E+00
RMM:  28    -0.257402370882E+03   -0.62227E+00   -0.82181E-02  1547   0.523E-01    0.531E+00
RMM:  29    -0.258100487381E+03   -0.69812E+00   -0.87573E-02  1543   0.498E-01    0.229E+00
RMM:  30    -0.258323467719E+03   -0.22298E+00   -0.27797E-02  1577   0.341E-01    0.202E+00
RMM:  31    -0.259052893391E+03   -0.72943E+00   -0.70108E-02  1544   0.377E-01    0.334E+00
RMM:  32    -0.259508202826E+03   -0.45531E+00   -0.38768E-02  1551   0.304E-01    0.197E+00
RMM:  33    -0.259728330288E+03   -0.22013E+00   -0.15892E-02  1581   0.225E-01    0.178E+00
RMM:  34    -0.260462716984E+03   -0.73439E+00   -0.74067E-02  1544   0.310E-01    0.159E+00
RMM:  35    -0.260700171512E+03   -0.23745E+00   -0.19062E-02  1592   0.210E-01    0.104E+00
RMM:  36    -0.260926669450E+03   -0.22650E+00   -0.15949E-02  1581   0.195E-01    0.160E+00
RMM:  37    -0.261226500732E+03   -0.29983E+00   -0.25408E-02  1556   0.210E-01    0.959E-01
RMM:  38    -0.261316403509E+03   -0.89903E-01   -0.62767E-03  1619   0.143E-01    0.692E-01
RMM:  39    -0.261556563727E+03   -0.24016E+00   -0.15417E-02  1567   0.179E-01    0.106E+00
RMM:  40    -0.261676247515E+03   -0.11968E+00   -0.76739E-03  1594   0.152E-01    0.464E-01
RMM:  41    -0.261751014846E+03   -0.74767E-01   -0.39018E-03  1618   0.111E-01    0.737E-01
RMM:  42    -0.261856857999E+03   -0.10584E+00   -0.58790E-03  1564   0.106E-01    0.404E-01
RMM:  43    -0.261875143254E+03   -0.18285E-01   -0.98946E-04  1653   0.586E-02    0.343E-01
RMM:  44    -0.261924390921E+03   -0.49248E-01   -0.23558E-03  1582   0.668E-02    0.380E-01
RMM:  45    -0.261943829327E+03   -0.19438E-01   -0.96380E-04  1620   0.540E-02    0.205E-01
RMM:  46    -0.261961060642E+03   -0.17231E-01   -0.78947E-04  1597   0.478E-02    0.312E-01
RMM:  47    -0.261986550092E+03   -0.25489E-01   -0.16280E-03  1564   0.520E-02    0.176E-01
RMM:  48    -0.261990863228E+03   -0.43131E-02   -0.28529E-04  1642   0.279E-02    0.169E-01
RMM:  49    -0.261999403984E+03   -0.85408E-02   -0.71791E-04  1577   0.315E-02    0.135E-01
RMM:  50    -0.262000989825E+03   -0.15858E-02   -0.14523E-04  1643   0.218E-02    0.103E-01
RMM:  51    -0.262003504899E+03   -0.25151E-02   -0.22641E-04  1592   0.266E-02    0.143E-01
RMM:  52    -0.262005115111E+03   -0.16102E-02   -0.15009E-04  1590   0.220E-02    0.519E-02
RMM:  53    -0.262006607882E+03   -0.14928E-02   -0.11521E-04  1591   0.158E-02    0.102E-01
RMM:  54    -0.262007535809E+03   -0.92793E-03   -0.72407E-05  1604   0.135E-02    0.322E-02
RMM:  55    -0.262008244186E+03   -0.70838E-03   -0.48594E-05  1600   0.109E-02    0.587E-02
RMM:  56    -0.262008875496E+03   -0.63131E-03   -0.45305E-05  1577   0.101E-02    0.264E-02
RMM:  57    -0.262009442208E+03   -0.56671E-03   -0.18723E-05  1605   0.745E-03    0.404E-02
RMM:  58    -0.262010290343E+03   -0.84813E-03   -0.31396E-05  1520   0.744E-03    0.168E-02
RMM:  59    -0.262010554712E+03   -0.26437E-03   -0.10243E-05  1446   0.536E-03    0.277E-02
RMM:  60    -0.262010937644E+03   -0.38293E-03   -0.23672E-05  1445   0.593E-03    0.122E-02
RMM:  61    -0.262010979896E+03   -0.42252E-04   -0.44306E-06  1378   0.482E-03    0.320E-02
RMM:  62    -0.262011085773E+03   -0.10588E-03   -0.14200E-05  1379   0.546E-03    0.194E-02
RMM:  63    -0.262011159210E+03   -0.73437E-04   -0.32309E-06  1132   0.278E-03    0.125E-02
RMM:  64    -0.262011267187E+03   -0.10798E-03   -0.16064E-06  1075   0.208E-03    0.836E-03
RMM:  65    -0.262011299798E+03   -0.32612E-04   -0.21363E-06  1054   0.232E-03    0.799E-03
RMM:  66    -0.262011305960E+03   -0.61619E-05   -0.52614E-07  1060   0.183E-03    0.871E-03
RMM:  67    -0.262011332509E+03   -0.26549E-04   -0.72533E-07   995   0.168E-03    0.837E-03
RMM:  68    -0.262011369195E+03   -0.36686E-04   -0.49628E-07   997   0.137E-03    0.107E-02
RMM:  69    -0.262011436773E+03   -0.67577E-04   -0.87522E-07  1010   0.152E-03    0.498E-03
RMM:  70    -0.262011485886E+03   -0.49113E-04   -0.66796E-07  1002   0.124E-03    0.265E-03
RMM:  71    -0.262011503156E+03   -0.17270E-04   -0.23016E-07  1001   0.108E-03    0.583E-03
RMM:  72    -0.262011525137E+03   -0.21981E-04   -0.35808E-07   957   0.111E-03    0.262E-03
RMM:  73    -0.262011535846E+03   -0.10709E-04   -0.13118E-07   953   0.665E-04    0.166E-03
RMM:  74    -0.262011545378E+03   -0.95325E-05   -0.99029E-08   921   0.567E-04    0.168E-03
RMM:  75    -0.262011550969E+03   -0.55907E-05   -0.60513E-08   838   0.472E-04    0.129E-03
RMM:  76    -0.262011555912E+03   -0.49425E-05   -0.49231E-08   766   0.428E-04    0.126E-03
RMM:  77    -0.262011558191E+03   -0.22794E-05   -0.30147E-08   591   0.374E-04    0.996E-04
RMM:  78    -0.262011560127E+03   -0.19363E-05   -0.23638E-08   557   0.348E-04    0.918E-04
RMM:  79    -0.262011561074E+03   -0.94681E-06   -0.12206E-08   452   0.314E-04
   1 F= -.26201156E+03 E0= -.26168649E+03  d E =-.650140E+00  mag=    39.9211
