 vasp.5.4.4.18Apr17-6-g9f103f2a35 (build Dec 11 2018 16:16:58) complex          
  
 executed on             LinuxIFC date 2020.07.24  01:13:30
 running on   20 total cores
 distrk:  each k-point on   20 cores,    1 groups
 distr:  one band on NCORES_PER_BAND=   1 cores,   20 groups


--------------------------------------------------------------------------------------------------------


 INCAR:
 POTCAR:   PAW_PBE Ni 06Sep2000                   
 POTCAR:    PAW_PBE S 17Jan2003                   

 ----------------------------------------------------------------------------- 
|                                                                             |
|           W    W    AA    RRRRR   N    N  II  N    N   GGGG   !!!           |
|           W    W   A  A   R    R  NN   N  II  NN   N  G    G  !!!           |
|           W    W  A    A  R    R  N N  N  II  N N  N  G       !!!           |
|           W WW W  AAAAAA  RRRRR   N  N N  II  N  N N  G  GGG   !            |
|           WW  WW  A    A  R   R   N   NN  II  N   NN  G    G                |
|           W    W  A    A  R    R  N    N  II  N    N   GGGG   !!!           |
|                                                                             |
|      For optimal performance we recommend to set                            |
|        NCORE= 4 - approx SQRT( number of cores)                             |
|      NCORE specifies how many cores store one orbital (NPAR=cpu/NCORE).     |
|      This setting can  greatly improve the performance of VASP for DFT.     |
|      The default,   NCORE=1            might be grossly inefficient         |
|      on modern multi-core architectures or massively parallel machines.     |
|      Do your own testing !!!!                                               |
|      Unfortunately you need to use the default for GW and RPA calculations. |
|      (for HF NCORE is supported but not extensively tested yet)             |
|                                                                             |
 ----------------------------------------------------------------------------- 

 POTCAR:   PAW_PBE Ni 06Sep2000                   
  local pseudopotential read in
  partial core-charges read in
  atomic valenz-charges read in
  non local Contribution for L=           2  read in
    real space projection operators read in
  non local Contribution for L=           2  read in
    real space projection operators read in
  non local Contribution for L=           0  read in
    real space projection operators read in
  non local Contribution for L=           0  read in
    real space projection operators read in
  non local Contribution for L=           1  read in
    real space projection operators read in
  non local Contribution for L=           1  read in
    real space projection operators read in
    PAW grid and wavefunctions read in
 
   number of l-projection  operators is LMAX  =           6
   number of lm-projection operators is LMMAX =          18
 
 POTCAR:    PAW_PBE S 17Jan2003                   
  local pseudopotential read in
  partial core-charges read in
  atomic valenz-charges read in
  non local Contribution for L=           0  read in
    real space projection operators read in
  non local Contribution for L=           0  read in
    real space projection operators read in
  non local Contribution for L=           1  read in
    real space projection operators read in
  non local Contribution for L=           1  read in
    real space projection operators read in
    PAW grid and wavefunctions read in
 
   number of l-projection  operators is LMAX  =           4
   number of lm-projection operators is LMMAX =           8
 
 Optimization of the real space projectors (new method)

 maximal supplied QI-value         = 16.25
 optimisation between [QCUT,QGAM] = [ 10.24, 20.48] = [ 29.35,117.42] Ry 
 Optimized for a Real-space Cutoff    1.38 Angstroem

   l    n(q)    QCUT    max X(q) W(low)/X(q) W(high)/X(q)  e(spline) 
   2      7    10.239     4.811    0.22E-04    0.77E-04    0.38E-07
   2      7    10.239    15.146    0.35E-03    0.64E-03    0.10E-06
   0      8    10.239    14.357    0.23E-04    0.95E-05    0.71E-08
   0      8    10.239    43.282    0.33E-03    0.32E-04    0.83E-07
   1      8    10.239     5.514    0.10E-03    0.12E-03    0.15E-07
   1      8    10.239     7.697    0.32E-03    0.50E-03    0.12E-06
 Optimization of the real space projectors (new method)

 maximal supplied QI-value         = 19.84
 optimisation between [QCUT,QGAM] = [ 10.12, 20.44] = [ 28.68,116.96] Ry 
 Optimized for a Real-space Cutoff    1.23 Angstroem

   l    n(q)    QCUT    max X(q) W(low)/X(q) W(high)/X(q)  e(spline) 
   0      7    10.119     5.487    0.26E-04    0.13E-04    0.41E-08
   0      7    10.119    85.627    0.61E-04    0.28E-03    0.52E-07
   1      7    10.119     3.530    0.28E-04    0.18E-04    0.15E-07
   1      7    10.119    42.714    0.44E-03    0.62E-03    0.12E-06
 PAW_PBE Ni 06Sep2000                   :
 energy of atom  1       EATOM=-1077.9025
 kinetic energy error for atom=    0.0101 (will be added to EATOM!!)
  PAW_PBE S 17Jan2003                   :
 energy of atom  2       EATOM= -276.8230
 kinetic energy error for atom=    0.0046 (will be added to EATOM!!)
 
 
 POSCAR: Ni   S                                  
  positions in direct lattice
  velocities in cartesian coordinates
 exchange correlation table for  LEXCH =        8
   RHO(1)=    0.500       N(1)  =     2000
   RHO(2)=  100.500       N(2)  =     4000
 


--------------------------------------------------------------------------------------------------------


 ion  position               nearest neighbor table
   1  0.351  0.595  0.411-  19 2.40  10 2.41   8 2.44  16 2.44  17 2.50   2 2.51  24 2.52   3 2.52

   2  0.451  0.663  0.378-   5 2.40  19 2.41  16 2.43   4 2.44  20 2.51   1 2.51   3 2.52   6 2.53

   3  0.413  0.662  0.498-  10 2.40   5 2.41   4 2.44   8 2.44  11 2.49  12 2.49   2 2.52   1 2.52

   4  0.513  0.723  0.464-   5 2.29  12 2.43   6 2.44   3 2.44   2 2.44   7 2.45
   5  0.515  0.608  0.463-   4 2.29  28 2.34   6 2.40   2 2.40   3 2.41  12 2.41   7 2.42  23 2.45
                            19 2.45  14 2.47  10 2.47  13 2.48
   6  0.577  0.665  0.378-   5 2.40  23 2.42   4 2.44  35 2.44   7 2.51  32 2.51  20 2.52   2 2.53

   7  0.616  0.665  0.497-   5 2.42  14 2.42   4 2.45  33 2.45  12 2.50  15 2.50   6 2.51  32 2.51

   8  0.318  0.592  0.528-  10 2.29   1 2.44  24 2.44   3 2.44  11 2.45   9 2.46
   9  0.352  0.488  0.585-  27 2.41  10 2.43   8 2.46  42 2.50  24 2.52  11 2.54  25 2.56  39 2.58

  10  0.416  0.542  0.497-   8 2.29  28 2.34   3 2.40   1 2.41  11 2.41  24 2.41   9 2.43  13 2.46
                            26 2.47  27 2.47   5 2.47  19 2.47
  11  0.414  0.597  0.604-  13 2.40  10 2.41   8 2.45  40 2.46  39 2.49   3 2.49  12 2.51   9 2.54

  12  0.514  0.664  0.570-  13 2.41   5 2.41  40 2.42   4 2.43   3 2.49   7 2.50  11 2.51  15 2.52

  13  0.516  0.543  0.569-  40 2.31  28 2.34  41 2.40  11 2.40  12 2.41  15 2.41  39 2.42  10 2.46
                            31 2.46  14 2.48   5 2.48  27 2.49
  14  0.615  0.544  0.496-  33 2.29  28 2.34  32 2.40  37 2.40  34 2.41  15 2.41   7 2.42  23 2.45
                            30 2.46   5 2.47  31 2.47  13 2.48
  15  0.617  0.599  0.603-  13 2.41  14 2.41  40 2.42  33 2.43  34 2.50   7 2.50  41 2.51  12 2.52

  16  0.393  0.593  0.296-  19 2.30   2 2.43  17 2.44  18 2.44   1 2.44  20 2.44
  17  0.352  0.489  0.344-  19 2.40  26 2.41  50 2.43  16 2.44   1 2.50  18 2.51  47 2.52  24 2.53

  18  0.453  0.490  0.271-  19 2.41  21 2.41  48 2.44  16 2.44  17 2.51  47 2.51  20 2.52  22 2.52

  19  0.454  0.542  0.379-  16 2.30  28 2.34  17 2.40   1 2.40  18 2.41  20 2.41   2 2.41   5 2.45
                            21 2.46  26 2.46  23 2.47  10 2.47
  20  0.515  0.598  0.291-  23 2.41  19 2.41  35 2.44  16 2.44   2 2.51  22 2.51   6 2.52  18 2.52

  21  0.517  0.439  0.359-  48 2.29  28 2.35  52 2.41  47 2.41  22 2.41  18 2.41  49 2.41  30 2.46
                            19 2.46  23 2.46  26 2.47  29 2.47
  22  0.579  0.492  0.271-  23 2.41  21 2.41  48 2.44  35 2.44  20 2.51  36 2.51  49 2.52  18 2.52

  23  0.577  0.544  0.379-  35 2.29  28 2.35  22 2.41  20 2.41  36 2.41  32 2.41   6 2.42   5 2.45
                            14 2.45  21 2.46  30 2.46  19 2.47
  24  0.313  0.488  0.465-  26 2.41  10 2.41   8 2.44  50 2.45  25 2.49   1 2.52   9 2.52  17 2.53

  25  0.353  0.381  0.515-  42 2.39  26 2.39  27 2.42  50 2.43  24 2.49  51 2.50  43 2.52   9 2.56

  26  0.417  0.437  0.432-  50 2.30  28 2.34  25 2.39  24 2.41  17 2.41  47 2.42  51 2.42  19 2.46
                            29 2.46  27 2.46  21 2.47  10 2.47
  27  0.455  0.437  0.549-  42 2.33  28 2.36  44 2.41   9 2.41  25 2.42  43 2.42  29 2.46  26 2.46
                            31 2.47  10 2.47  13 2.49  39 2.54
  28  0.516  0.491  0.464-  10 2.34  31 2.34  14 2.34   5 2.34  30 2.34  19 2.34  13 2.34  26 2.34
                            29 2.34  21 2.35  23 2.35  27 2.36
  29  0.517  0.374  0.464-  55 2.30  28 2.34  43 2.39  45 2.41  53 2.41  52 2.42  51 2.42  30 2.46
                            26 2.46  27 2.46  21 2.47  31 2.47
  30  0.616  0.440  0.432-  54 2.30  28 2.34  53 2.41  38 2.41  49 2.41  36 2.41  37 2.41  14 2.46
                            21 2.46  29 2.46  23 2.46  31 2.47
  31  0.578  0.439  0.549-  46 2.29  28 2.34  34 2.40  38 2.41  41 2.41  45 2.41  44 2.43  13 2.46
                            29 2.47  27 2.47  14 2.47  30 2.47
  32  0.679  0.600  0.411-  14 2.40  23 2.41  33 2.44  35 2.44   6 2.51   7 2.51  36 2.52  37 2.53

  33  0.712  0.596  0.528-  14 2.29  15 2.43  32 2.44  34 2.44  37 2.44   7 2.45
  34  0.680  0.493  0.584-  31 2.40  14 2.41  33 2.44  46 2.44  41 2.49  15 2.50  37 2.52  38 2.53

  35  0.637  0.596  0.297-  23 2.29   6 2.44  32 2.44  22 2.44  36 2.44  20 2.44
  36  0.681  0.493  0.345-  23 2.41  30 2.41  35 2.44  54 2.44  37 2.51  22 2.51  49 2.52  32 2.52

  37  0.719  0.493  0.464-  14 2.40  30 2.41  54 2.43  33 2.44  38 2.51  36 2.51  34 2.52  32 2.53

  38  0.681  0.386  0.517-  30 2.41  31 2.41  46 2.44  54 2.44  53 2.50  37 2.51  45 2.52  34 2.53

  39  0.455  0.495  0.662-  56 2.06  40 2.40  13 2.42  41 2.49  11 2.49  27 2.54   9 2.58  44 2.58
                            42 2.74
  40  0.517  0.597  0.671-  13 2.31  39 2.40  15 2.42  12 2.42  11 2.46  41 2.46
  41  0.579  0.492  0.657-  13 2.40  31 2.41  46 2.45  40 2.46  39 2.49  34 2.49  15 2.51  44 2.54

  42  0.392  0.378  0.628-  56 2.05  27 2.33  25 2.39  43 2.39   9 2.50  44 2.50  39 2.74
  43  0.456  0.316  0.548-  29 2.39  42 2.39  27 2.42  55 2.43  45 2.49  51 2.50  25 2.52  44 2.56

  44  0.516  0.384  0.638-  27 2.41  31 2.43  46 2.46  42 2.50  45 2.52  41 2.54  43 2.56  39 2.58

  45  0.580  0.319  0.551-  29 2.41  31 2.41  46 2.44  55 2.45  43 2.49  38 2.52  44 2.52  53 2.53

  46  0.639  0.388  0.632-  31 2.29  38 2.44  34 2.44  45 2.44  41 2.45  44 2.46
  47  0.416  0.383  0.324-  21 2.41  26 2.42  50 2.43  48 2.44  52 2.49  51 2.50  18 2.51  17 2.52

  48  0.518  0.388  0.256-  21 2.29  22 2.44  52 2.44  47 2.44  18 2.44  49 2.44
  49  0.619  0.385  0.324-  30 2.41  21 2.41  48 2.44  54 2.44  53 2.51  52 2.51  36 2.52  22 2.52

  50  0.320  0.385  0.398-  26 2.30  17 2.43  47 2.43  25 2.43  24 2.45  51 2.45
  51  0.417  0.316  0.430-  26 2.42  29 2.42  55 2.45  50 2.45  25 2.50  43 2.50  52 2.50  47 2.50

  52  0.518  0.318  0.357-  21 2.41  29 2.42  55 2.43  48 2.44  47 2.49  51 2.50  49 2.51  53 2.52

  53  0.620  0.319  0.431-  30 2.41  29 2.41  55 2.43  54 2.43  38 2.50  49 2.51  52 2.52  45 2.53

  54  0.715  0.390  0.400-  30 2.30  37 2.43  53 2.43  49 2.44  38 2.44  36 2.44
  55  0.520  0.259  0.462-  29 2.30  53 2.43  52 2.43  43 2.43  51 2.45  45 2.45
  56  0.396  0.430  0.716-  42 2.05  39 2.06
 
  LATTYP: Found a simple cubic cell.
 ALAT       =    20.0000000000
  
  Lattice vectors:
  
 A1 = (  20.0000000000,   0.0000000000,   0.0000000000)
 A2 = (   0.0000000000,  20.0000000000,   0.0000000000)
 A3 = (   0.0000000000,   0.0000000000,  20.0000000000)


Analysis of symmetry for initial positions (statically):
=====================================================================
 Subroutine PRICEL returns:
 Original cell was already a primitive cell.
 

 Routine SETGRP: Setting up the symmetry group for a 
 simple cubic supercell.


 Subroutine GETGRP returns: Found  1 space group operations
 (whereof  1 operations were pure point group operations)
 out of a pool of 48 trial point group operations.


The static configuration has the point symmetry C_1 .


Analysis of symmetry for dynamics (positions and initial velocities):
=====================================================================
 Subroutine PRICEL returns:
 Original cell was already a primitive cell.
 

 Routine SETGRP: Setting up the symmetry group for a 
 simple cubic supercell.


 Subroutine GETGRP returns: Found  1 space group operations
 (whereof  1 operations were pure point group operations)
 out of a pool of 48 trial point group operations.


The dynamic configuration has the point symmetry C_1 .


Analysis of structural, dynamic, and magnetic symmetry:
=====================================================================
 Subroutine PRICEL returns:
 Original cell was already a primitive cell.
 

 Routine SETGRP: Setting up the symmetry group for a 
 simple cubic supercell.


 Subroutine GETGRP returns: Found  1 space group operations
 (whereof  1 operations were pure point group operations)
 out of a pool of 48 trial point group operations.


The magnetic configuration has the point symmetry C_1 .


 Subroutine INISYM returns: Found  1 space group operations
 (whereof  1 operations are pure point group operations),
 and found     1 'primitive' translations

 
 
 KPOINTS: 4x2x1                                   

Automatic generation of k-mesh.
Space group operators:
 irot       det(A)        alpha          n_x          n_y          n_z        tau_x        tau_y        tau_z
    1     1.000000     0.000000     1.000000     0.000000     0.000000     0.000000     0.000000     0.000000
 
 Subroutine IBZKPT returns following result:
 ===========================================
 
 Found      1 irreducible k-points:
 
 Following reciprocal coordinates:
            Coordinates               Weight
  0.000000  0.000000  0.000000      1.000000
 
 Following cartesian coordinates:
            Coordinates               Weight
  0.000000  0.000000  0.000000      1.000000
 


--------------------------------------------------------------------------------------------------------




 Dimension of arrays:
   k-points           NKPTS =      1   k-points in BZ     NKDIM =      1   number of bands    NBANDS=    380
   number of dos      NEDOS =    301   number of ions     NIONS =     56
   non local maximal  LDIM  =      6   non local SUM 2l+1 LMDIM =     18
   total plane-waves  NPLWV = 941192
   max r-space proj   IRMAX =   1346   max aug-charges    IRDMAX=   4013
   dimension x,y,z NGX =    98 NGY =   98 NGZ =   98
   dimension x,y,z NGXF=   196 NGYF=  196 NGZF=  196
   support grid    NGXF=   196 NGYF=  196 NGZF=  196
   ions per type =              55   1
   NGX,Y,Z   is equivalent  to a cutoff of   8.15,  8.15,  8.15 a.u.
   NGXF,Y,Z  is equivalent  to a cutoff of  16.29, 16.29, 16.29 a.u.

 SYSTEM =  single                                  
 POSCAR =  Ni   S                                  

 Startparameter for this run:
   NWRITE =      1    write-flag & timer
   PREC   = normal    normal or accurate (medium, high low for compatibility)
   ISTART =      0    job   : 0-new  1-cont  2-samecut
   ICHARG =      2    charge: 1-file 2-atom 10-const
   ISPIN  =      2    spin polarized calculation?
   LNONCOLLINEAR =      F non collinear calculations
   LSORBIT =      F    spin-orbit coupling
   INIWAV =      1    electr: 0-lowe 1-rand  2-diag
   LASPH  =      F    aspherical Exc in radial PAW
   METAGGA=      F    non-selfconsistent MetaGGA calc.

 Electronic Relaxation 1
   ENCUT  =  400.0 eV  29.40 Ry    5.42 a.u.  32.61 32.61 32.61*2*pi/ulx,y,z
   ENINI  =  400.0     initial cutoff
   ENAUG  =  544.6 eV  augmentation charge cutoff
   NELM   =    100;   NELMIN=  2; NELMDL= -5     # of ELM steps 
   EDIFF  = 0.1E-05   stopping-criterion for ELM
   LREAL  =      T    real-space projection
   NLSPLINE    = F    spline interpolate recip. space projectors
   LCOMPAT=      F    compatible to vasp.4.4
   GGA_COMPAT  = T    GGA compatible to vasp.4.4-vasp.4.6
   LMAXPAW     = -100 max onsite density
   LMAXMIX     =    2 max onsite mixed and CHGCAR
   VOSKOWN=      0    Vosko Wilk Nusair interpolation
   ROPT   =   -0.00050  -0.00050
 Ionic relaxation
   EDIFFG = 0.1E-04   stopping-criterion for IOM
   NSW    =      0    number of steps for IOM
   NBLOCK =      1;   KBLOCK =      1    inner block; outer block 
   IBRION =     -1    ionic relax: 0-MD 1-quasi-New 2-CG
   NFREE  =      0    steps in history (QN), initial steepest desc. (CG)
   ISIF   =      2    stress and relaxation
   IWAVPR =     10    prediction:  0-non 1-charg 2-wave 3-comb
   ISYM   =      2    0-nonsym 1-usesym 2-fastsym
   LCORR  =      T    Harris-Foulkes like correction to forces

   POTIM  = 0.5000    time-step for ionic-motion
   TEIN   =    0.0    initial temperature
   TEBEG  =    0.0;   TEEND  =   0.0 temperature during run
   SMASS  =  -3.00    Nose mass-parameter (am)
   estimated Nose-frequenzy (Omega)   =  0.10E-29 period in steps =****** mass=  -0.914E-26a.u.
   SCALEE = 1.0000    scale energy and forces
   NPACO  =    256;   APACO  = 16.0  distance and # of slots for P.C.
   PSTRESS=    0.0 pullay stress

  Mass of Ions in am
   POMASS =  58.69 32.07
  Ionic Valenz
   ZVAL   =  10.00  6.00
  Atomic Wigner-Seitz radii
   RWIGS  =  -1.00 -1.00
  virtual crystal weights 
   VCA    =   1.00  1.00
   NELECT =     556.0000    total number of electrons
   NUPDOWN=      -1.0000    fix difference up-down

 DOS related values:
   EMIN   =  10.00;   EMAX   =-10.00  energy-range for DOS
   EFERMI =   0.00
   ISMEAR =     0;   SIGMA  =   0.10  broadening in eV -4-tet -1-fermi 0-gaus

 Electronic relaxation 2 (details)
   IALGO  =     68    algorithm
   LDIAG  =      T    sub-space diagonalisation (order eigenvalues)
   LSUBROT=      F    optimize rotation matrix (better conditioning)
   TURBO    =      0    0=normal 1=particle mesh
   IRESTART =      0    0=no restart 2=restart with 2 vectors
   NREBOOT  =      0    no. of reboots
   NMIN     =      0    reboot dimension
   EREF     =   0.00    reference energy to select bands
   IMIX   =      4    mixing-type and parameters
     AMIX     =   0.40;   BMIX     =  1.00
     AMIX_MAG =   1.60;   BMIX_MAG =  1.00
     AMIN     =   0.10
     WC   =   100.;   INIMIX=   1;  MIXPRE=   1;  MAXMIX= -45

 Intra band minimization:
   WEIMIN = 0.0000     energy-eigenvalue tresh-hold
   EBREAK =  0.66E-09  absolut break condition
   DEPER  =   0.30     relativ break condition  

   TIME   =   0.40     timestep for ELM

  volume/ion in A,a.u.               =     142.86       964.05
  Fermi-wavevector in a.u.,A,eV,Ry     =   0.673085  1.271946  6.164026  0.453043
  Thomas-Fermi vector in A             =   1.749399
 
 Write flags
   LWAVE        =      F    write WAVECAR
   LDOWNSAMPLE  =      F    k-point downsampling of WAVECAR
   LCHARG       =      F    write CHGCAR
   LVTOT        =      F    write LOCPOT, total local potential
   LVHAR        =      F    write LOCPOT, Hartree potential only
   LELF         =      F    write electronic localiz. function (ELF)
   LORBIT       =      0    0 simple, 1 ext, 2 COOP (PROOUT), +10 PAW based schemes


 Dipole corrections
   LMONO  =      F    monopole corrections only (constant potential shift)
   LDIPOL =      F    correct potential (dipole corrections)
   IDIPOL =      0    1-x, 2-y, 3-z, 4-all directions 
   EPSILON=  1.0000000 bulk dielectric constant

 Exchange correlation treatment:
   GGA     =    --    GGA type
   LEXCH   =     8    internal setting for exchange type
   VOSKOWN=      0    Vosko Wilk Nusair interpolation
   LHFCALC =     F    Hartree Fock is set to
   LHFONE  =     F    Hartree Fock one center treatment
   AEXX    =    0.0000 exact exchange contribution

 Linear response parameters
   LEPSILON=     F    determine dielectric tensor
   LRPA    =     F    only Hartree local field effects (RPA)
   LNABLA  =     F    use nabla operator in PAW spheres
   LVEL    =     F    velocity operator in full k-point grid
   LINTERFAST=   F  fast interpolation
   KINTER  =     0    interpolate to denser k-point grid
   CSHIFT  =0.1000    complex shift for real part using Kramers Kronig
   OMEGAMAX=  -1.0    maximum frequency
   DEG_THRESHOLD= 0.2000000E-02 threshold for treating states as degnerate
   RTIME   =   -0.100 relaxation time in fs
  (WPLASMAI=    0.000 imaginary part of plasma frequency in eV, 0.658/RTIME)
   DFIELD  = 0.0000000 0.0000000 0.0000000 field for delta impulse in time
 
 Orbital magnetization related:
   ORBITALMAG=     F  switch on orbital magnetization
   LCHIMAG   =     F  perturbation theory with respect to B field
   DQ        =  0.001000  dq finite difference perturbation B field
   LLRAUG    =     F  two centre corrections for induced B field



--------------------------------------------------------------------------------------------------------


 Static calculation
 charge density and potential will be updated during run
 spin polarized calculation
 RMM-DIIS sequential band-by-band and
  variant of blocked Davidson during initial phase
 perform sub-space diagonalisation
    before iterative eigenvector-optimisation
 modified Broyden-mixing scheme, WC =      100.0
 initial mixing is a Kerker type mixing with AMIX =  0.4000 and BMIX =      1.0000
 Hartree-type preconditioning will be used
 using additional bands          102
 real space projection scheme for non local part
 use partial core corrections
 calculate Harris-corrections to forces 
   (improved forces if not selfconsistent)
 use gradient corrections 
 use of overlap-Matrix (Vanderbilt PP)
 Gauss-broadening in eV      SIGMA  =   0.10


--------------------------------------------------------------------------------------------------------


  energy-cutoff  :      400.00
  volume of cell :     8000.00
      direct lattice vectors                 reciprocal lattice vectors
    20.000000000  0.000000000  0.000000000     0.050000000  0.000000000  0.000000000
     0.000000000 20.000000000  0.000000000     0.000000000  0.050000000  0.000000000
     0.000000000  0.000000000 20.000000000     0.000000000  0.000000000  0.050000000

  length of vectors
    20.000000000 20.000000000 20.000000000     0.050000000  0.050000000  0.050000000


 
 k-points in units of 2pi/SCALE and weight: 4x2x1                                   
   0.00000000  0.00000000  0.00000000       1.000
 
 k-points in reciprocal lattice and weights: 4x2x1                                   
   0.00000000  0.00000000  0.00000000       1.000
 
 position of ions in fractional coordinates (direct lattice) 
   0.35059555  0.59501761  0.41086543
   0.45090719  0.66294973  0.37765121
   0.41284110  0.66208230  0.49770400
   0.51307191  0.72269137  0.46387751
   0.51485246  0.60796112  0.46322502
   0.57724527  0.66495149  0.37800875
   0.61566083  0.66500530  0.49736674
   0.31782748  0.59188781  0.52822603
   0.35160115  0.48832847  0.58490320
   0.41603084  0.54190472  0.49701160
   0.41381305  0.59727561  0.60413243
   0.51431278  0.66410087  0.57011240
   0.51550615  0.54345423  0.56919207
   0.61537036  0.54424618  0.49581643
   0.61701398  0.59909788  0.60332705
   0.39303065  0.59336239  0.29641129
   0.35195965  0.48919791  0.34432238
   0.45335450  0.49046312  0.27068606
   0.45397105  0.54230696  0.37934703
   0.51503518  0.59810181  0.29149918
   0.51687588  0.43874827  0.35923951
   0.57918523  0.49211839  0.27081487
   0.57729139  0.54417715  0.37923060
   0.31308234  0.48771696  0.46490179
   0.35294458  0.38099878  0.51508225
   0.41716471  0.43728441  0.43168409
   0.45461585  0.43690987  0.54904469
   0.51610223  0.49100055  0.46439627
   0.51748933  0.37377222  0.46401456
   0.61613368  0.43961384  0.43154867
   0.57795176  0.43935093  0.54913751
   0.67937995  0.60011617  0.41101122
   0.71224786  0.59647954  0.52821633
   0.67978949  0.49301492  0.58386700
   0.63693586  0.59638567  0.29678873
   0.68071337  0.49313160  0.34483779
   0.71934766  0.49278009  0.46432851
   0.68100622  0.38568624  0.51735863
   0.45497966  0.49503441  0.66200225
   0.51679361  0.59738556  0.67109172
   0.57931035  0.49243135  0.65741032
   0.39199795  0.37810961  0.62783357
   0.45565135  0.31599706  0.54816624
   0.51645231  0.38396810  0.63799405
   0.57999760  0.31865291  0.55083477
   0.63896848  0.38849968  0.63167895
   0.41634413  0.38278048  0.32384759
   0.51777046  0.38794470  0.25639869
   0.61920413  0.38541630  0.32407053
   0.32025208  0.38518031  0.39811756
   0.41660206  0.31618169  0.42958118
   0.51793665  0.31846450  0.35653653
   0.61998664  0.31942327  0.43061121
   0.71463740  0.38960072  0.40006729
   0.51987398  0.25876216  0.46229702
   0.39626656  0.42994809  0.71627353
 
 position of ions in cartesian coordinates  (Angst):
   7.01191095 11.90035218  8.21730860
   9.01814379 13.25899454  7.55302414
   8.25682202 13.24164601  9.95407994
  10.26143828 14.45382740  9.27755023
  10.29704917 12.15922241  9.26450034
  11.54490543 13.29902981  7.56017491
  12.31321652 13.30010595  9.94733486
   6.35654954 11.83775618 10.56452056
   7.03202300  9.76656946 11.69806398
   8.32061675 10.83809439  9.94023208
   8.27626108 11.94551226 12.08264866
  10.28625565 13.28201742 11.40224791
  10.31012294 10.86908461 11.38384142
  12.30740714 10.88492368  9.91632855
  12.34027970 11.98195768 12.06654104
   7.86061301 11.86724774  5.92822583
   7.03919307  9.78395827  6.88644766
   9.06709010  9.80926241  5.41372129
   9.07942104 10.84613928  7.58694054
  10.30070367 11.96203630  5.82998368
  10.33751768  8.77496543  7.18479014
  11.58370468  9.84236785  5.41629747
  11.54582776 10.88354310  7.58461195
   6.26164680  9.75433928  9.29803571
   7.05889164  7.61997563 10.30164498
   8.34329427  8.74568819  8.63368171
   9.09231698  8.73819744 10.98089379
  10.32204463  9.82001107  9.28792539
  10.34978650  7.47544450  9.28029125
  12.32267366  8.79227680  8.63097341
  11.55903527  8.78701864 10.98275027
  13.58759890 12.00232343  8.22022434
  14.24495730 11.92959083 10.56432666
  13.59578982  9.86029834 11.67734004
  12.73871725 11.92771342  5.93577462
  13.61426732  9.86263203  6.89675573
  14.38695318  9.85560176  9.28657026
  13.62012438  7.71372485 10.34717263
   9.09959327  9.90068830 13.24004503
  10.33587214 11.94771122 13.42183447
  11.58620693  9.84862708 13.14820641
   7.83995896  7.56219229 12.55667141
   9.11302691  6.31994119 10.96332490
  10.32904630  7.67936196 12.75988096
  11.59995194  6.37305821 11.01669547
  12.77936954  7.76999360 12.63357898
   8.32688258  7.65560965  6.47695178
  10.35540923  7.75889403  5.12797383
  12.38408258  7.70832603  6.48141051
   6.40504162  7.70360627  7.96235125
   8.33204113  6.32363379  8.59162370
  10.35873290  6.36929007  7.13073070
  12.39973272  6.38846535  8.61222413
  14.29274802  7.79201437  8.00134571
  10.39747960  5.17524325  9.24594048
   7.92533110  8.59896170 14.32547054
 


--------------------------------------------------------------------------------------------------------


 k-point  1 :   0.0000 0.0000 0.0000  plane waves:  145165

 maximum and minimum number of plane-waves per node :    145165   145165

 maximum number of plane-waves:    145165
 maximum index in each direction: 
   IXMAX=   32   IYMAX=   32   IZMAX=   32
   IXMIN=  -32   IYMIN=  -32   IZMIN=  -32


 serial   3D FFT for wavefunctions
 parallel 3D FFT for charge:
    minimum data exchange during FFTs selected (reduces bandwidth)


 total amount of memory used by VASP MPI-rank0   256269. kBytes
=======================================================================

   base      :      30000. kBytes
   nonlr-proj:      12277. kBytes
   fftplans  :      16788. kBytes
   grid      :     106586. kBytes
   one-center:       1741. kBytes
   wavefun   :      88877. kBytes
 
     INWAV:  cpu time    0.0000: real time    0.0001
 Broyden mixing: mesh for mixing (old mesh)
   NGX = 65   NGY = 65   NGZ = 65
  (NGX  =196   NGY  =196   NGZ  =196)
  gives a total of 274625 points

 initial charge density was supplied:
 charge density of overlapping atoms calculated
 number of electron     556.0000000 magnetization      56.0000000
 keeping initial charge density in first step


--------------------------------------------------------------------------------------------------------


 Maximum index for non-local projection operator         1275
 Maximum index for augmentation-charges          289 (set IRDMAX)


--------------------------------------------------------------------------------------------------------


 First call to EWALD:  gamma=   0.089
 Maximum number of real-space cells 3x 3x 3
 Maximum number of reciprocal cells 3x 3x 3

    FEWALD:  cpu time    0.0050: real time    0.0038


--------------------------------------- Iteration      1(   1)  ---------------------------------------


    POTLOK:  cpu time    0.9669: real time    0.9723
    SETDIJ:  cpu time    0.0240: real time    0.0239
     EDDAV:  cpu time   22.9695: real time   23.1007
       DOS:  cpu time    0.0030: real time    0.0033
    --------------------------------------------
      LOOP:  cpu time   23.9634: real time   24.1001

 eigenvalue-minimisations  :  1520
 total energy-change (2. order) : 0.2844869E+04  (-0.1616256E+05)
 number of electron     556.0000000 magnetization      56.0000000
 augmentation part      556.0000000 magnetization      56.0000000

 Free energy of the ion-electron system (eV)
  ---------------------------------------------------
  alpha Z        PSCENC =       387.12086559
  Ewald energy   TEWEN  =    182189.62761590
  -Hartree energ DENC   =   -236952.55219042
  -exchange      EXHF   =         0.00000000
  -V(xc)+E(xc)   XCENC  =      1724.63635971
  PAW double counting   =     47977.39182462   -51648.67119642
  entropy T*S    EENTRO =        -0.42562645
  eigenvalues    EBANDS =      -393.16160456
  atomic energy  EATOM  =     59560.90262231
  Solvation  Ediel_sol  =         0.00000000
  ---------------------------------------------------
  free energy    TOTEN  =      2844.86867030 eV

  energy without entropy =     2845.29429674  energy(sigma->0) =     2845.08148352


--------------------------------------------------------------------------------------------------------




--------------------------------------- Iteration      1(   2)  ---------------------------------------


     EDDAV:  cpu time   24.3483: real time   24.4559
       DOS:  cpu time    0.0030: real time    0.0033
    --------------------------------------------
      LOOP:  cpu time   24.3513: real time   24.4592

 eigenvalue-minimisations  :  1640
 total energy-change (2. order) :-0.2986770E+04  (-0.2886813E+04)
 number of electron     556.0000000 magnetization      56.0000000
 augmentation part      556.0000000 magnetization      56.0000000

 Free energy of the ion-electron system (eV)
  ---------------------------------------------------
  alpha Z        PSCENC =       387.12086559
  Ewald energy   TEWEN  =    182189.62761590
  -Hartree energ DENC   =   -236952.55219042
  -exchange      EXHF   =         0.00000000
  -V(xc)+E(xc)   XCENC  =      1724.63635971
  PAW double counting   =     47977.39182462   -51648.67119642
  entropy T*S    EENTRO =        -0.56841514
  eigenvalues    EBANDS =     -3379.78919941
  atomic energy  EATOM  =     59560.90262231
  Solvation  Ediel_sol  =         0.00000000
  ---------------------------------------------------
  free energy    TOTEN  =      -141.90171325 eV

  energy without entropy =     -141.33329811  energy(sigma->0) =     -141.61750568


--------------------------------------------------------------------------------------------------------




--------------------------------------- Iteration      1(   3)  ---------------------------------------


     EDDAV:  cpu time   26.5600: real time   26.7084
       DOS:  cpu time    0.0030: real time    0.0033
    --------------------------------------------
      LOOP:  cpu time   26.5630: real time   26.7117

 eigenvalue-minimisations  :  1840
 total energy-change (2. order) :-0.1608367E+03  (-0.1532917E+03)
 number of electron     556.0000000 magnetization      56.0000000
 augmentation part      556.0000000 magnetization      56.0000000

 Free energy of the ion-electron system (eV)
  ---------------------------------------------------
  alpha Z        PSCENC =       387.12086559
  Ewald energy   TEWEN  =    182189.62761590
  -Hartree energ DENC   =   -236952.55219042
  -exchange      EXHF   =         0.00000000
  -V(xc)+E(xc)   XCENC  =      1724.63635971
  PAW double counting   =     47977.39182462   -51648.67119642
  entropy T*S    EENTRO =        -0.49575173
  eigenvalues    EBANDS =     -3540.69857568
  atomic energy  EATOM  =     59560.90262231
  Solvation  Ediel_sol  =         0.00000000
  ---------------------------------------------------
  free energy    TOTEN  =      -302.73842612 eV

  energy without entropy =     -302.24267438  energy(sigma->0) =     -302.49055025


--------------------------------------------------------------------------------------------------------




--------------------------------------- Iteration      1(   4)  ---------------------------------------


     EDDAV:  cpu time   24.5103: real time   24.6350
       DOS:  cpu time    0.0030: real time    0.0032
    --------------------------------------------
      LOOP:  cpu time   24.5133: real time   24.6383

 eigenvalue-minimisations  :  1640
 total energy-change (2. order) :-0.3880432E+01  (-0.3815964E+01)
 number of electron     556.0000000 magnetization      56.0000000
 augmentation part      556.0000000 magnetization      56.0000000

 Free energy of the ion-electron system (eV)
  ---------------------------------------------------
  alpha Z        PSCENC =       387.12086559
  Ewald energy   TEWEN  =    182189.62761590
  -Hartree energ DENC   =   -236952.55219042
  -exchange      EXHF   =         0.00000000
  -V(xc)+E(xc)   XCENC  =      1724.63635971
  PAW double counting   =     47977.39182462   -51648.67119642
  entropy T*S    EENTRO =        -0.50681544
  eigenvalues    EBANDS =     -3544.56794360
  atomic energy  EATOM  =     59560.90262231
  Solvation  Ediel_sol  =         0.00000000
  ---------------------------------------------------
  free energy    TOTEN  =      -306.61885774 eV

  energy without entropy =     -306.11204230  energy(sigma->0) =     -306.36545002


--------------------------------------------------------------------------------------------------------




--------------------------------------- Iteration      1(   5)  ---------------------------------------


     EDDAV:  cpu time   25.5941: real time   25.7211
       DOS:  cpu time    0.0030: real time    0.0033
    CHARGE:  cpu time    1.1158: real time    1.1226
    MIXING:  cpu time    0.0160: real time    0.0152
    --------------------------------------------
      LOOP:  cpu time   26.7289: real time   26.8622

 eigenvalue-minimisations  :  1740
 total energy-change (2. order) :-0.8141497E-01  (-0.8136675E-01)
 number of electron     556.0000269 magnetization      54.8553874
 augmentation part      315.9559322 magnetization      45.8070435

 Broyden mixing:
  rms(total) = 0.54389E+01    rms(broyden)= 0.54381E+01
  rms(prec ) = 0.59737E+01
  weight for this iteration     100.00

 Free energy of the ion-electron system (eV)
  ---------------------------------------------------
  alpha Z        PSCENC =       387.12086559
  Ewald energy   TEWEN  =    182189.62761590
  -Hartree energ DENC   =   -236952.55219042
  -exchange      EXHF   =         0.00000000
  -V(xc)+E(xc)   XCENC  =      1724.63635971
  PAW double counting   =     47977.39182462   -51648.67119642
  entropy T*S    EENTRO =        -0.50714989
  eigenvalues    EBANDS =     -3544.64902412
  atomic energy  EATOM  =     59560.90262231
  Solvation  Ediel_sol  =         0.00000000
  ---------------------------------------------------
  free energy    TOTEN  =      -306.70027271 eV

  energy without entropy =     -306.19312283  energy(sigma->0) =     -306.44669777


--------------------------------------------------------------------------------------------------------




--------------------------------------- Iteration      1(   6)  ---------------------------------------


    POTLOK:  cpu time    0.9499: real time    0.9534
    SETDIJ:  cpu time    0.0230: real time    0.0231
    EDDIAG:  cpu time    4.8373: real time    4.8569
  RMM-DIIS:  cpu time   10.2504: real time   10.3015
    ORTHCH:  cpu time    1.6617: real time    1.6666
       DOS:  cpu time    0.0020: real time    0.0020
    CHARGE:  cpu time    1.0568: real time    1.0987
    MIXING:  cpu time    0.0170: real time    0.0165
    --------------------------------------------
      LOOP:  cpu time   18.7981: real time   18.9187

 eigenvalue-minimisations  :  1632
 total energy-change (2. order) :-0.8587654E+02  (-0.5852134E+02)
 number of electron     556.0000307 magnetization      53.9030256
 augmentation part      349.0527649 magnetization      49.7163087

 Broyden mixing:
  rms(total) = 0.13051E+02    rms(broyden)= 0.13051E+02
  rms(prec ) = 0.15110E+02
  weight for this iteration     100.00

 eigenvalues of (default mixing * dielectric matrix)
  average eigenvalue GAMMA=   0.2215
  0.2215

 Free energy of the ion-electron system (eV)
  ---------------------------------------------------
  alpha Z        PSCENC =       387.12086559
  Ewald energy   TEWEN  =    182189.62761590
  -Hartree energ DENC   =   -236249.72733175
  -exchange      EXHF   =         0.00000000
  -V(xc)+E(xc)   XCENC  =      1671.49904512
  PAW double counting   =     47677.87890543   -51162.99727652
  entropy T*S    EENTRO =        -0.23846373
  eigenvalues    EBANDS =     -4466.64279918
  atomic energy  EATOM  =     59560.90262231
  Solvation  Ediel_sol  =         0.00000000
  ---------------------------------------------------
  free energy    TOTEN  =      -392.57681683 eV

  energy without entropy =     -392.33835310  energy(sigma->0) =     -392.45758496


--------------------------------------------------------------------------------------------------------




--------------------------------------- Iteration      1(   7)  ---------------------------------------


    POTLOK:  cpu time    0.9489: real time    0.9536
    SETDIJ:  cpu time    0.0230: real time    0.0237
    EDDIAG:  cpu time    4.8343: real time    4.8584
  RMM-DIIS:  cpu time   10.5214: real time   10.5698
    ORTHCH:  cpu time    1.6577: real time    1.6644
       DOS:  cpu time    0.0020: real time    0.0018
    CHARGE:  cpu time    1.1008: real time    1.1049
    MIXING:  cpu time    0.0160: real time    0.0156
    --------------------------------------------
      LOOP:  cpu time   19.1041: real time   19.1921

 eigenvalue-minimisations  :  1652
 total energy-change (2. order) : 0.6405334E+02  (-0.2773421E+02)
 number of electron     556.0000255 magnetization      53.0820483
 augmentation part      350.9042968 magnetization      45.3452379

 Broyden mixing:
  rms(total) = 0.77460E+01    rms(broyden)= 0.77448E+01
  rms(prec ) = 0.86405E+01
  weight for this iteration     100.00

 eigenvalues of (default mixing * dielectric matrix)
  average eigenvalue GAMMA=   0.2383
  0.3052  0.1714

 Free energy of the ion-electron system (eV)
  ---------------------------------------------------
  alpha Z        PSCENC =       387.12086559
  Ewald energy   TEWEN  =    182189.62761590
  -Hartree energ DENC   =   -236114.89614224
  -exchange      EXHF   =         0.00000000
  -V(xc)+E(xc)   XCENC  =      1675.93656611
  PAW double counting   =     47976.36443359   -51517.17705257
  entropy T*S    EENTRO =        -0.77372094
  eigenvalues    EBANDS =     -4485.62866039
  atomic energy  EATOM  =     59560.90262231
  Solvation  Ediel_sol  =         0.00000000
  ---------------------------------------------------
  free energy    TOTEN  =      -328.52347263 eV

  energy without entropy =     -327.74975168  energy(sigma->0) =     -328.13661215


--------------------------------------------------------------------------------------------------------




--------------------------------------- Iteration      1(   8)  ---------------------------------------


    POTLOK:  cpu time    0.9419: real time    0.9472
    SETDIJ:  cpu time    0.0250: real time    0.0238
    EDDIAG:  cpu time    4.8403: real time    4.8603
  RMM-DIIS:  cpu time    9.7725: real time    9.8186
    ORTHCH:  cpu time    1.6547: real time    1.6621
       DOS:  cpu time    0.0020: real time    0.0014
    CHARGE:  cpu time    1.1028: real time    1.1075
    MIXING:  cpu time    0.0180: real time    0.0179
    --------------------------------------------
      LOOP:  cpu time   18.3572: real time   18.4388

 eigenvalue-minimisations  :  1552
 total energy-change (2. order) : 0.3652138E+02  (-0.1034066E+02)
 number of electron     556.0000357 magnetization      52.1476422
 augmentation part      346.1239117 magnetization      43.0630573

 Broyden mixing:
  rms(total) = 0.96646E+01    rms(broyden)= 0.96639E+01
  rms(prec ) = 0.10690E+02
  weight for this iteration     100.00

 eigenvalues of (default mixing * dielectric matrix)
  average eigenvalue GAMMA=   0.3097
  0.6256  0.1518  0.1518

 Free energy of the ion-electron system (eV)
  ---------------------------------------------------
  alpha Z        PSCENC =       387.12086559
  Ewald energy   TEWEN  =    182189.62761590
  -Hartree energ DENC   =   -236414.75104777
  -exchange      EXHF   =         0.00000000
  -V(xc)+E(xc)   XCENC  =      1682.43753225
  PAW double counting   =     48498.06152643   -52119.20879779
  entropy T*S    EENTRO =        -0.39254014
  eigenvalues    EBANDS =     -4075.79986621
  atomic energy  EATOM  =     59560.90262231
  Solvation  Ediel_sol  =         0.00000000
  ---------------------------------------------------
  free energy    TOTEN  =      -292.00208943 eV

  energy without entropy =     -291.60954929  energy(sigma->0) =     -291.80581936


--------------------------------------------------------------------------------------------------------




--------------------------------------- Iteration      1(   9)  ---------------------------------------


    POTLOK:  cpu time    0.9479: real time    0.9518
    SETDIJ:  cpu time    0.0240: real time    0.0228
    EDDIAG:  cpu time    4.8323: real time    4.8533
  RMM-DIIS:  cpu time    9.8675: real time    9.9614
    ORTHCH:  cpu time    1.6577: real time    1.6647
       DOS:  cpu time    0.0020: real time    0.0014
    CHARGE:  cpu time    1.1028: real time    1.1076
    MIXING:  cpu time    0.0200: real time    0.0189
    --------------------------------------------
      LOOP:  cpu time   18.4542: real time   18.5820

 eigenvalue-minimisations  :  1583
 total energy-change (2. order) : 0.2602262E+02  (-0.4557756E+01)
 number of electron     556.0000286 magnetization      51.9085981
 augmentation part      340.0648505 magnetization      42.8077961

 Broyden mixing:
  rms(total) = 0.50791E+01    rms(broyden)= 0.50781E+01
  rms(prec ) = 0.56190E+01
  weight for this iteration     100.00

 eigenvalues of (default mixing * dielectric matrix)
  average eigenvalue GAMMA=   0.2751
  0.6413  0.1797  0.1797  0.0995

 Free energy of the ion-electron system (eV)
  ---------------------------------------------------
  alpha Z        PSCENC =       387.12086559
  Ewald energy   TEWEN  =    182189.62761590
  -Hartree energ DENC   =   -236696.38225251
  -exchange      EXHF   =         0.00000000
  -V(xc)+E(xc)   XCENC  =      1688.14810140
  PAW double counting   =     48997.14374696   -52691.70597558
  entropy T*S    EENTRO =        -0.75250301
  eigenvalues    EBANDS =     -3700.08168717
  atomic energy  EATOM  =     59560.90262231
  Solvation  Ediel_sol  =         0.00000000
  ---------------------------------------------------
  free energy    TOTEN  =      -265.97946609 eV

  energy without entropy =     -265.22696308  energy(sigma->0) =     -265.60321459


--------------------------------------------------------------------------------------------------------




--------------------------------------- Iteration      1(  10)  ---------------------------------------


    POTLOK:  cpu time    0.9449: real time    0.9486
    SETDIJ:  cpu time    0.0230: real time    0.0234
    EDDIAG:  cpu time    4.8473: real time    4.8660
  RMM-DIIS:  cpu time    9.8995: real time    9.9326
    ORTHCH:  cpu time    1.6587: real time    1.6633
       DOS:  cpu time    0.0010: real time    0.0008
    CHARGE:  cpu time    1.1088: real time    1.1117
    MIXING:  cpu time    0.0200: real time    0.0200
    --------------------------------------------
      LOOP:  cpu time   18.5032: real time   18.5664

 eigenvalue-minimisations  :  1587
 total energy-change (2. order) : 0.1122291E+01  (-0.5544641E+00)
 number of electron     556.0000250 magnetization      51.3394632
 augmentation part      340.1905308 magnetization      42.2407520

 Broyden mixing:
  rms(total) = 0.51809E+01    rms(broyden)= 0.51801E+01
  rms(prec ) = 0.58468E+01
  weight for this iteration     100.00

 eigenvalues of (default mixing * dielectric matrix)
  average eigenvalue GAMMA=   0.2903
  0.7103  0.4012  0.1482  0.1211  0.0705

 Free energy of the ion-electron system (eV)
  ---------------------------------------------------
  alpha Z        PSCENC =       387.12086559
  Ewald energy   TEWEN  =    182189.62761590
  -Hartree energ DENC   =   -236718.93105742
  -exchange      EXHF   =         0.00000000
  -V(xc)+E(xc)   XCENC  =      1687.67776106
  PAW double counting   =     49074.58803099   -52775.69358167
  entropy T*S    EENTRO =        -0.64418936
  eigenvalues    EBANDS =     -3669.50524270
  atomic energy  EATOM  =     59560.90262231
  Solvation  Ediel_sol  =         0.00000000
  ---------------------------------------------------
  free energy    TOTEN  =      -264.85717529 eV

  energy without entropy =     -264.21298593  energy(sigma->0) =     -264.53508061


--------------------------------------------------------------------------------------------------------




--------------------------------------- Iteration      1(  11)  ---------------------------------------


    POTLOK:  cpu time    0.9449: real time    0.9490
    SETDIJ:  cpu time    0.0250: real time    0.0252
    EDDIAG:  cpu time    4.8363: real time    4.8489
  RMM-DIIS:  cpu time    9.8015: real time    9.8386
    ORTHCH:  cpu time    1.6627: real time    1.6670
       DOS:  cpu time    0.0020: real time    0.0012
    CHARGE:  cpu time    1.1048: real time    1.1089
    MIXING:  cpu time    0.0210: real time    0.0207
    --------------------------------------------
      LOOP:  cpu time   18.3982: real time   18.4595

 eigenvalue-minimisations  :  1579
 total energy-change (2. order) : 0.1901732E+01  (-0.5436118E+00)
 number of electron     556.0000241 magnetization      50.8759537
 augmentation part      339.8638739 magnetization      42.4450737

 Broyden mixing:
  rms(total) = 0.54076E+01    rms(broyden)= 0.54066E+01
  rms(prec ) = 0.61869E+01
  weight for this iteration     100.00

 eigenvalues of (default mixing * dielectric matrix)
  average eigenvalue GAMMA=   0.2783
  0.7801  0.4702  0.1408  0.1138  0.1138  0.0509

 Free energy of the ion-electron system (eV)
  ---------------------------------------------------
  alpha Z        PSCENC =       387.12086559
  Ewald energy   TEWEN  =    182189.62761590
  -Hartree energ DENC   =   -236773.05199433
  -exchange      EXHF   =         0.00000000
  -V(xc)+E(xc)   XCENC  =      1688.32341017
  PAW double counting   =     49257.44484302   -52973.17398333
  entropy T*S    EENTRO =        -0.53215539
  eigenvalues    EBANDS =     -3599.61666716
  atomic energy  EATOM  =     59560.90262231
  Solvation  Ediel_sol  =         0.00000000
  ---------------------------------------------------
  free energy    TOTEN  =      -262.95544322 eV

  energy without entropy =     -262.42328783  energy(sigma->0) =     -262.68936553


--------------------------------------------------------------------------------------------------------




--------------------------------------- Iteration      1(  12)  ---------------------------------------


    POTLOK:  cpu time    0.9499: real time    0.9527
    SETDIJ:  cpu time    0.0240: real time    0.0235
    EDDIAG:  cpu time    4.8433: real time    4.8576
  RMM-DIIS:  cpu time    9.8675: real time    9.9011
    ORTHCH:  cpu time    1.6607: real time    1.6648
       DOS:  cpu time    0.0020: real time    0.0021
    CHARGE:  cpu time    1.1078: real time    1.1122
    MIXING:  cpu time    0.0230: real time    0.0226
    --------------------------------------------
      LOOP:  cpu time   18.4782: real time   18.5365

 eigenvalue-minimisations  :  1575
 total energy-change (2. order) : 0.4174553E+01  (-0.3757389E+00)
 number of electron     556.0000314 magnetization      50.3145896
 augmentation part      339.4092998 magnetization      42.5254998

 Broyden mixing:
  rms(total) = 0.36815E+01    rms(broyden)= 0.36802E+01
  rms(prec ) = 0.41147E+01
  weight for this iteration     100.00

 eigenvalues of (default mixing * dielectric matrix)
  average eigenvalue GAMMA=   0.2670
  0.8231  0.4592  0.1643  0.1643  0.1382  0.0677  0.0520

 Free energy of the ion-electron system (eV)
  ---------------------------------------------------
  alpha Z        PSCENC =       387.12086559
  Ewald energy   TEWEN  =    182189.62761590
  -Hartree energ DENC   =   -236811.82452983
  -exchange      EXHF   =         0.00000000
  -V(xc)+E(xc)   XCENC  =      1688.68627341
  PAW double counting   =     49397.20933750   -53123.23709467
  entropy T*S    EENTRO =        -0.60096695
  eigenvalues    EBANDS =     -3546.66501351
  atomic energy  EATOM  =     59560.90262231
  Solvation  Ediel_sol  =         0.00000000
  ---------------------------------------------------
  free energy    TOTEN  =      -258.78089023 eV

  energy without entropy =     -258.17992328  energy(sigma->0) =     -258.48040676


--------------------------------------------------------------------------------------------------------




--------------------------------------- Iteration      1(  13)  ---------------------------------------


    POTLOK:  cpu time    0.9509: real time    0.9535
    SETDIJ:  cpu time    0.0240: real time    0.0236
    EDDIAG:  cpu time    4.8313: real time    4.8475
  RMM-DIIS:  cpu time    9.9085: real time    9.9427
    ORTHCH:  cpu time    1.6597: real time    1.6642
       DOS:  cpu time    0.0030: real time    0.0018
    CHARGE:  cpu time    1.1058: real time    1.1097
    MIXING:  cpu time    0.0230: real time    0.0230
    --------------------------------------------
      LOOP:  cpu time   18.5062: real time   18.5660

 eigenvalue-minimisations  :  1571
 total energy-change (2. order) : 0.2020898E+01  (-0.3199897E+00)
 number of electron     556.0000284 magnetization      50.1504691
 augmentation part      339.4107969 magnetization      42.4291338

 Broyden mixing:
  rms(total) = 0.30575E+01    rms(broyden)= 0.30567E+01
  rms(prec ) = 0.33916E+01
  weight for this iteration     100.00

 eigenvalues of (default mixing * dielectric matrix)
  average eigenvalue GAMMA=   0.2440
  0.8055  0.3417  0.2337  0.2337  0.1356  0.0759  0.0759  0.0502

 Free energy of the ion-electron system (eV)
  ---------------------------------------------------
  alpha Z        PSCENC =       387.12086559
  Ewald energy   TEWEN  =    182189.62761590
  -Hartree energ DENC   =   -236850.53931266
  -exchange      EXHF   =         0.00000000
  -V(xc)+E(xc)   XCENC  =      1689.17558639
  PAW double counting   =     49555.15189310   -53291.50355906
  entropy T*S    EENTRO =        -0.54286789
  eigenvalues    EBANDS =     -3496.15283556
  atomic energy  EATOM  =     59560.90262231
  Solvation  Ediel_sol  =         0.00000000
  ---------------------------------------------------
  free energy    TOTEN  =      -256.75999187 eV

  energy without entropy =     -256.21712397  energy(sigma->0) =     -256.48855792


--------------------------------------------------------------------------------------------------------




--------------------------------------- Iteration      1(  14)  ---------------------------------------


    POTLOK:  cpu time    0.9469: real time    0.9506
    SETDIJ:  cpu time    0.0240: real time    0.0238
    EDDIAG:  cpu time    4.8443: real time    4.8588
  RMM-DIIS:  cpu time    9.8985: real time    9.9337
    ORTHCH:  cpu time    1.6597: real time    1.6638
       DOS:  cpu time    0.0030: real time    0.0023
    CHARGE:  cpu time    1.0988: real time    1.1025
    MIXING:  cpu time    0.0260: real time    0.0255
    --------------------------------------------
      LOOP:  cpu time   18.5012: real time   18.5609

 eigenvalue-minimisations  :  1588
 total energy-change (2. order) : 0.1039327E+01  (-0.7221236E-01)
 number of electron     556.0000278 magnetization      50.0464655
 augmentation part      339.4340029 magnetization      42.4346502

 Broyden mixing:
  rms(total) = 0.23975E+01    rms(broyden)= 0.23972E+01
  rms(prec ) = 0.26437E+01
  weight for this iteration     100.00

 eigenvalues of (default mixing * dielectric matrix)
  average eigenvalue GAMMA=   0.2452
  0.7759  0.3942  0.3942  0.1935  0.1370  0.0986  0.0986  0.0636  0.0511

 Free energy of the ion-electron system (eV)
  ---------------------------------------------------
  alpha Z        PSCENC =       387.12086559
  Ewald energy   TEWEN  =    182189.62761590
  -Hartree energ DENC   =   -236855.69415451
  -exchange      EXHF   =         0.00000000
  -V(xc)+E(xc)   XCENC  =      1689.29809680
  PAW double counting   =     49594.07665154   -53331.72501215
  entropy T*S    EENTRO =        -0.55215980
  eigenvalues    EBANDS =     -3488.77519088
  atomic energy  EATOM  =     59560.90262231
  Solvation  Ediel_sol  =         0.00000000
  ---------------------------------------------------
  free energy    TOTEN  =      -255.72066519 eV

  energy without entropy =     -255.16850539  energy(sigma->0) =     -255.44458529


--------------------------------------------------------------------------------------------------------




--------------------------------------- Iteration      1(  15)  ---------------------------------------


    POTLOK:  cpu time    0.9509: real time    0.9541
    SETDIJ:  cpu time    0.0240: real time    0.0232
    EDDIAG:  cpu time    4.8443: real time    4.8609
  RMM-DIIS:  cpu time   10.0935: real time   10.1247
    ORTHCH:  cpu time    1.6577: real time    1.6625
       DOS:  cpu time    0.0040: real time    0.0030
    CHARGE:  cpu time    1.1008: real time    1.1044
    MIXING:  cpu time    0.0280: real time    0.0278
    --------------------------------------------
      LOOP:  cpu time   18.7032: real time   18.7606

 eigenvalue-minimisations  :  1591
 total energy-change (2. order) : 0.6837051E+00  (-0.2565262E-01)
 number of electron     556.0000279 magnetization      49.8081344
 augmentation part      339.5417854 magnetization      42.2157308

 Broyden mixing:
  rms(total) = 0.18199E+01    rms(broyden)= 0.18198E+01
  rms(prec ) = 0.19901E+01
  weight for this iteration     100.00

 eigenvalues of (default mixing * dielectric matrix)
  average eigenvalue GAMMA=   0.2615
  0.7593  0.5241  0.5241  0.1931  0.1456  0.1372  0.1372  0.0506  0.0761  0.0676

 Free energy of the ion-electron system (eV)
  ---------------------------------------------------
  alpha Z        PSCENC =       387.12086559
  Ewald energy   TEWEN  =    182189.62761590
  -Hartree energ DENC   =   -236855.44135423
  -exchange      EXHF   =         0.00000000
  -V(xc)+E(xc)   XCENC  =      1689.39686857
  PAW double counting   =     49612.50137313   -53349.77163710
  entropy T*S    EENTRO =        -0.58761621
  eigenvalues    EBANDS =     -3488.78569805
  atomic energy  EATOM  =     59560.90262231
  Solvation  Ediel_sol  =         0.00000000
  ---------------------------------------------------
  free energy    TOTEN  =      -255.03696008 eV

  energy without entropy =     -254.44934387  energy(sigma->0) =     -254.74315197


--------------------------------------------------------------------------------------------------------




--------------------------------------- Iteration      1(  16)  ---------------------------------------


    POTLOK:  cpu time    0.9479: real time    0.9498
    SETDIJ:  cpu time    0.0230: real time    0.0227
    EDDIAG:  cpu time    4.8383: real time    4.8515
  RMM-DIIS:  cpu time    9.9265: real time    9.9575
    ORTHCH:  cpu time    1.6587: real time    1.6646
       DOS:  cpu time    0.0030: real time    0.0021
    CHARGE:  cpu time    1.1158: real time    1.1190
    MIXING:  cpu time    0.0310: real time    0.0310
    --------------------------------------------
      LOOP:  cpu time   18.5442: real time   18.5983

 eigenvalue-minimisations  :  1579
 total energy-change (2. order) : 0.3496542E+00  (-0.5968371E-01)
 number of electron     556.0000286 magnetization      49.1858659
 augmentation part      339.7596966 magnetization      41.6247512

 Broyden mixing:
  rms(total) = 0.16862E+01    rms(broyden)= 0.16859E+01
  rms(prec ) = 0.18962E+01
  weight for this iteration     100.00

 eigenvalues of (default mixing * dielectric matrix)
  average eigenvalue GAMMA=   0.3014
  0.8076  0.7079  0.7079  0.3621  0.1581  0.1435  0.1435  0.0853  0.0853  0.0508
  0.0632

 Free energy of the ion-electron system (eV)
  ---------------------------------------------------
  alpha Z        PSCENC =       387.12086559
  Ewald energy   TEWEN  =    182189.62761590
  -Hartree energ DENC   =   -236860.34526086
  -exchange      EXHF   =         0.00000000
  -V(xc)+E(xc)   XCENC  =      1689.62602483
  PAW double counting   =     49656.59507090   -53394.25228402
  entropy T*S    EENTRO =        -0.63741175
  eigenvalues    EBANDS =     -3483.32454882
  atomic energy  EATOM  =     59560.90262231
  Solvation  Ediel_sol  =         0.00000000
  ---------------------------------------------------
  free energy    TOTEN  =      -254.68730591 eV

  energy without entropy =     -254.04989415  energy(sigma->0) =     -254.36860003


--------------------------------------------------------------------------------------------------------




--------------------------------------- Iteration      1(  17)  ---------------------------------------


    POTLOK:  cpu time    0.9429: real time    0.9459
    SETDIJ:  cpu time    0.0250: real time    0.0237
    EDDIAG:  cpu time    4.8293: real time    4.8431
  RMM-DIIS:  cpu time    9.8675: real time    9.8969
    ORTHCH:  cpu time    1.6607: real time    1.6644
       DOS:  cpu time    0.0010: real time    0.0008
    CHARGE:  cpu time    1.1118: real time    1.1145
    MIXING:  cpu time    0.0350: real time    0.0348
    --------------------------------------------
      LOOP:  cpu time   18.4732: real time   18.5242

 eigenvalue-minimisations  :  1567
 total energy-change (2. order) :-0.6541557E+00  (-0.9528274E-01)
 number of electron     556.0000298 magnetization      48.4800242
 augmentation part      340.0024550 magnetization      41.1485971

 Broyden mixing:
  rms(total) = 0.25701E+01    rms(broyden)= 0.25695E+01
  rms(prec ) = 0.30004E+01
  weight for this iteration     100.00

 eigenvalues of (default mixing * dielectric matrix)
  average eigenvalue GAMMA=   0.3207
  0.9287  0.8220  0.8220  0.4692  0.1609  0.1403  0.1403  0.0952  0.0952  0.0507
  0.0655  0.0579

 Free energy of the ion-electron system (eV)
  ---------------------------------------------------
  alpha Z        PSCENC =       387.12086559
  Ewald energy   TEWEN  =    182189.62761590
  -Hartree energ DENC   =   -236891.34564131
  -exchange      EXHF   =         0.00000000
  -V(xc)+E(xc)   XCENC  =      1689.69440659
  PAW double counting   =     49785.40673507   -53528.81332132
  entropy T*S    EENTRO =        -0.64688015
  eigenvalues    EBANDS =     -3447.28786431
  atomic energy  EATOM  =     59560.90262231
  Solvation  Ediel_sol  =         0.00000000
  ---------------------------------------------------
  free energy    TOTEN  =      -255.34146161 eV

  energy without entropy =     -254.69458146  energy(sigma->0) =     -255.01802153


--------------------------------------------------------------------------------------------------------




--------------------------------------- Iteration      1(  18)  ---------------------------------------


    POTLOK:  cpu time    0.9439: real time    0.9473
    SETDIJ:  cpu time    0.0240: real time    0.0237
    EDDIAG:  cpu time    4.8273: real time    4.8403
  RMM-DIIS:  cpu time    9.8705: real time    9.9034
    ORTHCH:  cpu time    1.6627: real time    1.6679
       DOS:  cpu time    0.0030: real time    0.0018
    CHARGE:  cpu time    1.1028: real time    1.1064
    MIXING:  cpu time    0.0400: real time    0.0389
    --------------------------------------------
      LOOP:  cpu time   18.4742: real time   18.5296

 eigenvalue-minimisations  :  1577
 total energy-change (2. order) : 0.1615945E+01  (-0.9334802E-01)
 number of electron     556.0000284 magnetization      48.1947219
 augmentation part      339.9302306 magnetization      41.2721937

 Broyden mixing:
  rms(total) = 0.10413E+01    rms(broyden)= 0.10404E+01
  rms(prec ) = 0.11748E+01
  weight for this iteration     100.00

 eigenvalues of (default mixing * dielectric matrix)
  average eigenvalue GAMMA=   0.3151
  0.9718  0.8470  0.8470  0.4668  0.1727  0.1540  0.1540  0.1164  0.1164  0.0786
  0.0658  0.0508  0.0556

 Free energy of the ion-electron system (eV)
  ---------------------------------------------------
  alpha Z        PSCENC =       387.12086559
  Ewald energy   TEWEN  =    182189.62761590
  -Hartree energ DENC   =   -236929.31955248
  -exchange      EXHF   =         0.00000000
  -V(xc)+E(xc)   XCENC  =      1689.70254402
  PAW double counting   =     49927.58351026   -53677.97808824
  entropy T*S    EENTRO =        -0.68281116
  eigenvalues    EBANDS =     -3400.68222298
  atomic energy  EATOM  =     59560.90262231
  Solvation  Ediel_sol  =         0.00000000
  ---------------------------------------------------
  free energy    TOTEN  =      -253.72551677 eV

  energy without entropy =     -253.04270561  energy(sigma->0) =     -253.38411119


--------------------------------------------------------------------------------------------------------




--------------------------------------- Iteration      1(  19)  ---------------------------------------


    POTLOK:  cpu time    0.9489: real time    0.9514
    SETDIJ:  cpu time    0.0220: real time    0.0226
    EDDIAG:  cpu time    4.8273: real time    4.8405
  RMM-DIIS:  cpu time   10.0365: real time   10.0659
    ORTHCH:  cpu time    1.6567: real time    1.6610
       DOS:  cpu time    0.0030: real time    0.0024
    CHARGE:  cpu time    1.1138: real time    1.1179
    MIXING:  cpu time    0.0450: real time    0.0438
    --------------------------------------------
      LOOP:  cpu time   18.6532: real time   18.7056

 eigenvalue-minimisations  :  1597
 total energy-change (2. order) : 0.1600493E+00  (-0.4695619E-01)
 number of electron     556.0000285 magnetization      47.6479082
 augmentation part      339.9805926 magnetization      40.7964015

 Broyden mixing:
  rms(total) = 0.91198E+00    rms(broyden)= 0.91155E+00
  rms(prec ) = 0.10296E+01
  weight for this iteration     100.00

 eigenvalues of (default mixing * dielectric matrix)
  average eigenvalue GAMMA=   0.3334
  1.0655  0.9067  0.9067  0.4479  0.4479  0.1524  0.1524  0.1257  0.1257  0.0832
  0.0832  0.0651  0.0508  0.0550

 Free energy of the ion-electron system (eV)
  ---------------------------------------------------
  alpha Z        PSCENC =       387.12086559
  Ewald energy   TEWEN  =    182189.62761590
  -Hartree energ DENC   =   -236941.83795392
  -exchange      EXHF   =         0.00000000
  -V(xc)+E(xc)   XCENC  =      1689.66533807
  PAW double counting   =     49971.42702898   -53723.76872613
  entropy T*S    EENTRO =        -0.66796168
  eigenvalues    EBANDS =     -3386.03429660
  atomic energy  EATOM  =     59560.90262231
  Solvation  Ediel_sol  =         0.00000000
  ---------------------------------------------------
  free energy    TOTEN  =      -253.56546747 eV

  energy without entropy =     -252.89750579  energy(sigma->0) =     -253.23148663


--------------------------------------------------------------------------------------------------------




--------------------------------------- Iteration      1(  20)  ---------------------------------------


    POTLOK:  cpu time    0.9459: real time    0.9490
    SETDIJ:  cpu time    0.0240: real time    0.0238
    EDDIAG:  cpu time    4.8263: real time    4.8417
  RMM-DIIS:  cpu time    9.8665: real time    9.8957
    ORTHCH:  cpu time    1.6637: real time    1.6665
       DOS:  cpu time    0.0010: real time    0.0010
    CHARGE:  cpu time    1.1118: real time    1.1155
    MIXING:  cpu time    0.0480: real time    0.0472
    --------------------------------------------
      LOOP:  cpu time   18.4872: real time   18.5404

 eigenvalue-minimisations  :  1570
 total energy-change (2. order) :-0.4760870E+00  (-0.4389016E-01)
 number of electron     556.0000296 magnetization      47.0454199
 augmentation part      340.1769689 magnetization      40.4285305

 Broyden mixing:
  rms(total) = 0.14177E+01    rms(broyden)= 0.14172E+01
  rms(prec ) = 0.16122E+01
  weight for this iteration     100.00

 eigenvalues of (default mixing * dielectric matrix)
  average eigenvalue GAMMA=   0.3459
  1.2073  0.9509  0.9509  0.5450  0.5450  0.1539  0.1539  0.1263  0.1263  0.1071
  0.0846  0.0655  0.0655  0.0508  0.0550

 Free energy of the ion-electron system (eV)
  ---------------------------------------------------
  alpha Z        PSCENC =       387.12086559
  Ewald energy   TEWEN  =    182189.62761590
  -Hartree energ DENC   =   -236963.26959895
  -exchange      EXHF   =         0.00000000
  -V(xc)+E(xc)   XCENC  =      1689.35007766
  PAW double counting   =     50038.34581098   -53793.33556243
  entropy T*S    EENTRO =        -0.68218632
  eigenvalues    EBANDS =     -3362.10119923
  atomic energy  EATOM  =     59560.90262231
  Solvation  Ediel_sol  =         0.00000000
  ---------------------------------------------------
  free energy    TOTEN  =      -254.04155449 eV

  energy without entropy =     -253.35936817  energy(sigma->0) =     -253.70046133


--------------------------------------------------------------------------------------------------------




--------------------------------------- Iteration      1(  21)  ---------------------------------------


    POTLOK:  cpu time    0.9439: real time    0.9478
    SETDIJ:  cpu time    0.0240: real time    0.0238
    EDDIAG:  cpu time    4.8473: real time    4.8598
  RMM-DIIS:  cpu time    9.8505: real time    9.8822
    ORTHCH:  cpu time    1.6567: real time    1.6611
       DOS:  cpu time    0.0040: real time    0.0027
    CHARGE:  cpu time    1.0958: real time    1.0996
    MIXING:  cpu time    0.0520: real time    0.0512
    --------------------------------------------
      LOOP:  cpu time   18.4742: real time   18.5283

 eigenvalue-minimisations  :  1560
 total energy-change (2. order) :-0.1688594E+00  (-0.3768833E-01)
 number of electron     556.0000278 magnetization      46.8498223
 augmentation part      340.2659766 magnetization      40.5326755

 Broyden mixing:
  rms(total) = 0.76247E+00    rms(broyden)= 0.76180E+00
  rms(prec ) = 0.87437E+00
  weight for this iteration     100.00

 eigenvalues of (default mixing * dielectric matrix)
  average eigenvalue GAMMA=   0.3407
  1.2492  0.9690  0.9690  0.5565  0.5565  0.1880  0.1616  0.1352  0.1352  0.1216
  0.0941  0.0819  0.0508  0.0653  0.0624  0.0542

 Free energy of the ion-electron system (eV)
  ---------------------------------------------------
  alpha Z        PSCENC =       387.12086559
  Ewald energy   TEWEN  =    182189.62761590
  -Hartree energ DENC   =   -236986.82936800
  -exchange      EXHF   =         0.00000000
  -V(xc)+E(xc)   XCENC  =      1688.78347341
  PAW double counting   =     50102.53285651   -53860.10745128
  entropy T*S    EENTRO =        -0.69202838
  eigenvalues    EBANDS =     -3335.54899998
  atomic energy  EATOM  =     59560.90262231
  Solvation  Ediel_sol  =         0.00000000
  ---------------------------------------------------
  free energy    TOTEN  =      -254.21041391 eV

  energy without entropy =     -253.51838553  energy(sigma->0) =     -253.86439972


--------------------------------------------------------------------------------------------------------




--------------------------------------- Iteration      1(  22)  ---------------------------------------


    POTLOK:  cpu time    0.9439: real time    0.9474
    SETDIJ:  cpu time    0.0240: real time    0.0235
    EDDIAG:  cpu time    4.8513: real time    4.8641
  RMM-DIIS:  cpu time    9.9945: real time   10.0240
    ORTHCH:  cpu time    1.6587: real time    1.6643
       DOS:  cpu time    0.0020: real time    0.0016
    CHARGE:  cpu time    1.1038: real time    1.1068
    MIXING:  cpu time    0.0580: real time    0.0579
    --------------------------------------------
      LOOP:  cpu time   18.6362: real time   18.6896

 eigenvalue-minimisations  :  1587
 total energy-change (2. order) :-0.2663499E-01  (-0.1445711E-01)
 number of electron     556.0000287 magnetization      46.5476838
 augmentation part      340.2796690 magnetization      40.3056636

 Broyden mixing:
  rms(total) = 0.72938E+00    rms(broyden)= 0.72906E+00
  rms(prec ) = 0.85424E+00
  weight for this iteration     100.00

 eigenvalues of (default mixing * dielectric matrix)
  average eigenvalue GAMMA=   0.3489
  1.3334  0.9717  0.9717  0.6005  0.6005  0.4188  0.1521  0.1380  0.1380  0.1283
  0.1013  0.0841  0.0666  0.0649  0.0508  0.0551  0.0551

 Free energy of the ion-electron system (eV)
  ---------------------------------------------------
  alpha Z        PSCENC =       387.12086559
  Ewald energy   TEWEN  =    182189.62761590
  -Hartree energ DENC   =   -236993.94330858
  -exchange      EXHF   =         0.00000000
  -V(xc)+E(xc)   XCENC  =      1688.75142098
  PAW double counting   =     50117.02261370   -53875.10914443
  entropy T*S    EENTRO =        -0.68751425
  eigenvalues    EBANDS =     -3327.92222013
  atomic energy  EATOM  =     59560.90262231
  Solvation  Ediel_sol  =         0.00000000
  ---------------------------------------------------
  free energy    TOTEN  =      -254.23704890 eV

  energy without entropy =     -253.54953466  energy(sigma->0) =     -253.89329178


--------------------------------------------------------------------------------------------------------




--------------------------------------- Iteration      1(  23)  ---------------------------------------


    POTLOK:  cpu time    0.9469: real time    0.9497
    SETDIJ:  cpu time    0.0250: real time    0.0244
    EDDIAG:  cpu time    4.8503: real time    4.8640
  RMM-DIIS:  cpu time    9.9095: real time    9.9422
    ORTHCH:  cpu time    1.6867: real time    1.6901
       DOS:  cpu time    0.0020: real time    0.0025
    CHARGE:  cpu time    1.1118: real time    1.1153
    MIXING:  cpu time    0.0630: real time    0.0617
    --------------------------------------------
      LOOP:  cpu time   18.5952: real time   18.6499

 eigenvalue-minimisations  :  1584
 total energy-change (2. order) :-0.2959880E+00  (-0.1324344E-01)
 number of electron     556.0000284 magnetization      45.8789611
 augmentation part      340.2911025 magnetization      39.7735506

 Broyden mixing:
  rms(total) = 0.70933E+00    rms(broyden)= 0.70903E+00
  rms(prec ) = 0.80181E+00
  weight for this iteration     100.00

 eigenvalues of (default mixing * dielectric matrix)
  average eigenvalue GAMMA=   0.3737
  1.7517  0.8634  0.8634  0.7912  0.7912  0.5283  0.1549  0.1395  0.1395  0.1260
  0.1108  0.0979  0.0823  0.0651  0.0651  0.0548  0.0508  0.0500

 Free energy of the ion-electron system (eV)
  ---------------------------------------------------
  alpha Z        PSCENC =       387.12086559
  Ewald energy   TEWEN  =    182189.62761590
  -Hartree energ DENC   =   -237004.15275056
  -exchange      EXHF   =         0.00000000
  -V(xc)+E(xc)   XCENC  =      1688.53941605
  PAW double counting   =     50134.35508665   -53892.92207584
  entropy T*S    EENTRO =        -0.69332550
  eigenvalues    EBANDS =     -3317.31049154
  atomic energy  EATOM  =     59560.90262231
  Solvation  Ediel_sol  =         0.00000000
  ---------------------------------------------------
  free energy    TOTEN  =      -254.53303693 eV

  energy without entropy =     -253.83971143  energy(sigma->0) =     -254.18637418


--------------------------------------------------------------------------------------------------------




--------------------------------------- Iteration      1(  24)  ---------------------------------------


    POTLOK:  cpu time    0.9469: real time    0.9498
    SETDIJ:  cpu time    0.0230: real time    0.0225
    EDDIAG:  cpu time    4.8653: real time    4.8794
  RMM-DIIS:  cpu time    9.7515: real time    9.7806
    ORTHCH:  cpu time    1.6717: real time    1.6752
       DOS:  cpu time    0.0030: real time    0.0027
    CHARGE:  cpu time    1.1098: real time    1.1122
    MIXING:  cpu time    0.0640: real time    0.0639
    --------------------------------------------
      LOOP:  cpu time   18.4352: real time   18.4864

 eigenvalue-minimisations  :  1558
 total energy-change (2. order) :-0.6028052E+00  (-0.1746103E-01)
 number of electron     556.0000284 magnetization      45.7196298
 augmentation part      340.3194043 magnetization      39.9291782

 Broyden mixing:
  rms(total) = 0.42176E+00    rms(broyden)= 0.42148E+00
  rms(prec ) = 0.47177E+00
  weight for this iteration     100.00

 eigenvalues of (default mixing * dielectric matrix)
  average eigenvalue GAMMA=   0.3661
  1.8038  0.8905  0.8905  0.7737  0.7737  0.5240  0.1756  0.1508  0.1508  0.1268
  0.1268  0.1089  0.0918  0.0827  0.0648  0.0648  0.0546  0.0508  0.0498

 Free energy of the ion-electron system (eV)
  ---------------------------------------------------
  alpha Z        PSCENC =       387.12086559
  Ewald energy   TEWEN  =    182189.62761590
  -Hartree energ DENC   =   -237026.09095868
  -exchange      EXHF   =         0.00000000
  -V(xc)+E(xc)   XCENC  =      1688.00737485
  PAW double counting   =     50167.27204046   -53926.78547882
  entropy T*S    EENTRO =        -0.69447233
  eigenvalues    EBANDS =     -3294.49545140
  atomic energy  EATOM  =     59560.90262231
  Solvation  Ediel_sol  =         0.00000000
  ---------------------------------------------------
  free energy    TOTEN  =      -255.13584212 eV

  energy without entropy =     -254.44136978  energy(sigma->0) =     -254.78860595


--------------------------------------------------------------------------------------------------------




--------------------------------------- Iteration      1(  25)  ---------------------------------------


    POTLOK:  cpu time    0.9439: real time    0.9484
    SETDIJ:  cpu time    0.0250: real time    0.0243
    EDDIAG:  cpu time    4.8413: real time    4.8547
  RMM-DIIS:  cpu time   10.0005: real time   10.0299
    ORTHCH:  cpu time    1.6617: real time    1.6663
       DOS:  cpu time    0.0020: real time    0.0016
    CHARGE:  cpu time    1.1098: real time    1.1130
    MIXING:  cpu time    0.0710: real time    0.0709
    --------------------------------------------
      LOOP:  cpu time   18.6552: real time   18.7091

 eigenvalue-minimisations  :  1599
 total energy-change (2. order) :-0.2039086E+00  (-0.5426964E-02)
 number of electron     556.0000286 magnetization      45.0385929
 augmentation part      340.3047902 magnetization      39.3139767

 Broyden mixing:
  rms(total) = 0.35622E+00    rms(broyden)= 0.35612E+00
  rms(prec ) = 0.39489E+00
  weight for this iteration     100.00

 eigenvalues of (default mixing * dielectric matrix)
  average eigenvalue GAMMA=   0.3961
  2.0016  0.9394  0.9394  0.8363  0.8363  0.5689  0.5689  0.1526  0.1526  0.1316
  0.1316  0.1123  0.0964  0.0887  0.0811  0.0648  0.0648  0.0547  0.0508  0.0498

 Free energy of the ion-electron system (eV)
  ---------------------------------------------------
  alpha Z        PSCENC =       387.12086559
  Ewald energy   TEWEN  =    182189.62761590
  -Hartree energ DENC   =   -237030.84452113
  -exchange      EXHF   =         0.00000000
  -V(xc)+E(xc)   XCENC  =      1687.83362640
  PAW double counting   =     50169.58721772   -53929.20282204
  entropy T*S    EENTRO =        -0.69656587
  eigenvalues    EBANDS =     -3289.66778962
  atomic energy  EATOM  =     59560.90262231
  Solvation  Ediel_sol  =         0.00000000
  ---------------------------------------------------
  free energy    TOTEN  =      -255.33975075 eV

  energy without entropy =     -254.64318487  energy(sigma->0) =     -254.99146781


--------------------------------------------------------------------------------------------------------




--------------------------------------- Iteration      1(  26)  ---------------------------------------


    POTLOK:  cpu time    0.9459: real time    0.9481
    SETDIJ:  cpu time    0.0230: real time    0.0233
    EDDIAG:  cpu time    4.8503: real time    4.8637
  RMM-DIIS:  cpu time    9.7615: real time    9.7925
    ORTHCH:  cpu time    1.6597: real time    1.6638
       DOS:  cpu time    0.0020: real time    0.0014
    CHARGE:  cpu time    1.1138: real time    1.1181
    MIXING:  cpu time    0.0750: real time    0.0738
    --------------------------------------------
      LOOP:  cpu time   18.4312: real time   18.4846

 eigenvalue-minimisations  :  1545
 total energy-change (2. order) :-0.9710011E+00  (-0.1489368E-01)
 number of electron     556.0000288 magnetization      44.7445827
 augmentation part      340.3492835 magnetization      39.3823490

 Broyden mixing:
  rms(total) = 0.38259E+00    rms(broyden)= 0.38247E+00
  rms(prec ) = 0.42961E+00
  weight for this iteration     100.00

 eigenvalues of (default mixing * dielectric matrix)
  average eigenvalue GAMMA=   0.3943
  2.0658  0.9423  0.9423  0.8839  0.8839  0.5950  0.5950  0.1596  0.1596  0.1359
  0.1359  0.1167  0.1167  0.0931  0.0886  0.0800  0.0648  0.0648  0.0547  0.0508
  0.0498

 Free energy of the ion-electron system (eV)
  ---------------------------------------------------
  alpha Z        PSCENC =       387.12086559
  Ewald energy   TEWEN  =    182189.62761590
  -Hartree energ DENC   =   -237048.20927412
  -exchange      EXHF   =         0.00000000
  -V(xc)+E(xc)   XCENC  =      1687.04659036
  PAW double counting   =     50173.16793067   -53932.73891298
  entropy T*S    EENTRO =        -0.68922263
  eigenvalues    EBANDS =     -3272.53896697
  atomic energy  EATOM  =     59560.90262231
  Solvation  Ediel_sol  =         0.00000000
  ---------------------------------------------------
  free energy    TOTEN  =      -256.31075187 eV

  energy without entropy =     -255.62152924  energy(sigma->0) =     -255.96614055


--------------------------------------------------------------------------------------------------------




--------------------------------------- Iteration      1(  27)  ---------------------------------------


    POTLOK:  cpu time    0.9479: real time    0.9510
    SETDIJ:  cpu time    0.0250: real time    0.0249
[...]
 -0.008  -0.009  -0.001   0.013   0.006   0.005  -0.036   0.026   0.055  -0.004   0.030  -0.016   0.006   0.195  -0.025  -0.000
 -0.033  -0.009  -0.020   0.018   0.024  -0.020   0.005  -0.023   0.007   0.046   0.106  -0.051   0.020  -0.025   0.124  -0.001
 -0.009  -0.003  -0.003   0.000  -0.006  -0.003  -0.001  -0.001  -0.001  -0.003   0.011  -0.004  -0.010  -0.000  -0.001   0.001
  0.000   0.005  -0.003  -0.009  -0.000  -0.001   0.003  -0.002  -0.004   0.000  -0.005   0.002  -0.000  -0.013   0.001  -0.000
  0.006   0.000   0.005  -0.003  -0.009   0.001  -0.001   0.001  -0.000  -0.004  -0.017   0.006  -0.001   0.001  -0.010  -0.000
 total augmentation occupancy for first ion, spin component:           2
  0.148   0.012   0.028  -0.039  -0.063  -0.076  -0.001  -0.003   0.009   0.020  -0.033  -0.007  -0.013   0.007   0.021  -0.000
  0.012   0.121   0.003  -0.003  -0.021  -0.001  -0.077  -0.000  -0.002   0.008  -0.012  -0.003  -0.004   0.003   0.006  -0.000
  0.028   0.003   0.162  -0.038  -0.019  -0.001   0.000  -0.090   0.013   0.002  -0.012   0.003  -0.009   0.004   0.016  -0.000
 -0.039  -0.003  -0.038   0.134  -0.009   0.008  -0.003   0.013  -0.078   0.007   0.015  -0.001   0.008  -0.004  -0.014   0.000
 -0.063  -0.021  -0.019  -0.009   0.059   0.020   0.007   0.003   0.007  -0.050   0.017   0.005   0.006  -0.003  -0.010   0.000
 -0.076  -0.001  -0.001   0.008   0.020   0.006   0.000   0.001  -0.001  -0.003   0.003   0.002   0.000  -0.001  -0.001   0.000
 -0.001  -0.077   0.000  -0.003   0.007   0.000   0.006  -0.001   0.000  -0.001   0.001   0.001  -0.000   0.000  -0.000   0.000
 -0.003  -0.000  -0.090   0.013   0.003   0.001  -0.001   0.010  -0.003  -0.000   0.004   0.003   0.001  -0.001  -0.003   0.000
  0.009  -0.002   0.013  -0.078   0.007  -0.001   0.000  -0.003   0.007  -0.001  -0.003  -0.002  -0.001  -0.001   0.002  -0.000
  0.020   0.008   0.002   0.007  -0.050  -0.003  -0.001  -0.000  -0.001   0.002  -0.001  -0.001  -0.001   0.000  -0.000   0.000
 -0.033  -0.012  -0.012   0.015   0.017   0.003   0.001   0.004  -0.003  -0.001  -0.004   0.035   0.003  -0.007  -0.004  -0.000
 -0.007  -0.003   0.003  -0.001   0.005   0.002   0.001   0.003  -0.002  -0.001   0.035  -0.016  -0.002   0.001   0.003   0.000
 -0.013  -0.004  -0.009   0.008   0.006   0.000  -0.000   0.001  -0.001  -0.001   0.003  -0.002  -0.011  -0.002  -0.005   0.001
  0.007   0.003   0.004  -0.004  -0.003  -0.001   0.000  -0.001  -0.001   0.000  -0.007   0.001  -0.002  -0.011   0.003   0.000
  0.021   0.006   0.016  -0.014  -0.010  -0.001  -0.000  -0.003   0.002  -0.000  -0.004   0.003  -0.005   0.003  -0.006   0.000
 -0.000  -0.000  -0.000   0.000   0.000   0.000   0.000   0.000  -0.000   0.000  -0.000   0.000   0.001   0.000   0.000  -0.000
  0.000   0.000   0.000  -0.000  -0.000   0.000  -0.000   0.000   0.000  -0.000   0.000  -0.000   0.000   0.001  -0.000  -0.000
  0.001   0.000   0.000  -0.000  -0.000  -0.000   0.000  -0.000   0.000   0.000   0.000  -0.001   0.000  -0.000   0.001  -0.000


------------------------ aborting loop because EDIFF is reached ----------------------------------------


    CHARGE:  cpu time    1.1068: real time    1.1111
    FORLOC:  cpu time    0.1170: real time    0.1173
    FORNL :  cpu time    3.2365: real time    3.2460
    STRESS:  cpu time    9.7095: real time    9.7369
    FORCOR:  cpu time    0.9159: real time    0.9183
    FORHAR:  cpu time    0.2060: real time    0.2071
    MIXING:  cpu time    0.2350: real time    0.2358
    OFIELD:  cpu time    0.0000: real time    0.0001

  FORCE on cell =-STRESS in cart. coord.  units (eV):
  Direction    XX          YY          ZZ          XY          YZ          ZX
  --------------------------------------------------------------------------------------
  Alpha Z   387.12087   387.12087   387.12087
  Ewald   59678.36825 59495.91708 63015.18535   557.09085  -451.20697 -1220.86897
  Hartree 78051.02037 77856.66353 81153.13973   494.15854  -424.29369 -1102.60150
  E(xc)   -3041.96127 -3042.01441 -3041.43916     0.07136    -0.07441    -0.25677
  Local  ************************************ -1050.04356   874.92064  2320.73003
  n-local -1780.01480 -1779.65514 -1776.36171     1.13141    -0.16685    -1.73555
  augment  2825.44439  2826.01781  2822.79802    -0.31969     0.69096     1.52337
  Kinetic  4359.07377  4358.18154  4353.11225    -1.71721    -0.14789     2.44668
  Fock        0.00000     0.00000     0.00000     0.00000     0.00000     0.00000
  -------------------------------------------------------------------------------------
  Total       2.25971     2.09554     3.41073     0.37169    -0.27821    -0.76270
  in kB       0.45256     0.41968     0.68307     0.07444    -0.05572    -0.15275
  external pressure =        0.52 kB  Pullay stress =        0.00 kB


 VOLUME and BASIS-vectors are now :
 -----------------------------------------------------------------------------
  energy-cutoff  :      400.00
  volume of cell :     8000.00
      direct lattice vectors                 reciprocal lattice vectors
    20.000000000  0.000000000  0.000000000     0.050000000  0.000000000  0.000000000
     0.000000000 20.000000000  0.000000000     0.000000000  0.050000000  0.000000000
     0.000000000  0.000000000 20.000000000     0.000000000  0.000000000  0.050000000

  length of vectors
    20.000000000 20.000000000 20.000000000     0.050000000  0.050000000  0.050000000


 FORCES acting on ions
    electron-ion (+dipol)            ewald-force                    non-local-force                 convergence-correction
 -----------------------------------------------------------------------------------------------
   0.183E+04 -.117E+04 0.601E+03   -.183E+04 0.117E+04 -.600E+03   -.200E+01 0.127E+01 -.469E+00   0.109E-02 0.675E-03 -.405E-03
   0.730E+03 -.190E+04 0.967E+03   -.729E+03 0.190E+04 -.966E+03   -.732E+00 0.217E+01 -.106E+01   0.154E-03 -.688E-03 -.166E-03
   0.116E+04 -.190E+04 -.358E+03   -.116E+04 0.189E+04 0.358E+03   -.123E+01 0.199E+01 0.264E+00   0.248E-03 -.247E-03 -.115E-02
   0.313E+02 -.229E+04 0.112E+02   -.312E+02 0.228E+04 -.111E+02   -.960E-01 0.677E+01 -.108E+00   -.466E-03 -.960E-03 -.820E-03
   0.123E+02 -.131E+04 0.172E+02   -.124E+02 0.131E+04 -.170E+02   0.646E-01 0.662E+00 -.124E+00   -.411E-03 -.657E-04 -.954E-03
   -.682E+03 -.192E+04 0.966E+03   0.682E+03 0.192E+04 -.965E+03   0.656E+00 0.204E+01 -.976E+00   -.929E-03 -.462E-03 -.224E-03
   -.111E+04 -.192E+04 -.364E+03   0.111E+04 0.192E+04 0.364E+03   0.123E+01 0.215E+01 0.420E+00   -.409E-03 -.597E-03 -.502E-03
   0.198E+04 -.103E+04 -.632E+03   -.197E+04 0.103E+04 0.630E+03   -.584E+01 0.304E+01 0.180E+01   0.394E-03 0.780E-03 -.833E-03
   0.181E+04 0.163E+01 -.127E+04   -.180E+04 -.108E+01 0.127E+04   -.192E+01 -.558E+00 0.337E+01   0.148E-03 0.635E-03 -.837E-04
   0.112E+04 -.577E+03 -.353E+03   -.112E+04 0.576E+03 0.353E+03   -.568E+00 0.353E+00 0.442E-01   0.786E-03 0.116E-02 -.124E-02
   0.114E+04 -.121E+04 -.151E+04   -.114E+04 0.120E+04 0.151E+04   -.153E+01 0.116E+01 0.215E+01   0.388E-03 0.468E-03 -.583E-03
   0.143E+02 -.192E+04 -.117E+04   -.142E+02 0.192E+04 0.116E+04   0.148E-01 0.198E+01 0.110E+01   -.175E-04 -.294E-03 -.579E-03
   -.236E+01 -.589E+03 -.114E+04   0.202E+01 0.589E+03 0.114E+04   0.410E+00 0.728E+00 0.150E+00   0.766E-03 0.733E-04 -.672E-03
   -.111E+04 -.599E+03 -.349E+03   0.111E+04 0.599E+03 0.349E+03   0.577E+00 0.326E+00 0.491E-01   -.450E-03 0.188E-04 0.960E-04
   -.114E+04 -.121E+04 -.153E+04   0.113E+04 0.121E+04 0.153E+04   0.119E+01 0.125E+01 0.148E+01   0.605E-05 -.559E-03 -.224E-03
   0.124E+04 -.104E+04 0.168E+04   -.124E+04 0.104E+04 -.168E+04   -.340E+01 0.290E+01 -.493E+01   0.779E-03 0.578E-03 0.747E-03
   0.181E+04 0.140E+02 0.133E+04   -.181E+04 -.141E+02 -.133E+04   -.188E+01 0.236E-01 -.156E+01   0.542E-03 0.111E-02 -.101E-03
   0.699E+03 0.114E+01 0.212E+04   -.698E+03 -.113E+01 -.212E+04   -.830E+00 0.717E-02 -.231E+01   -.375E-03 0.135E-02 0.541E-03
   0.696E+03 -.582E+03 0.955E+03   -.696E+03 0.581E+03 -.955E+03   -.346E+00 0.316E+00 -.588E+00   0.204E-03 0.149E-02 -.478E-04
   0.123E+02 -.120E+04 0.190E+04   -.122E+02 0.119E+04 -.190E+04   -.955E-01 0.132E+01 -.205E+01   -.752E-03 0.815E-03 0.936E-03
   -.132E+02 0.581E+03 0.118E+04   0.132E+02 -.581E+03 -.118E+04   0.391E-01 -.264E+00 -.641E+00   -.563E-03 0.117E-02 0.747E-03
   -.707E+03 -.151E+02 0.212E+04   0.707E+03 0.152E+02 -.212E+04   0.737E+00 -.192E-01 -.234E+01   -.549E-03 0.127E-02 0.430E-03
   -.688E+03 -.598E+03 0.955E+03   0.688E+03 0.597E+03 -.955E+03   0.371E+00 0.400E+00 -.347E+00   -.883E-03 0.122E-02 0.614E-03
   0.223E+04 0.238E+02 0.968E+01   -.222E+04 -.237E+02 -.954E+01   -.253E+01 -.433E-01 -.143E+00   0.266E-03 0.999E-03 -.665E-03
   0.180E+04 0.121E+04 -.532E+03   -.180E+04 -.121E+04 0.532E+03   -.234E+01 -.973E+00 0.796E-01   -.155E-03 0.119E-03 -.165E-03
   0.110E+04 0.593E+03 0.379E+03   -.110E+04 -.593E+03 -.379E+03   -.486E+00 -.379E+00 -.369E-01   0.664E-03 0.135E-02 -.496E-03
   0.671E+03 0.585E+03 -.934E+03   -.671E+03 -.585E+03 0.934E+03   -.171E+00 -.210E+00 0.124E+00   0.130E-02 0.709E-03 -.180E-03
   -.380E+01 -.331E+01 0.488E+01   0.378E+01 0.331E+01 -.481E+01   -.267E-01 -.624E-01 -.272E-01   0.263E-03 0.112E-02 -.142E-03
   -.276E+02 0.130E+04 0.139E+02   0.277E+02 -.130E+04 -.140E+02   -.147E+00 -.593E+00 0.653E-01   0.637E-03 0.759E-03 0.308E-03
   -.112E+04 0.575E+03 0.371E+03   0.112E+04 -.575E+03 -.371E+03   0.625E+00 -.301E+00 -.277E+00   -.491E-03 0.101E-02 0.944E-03
   -.703E+03 0.580E+03 -.938E+03   0.703E+03 -.580E+03 0.938E+03   0.469E+00 -.300E+00 0.373E+00   0.451E-03 0.528E-03 0.291E-03
   -.181E+04 -.121E+04 0.598E+03   0.180E+04 0.121E+04 -.597E+03   0.190E+01 0.123E+01 -.565E+00   -.687E-03 0.156E-03 0.414E-04
   -.196E+04 -.107E+04 -.644E+03   0.196E+04 0.107E+04 0.643E+03   0.579E+01 0.306E+01 0.179E+01   -.544E-03 -.345E-03 0.509E-04
   -.182E+04 -.185E+02 -.132E+04   0.182E+04 0.185E+02 0.132E+04   0.197E+01 -.284E-01 0.130E+01   -.552E-03 0.220E-04 0.610E-04
   -.122E+04 -.107E+04 0.168E+04   0.122E+04 0.107E+04 -.167E+04   0.344E+01 0.297E+01 -.484E+01   -.659E-03 0.798E-03 0.559E-03
   -.182E+04 -.248E+02 0.133E+04   0.182E+04 0.248E+02 -.133E+04   0.204E+01 -.217E-01 -.137E+01   0.532E-04 0.914E-03 0.413E-03
   -.223E+04 -.217E+02 -.417E+00   0.223E+04 0.216E+02 0.403E+00   0.251E+01 0.113E+00 -.649E-02   -.540E-03 0.501E-03 0.532E-03
   -.183E+04 0.117E+04 -.593E+03   0.183E+04 -.117E+04 0.592E+03   0.192E+01 -.121E+01 0.795E+00   -.371E-03 0.447E-03 0.831E-03
   0.596E+03 -.951E+02 -.199E+04   -.595E+03 0.968E+02 0.199E+04   -.999E+00 -.173E+01 -.296E+00   0.865E-03 0.109E-03 0.127E-03
   -.338E+02 -.111E+04 -.203E+04   0.340E+02 0.110E+04 0.202E+04   -.130E+00 0.301E+01 0.632E+01   0.474E-03 -.119E-03 -.200E-03
   -.741E+03 -.153E+02 -.210E+04   0.740E+03 0.155E+02 0.209E+04   0.560E+00 -.165E+00 0.280E+01   0.422E-03 -.103E-03 -.504E-03
   0.121E+04 0.117E+04 -.145E+04   -.121E+04 -.117E+04 0.145E+04   -.874E+00 -.341E-01 0.260E+01   0.392E-03 -.184E-03 0.683E-03
   0.648E+03 0.193E+04 -.910E+03   -.648E+03 -.193E+04 0.909E+03   -.831E-01 -.241E+01 0.809E+00   0.865E-03 -.641E-04 0.428E-03
   -.539E+02 0.119E+04 -.186E+04   0.552E+02 -.119E+04 0.185E+04   -.128E+01 -.959E+00 0.358E+01   0.942E-03 0.244E-03 0.870E-04
   -.732E+03 0.190E+04 -.955E+03   0.731E+03 -.190E+04 0.954E+03   0.861E+00 -.219E+01 0.958E+00   0.365E-03 0.470E-03 0.510E-03
   -.126E+04 0.104E+04 -.167E+04   0.125E+04 -.104E+04 0.166E+04   0.371E+01 -.300E+01 0.488E+01   -.154E-03 0.410E-03 -.170E-03
   0.111E+04 0.120E+04 0.156E+04   -.111E+04 -.119E+04 -.156E+04   -.126E+01 -.115E+01 -.176E+01   -.132E-03 0.609E-03 -.180E-03
   -.210E+02 0.104E+04 0.206E+04   0.209E+02 -.104E+04 -.206E+04   0.119E+00 -.284E+01 -.601E+01   -.564E-03 0.164E-03 -.516E-05
   -.115E+04 0.117E+04 0.155E+04   0.115E+04 -.117E+04 -.155E+04   0.126E+01 -.132E+01 -.163E+01   0.451E-05 0.107E-03 0.281E-03
   0.195E+04 0.106E+04 0.682E+03   -.195E+04 -.106E+04 -.680E+03   -.565E+01 -.322E+01 -.158E+01   -.281E-03 0.344E-03 -.559E-03
   0.110E+04 0.192E+04 0.401E+03   -.110E+04 -.192E+04 -.400E+03   -.119E+01 -.211E+01 -.432E+00   0.224E-03 0.660E-04 -.317E-03
   -.310E+02 0.190E+04 0.120E+04   0.309E+02 -.190E+04 -.120E+04   0.191E+00 -.205E+01 -.129E+01   -.444E-04 -.303E-04 0.130E-03
   -.116E+04 0.189E+04 0.377E+03   0.116E+04 -.189E+04 -.376E+03   0.130E+01 -.198E+01 -.540E+00   -.104E-03 -.237E-04 0.677E-03
   -.198E+04 0.102E+04 0.653E+03   0.197E+04 -.102E+04 -.651E+03   0.566E+01 -.283E+01 -.200E+01   0.261E-03 0.224E-03 0.404E-03
   -.501E+02 0.229E+04 0.268E+02   0.503E+02 -.228E+04 -.270E+02   -.188E+00 -.669E+01 0.175E+00   0.478E-03 -.454E-04 0.247E-03
   0.520E+03 0.236E+03 -.111E+04   -.521E+03 -.236E+03 0.111E+04   0.837E+00 0.269E+00 -.209E+01   0.166E-03 0.351E-04 0.237E-03
 -----------------------------------------------------------------------------------------------
   -.269E+01 -.180E+01 0.486E+01   -.114E-12 -.975E-11 0.205E-11   0.262E+01 0.187E+01 -.490E+01   0.352E-02 0.202E-01 -.215E-03
 
 
 POSITION                                       TOTAL-FORCE (eV/Angst)
 -----------------------------------------------------------------------------------
      7.01191     11.90035      8.21731        -0.022505      0.048857      0.011771
      9.01814     13.25899      7.55302         0.020426      0.022880     -0.021313
      8.25682     13.24165      9.95408        -0.056893      0.038892     -0.037929
     10.26144     14.45383      9.27755         0.004290      0.125046      0.000885
     10.29705     12.15922      9.26450        -0.000786      0.150498      0.047041
     11.54491     13.29903      7.56017         0.007821      0.029829     -0.047358
     12.31322     13.30011      9.94733         0.035144      0.016257     -0.054467
      6.35655     11.83776     10.56452        -0.079937      0.029357      0.063303
      7.03202      9.76657     11.69806        -0.034646     -0.008448      0.020364
      8.32062     10.83809      9.94023        -0.178195     -0.012588      0.116938
      8.27626     11.94551     12.08265         0.001636      0.007324     -0.006309
     10.28626     13.28202     11.40225         0.028348     -0.009510      0.044582
     10.31012     10.86908     11.38384         0.073450      0.147520      0.072547
     12.30741     10.88492      9.91633         0.116393      0.077479      0.070300
     12.34028     11.98196     12.06654        -0.039603      0.033215      0.020648
      7.86061     11.86725      5.92823        -0.074359      0.052424     -0.072328
      7.03919      9.78396      6.88645        -0.046796     -0.042678      0.003246
      9.06709      9.80926      5.41372         0.046673      0.019689     -0.016318
      9.07942     10.84614      7.58694        -0.074441      0.092511     -0.140861
     10.30070     11.96204      5.82998         0.000204      0.007102     -0.024182
     10.33752      8.77497      7.18479         0.010273     -0.062899     -0.155777
     11.58370      9.84237      5.41630         0.012586      0.006101     -0.029401
     11.54583     10.88354      7.58461         0.056008      0.044988     -0.086175
      6.26165      9.75434      9.29804         0.023598      0.024501     -0.001123
      7.05889      7.61998     10.30164        -0.047408     -0.067388      0.018705
      8.34329      8.74569      8.63368        -0.131454     -0.097502     -0.066250
      9.09232      8.73820     10.98089        -0.004817      0.010371      0.041445
     10.32204      9.82001      9.28793        -0.045757     -0.060457      0.038936
     10.34979      7.47544      9.28029        -0.013801     -0.179423     -0.039373
     12.32267      8.79228      8.63097         0.161878     -0.063288     -0.057373
     11.55904      8.78702     10.98275        -0.001499     -0.122710      0.174708
     13.58760     12.00232      8.22022         0.035788      0.003804     -0.033391
     14.24496     11.92959     10.56433         0.117231      0.066500      0.031674
     13.59579      9.86030     11.67734         0.067572     -0.035644      0.001090
     12.73872     11.92771      5.93577         0.061167      0.050541     -0.098435
     13.61427      9.86263      6.89676         0.020009     -0.006487     -0.017158
     14.38695      9.85560      9.28657         0.018990      0.031406     -0.019736
     13.62012      7.71372     10.34717         0.040810      0.007905      0.027771
      9.09959      9.90069     13.24005         0.041734      0.012972     -0.093327
     10.33587     11.94771     13.42183         0.039131      0.090125      0.061379
     11.58621      9.84863     13.14821         0.013060     -0.002086     -0.007423
      7.83996      7.56219     12.55667        -0.000097     -0.101106     -0.217304
      9.11303      6.31994     10.96332        -0.056606     -0.068653      0.017561
     10.32905      7.67936     12.75988        -0.006340     -0.030863      0.028617
     11.59995      6.37306     11.01670         0.015675      0.040512      0.002053
     12.77937      7.76999     12.63358         0.017872     -0.028790      0.107598
      8.32688      7.65561      6.47695        -0.041252      0.031520     -0.052928
     10.35541      7.75889      5.12797        -0.018829     -0.080444     -0.118369
     12.38408      7.70833      6.48141         0.009217      0.046608     -0.027840
      6.40504      7.70361      7.96235        -0.096462     -0.039836     -0.048441
      8.33204      6.32363      8.59162         0.015920      0.028134      0.028891
     10.35873      6.36929      7.13073         0.059996     -0.026289     -0.011807
     12.39973      6.38847      8.61222        -0.016702     -0.054131      0.004171
     14.29275      7.79201      8.00135         0.109635     -0.055074     -0.014162
     10.39748      5.17524      9.24594         0.011386     -0.110784     -0.010552
      7.92533      8.59896     14.32547        -0.204732     -0.027789      0.571186
 -----------------------------------------------------------------------------------
    total drift:                               -0.061640      0.083519     -0.040553


--------------------------------------------------------------------------------------------------------



  FREE ENERGIE OF THE ION-ELECTRON SYSTEM (eV)
  ---------------------------------------------------
  free  energy   TOTEN  =      -262.01156107 eV

  energy  without entropy=     -261.36142109  energy(sigma->0) =     -261.68649108
 


--------------------------------------------------------------------------------------------------------


    POTLOK:  cpu time    0.9699: real time    0.9716


--------------------------------------------------------------------------------------------------------


     LOOP+:  cpu time 1461.5978: real time 1466.5080
    4ORBIT:  cpu time    0.0000: real time    0.0000

 total amount of memory used by VASP MPI-rank0   256269. kBytes
=======================================================================

   base      :      30000. kBytes
   nonlr-proj:      12277. kBytes
   fftplans  :      16788. kBytes
   grid      :     106586. kBytes
   one-center:       1741. kBytes
   wavefun   :      88877. kBytes
 
  
  
 General timing and accounting informations for this job:
 ========================================================
  
                  Total CPU time used (sec):     1473.297
                            User time (sec):     1445.262
                          System time (sec):       28.035
                         Elapsed time (sec):     1478.248
  
                   Maximum memory used (kb):      567936.
                   Average memory used (kb):           0.
  
                          Minor page faults:       945291
                          Major page faults:            0
                 Voluntary context switches:           72
