<?xml version="1.0" encoding="ISO-8859-1"?>
<modeling>
 <generator>
  <i name="program" type="string">vasp </i>
  <i name="version" type="string">5.4.4.18Apr17-6-g9f103f2a35  </i>
  <i name="subversion" type="string">(build Dec 11 2018 16:16:58) complex            parallel </i>
  <i name="platform" type="string">LinuxIFC </i>
  <i name="date" type="string">2020 07 24 </i>
  <i name="time" type="string">01:13:30 </i>
 </generator>
 <incar>
  <i type="string" name="SYSTEM"> single</i>
  <i type="int" name="ISTART">     0</i>
  <i type="string" name="PREC">normal  ! precision parameter, typicall</i>
  <i type="string" name="ALGO"> fast   ! sets SCF algorithm.  fast: com</i>
  <i type="int" name="ISPIN">     2</i>
  <i type="int" name="NELM">   100</i>
  <i name="EDIFF">      0.00000100</i>
  <i type="int" name="NSW">     0</i>
  <i name="SYMPREC">      0.00000100</i>
  <i name="ENCUT">    400.00000000</i>
  <i type="string" name="LREAL"> auto  ! how to numerically handle core</i>
  <i type="int" name="ISMEAR">     0</i>
  <i name="SIGMA">      0.10000000</i>
  <i type="int" name="NWRITE">     1</i>
  <i type="logical" name="LWAVE"> F  </i>
  <i type="logical" name="LCHARG"> F  </i>
  <i type="logical" name="LVTOT"> F  </i>
  <v type="int" name="KPOINT_BSE">    -1     0     0     0</v>
  <i type="int" name="NELM">   100</i>
 </incar>
 <structure name="primitive_cell" >
  <crystal>
   <varray name="basis" >
    <v>      20.00000000       0.00000000       0.00000000 </v>
    <v>       0.00000000      20.00000000       0.00000000 </v>
    <v>       0.00000000       0.00000000      20.00000000 </v>
   </varray>
   <i name="volume">   8000.00000000 </i>
   <varray name="rec_basis" >
    <v>       0.05000000       0.00000000       0.00000000 </v>
    <v>       0.00000000       0.05000000       0.00000000 </v>
    <v>       0.00000000       0.00000000       0.05000000 </v>
   </varray>
  </crystal>
  <varray name="positions" >
   <v>       0.35059555      -0.40498239       0.41086543 </v>
   <v>       0.45397105      -0.45769304       0.37934703 </v>
   <v>       0.41603084      -0.45809528       0.49701160 </v>
   <v>       0.31782748      -0.40811219      -0.47177397 </v>
   <v>       0.39303065      -0.40663761       0.29641129 </v>
   <v>       0.35195965       0.48919791       0.34432238 </v>
   <v>       0.45090719      -0.33705027       0.37765121 </v>
   <v>       0.31308234       0.48771696       0.46490179 </v>
   <v>       0.41284110      -0.33791770       0.49770400 </v>
   <v>       0.41716471       0.43728441       0.43168409 </v>
   <v>      -0.48514754      -0.39203888       0.46322502 </v>
   <v>      -0.48389777       0.49100055       0.46439627 </v>
   <v>       0.45335450       0.49046312       0.27068606 </v>
   <v>      -0.48496482      -0.40189819       0.29149918 </v>
   <v>       0.41381305      -0.40272439      -0.39586757 </v>
   <v>       0.35160115       0.48832847      -0.41509680 </v>
   <v>       0.32025208       0.38518031       0.39811756 </v>
   <v>      -0.48692809      -0.27730863       0.46387751 </v>
   <v>      -0.48312412       0.43874827       0.35923951 </v>
   <v>       0.45461585       0.43690987      -0.45095531 </v>
   <v>      -0.48449385      -0.45654577      -0.43080793 </v>
   <v>      -0.42270861      -0.45582285       0.37923060 </v>
   <v>       0.35294458       0.38099878      -0.48491775 </v>
   <v>      -0.48568722      -0.33589913      -0.42988760 </v>
   <v>       0.41634413       0.38278048       0.32384759 </v>
   <v>      -0.42275473      -0.33504851       0.37800875 </v>
   <v>      -0.48251067       0.37377222       0.46401456 </v>
   <v>      -0.38462964      -0.45575382       0.49581643 </v>
   <v>      -0.42081477       0.49211839       0.27081487 </v>
   <v>       0.41660206       0.31618169       0.42958118 </v>
   <v>      -0.38433917      -0.33499470       0.49736674 </v>
   <v>       0.45497966       0.49503441      -0.33799775 </v>
   <v>      -0.48222954       0.38794470       0.25639869 </v>
   <v>      -0.36306414      -0.40361433       0.29678873 </v>
   <v>      -0.42204824       0.43935093      -0.45086249 </v>
   <v>      -0.38386632       0.43961384       0.43154867 </v>
   <v>      -0.48320639      -0.40261444      -0.32890828 </v>
   <v>       0.39199795       0.37810961      -0.37216643 </v>
   <v>      -0.48206335       0.31846450       0.35653653 </v>
   <v>       0.45565135       0.31599706      -0.45183376 </v>
   <v>      -0.38298602      -0.40090212      -0.39667295 </v>
   <v>      -0.32062005      -0.39988383       0.41101122 </v>
   <v>       0.39626656       0.42994809      -0.28372647 </v>
   <v>      -0.38079587       0.38541630       0.32407053 </v>
   <v>      -0.42068965       0.49243135      -0.34258968 </v>
   <v>      -0.48354769       0.38396810      -0.36200595 </v>
   <v>      -0.31928663       0.49313160       0.34483779 </v>
   <v>      -0.48012602       0.25876216       0.46229702 </v>
   <v>      -0.28775214      -0.40352046      -0.47178367 </v>
   <v>      -0.42000240       0.31865291      -0.44916523 </v>
   <v>      -0.32021051       0.49301492      -0.41613300 </v>
   <v>      -0.38001336       0.31942327       0.43061121 </v>
   <v>      -0.28065234       0.49278009       0.46432851 </v>
   <v>      -0.31899378       0.38568624      -0.48264137 </v>
   <v>      -0.36103152       0.38849968      -0.36832105 </v>
   <v>      -0.28536260       0.38960072       0.40006729 </v>
  </varray>
 </structure>
 <varray name="primitive_index" >
  <v type="int" >        1 </v>
  <v type="int" >       19 </v>
  <v type="int" >       10 </v>
  <v type="int" >        8 </v>
  <v type="int" >       16 </v>
  <v type="int" >       17 </v>
  <v type="int" >        2 </v>
  <v type="int" >       24 </v>
  <v type="int" >        3 </v>
  <v type="int" >       26 </v>
  <v type="int" >        5 </v>
  <v type="int" >       28 </v>
  <v type="int" >       18 </v>
  <v type="int" >       20 </v>
  <v type="int" >       11 </v>
  <v type="int" >        9 </v>
  <v type="int" >       50 </v>
  <v type="int" >        4 </v>
  <v type="int" >       21 </v>
  <v type="int" >       27 </v>
  <v type="int" >       13 </v>
  <v type="int" >       23 </v>
  <v type="int" >       25 </v>
  <v type="int" >       12 </v>
  <v type="int" >       47 </v>
  <v type="int" >        6 </v>
  <v type="int" >       29 </v>
  <v type="int" >       14 </v>
  <v type="int" >       22 </v>
  <v type="int" >       51 </v>
  <v type="int" >        7 </v>
  <v type="int" >       39 </v>
  <v type="int" >       48 </v>
  <v type="int" >       35 </v>
  <v type="int" >       31 </v>
  <v type="int" >       30 </v>
  <v type="int" >       40 </v>
  <v type="int" >       42 </v>
  <v type="int" >       52 </v>
  <v type="int" >       43 </v>
  <v type="int" >       15 </v>
  <v type="int" >       32 </v>
  <v type="int" >       56 </v>
  <v type="int" >       49 </v>
  <v type="int" >       41 </v>
  <v type="int" >       44 </v>
  <v type="int" >       36 </v>
  <v type="int" >       55 </v>
  <v type="int" >       33 </v>
  <v type="int" >       45 </v>
  <v type="int" >       34 </v>
  <v type="int" >       53 </v>
  <v type="int" >       37 </v>
  <v type="int" >       38 </v>
  <v type="int" >       46 </v>
  <v type="int" >       54 </v>
 </varray>
 <kpoints>
  <generation param="Monkhorst-Pack">
   <v type="int" name="divisions">       1        1        1 </v>
   <v name="usershift">      0.00000000       0.00000000       0.00000000 </v>
   <v name="genvec1">      1.00000000       0.00000000       0.00000000 </v>
   <v name="genvec2">      0.00000000       1.00000000       0.00000000 </v>
   <v name="genvec3">      0.00000000       0.00000000       1.00000000 </v>
   <v name="shift">      0.00000000       0.00000000       0.00000000 </v>
  </generation>
  <varray name="kpointlist" >
   <v>       0.00000000       0.00000000       0.00000000 </v>
  </varray>
  <varray name="weights" >
   <v>       1.00000000 </v>
  </varray>
 </kpoints>
 <parameters>
  <separator name="general" >
   <i type="string" name="SYSTEM">single</i>
   <i type="logical" name="LCOMPAT"> F  </i>
  </separator>
  <separator name="electronic" >
   <i type="string" name="PREC">normal</i>
   <i name="ENMAX">    400.00000000</i>
   <i name="ENAUG">    544.56500000</i>
   <i name="EDIFF">      0.00000100</i>
   <i type="int" name="IALGO">    68</i>
   <i type="int" name="IWAVPR">    10</i>
   <i type="int" name="NBANDS">   380</i>
   <i name="NELECT">    556.00000000</i>
   <i type="int" name="TURBO">     0</i>
   <i type="int" name="IRESTART">     0</i>
   <i type="int" name="NREBOOT">     0</i>
   <i type="int" name="NMIN">     0</i>
   <i name="EREF">      0.00000000</i>
   <separator name="electronic smearing" >
    <i type="int" name="ISMEAR">     0</i>
    <i name="SIGMA">      0.10000000</i>
    <i name="KSPACING">      0.50000000</i>
    <i type="logical" name="KGAMMA"> T  </i>
   </separator>
   <separator name="electronic projectors" >
    <i type="logical" name="LREAL"> T  </i>
    <v name="ROPT">     -0.00050000     -0.00050000</v>
    <i type="int" name="LMAXPAW">  -100</i>
    <i type="int" name="LMAXMIX">     2</i>
    <i type="logical" name="NLSPLINE"> F  </i>
   </separator>
   <separator name="electronic startup" >
    <i type="int" name="ISTART">     0</i>
    <i type="int" name="ICHARG">     2</i>
    <i type="int" name="INIWAV">     1</i>
   </separator>
   <separator name="electronic spin" >
    <i type="int" name="ISPIN">     2</i>
    <i type="logical" name="LNONCOLLINEAR"> F  </i>
    <v name="MAGMOM">      1.00000000      1.00000000      1.00000000      1.00000000      1.00000000      1.00000000      1.00000000      1.00000000      1.00000000      1.00000000      1.00000000      1.00000000      1.00000000      1.00000000      1.00000000      1.00000000      1.00000000      1.00000000      1.00000000      1.00000000
      1.00000000      1.00000000      1.00000000      1.00000000      1.00000000      1.00000000      1.00000000      1.00000000      1.00000000      1.00000000      1.00000000      1.00000000      1.00000000      1.00000000      1.00000000      1.00000000      1.00000000      1.00000000      1.00000000      1.00000000
      1.00000000      1.00000000      1.00000000      1.00000000      1.00000000      1.00000000      1.00000000      1.00000000      1.00000000      1.00000000      1.00000000      1.00000000      1.00000000      1.00000000      1.00000000      1.00000000</v>
    <i name="NUPDOWN">     -1.00000000</i>
    <i type="logical" name="LSORBIT"> F  </i>
    <v name="SAXIS">      0.00000000      0.00000000      1.00000000</v>
    <i type="logical" name="LSPIRAL"> F  </i>
    <v name="QSPIRAL">      0.00000000      0.00000000      0.00000000</v>
    <i type="logical" name="LZEROZ"> F  </i>
   </separator>
   <separator name="electronic exchange-correlation" >
    <i type="logical" name="LASPH"> F  </i>
    <i type="logical" name="LMETAGGA"> F  </i>
   </separator>
   <separator name="electronic convergence" >
    <i type="int" name="NELM">   100</i>
    <i type="int" name="NELMDL">    -5</i>
    <i type="int" name="NELMIN">     2</i>
    <i name="ENINI">    400.00000000</i>
    <separator name="electronic convergence detail" >
     <i type="logical" name="LDIAG"> T  </i>
     <i type="logical" name="LSUBROT"> F  </i>
     <i name="WEIMIN">      0.00000000</i>
     <i name="EBREAK">      0.00000000</i>
     <i name="DEPER">      0.30000000</i>
     <i type="int" name="NRMM">     4</i>
     <i name="TIME">      0.40000000</i>
    </separator>
   </separator>
   <separator name="electronic mixer" >
    <i name="AMIX">      0.40000000</i>
    <i name="BMIX">      1.00000000</i>
    <i name="AMIN">      0.10000000</i>
    <i name="AMIX_MAG">      1.60000000</i>
    <i name="BMIX_MAG">      1.00000000</i>
    <separator name="electronic mixer details" >
     <i type="int" name="IMIX">     4</i>
     <i type="logical" name="MIXFIRST"> F  </i>
     <i type="int" name="MAXMIX">   -45</i>
     <i name="WC">    100.00000000</i>
     <i type="int" name="INIMIX">     1</i>
     <i type="int" name="MIXPRE">     1</i>
     <i type="int" name="MREMOVE">     5</i>
    </separator>
   </separator>
   <separator name="electronic dipolcorrection" >
    <i type="logical" name="LDIPOL"> F  </i>
    <i type="logical" name="LMONO"> F  </i>
    <i type="int" name="IDIPOL">     0</i>
    <i name="EPSILON">      1.00000000</i>
    <v name="DIPOL">   -100.00000000   -100.00000000   -100.00000000</v>
    <i name="EFIELD">      0.00000000</i>
   </separator>
  </separator>
  <separator name="grids" >
   <i type="int" name="NGX">    98</i>
   <i type="int" name="NGY">    98</i>
   <i type="int" name="NGZ">    98</i>
   <i type="int" name="NGXF">   196</i>
   <i type="int" name="NGYF">   196</i>
   <i type="int" name="NGZF">   196</i>
   <i type="logical" name="ADDGRID"> F  </i>
  </separator>
  <separator name="ionic" >
   <i type="int" name="NSW">     0</i>
   <i type="int" name="IBRION">    -1</i>
   <i type="int" name="MDALGO">     0</i>
   <i type="int" name="ISIF">     2</i>
   <i name="PSTRESS">      0.00000000</i>
   <i name="EDIFFG">      0.00001000</i>
   <i type="int" name="NFREE">     0</i>
   <i name="POTIM">      0.50000000</i>
   <i name="SMASS">     -3.00000000</i>
   <i name="SCALEE">      1.00000000</i>
  </separator>
  <separator name="ionic md" >
   <i name="TEBEG">      0.00010000</i>
   <i name="TEEND">      0.00010000</i>
   <i type="int" name="NBLOCK">     1</i>
   <i type="int" name="KBLOCK">     1</i>
   <i type="int" name="NPACO">   256</i>
   <i name="APACO">     16.00000000</i>
  </separator>
  <separator name="symmetry" >
   <i type="int" name="ISYM">     2</i>
   <i name="SYMPREC">      0.00000100</i>
  </separator>
  <separator name="dos" >
   <i type="int" name="LORBIT">     0</i>
   <v name="RWIGS">     -1.00000000     -1.00000000</v>
   <i type="int" name="NEDOS">   301</i>
   <i name="EMIN">     10.00000000</i>
   <i name="EMAX">    -10.00000000</i>
   <i name="EFERMI">      0.00000000</i>
  </separator>
  <separator name="writing" >
   <i type="int" name="NWRITE">     1</i>
   <i type="logical" name="LWAVE"> F  </i>
   <i type="logical" name="LDOWNSAMPLE"> F  </i>
   <i type="logical" name="LCHARG"> F  </i>
   <i type="logical" name="LPARD"> F  </i>
   <i type="logical" name="LVTOT"> F  </i>
   <i type="logical" name="LVHAR"> F  </i>
   <i type="logical" name="LELF"> F  </i>
   <i type="logical" name="LOPTICS"> F  </i>
   <v name="STM">      0.00000000      0.00000000      0.00000000      0.00000000      0.00000000      0.00000000      0.00000000</v>
  </separator>
  <separator name="performance" >
   <i type="int" name="NPAR">    20</i>
   <i type="int" name="NSIM">     4</i>
   <i type="int" name="NBLK">    -1</i>
   <i type="logical" name="LPLANE"> T  </i>
   <i type="logical" name="LSCALAPACK"> T  </i>
   <i type="logical" name="LSCAAWARE"> F  </i>
   <i type="logical" name="LSCALU"> F  </i>
   <i type="logical" name="LASYNC"> F  </i>
   <i type="logical" name="LORBITALREAL"> F  </i>
  </separator>
  <separator name="miscellaneous" >
   <i type="int" name="IDIOT">     3</i>
   <i type="int" name="ISPECIAL">     0</i>
   <i type="logical" name="LMUSIC"> F  </i>
   <v name="POMASS">     58.69000000     32.06600000</v>
   <v name="DARWINR">      0.00000000      0.00000000</v>
   <v name="DARWINV">      1.00000000      1.00000000</v>
   <i type="logical" name="LCORR"> T  </i>
  </separator>
  <i type="logical" name="GGA_COMPAT"> T  </i>
  <i type="logical" name="LBERRY"> F  </i>
  <i type="int" name="ICORELEVEL">     0</i>
  <i type="logical" name="LDAU"> F  </i>
  <i type="int" name="I_CONSTRAINED_M">     0</i>
  <separator name="electronic exchange-correlation" >
   <i type="string" name="GGA">--</i>
   <i type="int" name="VOSKOWN">     0</i>
   <i type="logical" name="LHFCALC"> F  </i>
   <i type="string" name="PRECFOCK"></i>
   <i type="logical" name="LSYMGRAD"> F  </i>
   <i type="logical" name="LHFONE"> F  </i>
   <i type="logical" name="LRHFCALC"> F  </i>
   <i type="logical" name="LTHOMAS"> F  </i>
   <i type="logical" name="LMODELHF"> F  </i>
   <i name="ENCUT4O">     -1.00000000</i>
   <i type="int" name="EXXOEP">     0</i>
   <i type="int" name="FOURORBIT">     0</i>
   <i name="AEXX">      0.00000000</i>
   <i name="HFALPHA">      0.00000000</i>
   <i name="MCALPHA">      0.00000000</i>
   <i name="ALDAX">      1.00000000</i>
   <i name="AGGAX">      1.00000000</i>
   <i name="ALDAC">      1.00000000</i>
   <i name="AGGAC">      1.00000000</i>
   <i type="int" name="NKREDX">     1</i>
   <i type="int" name="NKREDY">     1</i>
   <i type="int" name="NKREDZ">     1</i>
   <i type="logical" name="SHIFTRED"> F  </i>
   <i type="logical" name="ODDONLY"> F  </i>
   <i type="logical" name="EVENONLY"> F  </i>
   <i type="int" name="LMAXFOCK">     0</i>
   <i type="int" name="NMAXFOCKAE">     0</i>
   <i type="logical" name="LFOCKAEDFT"> F  </i>
   <i name="HFSCREEN">      0.00000000</i>
   <i name="HFSCREENC">      0.00000000</i>
   <i type="int" name="NBANDSGWLOW">     0</i>
  </separator>
  <separator name="vdW DFT" >
   <i type="logical" name="LUSE_VDW"> F  </i>
   <i name="Zab_VDW">     -0.84910000</i>
   <i name="PARAM1">      0.12340000</i>
   <i name="PARAM2">      1.00000000</i>
   <i name="PARAM3">      0.00000000</i>
  </separator>
  <separator name="model GW" >
   <i type="int" name="MODEL_GW">     0</i>
   <i name="MODEL_EPS0">     85.71428571</i>
   <i name="MODEL_ALPHA">      1.00000000</i>
  </separator>
  <separator name="linear response parameters" >
   <i type="logical" name="LEPSILON"> F  </i>
   <i type="logical" name="LRPA"> F  </i>
   <i type="logical" name="LNABLA"> F  </i>
   <i type="logical" name="LVEL"> F  </i>
   <i type="int" name="KINTER">     0</i>
   <i name="CSHIFT">      0.10000000</i>
   <i name="OMEGAMAX">     -1.00000000</i>
   <i name="DEG_THRESHOLD">      0.00200000</i>
   <i name="RTIME">     -0.10000000</i>
   <i name="WPLASMAI">      0.00000000</i>
   <v name="DFIELD">      0.00000000      0.00000000      0.00000000</v>
   <v name="WPLASMA">      0.00000000      0.00000000      0.00000000      0.00000000      0.00000000      0.00000000      0.00000000      0.00000000      0.00000000</v>
  </separator>
  <separator name="orbital magnetization" >
   <i type="logical" name="NUCIND"> F  </i>
   <v name="MAGPOS">      0.00000000      0.00000000      0.00000000</v>
   <i type="logical" name="LNICSALL"> T  </i>
   <i type="logical" name="ORBITALMAG"> F  </i>
   <i type="logical" name="LMAGBLOCH"> F  </i>
   <i type="logical" name="LCHIMAG"> F  </i>
   <i type="logical" name="LGAUGE"> T  </i>
   <i type="int" name="MAGATOM">     0</i>
   <v name="MAGDIPOL">      0.00000000      0.00000000      0.00000000</v>
   <v name="AVECCONST">      0.00000000      0.00000000      0.00000000</v>
  </separator>
  <separator name="response functions" >
   <i type="logical" name="LADDER"> F  </i>
   <i type="logical" name="LRPAFORCE"> F  </i>
   <i type="logical" name="LFXC"> F  </i>
   <i type="logical" name="LHARTREE"> T  </i>
   <i type="int" name="IBSE">     0</i>
   <v type="int" name="KPOINT">    -1     0     0     0</v>
   <i type="logical" name="LTCTE"> F  </i>
   <i type="logical" name="LTETE"> F  </i>
   <i type="logical" name="LTRIPLET"> F  </i>
   <i type="logical" name="LFXCEPS"> F  </i>
   <i type="logical" name="LFXHEG"> F  </i>
   <i type="int" name="NATURALO">     2</i>
   <i type="logical" name="L2ORDER"> F  </i>
   <i type="logical" name="LMP2LT"> F  </i>
   <i type="logical" name="LUSEW"> F  </i>
   <i name="ENCUTGW">     -2.00000000</i>
   <i name="ENCUTGWSOFT">     -2.00000000</i>
   <i name="ENCUTLF">     -1.00000000</i>
   <i type="int" name="LMAXMP2">    -1</i>
   <i name="SCISSOR">      0.00000000</i>
   <i type="int" name="NOMEGA">     0</i>
   <i type="int" name="NOMEGAR">     0</i>
   <i type="int" name="NBANDSGW">    -1</i>
   <i type="int" name="NBANDSO">    -1</i>
   <i type="int" name="NBANDSV">    -1</i>
   <i type="int" name="NELM">   100</i>
   <i type="int" name="NELMHF">     1</i>
   <i type="int" name="DIM">     3</i>
   <i type="int" name="ANTIRES">     0</i>
   <i name="OMEGAMAX">    -30.00000000</i>
   <i name="OMEGAMIN">    -30.00000000</i>
   <i name="OMEGATL">   -200.00000000</i>
   <i type="int" name="OMEGAGRID">   140</i>
   <i name="CSHIFT">     -0.10000000</i>
   <i type="logical" name="SELFENERGY"> F  </i>
   <i type="logical" name="LSPECTRAL"> F  </i>
   <i type="logical" name="LSPECTRALGW"> F  </i>
   <i type="logical" name="LSINGLES"> F  </i>
   <i type="logical" name="LFERMIGW"> F  </i>
   <i type="logical" name="ODDONLYGW"> F  </i>
   <i type="logical" name="EVENONLYGW"> F  </i>
   <i type="int" name="NKREDLFX">     1</i>
   <i type="int" name="NKREDLFY">     1</i>
   <i type="int" name="NKREDLFZ">     1</i>
   <i type="int" name="MAXMEM">  2800</i>
   <i type="int" name="TELESCOPE">     0</i>
   <i type="int" name="TAUPAR">     1</i>
   <i type="int" name="OMEGAPAR">    -1</i>
   <i name="LAMBDA">      1.00000000</i>
  </separator>
  <separator name="External order field" >
   <i name="OFIELD_KAPPA">      0.00000000</i>
   <v name="OFIELD_K">      0.00000000      0.00000000      0.00000000</v>
   <i name="OFIELD_Q6_NEAR">      0.00000000</i>
   <i name="OFIELD_Q6_FAR">      0.00000000</i>
   <i name="OFIELD_A">      0.00000000</i>
  </separator>
 </parameters>
 <atominfo>
  <atoms>      56 </atoms>
  <types>       2 </types>
  <array name="atoms" >
   <dimension dim="1">ion</dimension>
   <field type="string">element</field>
   <field type="int">atomtype</field>
   <set>
    <rc><c>Ni</c><c>   1</c></rc>
    <rc><c>Ni</c><c>   1</c></rc>
    <rc><c>Ni</c><c>   1</c></rc>
    <rc><c>Ni</c><c>   1</c></rc>
    <rc><c>Ni</c><c>   1</c></rc>
    <rc><c>Ni</c><c>   1</c></rc>
    <rc><c>Ni</c><c>   1</c></rc>
    <rc><c>Ni</c><c>   1</c></rc>
    <rc><c>Ni</c><c>   1</c></rc>
    <rc><c>Ni</c><c>   1</c></rc>
    <rc><c>Ni</c><c>   1</c></rc>
    <rc><c>Ni</c><c>   1</c></rc>
    <rc><c>Ni</c><c>   1</c></rc>
    <rc><c>Ni</c><c>   1</c></rc>
    <rc><c>Ni</c><c>   1</c></rc>
    <rc><c>Ni</c><c>   1</c></rc>
    <rc><c>Ni</c><c>   1</c></rc>
    <rc><c>Ni</c><c>   1</c></rc>
    <rc><c>Ni</c><c>   1</c></rc>
    <rc><c>Ni</c><c>   1</c></rc>
    <rc><c>Ni</c><c>   1</c></rc>
    <rc><c>Ni</c><c>   1</c></rc>
    <rc><c>Ni</c><c>   1</c></rc>
    <rc><c>Ni</c><c>   1</c></rc>
    <rc><c>Ni</c><c>   1</c></rc>
    <rc><c>Ni</c><c>   1</c></rc>
    <rc><c>Ni</c><c>   1</c></rc>
    <rc><c>Ni</c><c>   1</c></rc>
    <rc><c>Ni</c><c>   1</c></rc>
    <rc><c>Ni</c><c>   1</c></rc>
    <rc><c>Ni</c><c>   1</c></rc>
    <rc><c>Ni</c><c>   1</c></rc>
    <rc><c>Ni</c><c>   1</c></rc>
    <rc><c>Ni</c><c>   1</c></rc>
    <rc><c>Ni</c><c>   1</c></rc>
    <rc><c>Ni</c><c>   1</c></rc>
    <rc><c>Ni</c><c>   1</c></rc>
    <rc><c>Ni</c><c>   1</c></rc>
    <rc><c>Ni</c><c>   1</c></rc>
    <rc><c>Ni</c><c>   1</c></rc>
    <rc><c>Ni</c><c>   1</c></rc>
    <rc><c>Ni</c><c>   1</c></rc>
    <rc><c>Ni</c><c>   1</c></rc>
    <rc><c>Ni</c><c>   1</c></rc>
    <rc><c>Ni</c><c>   1</c></rc>
    <rc><c>Ni</c><c>   1</c></rc>
    <rc><c>Ni</c><c>   1</c></rc>
    <rc><c>Ni</c><c>   1</c></rc>
    <rc><c>Ni</c><c>   1</c></rc>
    <rc><c>Ni</c><c>   1</c></rc>
    <rc><c>Ni</c><c>   1</c></rc>
    <rc><c>Ni</c><c>   1</c></rc>
    <rc><c>Ni</c><c>   1</c></rc>
    <rc><c>Ni</c><c>   1</c></rc>
    <rc><c>Ni</c><c>   1</c></rc>
    <rc><c>S </c><c>   2</c></rc>
   </set>
  </array>
  <array name="atomtypes" >
   <dimension dim="1">type</dimension>
   <field type="int">atomspertype</field>
   <field type="string">element</field>
   <field>mass</field>
   <field>valence</field>
   <field type="string">pseudopotential</field>
   <set>
    <rc><c>  55</c><c>Ni</c><c>     58.69000000</c><c>     10.00000000</c><c> PAW_PBE Ni 06Sep2000                   </c></rc>
    <rc><c>   1</c><c>S </c><c>     32.06600000</c><c>      6.00000000</c><c>  PAW_PBE S 17Jan2003                   </c></rc>
   </set>
  </array>
 </atominfo>
 <structure name="initialpos" >
  <crystal>
   <varray name="basis" >
    <v>      20.00000000       0.00000000       0.00000000 </v>
    <v>       0.00000000      20.00000000       0.00000000 </v>
    <v>       0.00000000       0.00000000      20.00000000 </v>
   </varray>
   <i name="volume">   8000.00000000 </i>
   <varray name="rec_basis" >
    <v>       0.05000000       0.00000000       0.00000000 </v>
    <v>       0.00000000       0.05000000       0.00000000 </v>
    <v>       0.00000000       0.00000000       0.05000000 </v>
   </varray>
  </crystal>
  <varray name="positions" >
   <v>       0.35059555       0.59501761       0.41086543 </v>
   <v>       0.45090719       0.66294973       0.37765121 </v>
   <v>       0.41284110       0.66208230       0.49770400 </v>
   <v>       0.51307191       0.72269137       0.46387751 </v>
   <v>       0.51485246       0.60796112       0.46322502 </v>
   <v>       0.57724527       0.66495149       0.37800875 </v>
   <v>       0.61566083       0.66500530       0.49736674 </v>
   <v>       0.31782748       0.59188781       0.52822603 </v>
   <v>       0.35160115       0.48832847       0.58490320 </v>
   <v>       0.41603084       0.54190472       0.49701160 </v>
   <v>       0.41381305       0.59727561       0.60413243 </v>
   <v>       0.51431278       0.66410087       0.57011240 </v>
   <v>       0.51550615       0.54345423       0.56919207 </v>
   <v>       0.61537036       0.54424618       0.49581643 </v>
   <v>       0.61701398       0.59909788       0.60332705 </v>
   <v>       0.39303065       0.59336239       0.29641129 </v>
   <v>       0.35195965       0.48919791       0.34432238 </v>
   <v>       0.45335450       0.49046312       0.27068606 </v>
   <v>       0.45397105       0.54230696       0.37934703 </v>
   <v>       0.51503518       0.59810181       0.29149918 </v>
   <v>       0.51687588       0.43874827       0.35923951 </v>
   <v>       0.57918523       0.49211839       0.27081487 </v>
   <v>       0.57729139       0.54417715       0.37923060 </v>
   <v>       0.31308234       0.48771696       0.46490179 </v>
   <v>       0.35294458       0.38099878       0.51508225 </v>
   <v>       0.41716471       0.43728441       0.43168409 </v>
   <v>       0.45461585       0.43690987       0.54904469 </v>
   <v>       0.51610223       0.49100055       0.46439627 </v>
   <v>       0.51748933       0.37377222       0.46401456 </v>
   <v>       0.61613368       0.43961384       0.43154867 </v>
   <v>       0.57795176       0.43935093       0.54913751 </v>
   <v>       0.67937995       0.60011617       0.41101122 </v>
   <v>       0.71224786       0.59647954       0.52821633 </v>
   <v>       0.67978949       0.49301492       0.58386700 </v>
   <v>       0.63693586       0.59638567       0.29678873 </v>
   <v>       0.68071337       0.49313160       0.34483779 </v>
   <v>       0.71934766       0.49278009       0.46432851 </v>
   <v>       0.68100622       0.38568624       0.51735863 </v>
   <v>       0.45497966       0.49503441       0.66200225 </v>
   <v>       0.51679361       0.59738556       0.67109172 </v>
   <v>       0.57931035       0.49243135       0.65741032 </v>
   <v>       0.39199795       0.37810961       0.62783357 </v>
   <v>       0.45565135       0.31599706       0.54816624 </v>
   <v>       0.51645231       0.38396810       0.63799405 </v>
   <v>       0.57999760       0.31865291       0.55083477 </v>
   <v>       0.63896848       0.38849968       0.63167895 </v>
   <v>       0.41634413       0.38278048       0.32384759 </v>
   <v>       0.51777046       0.38794470       0.25639869 </v>
   <v>       0.61920413       0.38541630       0.32407053 </v>
   <v>       0.32025208       0.38518031       0.39811756 </v>
   <v>       0.41660206       0.31618169       0.42958118 </v>
   <v>       0.51793665       0.31846450       0.35653653 </v>
   <v>       0.61998664       0.31942327       0.43061121 </v>
   <v>       0.71463740       0.38960072       0.40006729 </v>
   <v>       0.51987398       0.25876216       0.46229702 </v>
   <v>       0.39626656       0.42994809       0.71627353 </v>
  </varray>
 </structure>
 <calculation>
  <scstep>
   <time name="dav">   22.97   23.10</time>
   <time name="total">   23.96   24.10</time>
   <energy>
    <i name="alphaZ">    387.12086559 </i>
    <i name="ewald"> 182189.62761590 </i>
    <i name="hartreedc">-236952.55219042 </i>
    <i name="XCdc">   1724.63635971 </i>
    <i name="pawpsdc">  47977.39182462 </i>
    <i name="pawaedc"> -51648.67119642 </i>
    <i name="eentropy">     -0.42562645 </i>
    <i name="bandstr">   -393.16160456 </i>
    <i name="atom">  59560.90262231 </i>
    <i name="e_fr_energy">   2844.86867030 </i>
    <i name="e_wo_entrp">   2845.29429674 </i>
    <i name="e_0_energy">   2845.08148352 </i>
   </energy>
  </scstep>
  <scstep>
   <time name="dav">   24.35   24.46</time>
   <time name="total">   24.35   24.46</time>
   <energy>
    <i name="e_fr_energy">   -141.90171325 </i>
    <i name="e_wo_entrp">   -141.33329811 </i>
    <i name="e_0_energy">   -141.61750568 </i>
   </energy>
  </scstep>
  <scstep>
   <time name="dav">   26.56   26.71</time>
   <time name="total">   26.56   26.71</time>
   <energy>
    <i name="e_fr_energy">   -302.73842612 </i>
    <i name="e_wo_entrp">   -302.24267438 </i>
    <i name="e_0_energy">   -302.49055025 </i>
   </energy>
  </scstep>
  <scstep>
   <time name="dav">   24.51   24.64</time>
   <time name="total">   24.51   24.64</time>
   <energy>
    <i name="e_fr_energy">   -306.61885774 </i>
    <i name="e_wo_entrp">   -306.11204230 </i>
    <i name="e_0_energy">   -306.36545002 </i>
   </energy>
  </scstep>
  <scstep>
   <time name="dav">   25.59   25.72</time>
   <time name="total">   26.73   26.86</time>
   <energy>
    <i name="e_fr_energy">   -306.70027271 </i>
    <i name="e_wo_entrp">   -306.19312283 </i>
    <i name="e_0_energy">   -306.44669777 </i>
   </energy>
  </scstep>
  <scstep>
   <time name="diag">    4.84    4.86</time>
   <time name="diis">   10.25   10.30</time>
   <time name="orth">    1.66    1.67</time>
   <time name="total">   18.80   18.92</time>
   <energy>
    <i name="e_fr_energy">   -392.57681683 </i>
    <i name="e_wo_entrp">   -392.33835310 </i>
    <i name="e_0_energy">   -392.45758496 </i>
   </energy>
  </scstep>
  <scstep>
   <time name="diag">    4.83    4.86</time>
   <time name="diis">   10.52   10.57</time>
   <time name="orth">    1.66    1.66</time>
   <time name="total">   19.10   19.19</time>
   <energy>
    <i name="e_fr_energy">   -328.52347263 </i>
    <i name="e_wo_entrp">   -327.74975168 </i>
    <i name="e_0_energy">   -328.13661215 </i>
   </energy>
  </scstep>
  <scstep>
   <time name="diag">    4.84    4.86</time>
   <time name="diis">    9.77    9.82</time>
   <time name="orth">    1.65    1.66</time>
   <time name="total">   18.36   18.44</time>
   <energy>
    <i name="e_fr_energy">   -292.00208943 </i>
    <i name="e_wo_entrp">   -291.60954929 </i>
    <i name="e_0_energy">   -291.80581936 </i>
   </energy>
  </scstep>
  <scstep>
   <time name="diag">    4.83    4.85</time>
   <time name="diis">    9.87    9.96</time>
   <time name="orth">    1.66    1.66</time>
   <time name="total">   18.45   18.58</time>
   <energy>
    <i name="e_fr_energy">   -265.97946609 </i>
    <i name="e_wo_entrp">   -265.22696308 </i>
    <i name="e_0_energy">   -265.60321459 </i>
   </energy>
  </scstep>
  <scstep>
   <time name="diag">    4.85    4.87</time>
   <time name="diis">    9.90    9.93</time>
   <time name="orth">    1.66    1.66</time>
   <time name="total">   18.50   18.57</time>
   <energy>
    <i name="e_fr_energy">   -264.85717529 </i>
    <i name="e_wo_entrp">   -264.21298593 </i>
    <i name="e_0_energy">   -264.53508061 </i>
   </energy>
  </scstep>
  <scstep>
   <time name="diag">    4.84    4.85</time>
   <time name="diis">    9.80    9.84</time>
   <time name="orth">    1.66    1.67</time>
   <time name="total">   18.40   18.46</time>
   <energy>
    <i name="e_fr_energy">   -262.95544322 </i>
    <i name="e_wo_entrp">   -262.42328783 </i>
    <i name="e_0_energy">   -262.68936553 </i>
   </energy>
  </scstep>
  <scstep>
   <time name="diag">    4.84    4.86</time>
   <time name="diis">    9.87    9.90</time>
   <time name="orth">    1.66    1.66</time>
   <time name="total">   18.48   18.54</time>
   <energy>
    <i name="e_fr_energy">   -258.78089023 </i>
    <i name="e_wo_entrp">   -258.17992328 </i>
    <i name="e_0_energy">   -258.48040676 </i>
   </energy>
  </scstep>
  <scstep>
   <time name="diag">    4.83    4.85</time>
   <time name="diis">    9.91    9.94</time>
   <time name="orth">    1.66    1.66</time>
   <time name="total">   18.51   18.57</time>
   <energy>
    <i name="e_fr_energy">   -256.75999187 </i>
    <i name="e_wo_entrp">   -256.21712397 </i>
    <i name="e_0_energy">   -256.48855792 </i>
   </energy>
  </scstep>
  <scstep>
   <time name="diag">    4.84    4.86</time>
   <time name="diis">    9.90    9.93</time>
   <time name="orth">    1.66    1.66</time>
   <time name="total">   18.50   18.56</time>
   <energy>
    <i name="e_fr_energy">   -255.72066519 </i>
    <i name="e_wo_entrp">   -255.16850539 </i>
    <i name="e_0_energy">   -255.44458529 </i>
   </energy>
  </scstep>
  <scstep>
   <time name="diag">    4.84    4.86</time>
   <time name="diis">   10.09   10.12</time>
   <time name="orth">    1.66    1.66</time>
   <time name="total">   18.70   18.76</time>
   <energy>
    <i name="e_fr_energy">   -255.03696008 </i>
    <i name="e_wo_entrp">   -254.44934387 </i>
    <i name="e_0_energy">   -254.74315197 </i>
   </energy>
  </scstep>
  <scstep>
   <time name="diag">    4.84    4.85</time>
   <time name="diis">    9.93    9.96</time>
   <time name="orth">    1.66    1.66</time>
   <time name="total">   18.54   18.60</time>
   <energy>
    <i name="e_fr_energy">   -254.68730591 </i>
    <i name="e_wo_entrp">   -254.04989415 </i>
    <i name="e_0_energy">   -254.36860003 </i>
   </energy>
  </scstep>
  <scstep>
   <time name="diag">    4.83    4.84</time>
   <time name="diis">    9.87    9.90</time>
   <time name="orth">    1.66    1.66</time>
   <time name="total">   18.47   18.52</time>
   <energy>
    <i name="e_fr_energy">   -255.34146161 </i>
    <i name="e_wo_entrp">   -254.69458146 </i>
    <i name="e_0_energy">   -255.01802153 </i>
   </energy>
  </scstep>
  <scstep>
   <time name="diag">    4.83    4.84</time>
   <time name="diis">    9.87    9.90</time>
   <time name="orth">    1.66    1.67</time>
   <time name="total">   18.47   18.53</time>
   <energy>
    <i name="e_fr_energy">   -253.72551677 </i>
    <i name="e_wo_entrp">   -253.04270561 </i>
    <i name="e_0_energy">   -253.38411119 </i>
   </energy>
  </scstep>
  <scstep>
   <time name="diag">    4.83    4.84</time>
   <time name="diis">   10.04   10.07</time>
   <time name="orth">    1.66    1.66</time>
   <time name="total">   18.65   18.71</time>
   <energy>
    <i name="e_fr_energy">   -253.56546747 </i>
    <i name="e_wo_entrp">   -252.89750579 </i>
    <i name="e_0_energy">   -253.23148663 </i>
   </energy>
  </scstep>
  <scstep>
   <time name="diag">    4.83    4.84</time>
   <time name="diis">    9.87    9.90</time>
   <time name="orth">    1.66    1.67</time>
   <time name="total">   18.49   18.54</time>
   <energy>
    <i name="e_fr_energy">   -254.04155449 </i>
    <i name="e_wo_entrp">   -253.35936817 </i>
    <i name="e_0_energy">   -253.70046133 </i>
   </energy>
  </scstep>
  <scstep>
   <time name="diag">    4.85    4.86</time>
   <time name="diis">    9.85    9.88</time>
   <time name="orth">    1.66    1.66</time>
   <time name="total">   18.47   18.53</time>
   <energy>
    <i name="e_fr_energy">   -254.21041391 </i>
    <i name="e_wo_entrp">   -253.51838553 </i>
    <i name="e_0_energy">   -253.86439972 </i>
   </energy>
  </scstep>
  <scstep>
   <time name="diag">    4.85    4.86</time>
   <time name="diis">    9.99   10.02</time>
   <time name="orth">    1.66    1.66</time>
   <time name="total">   18.64   18.69</time>
   <energy>
    <i name="e_fr_energy">   -254.23704890 </i>
    <i name="e_wo_entrp">   -253.54953466 </i>
    <i name="e_0_energy">   -253.89329178 </i>
   </energy>
  </scstep>
  <scstep>
   <time name="diag">    4.85    4.86</time>
   <time name="diis">    9.91    9.94</time>
   <time name="orth">    1.69    1.69</time>
   <time name="total">   18.60   18.65</time>
   <energy>
    <i name="e_fr_energy">   -254.53303693 </i>
    <i name="e_wo_entrp">   -253.83971143 </i>
    <i name="e_0_energy">   -254.18637418 </i>
   </energy>
  </scstep>
  <scstep>
   <time name="diag">    4.87    4.88</time>
   <time name="diis">    9.75    9.78</time>
   <time name="orth">    1.67    1.68</time>
   <time name="total">   18.44   18.49</time>
   <energy>
    <i name="e_fr_energy">   -255.13584212 </i>
    <i name="e_wo_entrp">   -254.44136978 </i>
    <i name="e_0_energy">   -254.78860595 </i>
   </energy>
  </scstep>
  <scstep>
   <time name="diag">    4.84    4.85</time>
   <time name="diis">   10.00   10.03</time>
   <time name="orth">    1.66    1.67</time>
   <time name="total">   18.66   18.71</time>
   <energy>
    <i name="e_fr_energy">   -255.33975075 </i>
    <i name="e_wo_entrp">   -254.64318487 </i>
    <i name="e_0_energy">   -254.99146781 </i>
   </energy>
  </scstep>
  <scstep>
   <time name="diag">    4.85    4.86</time>
   <time name="diis">    9.76    9.79</time>
   <time name="orth">    1.66    1.66</time>
   <time name="total">   18.43   18.48</time>
   <energy>
    <i name="e_fr_energy">   -256.31075187 </i>
    <i name="e_wo_entrp">   -255.62152924 </i>
    <i name="e_0_energy">   -255.96614055 </i>
   </energy>
  </scstep>
  <scstep>
   <time name="diag">    4.85    4.86</time>
   <time name="diis">    9.90    9.93</time>
   <time name="orth">    1.66    1.66</time>
   <time name="total">   18.57   18.62</time>
   <energy>
    <i name="e_fr_energy">   -256.78010008 </i>
    <i name="e_wo_entrp">   -256.09471646 </i>
    <i name="e_0_energy">   -256.43740827 </i>
   </energy>
  </scstep>
  <scstep>
   <time name="diag">    4.84    4.86</time>
   <time name="diis">    9.73    9.76</time>
   <time name="orth">    1.66    1.66</time>
   <time name="total">   18.40   18.45</time>
   <energy>
    <i name="e_fr_energy">   -257.40237088 </i>
    <i name="e_wo_entrp">   -256.72358773 </i>
    <i name="e_0_energy">   -257.06297931 </i>
   </energy>
  </scstep>
  <scstep>
   <time name="diag">    4.85    4.86</time>
   <time name="diis">    9.73    9.76</time>
   <time name="orth">    1.65    1.66</time>
   <time name="total">   18.40   18.45</time>
   <energy>
    <i name="e_fr_energy">   -258.10048738 </i>
    <i name="e_wo_entrp">   -257.42915174 </i>
    <i name="e_0_energy">   -257.76481956 </i>
   </energy>
  </scstep>
  <scstep>
   <time name="diag">    4.85    4.86</time>
   <time name="diis">    9.87    9.90</time>
   <time name="orth">    1.66    1.67</time>
   <time name="total">   18.54   18.60</time>
   <energy>
    <i name="e_fr_energy">   -258.32346772 </i>
    <i name="e_wo_entrp">   -257.65324265 </i>
    <i name="e_0_energy">   -257.98835519 </i>
   </energy>
  </scstep>
  <scstep>
   <time name="diag">    4.84    4.85</time>
   <time name="diis">    9.74    9.77</time>
   <time name="orth">    1.66    1.66</time>
   <time name="total">   18.40   18.45</time>
   <energy>
    <i name="e_fr_energy">   -259.05289339 </i>
    <i name="e_wo_entrp">   -258.38188046 </i>
    <i name="e_0_energy">   -258.71738693 </i>
   </energy>
  </scstep>
  <scstep>
   <time name="diag">    4.83    4.84</time>
   <time name="diis">    9.82    9.85</time>
   <time name="orth">    1.66    1.66</time>
   <time name="total">   18.46   18.51</time>
   <energy>
    <i name="e_fr_energy">   -259.50820283 </i>
    <i name="e_wo_entrp">   -258.84492762 </i>
    <i name="e_0_energy">   -259.17656522 </i>
   </energy>
  </scstep>
  <scstep>
   <time name="diag">    4.83    4.84</time>
   <time name="diis">    9.92    9.95</time>
   <time name="orth">    1.66    1.66</time>
   <time name="total">   18.57   18.62</time>
   <energy>
    <i name="e_fr_energy">   -259.72833029 </i>
    <i name="e_wo_entrp">   -259.06896765 </i>
    <i name="e_0_energy">   -259.39864897 </i>
   </energy>
  </scstep>
  <scstep>
   <time name="diag">    4.83    4.84</time>
   <time name="diis">    9.70    9.73</time>
   <time name="orth">    1.66    1.66</time>
   <time name="total">   18.35   18.41</time>
   <energy>
    <i name="e_fr_energy">   -260.46271698 </i>
    <i name="e_wo_entrp">   -259.81146805 </i>
    <i name="e_0_energy">   -260.13709252 </i>
   </energy>
  </scstep>
  <scstep>
   <time name="diag">    4.83    4.85</time>
   <time name="diis">   10.04   10.08</time>
   <time name="orth">    1.66    1.67</time>
   <time name="total">   18.70   18.78</time>
   <energy>
    <i name="e_fr_energy">   -260.70017151 </i>
    <i name="e_wo_entrp">   -260.05114482 </i>
    <i name="e_0_energy">   -260.37565817 </i>
   </energy>
  </scstep>
  <scstep>
   <time name="diag">    4.85    4.86</time>
   <time name="diis">    9.99   10.02</time>
   <time name="orth">    1.66    1.66</time>
   <time name="total">   18.72   18.77</time>
   <energy>
    <i name="e_fr_energy">   -260.92666945 </i>
    <i name="e_wo_entrp">   -260.27780143 </i>
    <i name="e_0_energy">   -260.60223544 </i>
   </energy>
  </scstep>
  <scstep>
   <time name="diag">    4.84    4.85</time>
   <time name="diis">    9.79    9.82</time>
   <time name="orth">    1.67    1.67</time>
   <time name="total">   18.50   18.55</time>
   <energy>
    <i name="e_fr_energy">   -261.22650073 </i>
    <i name="e_wo_entrp">   -260.57936425 </i>
    <i name="e_0_energy">   -260.90293249 </i>
   </energy>
  </scstep>
  <scstep>
   <time name="diag">    4.85    4.87</time>
   <time name="diis">   10.28   10.31</time>
   <time name="orth">    1.66    1.66</time>
   <time name="total">   19.00   19.05</time>
   <energy>
    <i name="e_fr_energy">   -261.31640351 </i>
    <i name="e_wo_entrp">   -260.66946646 </i>
    <i name="e_0_energy">   -260.99293498 </i>
   </energy>
  </scstep>
  <scstep>
   <time name="diag">    4.84    4.85</time>
   <time name="diis">    9.88    9.91</time>
   <time name="orth">    1.66    1.67</time>
   <time name="total">   18.59   18.65</time>
   <energy>
    <i name="e_fr_energy">   -261.55656373 </i>
    <i name="e_wo_entrp">   -260.90803977 </i>
    <i name="e_0_energy">   -261.23230175 </i>
   </energy>
  </scstep>
  <scstep>
   <time name="diag">    4.85    4.86</time>
   <time name="diis">    9.98   10.01</time>
   <time name="orth">    1.67    1.67</time>
   <time name="total">   18.72   18.78</time>
   <energy>
    <i name="e_fr_energy">   -261.67624752 </i>
    <i name="e_wo_entrp">   -261.02738571 </i>
    <i name="e_0_energy">   -261.35181661 </i>
   </energy>
  </scstep>
  <scstep>
   <time name="diag">    4.86    4.87</time>
   <time name="diis">   10.24   10.27</time>
   <time name="orth">    1.66    1.66</time>
   <time name="total">   18.98   19.03</time>
   <energy>
    <i name="e_fr_energy">   -261.75101485 </i>
    <i name="e_wo_entrp">   -261.10228253 </i>
    <i name="e_0_energy">   -261.42664869 </i>
   </energy>
  </scstep>
  <scstep>
   <time name="diag">    4.84    4.85</time>
   <time name="diis">    9.83    9.86</time>
   <time name="orth">    1.66    1.66</time>
   <time name="total">   18.56   18.61</time>
   <energy>
    <i name="e_fr_energy">   -261.85685800 </i>
    <i name="e_wo_entrp">   -261.20712959 </i>
    <i name="e_0_energy">   -261.53199379 </i>
   </energy>
  </scstep>
  <scstep>
   <time name="diag">    4.86    4.88</time>
   <time name="diis">   10.44   10.47</time>
   <time name="orth">    1.66    1.66</time>
   <time name="total">   19.19   19.25</time>
   <energy>
    <i name="e_fr_energy">   -261.87514325 </i>
    <i name="e_wo_entrp">   -261.22640163 </i>
    <i name="e_0_energy">   -261.55077244 </i>
   </energy>
  </scstep>
  <scstep>
   <time name="diag">    4.84    4.86</time>
   <time name="diis">   10.04   10.07</time>
   <time name="orth">    1.66    1.66</time>
   <time name="total">   18.80   18.85</time>
   <energy>
    <i name="e_fr_energy">   -261.92439092 </i>
    <i name="e_wo_entrp">   -261.27712002 </i>
    <i name="e_0_energy">   -261.60075547 </i>
   </energy>
  </scstep>
  <scstep>
   <time name="diag">    4.85    4.87</time>
   <time name="diis">   10.20   10.26</time>
   <time name="orth">    1.66    1.67</time>
   <time name="total">   18.97   19.05</time>
   <energy>
    <i name="e_fr_energy">   -261.94382933 </i>
    <i name="e_wo_entrp">   -261.29598229 </i>
    <i name="e_0_energy">   -261.61990581 </i>
   </energy>
  </scstep>
  <scstep>
   <time name="diag">    4.84    4.85</time>
   <time name="diis">   10.04   10.07</time>
   <time name="orth">    1.66    1.66</time>
   <time name="total">   18.80   18.85</time>
   <energy>
    <i name="e_fr_energy">   -261.96106064 </i>
    <i name="e_wo_entrp">   -261.31180386 </i>
    <i name="e_0_energy">   -261.63643225 </i>
   </energy>
  </scstep>
  <scstep>
   <time name="diag">    4.84    4.85</time>
   <time name="diis">    9.85    9.89</time>
   <time name="orth">    1.66    1.66</time>
   <time name="total">   18.64   18.70</time>
   <energy>
    <i name="e_fr_energy">   -261.98655009 </i>
    <i name="e_wo_entrp">   -261.33629203 </i>
    <i name="e_0_energy">   -261.66142106 </i>
   </energy>
  </scstep>
  <scstep>
   <time name="diag">    4.84    4.85</time>
   <time name="diis">   10.32   10.35</time>
   <time name="orth">    1.66    1.66</time>
   <time name="total">   19.11   19.17</time>
   <energy>
    <i name="e_fr_energy">   -261.99086323 </i>
    <i name="e_wo_entrp">   -261.34073595 </i>
    <i name="e_0_energy">   -261.66579959 </i>
   </energy>
  </scstep>
  <scstep>
   <time name="diag">    4.84    4.85</time>
   <time name="diis">    9.96    9.99</time>
   <time name="orth">    1.66    1.66</time>
   <time name="total">   18.75   18.81</time>
   <energy>
    <i name="e_fr_energy">   -261.99940398 </i>
    <i name="e_wo_entrp">   -261.34920460 </i>
    <i name="e_0_energy">   -261.67430429 </i>
   </energy>
  </scstep>
  <scstep>
   <time name="diag">    4.84    4.85</time>
   <time name="diis">   10.35   10.38</time>
   <time name="orth">    1.66    1.66</time>
   <time name="total">   19.14   19.20</time>
   <energy>
    <i name="e_fr_energy">   -262.00098983 </i>
    <i name="e_wo_entrp">   -261.35085348 </i>
    <i name="e_0_energy">   -261.67592165 </i>
   </energy>
  </scstep>
  <scstep>
   <time name="diag">    4.85    4.86</time>
   <time name="diis">   10.03   10.15</time>
   <time name="orth">    1.65    1.67</time>
   <time name="total">   18.81   18.96</time>
   <energy>
    <i name="e_fr_energy">   -262.00350490 </i>
    <i name="e_wo_entrp">   -261.35403590 </i>
    <i name="e_0_energy">   -261.67877040 </i>
   </energy>
  </scstep>
  <scstep>
   <time name="diag">    4.85    4.87</time>
   <time name="diis">   10.07   10.11</time>
   <time name="orth">    1.66    1.67</time>
   <time name="total">   18.88   18.94</time>
   <energy>
    <i name="e_fr_energy">   -262.00511511 </i>
    <i name="e_wo_entrp">   -261.35536428 </i>
    <i name="e_0_energy">   -261.68023970 </i>
   </energy>
  </scstep>
  <scstep>
   <time name="diag">    4.85    4.87</time>
   <time name="diis">   10.02   10.05</time>
   <time name="orth">    1.66    1.66</time>
   <time name="total">   18.82   18.88</time>
   <energy>
    <i name="e_fr_energy">   -262.00660788 </i>
    <i name="e_wo_entrp">   -261.35659934 </i>
    <i name="e_0_energy">   -261.68160361 </i>
   </energy>
  </scstep>
  <scstep>
   <time name="diag">    4.85    4.86</time>
   <time name="diis">   10.17   10.20</time>
   <time name="orth">    1.65    1.66</time>
   <time name="total">   18.98   19.04</time>
   <energy>
    <i name="e_fr_energy">   -262.00753581 </i>
    <i name="e_wo_entrp">   -261.35744848 </i>
    <i name="e_0_energy">   -261.68249214 </i>
   </energy>
  </scstep>
  <scstep>
   <time name="diag">    4.85    4.87</time>
   <time name="diis">   10.21   10.25</time>
   <time name="orth">    1.66    1.66</time>
   <time name="total">   19.01   19.07</time>
   <energy>
    <i name="e_fr_energy">   -262.00824419 </i>
    <i name="e_wo_entrp">   -261.35811561 </i>
    <i name="e_0_energy">   -261.68317990 </i>
   </energy>
  </scstep>
  <scstep>
   <time name="diag">    4.85    4.87</time>
   <time name="diis">    9.93    9.96</time>
   <time name="orth">    1.66    1.66</time>
   <time name="total">   18.72   18.77</time>
   <energy>
    <i name="e_fr_energy">   -262.00887550 </i>
    <i name="e_wo_entrp">   -261.35867785 </i>
    <i name="e_0_energy">   -261.68377667 </i>
   </energy>
  </scstep>
  <scstep>
   <time name="diag">    4.84    4.86</time>
   <time name="diis">   10.18   10.21</time>
   <time name="orth">    1.66    1.66</time>
   <time name="total">   18.96   19.02</time>
   <energy>
    <i name="e_fr_energy">   -262.00944221 </i>
    <i name="e_wo_entrp">   -261.35925066 </i>
    <i name="e_0_energy">   -261.68434644 </i>
   </energy>
  </scstep>
  <scstep>
   <time name="diag">    4.85    4.86</time>
   <time name="diis">    9.69    9.71</time>
   <time name="orth">    1.66    1.66</time>
   <time name="total">   18.48   18.53</time>
   <energy>
    <i name="e_fr_energy">   -262.01029034 </i>
    <i name="e_wo_entrp">   -261.36020901 </i>
    <i name="e_0_energy">   -261.68524968 </i>
   </energy>
  </scstep>
  <scstep>
   <time name="diag">    4.84    4.85</time>
   <time name="diis">    9.35    9.37</time>
   <time name="orth">    1.68    1.69</time>
   <time name="total">   18.18   18.23</time>
   <energy>
    <i name="e_fr_energy">   -262.01055471 </i>
    <i name="e_wo_entrp">   -261.36048186 </i>
    <i name="e_0_energy">   -261.68551829 </i>
   </energy>
  </scstep>
  <scstep>
   <time name="diag">    4.83    4.85</time>
   <time name="diis">    9.14    9.17</time>
   <time name="orth">    1.66    1.66</time>
   <time name="total">   17.92   17.98</time>
   <energy>
    <i name="e_fr_energy">   -262.01093764 </i>
    <i name="e_wo_entrp">   -261.36084195 </i>
    <i name="e_0_energy">   -261.68588980 </i>
   </energy>
  </scstep>
  <scstep>
   <time name="diag">    4.83    4.85</time>
   <time name="diis">    8.99    9.01</time>
   <time name="orth">    1.66    1.66</time>
   <time name="total">   17.75   17.80</time>
   <energy>
    <i name="e_fr_energy">   -262.01097990 </i>
    <i name="e_wo_entrp">   -261.36082372 </i>
    <i name="e_0_energy">   -261.68590181 </i>
   </energy>
  </scstep>
  <scstep>
   <time name="diag">    4.84    4.85</time>
   <time name="diis">    8.67    8.70</time>
   <time name="orth">    1.66    1.66</time>
   <time name="total">   17.46   17.51</time>
   <energy>
    <i name="e_fr_energy">   -262.01108577 </i>
    <i name="e_wo_entrp">   -261.36094011 </i>
    <i name="e_0_energy">   -261.68601294 </i>
   </energy>
  </scstep>
  <scstep>
   <time name="diag">    4.85    4.86</time>
   <time name="diis">    7.41    7.44</time>
   <time name="orth">    1.66    1.66</time>
   <time name="total">   16.22   16.27</time>
   <energy>
    <i name="e_fr_energy">   -262.01115921 </i>
    <i name="e_wo_entrp">   -261.36097946 </i>
    <i name="e_0_energy">   -261.68606934 </i>
   </energy>
  </scstep>
  <scstep>
   <time name="diag">    4.84    4.85</time>
   <time name="diis">    7.01    7.03</time>
   <time name="orth">    1.66    1.66</time>
   <time name="total">   15.82   15.86</time>
   <energy>
    <i name="e_fr_energy">   -262.01126719 </i>
    <i name="e_wo_entrp">   -261.36111695 </i>
    <i name="e_0_energy">   -261.68619207 </i>
   </energy>
  </scstep>
  <scstep>
   <time name="diag">    4.84    4.85</time>
   <time name="diis">    7.02    7.04</time>
   <time name="orth">    1.66    1.66</time>
   <time name="total">   15.79   15.84</time>
   <energy>
    <i name="e_fr_energy">   -262.01129980 </i>
    <i name="e_wo_entrp">   -261.36117275 </i>
    <i name="e_0_energy">   -261.68623628 </i>
   </energy>
  </scstep>
  <scstep>
   <time name="diag">    4.84    4.86</time>
   <time name="diis">    7.14    7.17</time>
   <time name="orth">    1.66    1.66</time>
   <time name="total">   15.92   15.97</time>
   <energy>
    <i name="e_fr_energy">   -262.01130596 </i>
    <i name="e_wo_entrp">   -261.36117076 </i>
    <i name="e_0_energy">   -261.68623836 </i>
   </energy>
  </scstep>
  <scstep>
   <time name="diag">    4.84    4.85</time>
   <time name="diis">    6.79    6.81</time>
   <time name="orth">    1.66    1.66</time>
   <time name="total">   15.58   15.62</time>
   <energy>
    <i name="e_fr_energy">   -262.01133251 </i>
    <i name="e_wo_entrp">   -261.36120035 </i>
    <i name="e_0_energy">   -261.68626643 </i>
   </energy>
  </scstep>
  <scstep>
   <time name="diag">    4.85    4.86</time>
   <time name="diis">    6.72    6.74</time>
   <time name="orth">    1.66    1.66</time>
   <time name="total">   15.52   15.56</time>
   <energy>
    <i name="e_fr_energy">   -262.01136920 </i>
    <i name="e_wo_entrp">   -261.36122556 </i>
    <i name="e_0_energy">   -261.68629738 </i>
   </energy>
  </scstep>
  <scstep>
   <time name="diag">    4.84    4.86</time>
   <time name="diis">    6.80    6.82</time>
   <time name="orth">    1.66    1.66</time>
   <time name="total">   15.61   15.65</time>
   <energy>
    <i name="e_fr_energy">   -262.01143677 </i>
    <i name="e_wo_entrp">   -261.36128275 </i>
    <i name="e_0_energy">   -261.68635976 </i>
   </energy>
  </scstep>
  <scstep>
   <time name="diag">    4.84    4.85</time>
   <time name="diis">    6.91    6.93</time>
   <time name="orth">    1.68    1.69</time>
   <time name="total">   15.72   15.77</time>
   <energy>
    <i name="e_fr_energy">   -262.01148589 </i>
    <i name="e_wo_entrp">   -261.36134117 </i>
    <i name="e_0_energy">   -261.68641353 </i>
   </energy>
  </scstep>
  <scstep>
   <time name="diag">    4.85    4.87</time>
   <time name="diis">    6.84    6.86</time>
   <time name="orth">    1.66    1.66</time>
   <time name="total">   15.64   15.69</time>
   <energy>
    <i name="e_fr_energy">   -262.01150316 </i>
    <i name="e_wo_entrp">   -261.36136488 </i>
    <i name="e_0_energy">   -261.68643402 </i>
   </energy>
  </scstep>
  <scstep>
   <time name="diag">    4.84    4.85</time>
   <time name="diis">    6.61    6.63</time>
   <time name="orth">    1.66    1.66</time>
   <time name="total">   15.39   15.43</time>
   <energy>
    <i name="e_fr_energy">   -262.01152514 </i>
    <i name="e_wo_entrp">   -261.36138361 </i>
    <i name="e_0_energy">   -261.68645437 </i>
   </energy>
  </scstep>
  <scstep>
   <time name="diag">    4.83    4.84</time>
   <time name="diis">    6.58    6.59</time>
   <time name="orth">    1.66    1.66</time>
   <time name="total">   15.37   15.41</time>
   <energy>
    <i name="e_fr_energy">   -262.01153585 </i>
    <i name="e_wo_entrp">   -261.36139926 </i>
    <i name="e_0_energy">   -261.68646755 </i>
   </energy>
  </scstep>
  <scstep>
   <time name="diag">    4.83    4.85</time>
   <time name="diis">    6.47    6.49</time>
   <time name="orth">    1.66    1.66</time>
   <time name="total">   15.27   15.31</time>
   <energy>
    <i name="e_fr_energy">   -262.01154538 </i>
    <i name="e_wo_entrp">   -261.36140468 </i>
    <i name="e_0_energy">   -261.68647503 </i>
   </energy>
  </scstep>
  <scstep>
   <time name="diag">    4.85    4.86</time>
   <time name="diis">    6.21    6.23</time>
   <time name="orth">    1.66    1.66</time>
   <time name="total">   15.01   15.05</time>
   <energy>
    <i name="e_fr_energy">   -262.01155097 </i>
    <i name="e_wo_entrp">   -261.36140750 </i>
    <i name="e_0_energy">   -261.68647923 </i>
   </energy>
  </scstep>
  <scstep>
   <time name="diag">    4.84    4.85</time>
   <time name="diis">    5.98    6.00</time>
   <time name="orth">    1.66    1.66</time>
   <time name="total">   14.76   14.80</time>
   <energy>
    <i name="e_fr_energy">   -262.01155591 </i>
    <i name="e_wo_entrp">   -261.36141113 </i>
    <i name="e_0_energy">   -261.68648352 </i>
   </energy>
  </scstep>
  <scstep>
   <time name="diag">    4.83    4.85</time>
   <time name="diis">    5.39    5.41</time>
   <time name="orth">    1.66    1.66</time>
   <time name="total">   14.16   14.20</time>
   <energy>
    <i name="e_fr_energy">   -262.01155819 </i>
    <i name="e_wo_entrp">   -261.36141517 </i>
    <i name="e_0_energy">   -261.68648668 </i>
   </energy>
  </scstep>
  <scstep>
   <time name="diag">    4.84    4.85</time>
   <time name="diis">    5.40    5.42</time>
   <time name="orth">    1.66    1.66</time>
   <time name="total">   14.21   14.24</time>
   <energy>
    <i name="e_fr_energy">   -262.01156013 </i>
    <i name="e_wo_entrp">   -261.36141837 </i>
    <i name="e_0_energy">   -261.68648925 </i>
   </energy>
  </scstep>
  <scstep>
   <time name="diag">    4.84    4.86</time>
   <time name="diis">    4.96    4.98</time>
   <time name="orth">    1.69    1.69</time>
   <time name="total">   12.46   12.50</time>
   <energy>
    <i name="alphaZ">    387.12086559 </i>
    <i name="ewald"> 182189.62761590 </i>
    <i name="hartreedc">-237060.88497492 </i>
    <i name="XCdc">   1682.13728698 </i>
    <i name="pawpsdc">  50102.02254244 </i>
    <i name="pawaedc"> -53859.26197973 </i>
    <i name="eentropy">     -0.65013998 </i>
    <i name="bandstr">  -3263.02539968 </i>
    <i name="atom">  59560.90262231 </i>
    <i name="e_fr_energy">   -262.01156107 </i>
    <i name="e_wo_entrp">   -261.36142109 </i>
    <i name="e_0_energy">   -261.68649108 </i>
   </energy>
  </scstep>
  <structure>
   <crystal>
    <varray name="basis" >
     <v>      20.00000000       0.00000000       0.00000000 </v>
     <v>       0.00000000      20.00000000       0.00000000 </v>
     <v>       0.00000000       0.00000000      20.00000000 </v>
    </varray>
    <i name="volume">   8000.00000000 </i>
    <varray name="rec_basis" >
     <v>       0.05000000       0.00000000       0.00000000 </v>
     <v>       0.00000000       0.05000000       0.00000000 </v>
     <v>       0.00000000       0.00000000       0.05000000 </v>
    </varray>
   </crystal>
   <varray name="positions" >
    <v>       0.35059555       0.59501761       0.41086543 </v>
    <v>       0.45090719       0.66294973       0.37765121 </v>
    <v>       0.41284110       0.66208230       0.49770400 </v>
    <v>       0.51307191       0.72269137       0.46387751 </v>
    <v>       0.51485246       0.60796112       0.46322502 </v>
    <v>       0.57724527       0.66495149       0.37800875 </v>
    <v>       0.61566083       0.66500530       0.49736674 </v>
    <v>       0.31782748       0.59188781       0.52822603 </v>
    <v>       0.35160115       0.48832847       0.58490320 </v>
    <v>       0.41603084       0.54190472       0.49701160 </v>
    <v>       0.41381305       0.59727561       0.60413243 </v>
    <v>       0.51431278       0.66410087       0.57011240 </v>
    <v>       0.51550615       0.54345423       0.56919207 </v>
    <v>       0.61537036       0.54424618       0.49581643 </v>
    <v>       0.61701398       0.59909788       0.60332705 </v>
    <v>       0.39303065       0.59336239       0.29641129 </v>
    <v>       0.35195965       0.48919791       0.34432238 </v>
    <v>       0.45335450       0.49046312       0.27068606 </v>
    <v>       0.45397105       0.54230696       0.37934703 </v>
    <v>       0.51503518       0.59810181       0.29149918 </v>
    <v>       0.51687588       0.43874827       0.35923951 </v>
    <v>       0.57918523       0.49211839       0.27081487 </v>
    <v>       0.57729139       0.54417715       0.37923060 </v>
    <v>       0.31308234       0.48771696       0.46490179 </v>
    <v>       0.35294458       0.38099878       0.51508225 </v>
    <v>       0.41716471       0.43728441       0.43168409 </v>
    <v>       0.45461585       0.43690987       0.54904469 </v>
    <v>       0.51610223       0.49100055       0.46439627 </v>
    <v>       0.51748933       0.37377222       0.46401456 </v>
    <v>       0.61613368       0.43961384       0.43154867 </v>
    <v>       0.57795176       0.43935093       0.54913751 </v>
    <v>       0.67937995       0.60011617       0.41101122 </v>
    <v>       0.71224786       0.59647954       0.52821633 </v>
    <v>       0.67978949       0.49301492       0.58386700 </v>
    <v>       0.63693586       0.59638567       0.29678873 </v>
    <v>       0.68071337       0.49313160       0.34483779 </v>
    <v>       0.71934766       0.49278009       0.46432851 </v>
    <v>       0.68100622       0.38568624       0.51735863 </v>
    <v>       0.45497966       0.49503441       0.66200225 </v>
    <v>       0.51679361       0.59738556       0.67109172 </v>
    <v>       0.57931035       0.49243135       0.65741032 </v>
    <v>       0.39199795       0.37810961       0.62783357 </v>
    <v>       0.45565135       0.31599706       0.54816624 </v>
    <v>       0.51645231       0.38396810       0.63799405 </v>
    <v>       0.57999760       0.31865291       0.55083477 </v>
    <v>       0.63896848       0.38849968       0.63167895 </v>
    <v>       0.41634413       0.38278048       0.32384759 </v>
    <v>       0.51777046       0.38794470       0.25639869 </v>
    <v>       0.61920413       0.38541630       0.32407053 </v>
    <v>       0.32025208       0.38518031       0.39811756 </v>
    <v>       0.41660206       0.31618169       0.42958118 </v>
    <v>       0.51793665       0.31846450       0.35653653 </v>
    <v>       0.61998664       0.31942327       0.43061121 </v>
    <v>       0.71463740       0.38960072       0.40006729 </v>
    <v>       0.51987398       0.25876216       0.46229702 </v>
    <v>       0.39626656       0.42994809       0.71627353 </v>
   </varray>
  </structure>
  <varray name="forces" >
   <v>      -0.02250508       0.04885711       0.01177148 </v>
   <v>       0.02042624       0.02288032      -0.02131338 </v>
   <v>      -0.05689279       0.03889227      -0.03792886 </v>
   <v>       0.00428999       0.12504644       0.00088470 </v>
   <v>      -0.00078587       0.15049766       0.04704051 </v>
   <v>       0.00782094       0.02982880      -0.04735767 </v>
   <v>       0.03514430       0.01625686      -0.05446707 </v>
   <v>      -0.07993694       0.02935655       0.06330310 </v>
   <v>      -0.03464618      -0.00844844       0.02036407 </v>
   <v>      -0.17819506      -0.01258762       0.11693804 </v>
   <v>       0.00163639       0.00732407      -0.00630943 </v>
   <v>       0.02834768      -0.00950960       0.04458201 </v>
   <v>       0.07345015       0.14752004       0.07254667 </v>
   <v>       0.11639303       0.07747946       0.07029966 </v>
   <v>      -0.03960347       0.03321519       0.02064816 </v>
   <v>      -0.07435928       0.05242418      -0.07232821 </v>
   <v>      -0.04679603      -0.04267822       0.00324616 </v>
   <v>       0.04667256       0.01968912      -0.01631753 </v>
   <v>      -0.07444073       0.09251055      -0.14086059 </v>
   <v>       0.00020353       0.00710185      -0.02418181 </v>
   <v>       0.01027301      -0.06289872      -0.15577707 </v>
   <v>       0.01258621       0.00610113      -0.02940101 </v>
   <v>       0.05600801       0.04498771      -0.08617494 </v>
   <v>       0.02359751       0.02450091      -0.00112324 </v>
   <v>      -0.04740791      -0.06738829       0.01870508 </v>
   <v>      -0.13145416      -0.09750160      -0.06624966 </v>
   <v>      -0.00481732       0.01037074       0.04144497 </v>
   <v>      -0.04575742      -0.06045706       0.03893563 </v>
   <v>      -0.01380053      -0.17942325      -0.03937287 </v>
   <v>       0.16187782      -0.06328814      -0.05737319 </v>
   <v>      -0.00149931      -0.12271025       0.17470822 </v>
   <v>       0.03578810       0.00380443      -0.03339096 </v>
   <v>       0.11723082       0.06649954       0.03167441 </v>
   <v>       0.06757225      -0.03564360       0.00109025 </v>
   <v>       0.06116738       0.05054087      -0.09843464 </v>
   <v>       0.02000856      -0.00648654      -0.01715814 </v>
   <v>       0.01899023       0.03140614      -0.01973594 </v>
   <v>       0.04080999       0.00790494       0.02777118 </v>
   <v>       0.04173359       0.01297192      -0.09332689 </v>
   <v>       0.03913145       0.09012484       0.06137903 </v>
   <v>       0.01305953      -0.00208567      -0.00742347 </v>
   <v>      -0.00009728      -0.10110576      -0.21730404 </v>
   <v>      -0.05660592      -0.06865330       0.01756057 </v>
   <v>      -0.00634005      -0.03086341       0.02861665 </v>
   <v>       0.01567471       0.04051157       0.00205270 </v>
   <v>       0.01787187      -0.02879036       0.10759838 </v>
   <v>      -0.04125246       0.03151979      -0.05292810 </v>
   <v>      -0.01882896      -0.08044379      -0.11836872 </v>
   <v>       0.00921718       0.04660780      -0.02784032 </v>
   <v>      -0.09646231      -0.03983579      -0.04844078 </v>
   <v>       0.01591969       0.02813427       0.02889083 </v>
   <v>       0.05999558      -0.02628927      -0.01180673 </v>
   <v>      -0.01670178      -0.05413148       0.00417084 </v>
   <v>       0.10963461      -0.05507416      -0.01416184 </v>
   <v>       0.01138568      -0.11078409      -0.01055198 </v>
   <v>      -0.20473175      -0.02778867       0.57118582 </v>
  </varray>
  <varray name="stress" >
   <v>       0.45255665       0.07444001      -0.15274781 </v>
   <v>       0.07443995       0.41967922      -0.05571698 </v>
   <v>      -0.15274775      -0.05571707       0.68307456 </v>
  </varray>
  <energy>
   <i name="e_fr_energy">   -262.01156107 </i>
   <i name="e_wo_entrp">   -261.68649108 </i>
   <i name="e_0_energy">     -0.65013998 </i>
  </energy>
  <time name="totalsc"> 1461.60 1466.51</time>
  <eigenvalues>
   <array>
    <dimension dim="1">band</dimension>
    <dimension dim="2">kpoint</dimension>
    <dimension dim="3">spin</dimension>
    <field>eigene</field>
    <field>occ</field>
    <set>
     <set comment="spin 1">
      <set comment="kpoint 1">
       <r>  -16.5687    1.0000 </r>
       <r>  -12.0942    1.0000 </r>
       <r>  -10.7269    1.0000 </r>
       <r>  -10.7133    1.0000 </r>
       <r>  -10.6680    1.0000 </r>
       <r>   -9.4938    1.0000 </r>
       <r>   -9.4622    1.0000 </r>
       <r>   -9.4556    1.0000 </r>
       <r>   -9.4492    1.0000 </r>
       <r>   -9.4112    1.0000 </r>
       <r>   -9.3247    1.0000 </r>
       <r>   -8.7155    1.0000 </r>
       <r>   -8.6767    1.0000 </r>
       <r>   -8.6737    1.0000 </r>
       <r>   -8.5544    1.0000 </r>
       <r>   -8.5060    1.0000 </r>
       <r>   -8.5017    1.0000 </r>
       <r>   -8.4990    1.0000 </r>
       <r>   -8.4876    1.0000 </r>
       <r>   -8.4659    1.0000 </r>
       <r>   -8.3795    1.0000 </r>
       <r>   -8.2773    1.0000 </r>
       <r>   -8.2759    1.0000 </r>
       <r>   -8.2667    1.0000 </r>
       <r>   -8.2586    1.0000 </r>
       <r>   -8.2394    1.0000 </r>
       <r>   -8.2255    1.0000 </r>
       <r>   -8.0702    1.0000 </r>
       <r>   -7.9917    1.0000 </r>
       <r>   -7.9849    1.0000 </r>
       <r>   -7.9796    1.0000 </r>
       <r>   -7.9666    1.0000 </r>
       <r>   -7.9574    1.0000 </r>
       <r>   -7.9538    1.0000 </r>
       <r>   -7.9482    1.0000 </r>
       <r>   -7.9132    1.0000 </r>
       <r>   -7.9062    1.0000 </r>
       <r>   -7.7688    1.0000 </r>
       <r>   -7.7178    1.0000 </r>
       <r>   -7.6989    1.0000 </r>
       <r>   -7.6391    1.0000 </r>
       <r>   -7.6234    1.0000 </r>
       <r>   -7.6204    1.0000 </r>
       <r>   -7.6170    1.0000 </r>
       <r>   -7.5723    1.0000 </r>
       <r>   -7.5715    1.0000 </r>
       <r>   -7.5536    1.0000 </r>
       <r>   -7.5207    1.0000 </r>
       <r>   -7.4827    1.0000 </r>
       <r>   -7.4743    1.0000 </r>
       <r>   -7.4549    1.0000 </r>
       <r>   -7.4067    1.0000 </r>
       <r>   -7.3823    1.0000 </r>
       <r>   -7.3800    1.0000 </r>
       <r>   -7.3781    1.0000 </r>
       <r>   -7.3704    1.0000 </r>
       <r>   -7.3458    1.0000 </r>
       <r>   -7.2995    1.0000 </r>
       <r>   -7.2513    1.0000 </r>
       <r>   -7.2447    1.0000 </r>
       <r>   -7.1970    1.0000 </r>
       <r>   -7.1364    1.0000 </r>
       <r>   -7.1351    1.0000 </r>
       <r>   -7.1133    1.0000 </r>
       <r>   -7.0916    1.0000 </r>
       <r>   -7.0321    1.0000 </r>
       <r>   -6.9804    1.0000 </r>
       <r>   -6.9316    1.0000 </r>
       <r>   -6.9227    1.0000 </r>
       <r>   -6.9181    1.0000 </r>
       <r>   -6.8906    1.0000 </r>
       <r>   -6.8570    1.0000 </r>
       <r>   -6.8416    1.0000 </r>
       <r>   -6.8143    1.0000 </r>
       <r>   -6.7989    1.0000 </r>
       <r>   -6.7398    1.0000 </r>
       <r>   -6.7350    1.0000 </r>
       <r>   -6.7248    1.0000 </r>
       <r>   -6.7092    1.0000 </r>
       <r>   -6.6894    1.0000 </r>
       <r>   -6.5965    1.0000 </r>
       <r>   -6.5884    1.0000 </r>
       <r>   -6.5783    1.0000 </r>
       <r>   -6.5780    1.0000 </r>
       <r>   -6.5658    1.0000 </r>
       <r>   -6.5574    1.0000 </r>
       <r>   -6.5507    1.0000 </r>
       <r>   -6.5468    1.0000 </r>
       <r>   -6.5457    1.0000 </r>
       <r>   -6.5378    1.0000 </r>
       <r>   -6.5319    1.0000 </r>
       <r>   -6.5274    1.0000 </r>
       <r>   -6.5164    1.0000 </r>
       <r>   -6.5042    1.0000 </r>
       <r>   -6.4891    1.0000 </r>
       <r>   -6.4890    1.0000 </r>
       <r>   -6.4734    1.0000 </r>
       <r>   -6.4448    1.0000 </r>
       <r>   -6.4392    1.0000 </r>
       <r>   -6.4334    1.0000 </r>
       <r>   -6.4305    1.0000 </r>
       <r>   -6.3922    1.0000 </r>
       <r>   -6.3864    1.0000 </r>
       <r>   -6.3647    1.0000 </r>
       <r>   -6.3602    1.0000 </r>
       <r>   -6.3566    1.0000 </r>
       <r>   -6.3333    1.0000 </r>
       <r>   -6.2959    1.0000 </r>
       <r>   -6.2743    1.0000 </r>
       <r>   -6.2740    1.0000 </r>
       <r>   -6.2576    1.0000 </r>
       <r>   -6.2458    1.0000 </r>
       <r>   -6.2352    1.0000 </r>
       <r>   -6.2333    1.0000 </r>
       <r>   -6.2214    1.0000 </r>
       <r>   -6.2141    1.0000 </r>
       <r>   -6.1912    1.0000 </r>
       <r>   -6.1764    1.0000 </r>
       <r>   -6.1627    1.0000 </r>
       <r>   -6.1301    1.0000 </r>
       <r>   -6.1198    1.0000 </r>
       <r>   -6.1099    1.0000 </r>
       <r>   -6.1018    1.0000 </r>
       <r>   -6.0805    1.0000 </r>
       <r>   -6.0701    1.0000 </r>
       <r>   -6.0675    1.0000 </r>
       <r>   -6.0542    1.0000 </r>
       <r>   -6.0254    1.0000 </r>
       <r>   -6.0204    1.0000 </r>
       <r>   -5.9972    1.0000 </r>
       <r>   -5.9333    1.0000 </r>
       <r>   -5.9215    1.0000 </r>
       <r>   -5.8714    1.0000 </r>
       <r>   -5.8291    1.0000 </r>
       <r>   -5.8282    1.0000 </r>
       <r>   -5.8195    1.0000 </r>
       <r>   -5.8135    1.0000 </r>
       <r>   -5.7951    1.0000 </r>
       <r>   -5.7947    1.0000 </r>
       <r>   -5.7911    1.0000 </r>
       <r>   -5.7846    1.0000 </r>
       <r>   -5.7838    1.0000 </r>
       <r>   -5.7801    1.0000 </r>
       <r>   -5.7729    1.0000 </r>
       <r>   -5.7493    1.0000 </r>
       <r>   -5.7482    1.0000 </r>
       <r>   -5.7434    1.0000 </r>
       <r>   -5.7223    1.0000 </r>
       <r>   -5.7071    1.0000 </r>
       <r>   -5.7028    1.0000 </r>
       <r>   -5.6854    1.0000 </r>
       <r>   -5.6755    1.0000 </r>
       <r>   -5.6622    1.0000 </r>
       <r>   -5.6535    1.0000 </r>
       <r>   -5.6411    1.0000 </r>
       <r>   -5.6383    1.0000 </r>
       <r>   -5.6132    1.0000 </r>
       <r>   -5.6119    1.0000 </r>
       <r>   -5.6035    1.0000 </r>
       <r>   -5.5917    1.0000 </r>
       <r>   -5.5741    1.0000 </r>
       <r>   -5.5608    1.0000 </r>
       <r>   -5.5497    1.0000 </r>
       <r>   -5.5462    1.0000 </r>
       <r>   -5.5442    1.0000 </r>
       <r>   -5.5423    1.0000 </r>
       <r>   -5.5413    1.0000 </r>
       <r>   -5.5366    1.0000 </r>
       <r>   -5.5317    1.0000 </r>
       <r>   -5.5234    1.0000 </r>
       <r>   -5.4985    1.0000 </r>
       <r>   -5.4573    1.0000 </r>
       <r>   -5.4302    1.0000 </r>
       <r>   -5.4183    1.0000 </r>
       <r>   -5.4063    1.0000 </r>
       <r>   -5.3803    1.0000 </r>
       <r>   -5.3568    1.0000 </r>
       <r>   -5.3489    1.0000 </r>
       <r>   -5.3216    1.0000 </r>
       <r>   -5.2817    1.0000 </r>
       <r>   -5.2612    1.0000 </r>
       <r>   -5.2600    1.0000 </r>
       <r>   -5.2529    1.0000 </r>
       <r>   -5.2472    1.0000 </r>
       <r>   -5.2424    1.0000 </r>
       <r>   -5.2293    1.0000 </r>
       <r>   -5.2276    1.0000 </r>
       <r>   -5.2143    1.0000 </r>
       <r>   -5.2062    1.0000 </r>
       <r>   -5.1955    1.0000 </r>
       <r>   -5.1703    1.0000 </r>
       <r>   -5.1695    1.0000 </r>
       <r>   -5.1596    1.0000 </r>
       <r>   -5.1431    1.0000 </r>
       <r>   -5.1159    1.0000 </r>
       <r>   -5.1052    1.0000 </r>
       <r>   -5.0898    1.0000 </r>
       <r>   -5.0692    1.0000 </r>
       <r>   -5.0630    1.0000 </r>
       <r>   -5.0429    1.0000 </r>
       <r>   -5.0400    1.0000 </r>
       <r>   -5.0336    1.0000 </r>
       <r>   -5.0293    1.0000 </r>
       <r>   -5.0289    1.0000 </r>
       <r>   -5.0192    1.0000 </r>
       <r>   -4.9978    1.0000 </r>
       <r>   -4.9731    1.0000 </r>
       <r>   -4.9672    1.0000 </r>
       <r>   -4.9665    1.0000 </r>
       <r>   -4.9532    1.0000 </r>
       <r>   -4.9494    1.0000 </r>
       <r>   -4.9431    1.0000 </r>
       <r>   -4.9426    1.0000 </r>
       <r>   -4.9364    1.0000 </r>
       <r>   -4.9243    1.0000 </r>
       <r>   -4.9215    1.0000 </r>
       <r>   -4.9038    1.0000 </r>
       <r>   -4.9001    1.0000 </r>
       <r>   -4.8980    1.0000 </r>
       <r>   -4.8874    1.0000 </r>
       <r>   -4.8764    1.0000 </r>
       <r>   -4.8574    1.0000 </r>
       <r>   -4.8541    1.0000 </r>
       <r>   -4.8297    1.0000 </r>
       <r>   -4.7935    1.0000 </r>
       <r>   -4.7914    1.0000 </r>
       <r>   -4.7898    1.0000 </r>
       <r>   -4.7889    1.0000 </r>
       <r>   -4.7871    1.0000 </r>
       <r>   -4.7860    1.0000 </r>
       <r>   -4.7835    1.0000 </r>
       <r>   -4.7828    1.0000 </r>
       <r>   -4.7774    1.0000 </r>
       <r>   -4.7755    1.0000 </r>
       <r>   -4.7748    1.0000 </r>
       <r>   -4.7686    1.0000 </r>
       <r>   -4.7613    1.0000 </r>
       <r>   -4.7458    1.0000 </r>
       <r>   -4.7174    1.0000 </r>
       <r>   -4.7172    1.0000 </r>
       <r>   -4.7044    1.0000 </r>
       <r>   -4.6763    1.0000 </r>
       <r>   -4.6757    1.0000 </r>
       <r>   -4.6706    1.0000 </r>
       <r>   -4.6692    1.0000 </r>
       <r>   -4.6579    1.0000 </r>
       <r>   -4.6559    1.0000 </r>
       <r>   -4.6548    1.0000 </r>
       <r>   -4.6506    1.0000 </r>
       <r>   -4.6473    1.0000 </r>
       <r>   -4.6437    1.0000 </r>
       <r>   -4.6386    1.0000 </r>
       <r>   -4.6272    1.0000 </r>
       <r>   -4.6266    1.0000 </r>
       <r>   -4.6204    1.0000 </r>
       <r>   -4.6184    1.0000 </r>
       <r>   -4.6096    1.0000 </r>
       <r>   -4.6042    1.0000 </r>
       <r>   -4.6025    1.0000 </r>
       <r>   -4.5996    1.0000 </r>
       <r>   -4.5974    1.0000 </r>
       <r>   -4.5877    1.0000 </r>
       <r>   -4.5869    1.0000 </r>
       <r>   -4.5838    1.0000 </r>
       <r>   -4.5812    1.0000 </r>
       <r>   -4.5783    1.0000 </r>
       <r>   -4.5758    1.0000 </r>
       <r>   -4.5701    1.0000 </r>
       <r>   -4.5603    1.0000 </r>
       <r>   -4.5592    1.0000 </r>
       <r>   -4.5568    1.0000 </r>
       <r>   -4.5556    1.0000 </r>
       <r>   -4.5523    1.0000 </r>
       <r>   -4.5513    1.0000 </r>
       <r>   -4.5439    1.0000 </r>
       <r>   -4.5032    1.0000 </r>
       <r>   -4.4940    1.0000 </r>
       <r>   -4.4789    1.0000 </r>
       <r>   -4.4762    1.0000 </r>
       <r>   -4.4733    1.0000 </r>
       <r>   -4.4725    1.0000 </r>
       <r>   -4.4632    1.0000 </r>
       <r>   -4.4613    1.0000 </r>
       <r>   -4.4568    1.0000 </r>
       <r>   -4.4550    1.0000 </r>
       <r>   -4.4304    1.0000 </r>
       <r>   -4.4216    1.0000 </r>
       <r>   -4.3739    1.0000 </r>
       <r>   -4.3435    1.0000 </r>
       <r>   -4.3390    1.0000 </r>
       <r>   -4.3356    1.0000 </r>
       <r>   -4.3341    1.0000 </r>
       <r>   -4.2819    1.0000 </r>
       <r>   -4.1675    1.0000 </r>
       <r>   -4.0686    0.9999 </r>
       <r>   -3.9298    0.9548 </r>
       <r>   -3.8894    0.8691 </r>
       <r>   -3.8631    0.7734 </r>
       <r>   -3.7839    0.3561 </r>
       <r>   -3.6217    0.0039 </r>
       <r>   -3.6192    0.0035 </r>
       <r>   -3.5144    0.0000 </r>
       <r>   -3.4841    0.0000 </r>
       <r>   -3.1582    0.0000 </r>
       <r>   -3.0419    0.0000 </r>
       <r>   -2.9687    0.0000 </r>
       <r>   -2.8926    0.0000 </r>
       <r>   -2.7423    0.0000 </r>
       <r>   -2.6123    0.0000 </r>
       <r>   -2.3565    0.0000 </r>
       <r>   -2.3505    0.0000 </r>
       <r>   -2.3490    0.0000 </r>
       <r>   -2.3481    0.0000 </r>
       <r>   -2.2905    0.0000 </r>
       <r>   -2.2298    0.0000 </r>
       <r>   -2.1738    0.0000 </r>
       <r>   -1.8203    0.0000 </r>
       <r>   -1.5394    0.0000 </r>
       <r>   -1.5323    0.0000 </r>
       <r>   -1.4963    0.0000 </r>
       <r>   -1.3723    0.0000 </r>
       <r>   -1.3556    0.0000 </r>
       <r>   -1.3340    0.0000 </r>
       <r>   -1.2163    0.0000 </r>
       <r>   -1.1161    0.0000 </r>
       <r>   -1.1136    0.0000 </r>
       <r>   -1.0678    0.0000 </r>
       <r>   -0.9714    0.0000 </r>
       <r>   -0.8597    0.0000 </r>
       <r>   -0.8551    0.0000 </r>
       <r>   -0.8196    0.0000 </r>
       <r>   -0.8174    0.0000 </r>
       <r>   -0.7922    0.0000 </r>
       <r>   -0.7384    0.0000 </r>
       <r>   -0.7222    0.0000 </r>
       <r>   -0.6147    0.0000 </r>
       <r>   -0.5148    0.0000 </r>
       <r>    0.0552    0.0000 </r>
       <r>    0.1769    0.0000 </r>
       <r>    0.2040    0.0000 </r>
       <r>    0.2139    0.0000 </r>
       <r>    0.2279    0.0000 </r>
       <r>    0.3032    0.0000 </r>
       <r>    0.3392    0.0000 </r>
       <r>    0.3916    0.0000 </r>
       <r>    0.4955    0.0000 </r>
       <r>    0.5933    0.0000 </r>
       <r>    0.6662    0.0000 </r>
       <r>    0.8915    0.0000 </r>
       <r>    0.8983    0.0000 </r>
       <r>    0.9375    0.0000 </r>
       <r>    0.9899    0.0000 </r>
       <r>    1.0026    0.0000 </r>
       <r>    1.0278    0.0000 </r>
       <r>    1.1193    0.0000 </r>
       <r>    1.1217    0.0000 </r>
       <r>    1.1305    0.0000 </r>
       <r>    1.1990    0.0000 </r>
       <r>    1.2060    0.0000 </r>
       <r>    1.2145    0.0000 </r>
       <r>    1.2353    0.0000 </r>
       <r>    1.2354    0.0000 </r>
       <r>    1.2469    0.0000 </r>
       <r>    1.2642    0.0000 </r>
       <r>    1.2981    0.0000 </r>
       <r>    1.3399    0.0000 </r>
       <r>    1.3803    0.0000 </r>
       <r>    1.4561    0.0000 </r>
       <r>    1.4649    0.0000 </r>
       <r>    1.4858    0.0000 </r>
       <r>    1.5167    0.0000 </r>
       <r>    1.5834    0.0000 </r>
       <r>    1.5944    0.0000 </r>
       <r>    1.6124    0.0000 </r>
       <r>    1.6429    0.0000 </r>
[...]
       <r>     1.6293    33.4059   373.8472 </r>
       <r>     1.6974    32.3559   376.0499 </r>
       <r>     1.7654    26.3903   377.8465 </r>
       <r>     1.8335    17.7006   379.0515 </r>
       <r>     1.9016     9.5309   379.7004 </r>
       <r>     1.9697     3.5929   379.9450 </r>
       <r>     2.0377     0.7361   379.9951 </r>
       <r>     2.1058     0.0692   379.9998 </r>
       <r>     2.1739     0.0028   380.0000 </r>
       <r>     2.2420     0.0000   380.0000 </r>
       <r>     2.3101     0.0000   380.0000 </r>
       <r>     2.3781     0.0000   380.0000 </r>
       <r>     2.4462     0.0000   380.0000 </r>
       <r>     2.5143     0.0000   380.0000 </r>
       <r>     2.5824     0.0000   380.0000 </r>
       <r>     2.6504     0.0000   380.0000 </r>
       <r>     2.7185     0.0000   380.0000 </r>
       <r>     2.7866     0.0000   380.0000 </r>
       <r>     2.8547     0.0000   380.0000 </r>
      </set>
      <set comment="spin 2">
       <r>   -17.5687     0.0000     0.0000 </r>
       <r>   -17.5006     0.0000     0.0000 </r>
       <r>   -17.4325     0.0000     0.0000 </r>
       <r>   -17.3645     0.0000     0.0000 </r>
       <r>   -17.2964     0.0000     0.0000 </r>
       <r>   -17.2283     0.0000     0.0000 </r>
       <r>   -17.1602     0.0000     0.0000 </r>
       <r>   -17.0922     0.0000     0.0000 </r>
       <r>   -17.0241     0.0000     0.0000 </r>
       <r>   -16.9560     0.0000     0.0000 </r>
       <r>   -16.8879     0.0000     0.0000 </r>
       <r>   -16.8198     0.0000     0.0000 </r>
       <r>   -16.7518     0.0000     0.0000 </r>
       <r>   -16.6837     0.0015     0.0001 </r>
       <r>   -16.6156     0.0431     0.0030 </r>
       <r>   -16.5475     0.5057     0.0375 </r>
       <r>   -16.4795     2.4850     0.2066 </r>
       <r>   -16.4114     5.1538     0.5575 </r>
       <r>   -16.3433     4.5307     0.8659 </r>
       <r>   -16.2752     1.6870     0.9808 </r>
       <r>   -16.2071     0.2645     0.9988 </r>
       <r>   -16.1391     0.0173     1.0000 </r>
       <r>   -16.0710     0.0005     1.0000 </r>
       <r>   -16.0029     0.0000     1.0000 </r>
       <r>   -15.9348     0.0000     1.0000 </r>
       <r>   -15.8667     0.0000     1.0000 </r>
       <r>   -15.7987     0.0000     1.0000 </r>
       <r>   -15.7306     0.0000     1.0000 </r>
       <r>   -15.6625     0.0000     1.0000 </r>
       <r>   -15.5944     0.0000     1.0000 </r>
       <r>   -15.5264     0.0000     1.0000 </r>
       <r>   -15.4583     0.0000     1.0000 </r>
       <r>   -15.3902     0.0000     1.0000 </r>
       <r>   -15.3221     0.0000     1.0000 </r>
       <r>   -15.2540     0.0000     1.0000 </r>
       <r>   -15.1860     0.0000     1.0000 </r>
       <r>   -15.1179     0.0000     1.0000 </r>
       <r>   -15.0498     0.0000     1.0000 </r>
       <r>   -14.9817     0.0000     1.0000 </r>
       <r>   -14.9137     0.0000     1.0000 </r>
       <r>   -14.8456     0.0000     1.0000 </r>
       <r>   -14.7775     0.0000     1.0000 </r>
       <r>   -14.7094     0.0000     1.0000 </r>
       <r>   -14.6413     0.0000     1.0000 </r>
       <r>   -14.5733     0.0000     1.0000 </r>
       <r>   -14.5052     0.0000     1.0000 </r>
       <r>   -14.4371     0.0000     1.0000 </r>
       <r>   -14.3690     0.0000     1.0000 </r>
       <r>   -14.3010     0.0000     1.0000 </r>
       <r>   -14.2329     0.0000     1.0000 </r>
       <r>   -14.1648     0.0000     1.0000 </r>
       <r>   -14.0967     0.0000     1.0000 </r>
       <r>   -14.0286     0.0000     1.0000 </r>
       <r>   -13.9606     0.0000     1.0000 </r>
       <r>   -13.8925     0.0000     1.0000 </r>
       <r>   -13.8244     0.0000     1.0000 </r>
       <r>   -13.7563     0.0000     1.0000 </r>
       <r>   -13.6883     0.0000     1.0000 </r>
       <r>   -13.6202     0.0000     1.0000 </r>
       <r>   -13.5521     0.0000     1.0000 </r>
       <r>   -13.4840     0.0000     1.0000 </r>
       <r>   -13.4159     0.0000     1.0000 </r>
       <r>   -13.3479     0.0000     1.0000 </r>
       <r>   -13.2798     0.0000     1.0000 </r>
       <r>   -13.2117     0.0000     1.0000 </r>
       <r>   -13.1436     0.0000     1.0000 </r>
       <r>   -13.0756     0.0000     1.0000 </r>
       <r>   -13.0075     0.0000     1.0000 </r>
       <r>   -12.9394     0.0000     1.0000 </r>
       <r>   -12.8713     0.0000     1.0000 </r>
       <r>   -12.8032     0.0000     1.0000 </r>
       <r>   -12.7352     0.0000     1.0000 </r>
       <r>   -12.6671     0.0000     1.0000 </r>
       <r>   -12.5990     0.0000     1.0000 </r>
       <r>   -12.5309     0.0000     1.0000 </r>
       <r>   -12.4629     0.0000     1.0000 </r>
       <r>   -12.3948     0.0001     1.0000 </r>
       <r>   -12.3267     0.0052     1.0004 </r>
       <r>   -12.2586     0.1092     1.0078 </r>
       <r>   -12.1905     0.9538     1.0727 </r>
       <r>   -12.1225     3.5001     1.3110 </r>
       <r>   -12.0544     5.4310     1.6807 </r>
       <r>   -11.9863     3.5734     1.9240 </r>
       <r>   -11.9182     0.9943     1.9917 </r>
       <r>   -11.8502     0.1162     1.9996 </r>
       <r>   -11.7821     0.0057     2.0000 </r>
       <r>   -11.7140     0.0001     2.0000 </r>
       <r>   -11.6459     0.0000     2.0000 </r>
       <r>   -11.5778     0.0000     2.0000 </r>
       <r>   -11.5098     0.0000     2.0000 </r>
       <r>   -11.4417     0.0000     2.0000 </r>
       <r>   -11.3736     0.0000     2.0000 </r>
       <r>   -11.3055     0.0000     2.0000 </r>
       <r>   -11.2375     0.0000     2.0000 </r>
       <r>   -11.1694     0.0000     2.0000 </r>
       <r>   -11.1013     0.0000     2.0000 </r>
       <r>   -11.0332     0.0001     2.0000 </r>
       <r>   -10.9651     0.0078     2.0005 </r>
       <r>   -10.8971     0.1768     2.0126 </r>
       <r>   -10.8290     1.7212     2.1298 </r>
       <r>   -10.7609     7.3721     2.6316 </r>
       <r>   -10.6928    14.3758     3.6103 </r>
       <r>   -10.6247    13.2122     4.5098 </r>
       <r>   -10.5567     5.8421     4.9075 </r>
       <r>   -10.4886     1.2335     4.9915 </r>
       <r>   -10.4205     0.1203     4.9996 </r>
       <r>   -10.3524     0.0052     5.0000 </r>
       <r>   -10.2844     0.0001     5.0000 </r>
       <r>   -10.2163     0.0000     5.0000 </r>
       <r>   -10.1482     0.0000     5.0000 </r>
       <r>   -10.0801     0.0000     5.0000 </r>
       <r>   -10.0120     0.0000     5.0000 </r>
       <r>    -9.9440     0.0000     5.0000 </r>
       <r>    -9.8759     0.0000     5.0000 </r>
       <r>    -9.8078     0.0000     5.0000 </r>
       <r>    -9.7397     0.0001     5.0000 </r>
       <r>    -9.6717     0.0043     5.0003 </r>
       <r>    -9.6036     0.1197     5.0084 </r>
       <r>    -9.5355     1.4565     5.1076 </r>
       <r>    -9.4674     8.0200     5.6536 </r>
       <r>    -9.3993    20.4378     7.0450 </r>
       <r>    -9.3313    24.6868     8.7256 </r>
       <r>    -9.2632    15.0539     9.7504 </r>
       <r>    -9.1951     7.2118    10.2414 </r>
       <r>    -9.1270     5.9416    10.6459 </r>
       <r>    -9.0590     3.8847    10.9103 </r>
       <r>    -8.9909     1.1620    10.9894 </r>
       <r>    -8.9228     0.1471    10.9995 </r>
       <r>    -8.8547     0.0078    11.0000 </r>
       <r>    -8.7866     0.0003    11.0000 </r>
       <r>    -8.7186     0.0072    11.0005 </r>
       <r>    -8.6505     0.1557    11.0111 </r>
       <r>    -8.5824     1.5026    11.1134 </r>
       <r>    -8.5143     6.6825    11.5683 </r>
       <r>    -8.4463    14.0477    12.5247 </r>
       <r>    -8.3782    14.2122    13.4922 </r>
       <r>    -8.3101     8.2495    14.0538 </r>
       <r>    -8.2420     6.4407    14.4923 </r>
       <r>    -8.1739     9.7099    15.1533 </r>
       <r>    -8.1059    23.7826    16.7724 </r>
       <r>    -8.0378    46.6890    19.9509 </r>
       <r>    -7.9697    49.7469    23.3375 </r>
       <r>    -7.9016    32.8554    25.5743 </r>
       <r>    -7.8336    15.8442    26.6529 </r>
       <r>    -7.7655     5.8660    27.0522 </r>
       <r>    -7.6974     5.0443    27.3957 </r>
       <r>    -7.6293     8.5132    27.9752 </r>
       <r>    -7.5612    14.9915    28.9958 </r>
       <r>    -7.4932    24.9014    30.6910 </r>
       <r>    -7.4251    32.9485    32.9341 </r>
       <r>    -7.3570    37.3885    35.4794 </r>
       <r>    -7.2889    33.3044    37.7467 </r>
       <r>    -7.2209    24.4565    39.4117 </r>
       <r>    -7.1528    22.1122    40.9170 </r>
       <r>    -7.0847    30.9617    43.0248 </r>
       <r>    -7.0166    41.8695    45.8752 </r>
       <r>    -6.9485    47.4747    49.1072 </r>
       <r>    -6.8805    46.7211    52.2879 </r>
       <r>    -6.8124    44.9492    55.3479 </r>
       <r>    -6.7443    38.3813    57.9609 </r>
       <r>    -6.6762    29.6008    59.9760 </r>
       <r>    -6.6082    25.5094    61.7126 </r>
       <r>    -6.5401    28.1060    63.6260 </r>
       <r>    -6.4720    26.1628    65.4072 </r>
       <r>    -6.4039    17.0198    66.5658 </r>
       <r>    -6.3358    14.7657    67.5710 </r>
       <r>    -6.2678    30.3216    69.6353 </r>
       <r>    -6.1997    48.5285    72.9390 </r>
       <r>    -6.1316    50.2370    76.3590 </r>
       <r>    -6.0635    44.6616    79.3995 </r>
       <r>    -5.9954    45.6271    82.5057 </r>
       <r>    -5.9274    64.3689    86.8878 </r>
       <r>    -5.8593    77.6743    92.1757 </r>
       <r>    -5.7912    60.4084    96.2882 </r>
       <r>    -5.7231    45.9822    99.4186 </r>
       <r>    -5.6551    56.2418   103.2474 </r>
       <r>    -5.5870    67.0565   107.8125 </r>
       <r>    -5.5189    73.1135   112.7899 </r>
       <r>    -5.4508    88.5478   118.8180 </r>
       <r>    -5.3827    89.8369   124.9339 </r>
       <r>    -5.3147    61.7963   129.1409 </r>
       <r>    -5.2466    42.4454   132.0305 </r>
       <r>    -5.1785    50.8042   135.4891 </r>
       <r>    -5.1104    70.9267   140.3177 </r>
       <r>    -5.0424    75.0091   145.4241 </r>
       <r>    -4.9743    67.8267   150.0416 </r>
       <r>    -4.9062    80.8219   155.5438 </r>
       <r>    -4.8381   107.4037   162.8557 </r>
       <r>    -4.7700   106.3580   170.0963 </r>
       <r>    -4.7020    83.8434   175.8042 </r>
       <r>    -4.6339    73.2748   180.7926 </r>
       <r>    -4.5658    73.1187   185.7703 </r>
       <r>    -4.4977    64.4798   190.1600 </r>
       <r>    -4.4297    54.1774   193.8483 </r>
       <r>    -4.3616    66.0308   198.3435 </r>
       <r>    -4.2935    96.2895   204.8987 </r>
       <r>    -4.2254   113.5432   212.6285 </r>
       <r>    -4.1573   105.4217   219.8054 </r>
       <r>    -4.0893    95.8233   226.3288 </r>
       <r>    -4.0212   109.7694   233.8017 </r>
       <r>    -3.9531   122.0951   242.1137 </r>
       <r>    -3.8850   113.0063   249.8069 </r>
       <r>    -3.8170   109.2317   257.2432 </r>
       <r>    -3.7489   123.5629   265.6551 </r>
       <r>    -3.6808   132.8701   274.7006 </r>
       <r>    -3.6127   105.0389   281.8515 </r>
       <r>    -3.5446    70.5707   286.6558 </r>
       <r>    -3.4766    57.1966   290.5496 </r>
       <r>    -3.4085    46.3817   293.7072 </r>
       <r>    -3.3404    32.5373   295.9222 </r>
       <r>    -3.2723    23.7941   297.5421 </r>
       <r>    -3.2043    18.7463   298.8183 </r>
       <r>    -3.1362    17.6728   300.0214 </r>
       <r>    -3.0681    17.8234   301.2348 </r>
       <r>    -3.0000    15.0295   302.2580 </r>
       <r>    -2.9319     8.4560   302.8336 </r>
       <r>    -2.8639     3.6923   303.0850 </r>
       <r>    -2.7958     4.9772   303.4239 </r>
       <r>    -2.7277     8.6022   304.0095 </r>
       <r>    -2.6596    11.5715   304.7972 </r>
       <r>    -2.5916    13.8578   305.7406 </r>
       <r>    -2.5235    13.7758   306.6785 </r>
       <r>    -2.4554    11.1924   307.4404 </r>
       <r>    -2.3873     8.2982   308.0054 </r>
       <r>    -2.3192     7.7175   308.5307 </r>
       <r>    -2.2512     9.0620   309.1477 </r>
       <r>    -2.1831    11.2220   309.9116 </r>
       <r>    -2.1150    15.4680   310.9647 </r>
       <r>    -2.0469    21.8518   312.4523 </r>
       <r>    -1.9789    24.1604   314.0971 </r>
       <r>    -1.9108    17.8813   315.3144 </r>
       <r>    -1.8427     8.0105   315.8597 </r>
       <r>    -1.7746     1.8920   315.9885 </r>
       <r>    -1.7065     0.6426   316.0323 </r>
       <r>    -1.6385     2.3205   316.1903 </r>
       <r>    -1.5704     5.0650   316.5351 </r>
       <r>    -1.5023     4.9469   316.8719 </r>
       <r>    -1.4342     4.2132   317.1587 </r>
       <r>    -1.3662     9.4823   317.8042 </r>
       <r>    -1.2981    15.7757   318.8782 </r>
       <r>    -1.2300    13.4291   319.7924 </r>
       <r>    -1.1619    11.4641   320.5729 </r>
       <r>    -1.0938    16.4659   321.6938 </r>
       <r>    -1.0258    16.8026   322.8377 </r>
       <r>    -0.9577    12.0910   323.6609 </r>
       <r>    -0.8896    11.9549   324.4747 </r>
       <r>    -0.8215    18.0120   325.7009 </r>
       <r>    -0.7534    22.2838   327.2180 </r>
       <r>    -0.6854    26.0572   328.9919 </r>
       <r>    -0.6173    33.3474   331.2621 </r>
       <r>    -0.5492    31.6664   333.4179 </r>
       <r>    -0.4811    19.1211   334.7196 </r>
       <r>    -0.4131    11.6099   335.5100 </r>
       <r>    -0.3450    11.4556   336.2899 </r>
       <r>    -0.2769     7.7262   336.8159 </r>
       <r>    -0.2088     2.3733   336.9774 </r>
       <r>    -0.1407     0.3135   336.9988 </r>
       <r>    -0.0727     0.0183   337.0000 </r>
       <r>    -0.0046     0.0249   337.0017 </r>
       <r>     0.0635     0.3400   337.0249 </r>
       <r>     0.1316     1.9871   337.1601 </r>
       <r>     0.1996     5.1835   337.5130 </r>
       <r>     0.2677     8.1636   338.0688 </r>
       <r>     0.3358    15.1324   339.0990 </r>
       <r>     0.4039    27.2079   340.9512 </r>
       <r>     0.4720    30.0441   342.9966 </r>
       <r>     0.5400    22.0581   344.4982 </r>
       <r>     0.6081    16.6724   345.6333 </r>
       <r>     0.6762    12.9382   346.5141 </r>
       <r>     0.7443     7.2253   347.0059 </r>
       <r>     0.8123     6.8259   347.4706 </r>
       <r>     0.8804    13.6070   348.3970 </r>
       <r>     0.9485    22.5831   349.9344 </r>
       <r>     1.0166    26.3641   351.7292 </r>
       <r>     1.0847    22.6247   353.2694 </r>
       <r>     1.1527    23.5638   354.8736 </r>
       <r>     1.2208    35.7017   357.3041 </r>
       <r>     1.2889    47.3428   360.5271 </r>
       <r>     1.3570    44.3660   363.5474 </r>
       <r>     1.4250    36.1498   366.0084 </r>
       <r>     1.4931    33.3799   368.2809 </r>
       <r>     1.5612    32.2649   370.4774 </r>
       <r>     1.6293    32.9027   372.7174 </r>
       <r>     1.6974    33.0496   374.9673 </r>
       <r>     1.7654    29.9350   377.0052 </r>
       <r>     1.8335    24.2542   378.6564 </r>
       <r>     1.9016    14.1108   379.6170 </r>
       <r>     1.9697     4.7391   379.9397 </r>
       <r>     2.0377     0.8173   379.9953 </r>
       <r>     2.1058     0.0667   379.9998 </r>
       <r>     2.1739     0.0024   380.0000 </r>
       <r>     2.2420     0.0000   380.0000 </r>
       <r>     2.3101     0.0000   380.0000 </r>
       <r>     2.3781     0.0000   380.0000 </r>
       <r>     2.4462     0.0000   380.0000 </r>
       <r>     2.5143     0.0000   380.0000 </r>
       <r>     2.5824     0.0000   380.0000 </r>
       <r>     2.6504     0.0000   380.0000 </r>
       <r>     2.7185     0.0000   380.0000 </r>
       <r>     2.7866     0.0000   380.0000 </r>
       <r>     2.8547     0.0000   380.0000 </r>
      </set>
     </set>
    </array>
   </total>
  </dos>
 </calculation>
 <structure name="finalpos" >
  <crystal>
   <varray name="basis" >
    <v>      20.00000000       0.00000000       0.00000000 </v>
    <v>       0.00000000      20.00000000       0.00000000 </v>
    <v>       0.00000000       0.00000000      20.00000000 </v>
   </varray>
   <i name="volume">   8000.00000000 </i>
   <varray name="rec_basis" >
    <v>       0.05000000       0.00000000       0.00000000 </v>
    <v>       0.00000000       0.05000000       0.00000000 </v>
    <v>       0.00000000       0.00000000       0.05000000 </v>
   </varray>
  </crystal>
  <varray name="positions" >
   <v>       0.35059555       0.59501761       0.41086543 </v>
   <v>       0.45090719       0.66294973       0.37765121 </v>
   <v>       0.41284110       0.66208230       0.49770400 </v>
   <v>       0.51307191       0.72269137       0.46387751 </v>
   <v>       0.51485246       0.60796112       0.46322502 </v>
   <v>       0.57724527       0.66495149       0.37800875 </v>
   <v>       0.61566083       0.66500530       0.49736674 </v>
   <v>       0.31782748       0.59188781       0.52822603 </v>
   <v>       0.35160115       0.48832847       0.58490320 </v>
   <v>       0.41603084       0.54190472       0.49701160 </v>
   <v>       0.41381305       0.59727561       0.60413243 </v>
   <v>       0.51431278       0.66410087       0.57011240 </v>
   <v>       0.51550615       0.54345423       0.56919207 </v>
   <v>       0.61537036       0.54424618       0.49581643 </v>
   <v>       0.61701398       0.59909788       0.60332705 </v>
   <v>       0.39303065       0.59336239       0.29641129 </v>
   <v>       0.35195965       0.48919791       0.34432238 </v>
   <v>       0.45335450       0.49046312       0.27068606 </v>
   <v>       0.45397105       0.54230696       0.37934703 </v>
   <v>       0.51503518       0.59810181       0.29149918 </v>
   <v>       0.51687588       0.43874827       0.35923951 </v>
   <v>       0.57918523       0.49211839       0.27081487 </v>
   <v>       0.57729139       0.54417715       0.37923060 </v>
   <v>       0.31308234       0.48771696       0.46490179 </v>
   <v>       0.35294458       0.38099878       0.51508225 </v>
   <v>       0.41716471       0.43728441       0.43168409 </v>
   <v>       0.45461585       0.43690987       0.54904469 </v>
   <v>       0.51610223       0.49100055       0.46439627 </v>
   <v>       0.51748933       0.37377222       0.46401456 </v>
   <v>       0.61613368       0.43961384       0.43154867 </v>
   <v>       0.57795176       0.43935093       0.54913751 </v>
   <v>       0.67937995       0.60011617       0.41101122 </v>
   <v>       0.71224786       0.59647954       0.52821633 </v>
   <v>       0.67978949       0.49301492       0.58386700 </v>
   <v>       0.63693586       0.59638567       0.29678873 </v>
   <v>       0.68071337       0.49313160       0.34483779 </v>
   <v>       0.71934766       0.49278009       0.46432851 </v>
   <v>       0.68100622       0.38568624       0.51735863 </v>
   <v>       0.45497966       0.49503441       0.66200225 </v>
   <v>       0.51679361       0.59738556       0.67109172 </v>
   <v>       0.57931035       0.49243135       0.65741032 </v>
   <v>       0.39199795       0.37810961       0.62783357 </v>
   <v>       0.45565135       0.31599706       0.54816624 </v>
   <v>       0.51645231       0.38396810       0.63799405 </v>
   <v>       0.57999760       0.31865291       0.55083477 </v>
   <v>       0.63896848       0.38849968       0.63167895 </v>
   <v>       0.41634413       0.38278048       0.32384759 </v>
   <v>       0.51777046       0.38794470       0.25639869 </v>
   <v>       0.61920413       0.38541630       0.32407053 </v>
   <v>       0.32025208       0.38518031       0.39811756 </v>
   <v>       0.41660206       0.31618169       0.42958118 </v>
   <v>       0.51793665       0.31846450       0.35653653 </v>
   <v>       0.61998664       0.31942327       0.43061121 </v>
   <v>       0.71463740       0.38960072       0.40006729 </v>
   <v>       0.51987398       0.25876216       0.46229702 </v>
   <v>       0.39626656       0.42994809       0.71627353 </v>
  </varray>
 </structure>
</modeling>
