<?xml version="1.0" encoding="ISO-8859-1"?>
<modeling>
 <generator>
  <i name="program" type="string">vasp </i>
  <i name="version" type="string">5.4.4.18Apr17-6-g9f103f2a35  </i>
  <i name="subversion" type="string">(build Oct 13 2018 23:10:52) complex            parallel </i>
  <i name="platform" type="string">IFC91_ompi </i>
  <i name="date" type="string">2020 07 23 </i>
  <i name="time" type="string">05:24:20 </i>
 </generator>
 <incar>
  <i type="string" name="SYSTEM"> neb_test</i>
  <i type="string" name="PREC">normal</i>
  <i type="string" name="ALGO"> Fast</i>
  <i type="int" name="NELM">   100</i>
  <i type="int" name="NELMIN">     8</i>
  <i type="int" name="IBRION">     3</i>
  <i name="EDIFF">      0.00000100</i>
  <i name="EDIFFG">     -0.10000000</i>
  <i type="int" name="NSW">   500</i>
  <i type="int" name="ISYM">     0</i>
  <i name="ENCUT">    400.00000000</i>
  <i name="POTIM">      0.00000000</i>
  <i type="int" name="ISMEAR">     0</i>
  <i name="SIGMA">      0.05000000</i>
  <i type="int" name="NWRITE">     1</i>
  <i type="logical" name="LWAVE"> F  </i>
  <i type="logical" name="LCHARG"> F  </i>
  <v type="int" name="KPOINT_BSE">    -1     0     0     0</v>
  <i type="int" name="NELM">   100</i>
 </incar>
 <structure name="primitive_cell" >
  <crystal>
   <varray name="basis" >
    <v>      20.00000000       0.00000000       0.00000000 </v>
    <v>       0.00000000      20.00000000       0.00000000 </v>
    <v>       0.00000000       0.00000000      20.00000000 </v>
   </varray>
   <i name="volume">   8000.00000000 </i>
   <varray name="rec_basis" >
    <v>       0.05000000       0.00000000       0.00000000 </v>
    <v>       0.00000000       0.05000000       0.00000000 </v>
    <v>       0.00000000       0.00000000       0.05000000 </v>
   </varray>
  </crystal>
  <varray name="positions" >
   <v>       0.35000293      -0.40397784       0.41030693 </v>
   <v>       0.41494109      -0.45751743       0.49654201 </v>
   <v>       0.45352132      -0.45725884       0.37890700 </v>
   <v>       0.31659221      -0.40730718      -0.47210983 </v>
   <v>       0.39266219      -0.40619817       0.29555873 </v>
   <v>       0.41182470      -0.33728990       0.49705177 </v>
   <v>       0.35180310       0.48901811       0.34417512 </v>
   <v>       0.45137945      -0.33680024       0.37751942 </v>
   <v>       0.31250138       0.48788106       0.46412725 </v>
   <v>      -0.48537067      -0.39141801       0.46442791 </v>
   <v>       0.41627080       0.43665569       0.43222769 </v>
   <v>       0.35032149       0.48842717      -0.41701708 </v>
   <v>       0.45389718       0.49092957       0.27012795 </v>
   <v>      -0.48482856      -0.40203119       0.29094379 </v>
   <v>      -0.48415267       0.49068488       0.46462031 </v>
   <v>       0.41267935      -0.40376621      -0.39552329 </v>
   <v>      -0.48716498      -0.27652139       0.46448592 </v>
   <v>       0.31951111       0.38468131       0.39827198 </v>
   <v>      -0.48340067       0.43843396       0.35876291 </v>
   <v>      -0.42248320      -0.45548721       0.37926218 </v>
   <v>      -0.48546031      -0.45709659      -0.42961928 </v>
   <v>       0.45488592       0.43741506      -0.45003626 </v>
   <v>       0.41573926       0.38308486       0.32360680 </v>
   <v>      -0.48636204      -0.33651651      -0.42870985 </v>
   <v>      -0.42298482      -0.33493020       0.37786420 </v>
   <v>       0.35210368       0.38114797      -0.48285311 </v>
   <v>      -0.38466537      -0.45538251       0.49699647 </v>
   <v>      -0.48247319       0.37282676       0.46383771 </v>
   <v>      -0.42085116       0.49228854       0.27059694 </v>
   <v>       0.41616557       0.31656831       0.43096144 </v>
   <v>      -0.38432874      -0.33468819       0.49702740 </v>
   <v>       0.45242366       0.49162810      -0.33679393 </v>
   <v>      -0.48261101       0.38731443       0.25560150 </v>
   <v>      -0.36260598      -0.40322566       0.29612399 </v>
   <v>      -0.48526626      -0.40375105      -0.32749619 </v>
   <v>      -0.38307529       0.43946441       0.43170797 </v>
   <v>      -0.42188292       0.43821283      -0.45005308 </v>
   <v>       0.39313450       0.38376493      -0.36702814 </v>
   <v>       0.45452809       0.31700500      -0.45037580 </v>
   <v>      -0.38400081      -0.40128387      -0.39553688 </v>
   <v>      -0.48182638       0.31793075       0.35647440 </v>
   <v>      -0.32041385      -0.39997078       0.41103882 </v>
   <v>      -0.38082092       0.38571331       0.32384033 </v>
   <v>      -0.31906129       0.49315055       0.34455967 </v>
   <v>      -0.42044463       0.49182429      -0.34260854 </v>
   <v>      -0.48097442       0.38122213      -0.35915177 </v>
   <v>       0.43352488       0.41147469      -0.28313185 </v>
   <v>      -0.28774720      -0.40311552      -0.47094728 </v>
   <v>      -0.48079304       0.25803992       0.46323463 </v>
   <v>      -0.38013795       0.31895991       0.43040374 </v>
   <v>      -0.28042124       0.49334497       0.46399713 </v>
   <v>      -0.31962739       0.49232525      -0.41613805 </v>
   <v>      -0.41936955       0.31809676      -0.44918105 </v>
   <v>      -0.31823439       0.38566258      -0.48240264 </v>
   <v>      -0.28467019       0.38919712       0.39982659 </v>
   <v>      -0.35922770       0.38723761      -0.36800643 </v>
  </varray>
 </structure>
 <varray name="primitive_index" >
  <v type="int" >        1 </v>
  <v type="int" >       10 </v>
  <v type="int" >       19 </v>
  <v type="int" >        8 </v>
  <v type="int" >       16 </v>
  <v type="int" >        3 </v>
  <v type="int" >       17 </v>
  <v type="int" >        2 </v>
  <v type="int" >       24 </v>
  <v type="int" >        5 </v>
  <v type="int" >       26 </v>
  <v type="int" >        9 </v>
  <v type="int" >       18 </v>
  <v type="int" >       20 </v>
  <v type="int" >       28 </v>
  <v type="int" >       11 </v>
  <v type="int" >        4 </v>
  <v type="int" >       50 </v>
  <v type="int" >       21 </v>
  <v type="int" >       23 </v>
  <v type="int" >       13 </v>
  <v type="int" >       27 </v>
  <v type="int" >       47 </v>
  <v type="int" >       12 </v>
  <v type="int" >        6 </v>
  <v type="int" >       25 </v>
  <v type="int" >       14 </v>
  <v type="int" >       29 </v>
  <v type="int" >       22 </v>
  <v type="int" >       51 </v>
  <v type="int" >        7 </v>
  <v type="int" >       39 </v>
  <v type="int" >       48 </v>
  <v type="int" >       35 </v>
  <v type="int" >       40 </v>
  <v type="int" >       30 </v>
  <v type="int" >       31 </v>
  <v type="int" >       42 </v>
  <v type="int" >       43 </v>
  <v type="int" >       15 </v>
  <v type="int" >       52 </v>
  <v type="int" >       32 </v>
  <v type="int" >       49 </v>
  <v type="int" >       36 </v>
  <v type="int" >       41 </v>
  <v type="int" >       44 </v>
  <v type="int" >       56 </v>
  <v type="int" >       33 </v>
  <v type="int" >       55 </v>
  <v type="int" >       53 </v>
  <v type="int" >       37 </v>
  <v type="int" >       34 </v>
  <v type="int" >       45 </v>
  <v type="int" >       38 </v>
  <v type="int" >       54 </v>
  <v type="int" >       46 </v>
 </varray>
 <kpoints>
  <generation param="Monkhorst-Pack">
   <v type="int" name="divisions">       1        1        1 </v>
   <v name="usershift">      0.00000000       0.00000000       0.00000000 </v>
   <v name="genvec1">      1.00000000       0.00000000       0.00000000 </v>
   <v name="genvec2">      0.00000000       1.00000000       0.00000000 </v>
   <v name="genvec3">      0.00000000       0.00000000       1.00000000 </v>
   <v name="shift">      0.00000000       0.00000000       0.00000000 </v>
  </generation>
  <varray name="kpointlist" >
   <v>       0.00000000       0.00000000       0.00000000 </v>
  </varray>
  <varray name="weights" >
   <v>       1.00000000 </v>
  </varray>
 </kpoints>
 <parameters>
  <separator name="general" >
   <i type="string" name="SYSTEM">neb_test</i>
   <i type="logical" name="LCOMPAT"> F  </i>
  </separator>
  <separator name="electronic" >
   <i type="string" name="PREC">normal</i>
   <i name="ENMAX">    400.00000000</i>
   <i name="ENAUG">    544.56500000</i>
   <i name="EDIFF">      0.00000100</i>
   <i type="int" name="IALGO">    68</i>
   <i type="int" name="IWAVPR">    11</i>
   <i type="int" name="NBANDS">   336</i>
   <i name="NELECT">    556.00000000</i>
   <i type="int" name="TURBO">     0</i>
   <i type="int" name="IRESTART">     0</i>
   <i type="int" name="NREBOOT">     0</i>
   <i type="int" name="NMIN">     0</i>
   <i name="EREF">      0.00000000</i>
   <separator name="electronic smearing" >
    <i type="int" name="ISMEAR">     0</i>
    <i name="SIGMA">      0.05000000</i>
    <i name="KSPACING">      0.50000000</i>
    <i type="logical" name="KGAMMA"> T  </i>
   </separator>
   <separator name="electronic projectors" >
    <i type="logical" name="LREAL"> F  </i>
    <v name="ROPT">      0.00000000      0.00000000</v>
    <i type="int" name="LMAXPAW">  -100</i>
    <i type="int" name="LMAXMIX">     2</i>
    <i type="logical" name="NLSPLINE"> F  </i>
   </separator>
   <separator name="electronic startup" >
    <i type="int" name="ISTART">     0</i>
    <i type="int" name="ICHARG">     2</i>
    <i type="int" name="INIWAV">     1</i>
   </separator>
   <separator name="electronic spin" >
    <i type="int" name="ISPIN">     1</i>
    <i type="logical" name="LNONCOLLINEAR"> F  </i>
    <v name="MAGMOM">      1.00000000      1.00000000      1.00000000      1.00000000      1.00000000      1.00000000      1.00000000      1.00000000      1.00000000      1.00000000      1.00000000      1.00000000      1.00000000      1.00000000      1.00000000      1.00000000      1.00000000      1.00000000      1.00000000      1.00000000
      1.00000000      1.00000000      1.00000000      1.00000000      1.00000000      1.00000000      1.00000000      1.00000000      1.00000000      1.00000000      1.00000000      1.00000000      1.00000000      1.00000000      1.00000000      1.00000000      1.00000000      1.00000000      1.00000000      1.00000000
      1.00000000      1.00000000      1.00000000      1.00000000      1.00000000      1.00000000      1.00000000      1.00000000      1.00000000      1.00000000      1.00000000      1.00000000      1.00000000      1.00000000      1.00000000      1.00000000</v>
    <i name="NUPDOWN">     -1.00000000</i>
    <i type="logical" name="LSORBIT"> F  </i>
    <v name="SAXIS">      0.00000000      0.00000000      1.00000000</v>
    <i type="logical" name="LSPIRAL"> F  </i>
    <v name="QSPIRAL">      0.00000000      0.00000000      0.00000000</v>
    <i type="logical" name="LZEROZ"> F  </i>
   </separator>
   <separator name="electronic exchange-correlation" >
    <i type="logical" name="LASPH"> F  </i>
    <i type="logical" name="LMETAGGA"> F  </i>
   </separator>
   <separator name="electronic convergence" >
    <i type="int" name="NELM">   100</i>
    <i type="int" name="NELMDL">    -5</i>
    <i type="int" name="NELMIN">     8</i>
    <i name="ENINI">    400.00000000</i>
    <separator name="electronic convergence detail" >
     <i type="logical" name="LDIAG"> T  </i>
     <i type="logical" name="LSUBROT"> F  </i>
     <i name="WEIMIN">      0.00100000</i>
     <i name="EBREAK">      0.00000000</i>
     <i name="DEPER">      0.30000000</i>
     <i type="int" name="NRMM">     4</i>
     <i name="TIME">      0.40000000</i>
    </separator>
   </separator>
   <separator name="electronic mixer" >
    <i name="AMIX">      0.40000000</i>
    <i name="BMIX">      1.00000000</i>
    <i name="AMIN">      0.10000000</i>
    <i name="AMIX_MAG">      1.60000000</i>
    <i name="BMIX_MAG">      1.00000000</i>
    <separator name="electronic mixer details" >
     <i type="int" name="IMIX">     4</i>
     <i type="logical" name="MIXFIRST"> F  </i>
     <i type="int" name="MAXMIX">   -45</i>
     <i name="WC">    100.00000000</i>
     <i type="int" name="INIMIX">     1</i>
     <i type="int" name="MIXPRE">     1</i>
     <i type="int" name="MREMOVE">     5</i>
    </separator>
   </separator>
   <separator name="electronic dipolcorrection" >
    <i type="logical" name="LDIPOL"> F  </i>
    <i type="logical" name="LMONO"> F  </i>
    <i type="int" name="IDIPOL">     0</i>
    <i name="EPSILON">      1.00000000</i>
    <v name="DIPOL">   -100.00000000   -100.00000000   -100.00000000</v>
    <i name="EFIELD">      0.00000000</i>
   </separator>
  </separator>
  <separator name="grids" >
   <i type="int" name="NGX">    98</i>
   <i type="int" name="NGY">    98</i>
   <i type="int" name="NGZ">    98</i>
   <i type="int" name="NGXF">   196</i>
   <i type="int" name="NGYF">   196</i>
   <i type="int" name="NGZF">   196</i>
   <i type="logical" name="ADDGRID"> F  </i>
  </separator>
  <separator name="ionic" >
   <i type="int" name="NSW">   500</i>
   <i type="int" name="IBRION">     3</i>
   <i type="int" name="MDALGO">     0</i>
   <i type="int" name="ISIF">     2</i>
   <i name="PSTRESS">      0.00000000</i>
   <i name="EDIFFG">     -0.10000000</i>
   <i type="int" name="NFREE">     0</i>
   <i name="POTIM">      0.00000000</i>
   <i name="SMASS">     -3.00000000</i>
   <i name="SCALEE">      1.00000000</i>
  </separator>
  <separator name="ionic md" >
   <i name="TEBEG">      0.00010000</i>
   <i name="TEEND">      0.00010000</i>
   <i type="int" name="NBLOCK">     1</i>
   <i type="int" name="KBLOCK">   500</i>
   <i type="int" name="NPACO">   256</i>
   <i name="APACO">     16.00000000</i>
  </separator>
  <separator name="symmetry" >
   <i type="int" name="ISYM">     0</i>
   <i name="SYMPREC">      0.00001000</i>
  </separator>
  <separator name="dos" >
   <i type="int" name="LORBIT">     0</i>
   <v name="RWIGS">     -1.00000000     -1.00000000</v>
   <i type="int" name="NEDOS">   301</i>
   <i name="EMIN">     10.00000000</i>
   <i name="EMAX">    -10.00000000</i>
   <i name="EFERMI">      0.00000000</i>
  </separator>
  <separator name="writing" >
   <i type="int" name="NWRITE">     1</i>
   <i type="logical" name="LWAVE"> F  </i>
   <i type="logical" name="LDOWNSAMPLE"> F  </i>
   <i type="logical" name="LCHARG"> F  </i>
   <i type="logical" name="LPARD"> F  </i>
   <i type="logical" name="LVTOT"> F  </i>
   <i type="logical" name="LVHAR"> F  </i>
   <i type="logical" name="LELF"> F  </i>
   <i type="logical" name="LOPTICS"> F  </i>
   <v name="STM">      0.00000000      0.00000000      0.00000000      0.00000000      0.00000000      0.00000000      0.00000000</v>
  </separator>
  <separator name="performance" >
   <i type="int" name="NPAR">    24</i>
   <i type="int" name="NSIM">     4</i>
   <i type="int" name="NBLK">    -1</i>
   <i type="logical" name="LPLANE"> T  </i>
   <i type="logical" name="LSCALAPACK"> T  </i>
   <i type="logical" name="LSCAAWARE"> F  </i>
   <i type="logical" name="LSCALU"> F  </i>
   <i type="logical" name="LASYNC"> F  </i>
   <i type="logical" name="LORBITALREAL"> F  </i>
  </separator>
  <separator name="miscellaneous" >
   <i type="int" name="IDIOT">     3</i>
   <i type="int" name="ISPECIAL">     0</i>
   <i type="logical" name="LMUSIC"> F  </i>
   <v name="POMASS">     58.69000000     32.06600000</v>
   <v name="DARWINR">      0.00000000      0.00000000</v>
   <v name="DARWINV">      1.00000000      1.00000000</v>
   <i type="logical" name="LCORR"> T  </i>
  </separator>
  <i type="logical" name="GGA_COMPAT"> T  </i>
  <i type="logical" name="LBERRY"> F  </i>
  <i type="int" name="ICORELEVEL">     0</i>
  <i type="logical" name="LDAU"> F  </i>
  <i type="int" name="I_CONSTRAINED_M">     0</i>
  <separator name="electronic exchange-correlation" >
   <i type="string" name="GGA">--</i>
   <i type="int" name="VOSKOWN">     0</i>
   <i type="logical" name="LHFCALC"> F  </i>
   <i type="string" name="PRECFOCK"></i>
   <i type="logical" name="LSYMGRAD"> F  </i>
   <i type="logical" name="LHFONE"> F  </i>
   <i type="logical" name="LRHFCALC"> F  </i>
   <i type="logical" name="LTHOMAS"> F  </i>
   <i type="logical" name="LMODELHF"> F  </i>
   <i name="ENCUT4O">     -1.00000000</i>
   <i type="int" name="EXXOEP">     0</i>
   <i type="int" name="FOURORBIT">     0</i>
   <i name="AEXX">      0.00000000</i>
   <i name="HFALPHA">      0.00000000</i>
   <i name="MCALPHA">      0.00000000</i>
   <i name="ALDAX">      1.00000000</i>
   <i name="AGGAX">      1.00000000</i>
   <i name="ALDAC">      1.00000000</i>
   <i name="AGGAC">      1.00000000</i>
   <i type="int" name="NKREDX">     1</i>
   <i type="int" name="NKREDY">     1</i>
   <i type="int" name="NKREDZ">     1</i>
   <i type="logical" name="SHIFTRED"> F  </i>
   <i type="logical" name="ODDONLY"> F  </i>
   <i type="logical" name="EVENONLY"> F  </i>
   <i type="int" name="LMAXFOCK">     0</i>
   <i type="int" name="NMAXFOCKAE">     0</i>
   <i type="logical" name="LFOCKAEDFT"> F  </i>
   <i name="HFSCREEN">      0.00000000</i>
   <i name="HFSCREENC">      0.00000000</i>
   <i type="int" name="NBANDSGWLOW">     0</i>
  </separator>
  <separator name="vdW DFT" >
   <i type="logical" name="LUSE_VDW"> F  </i>
   <i name="Zab_VDW">     -0.84910000</i>
   <i name="PARAM1">      0.12340000</i>
   <i name="PARAM2">      1.00000000</i>
   <i name="PARAM3">      0.00000000</i>
  </separator>
  <separator name="model GW" >
   <i type="int" name="MODEL_GW">     0</i>
   <i name="MODEL_EPS0">     85.71428571</i>
   <i name="MODEL_ALPHA">      1.00000000</i>
  </separator>
  <separator name="linear response parameters" >
   <i type="logical" name="LEPSILON"> F  </i>
   <i type="logical" name="LRPA"> F  </i>
   <i type="logical" name="LNABLA"> F  </i>
   <i type="logical" name="LVEL"> F  </i>
   <i type="int" name="KINTER">     0</i>
   <i name="CSHIFT">      0.10000000</i>
   <i name="OMEGAMAX">     -1.00000000</i>
   <i name="DEG_THRESHOLD">      0.00200000</i>
   <i name="RTIME">     -0.10000000</i>
   <i name="WPLASMAI">      0.00000000</i>
   <v name="DFIELD">      0.00000000      0.00000000      0.00000000</v>
   <v name="WPLASMA">      0.00000000      0.00000000      0.00000000      0.00000000      0.00000000      0.00000000      0.00000000      0.00000000      0.00000000</v>
  </separator>
  <separator name="orbital magnetization" >
   <i type="logical" name="NUCIND"> F  </i>
   <v name="MAGPOS">      0.00000000      0.00000000      0.00000000</v>
   <i type="logical" name="LNICSALL"> T  </i>
   <i type="logical" name="ORBITALMAG"> F  </i>
   <i type="logical" name="LMAGBLOCH"> F  </i>
   <i type="logical" name="LCHIMAG"> F  </i>
   <i type="logical" name="LGAUGE"> T  </i>
   <i type="int" name="MAGATOM">     0</i>
   <v name="MAGDIPOL">      0.00000000      0.00000000      0.00000000</v>
   <v name="AVECCONST">      0.00000000      0.00000000      0.00000000</v>
  </separator>
  <separator name="response functions" >
   <i type="logical" name="LADDER"> F  </i>
   <i type="logical" name="LRPAFORCE"> F  </i>
   <i type="logical" name="LFXC"> F  </i>
   <i type="logical" name="LHARTREE"> T  </i>
   <i type="int" name="IBSE">     0</i>
   <v type="int" name="KPOINT">    -1     0     0     0</v>
   <i type="logical" name="LTCTE"> F  </i>
   <i type="logical" name="LTETE"> F  </i>
   <i type="logical" name="LTRIPLET"> F  </i>
   <i type="logical" name="LFXCEPS"> F  </i>
   <i type="logical" name="LFXHEG"> F  </i>
   <i type="int" name="NATURALO">     2</i>
   <i type="logical" name="L2ORDER"> F  </i>
   <i type="logical" name="LMP2LT"> F  </i>
   <i type="logical" name="LUSEW"> F  </i>
   <i name="ENCUTGW">     -2.00000000</i>
   <i name="ENCUTGWSOFT">     -2.00000000</i>
   <i name="ENCUTLF">     -1.00000000</i>
   <i type="int" name="LMAXMP2">    -1</i>
   <i name="SCISSOR">      0.00000000</i>
   <i type="int" name="NOMEGA">     0</i>
   <i type="int" name="NOMEGAR">     0</i>
   <i type="int" name="NBANDSGW">    -1</i>
   <i type="int" name="NBANDSO">    -1</i>
   <i type="int" name="NBANDSV">    -1</i>
   <i type="int" name="NELM">   100</i>
   <i type="int" name="NELMHF">     1</i>
   <i type="int" name="DIM">     3</i>
   <i type="int" name="ANTIRES">     0</i>
   <i name="OMEGAMAX">    -30.00000000</i>
   <i name="OMEGAMIN">    -30.00000000</i>
   <i name="OMEGATL">   -200.00000000</i>
   <i type="int" name="OMEGAGRID">   140</i>
   <i name="CSHIFT">     -0.10000000</i>
   <i type="logical" name="SELFENERGY"> F  </i>
   <i type="logical" name="LSPECTRAL"> F  </i>
   <i type="logical" name="LSPECTRALGW"> F  </i>
   <i type="logical" name="LSINGLES"> F  </i>
   <i type="logical" name="LFERMIGW"> F  </i>
   <i type="logical" name="ODDONLYGW"> F  </i>
   <i type="logical" name="EVENONLYGW"> F  </i>
   <i type="int" name="NKREDLFX">     1</i>
   <i type="int" name="NKREDLFY">     1</i>
   <i type="int" name="NKREDLFZ">     1</i>
   <i type="int" name="MAXMEM">  2800</i>
   <i type="int" name="TELESCOPE">     0</i>
   <i type="int" name="TAUPAR">     1</i>
   <i type="int" name="OMEGAPAR">    -1</i>
   <i name="LAMBDA">      1.00000000</i>
  </separator>
  <separator name="External order field" >
   <i name="OFIELD_KAPPA">      0.00000000</i>
   <v name="OFIELD_K">      0.00000000      0.00000000      0.00000000</v>
   <i name="OFIELD_Q6_NEAR">      0.00000000</i>
   <i name="OFIELD_Q6_FAR">      0.00000000</i>
   <i name="OFIELD_A">      0.00000000</i>
  </separator>
 </parameters>
 <atominfo>
  <atoms>      56 </atoms>
  <types>       2 </types>
  <array name="atoms" >
   <dimension dim="1">ion</dimension>
   <field type="string">element</field>
   <field type="int">atomtype</field>
   <set>
    <rc><c>Ni</c><c>   1</c></rc>
    <rc><c>Ni</c><c>   1</c></rc>
    <rc><c>Ni</c><c>   1</c></rc>
    <rc><c>Ni</c><c>   1</c></rc>
    <rc><c>Ni</c><c>   1</c></rc>
    <rc><c>Ni</c><c>   1</c></rc>
    <rc><c>Ni</c><c>   1</c></rc>
    <rc><c>Ni</c><c>   1</c></rc>
    <rc><c>Ni</c><c>   1</c></rc>
    <rc><c>Ni</c><c>   1</c></rc>
    <rc><c>Ni</c><c>   1</c></rc>
    <rc><c>Ni</c><c>   1</c></rc>
    <rc><c>Ni</c><c>   1</c></rc>
    <rc><c>Ni</c><c>   1</c></rc>
    <rc><c>Ni</c><c>   1</c></rc>
    <rc><c>Ni</c><c>   1</c></rc>
    <rc><c>Ni</c><c>   1</c></rc>
    <rc><c>Ni</c><c>   1</c></rc>
    <rc><c>Ni</c><c>   1</c></rc>
    <rc><c>Ni</c><c>   1</c></rc>
    <rc><c>Ni</c><c>   1</c></rc>
    <rc><c>Ni</c><c>   1</c></rc>
    <rc><c>Ni</c><c>   1</c></rc>
    <rc><c>Ni</c><c>   1</c></rc>
    <rc><c>Ni</c><c>   1</c></rc>
    <rc><c>Ni</c><c>   1</c></rc>
    <rc><c>Ni</c><c>   1</c></rc>
    <rc><c>Ni</c><c>   1</c></rc>
    <rc><c>Ni</c><c>   1</c></rc>
    <rc><c>Ni</c><c>   1</c></rc>
    <rc><c>Ni</c><c>   1</c></rc>
    <rc><c>Ni</c><c>   1</c></rc>
    <rc><c>Ni</c><c>   1</c></rc>
    <rc><c>Ni</c><c>   1</c></rc>
    <rc><c>Ni</c><c>   1</c></rc>
    <rc><c>Ni</c><c>   1</c></rc>
    <rc><c>Ni</c><c>   1</c></rc>
    <rc><c>Ni</c><c>   1</c></rc>
    <rc><c>Ni</c><c>   1</c></rc>
    <rc><c>Ni</c><c>   1</c></rc>
    <rc><c>Ni</c><c>   1</c></rc>
    <rc><c>Ni</c><c>   1</c></rc>
    <rc><c>Ni</c><c>   1</c></rc>
    <rc><c>Ni</c><c>   1</c></rc>
    <rc><c>Ni</c><c>   1</c></rc>
    <rc><c>Ni</c><c>   1</c></rc>
    <rc><c>Ni</c><c>   1</c></rc>
    <rc><c>Ni</c><c>   1</c></rc>
    <rc><c>Ni</c><c>   1</c></rc>
    <rc><c>Ni</c><c>   1</c></rc>
    <rc><c>Ni</c><c>   1</c></rc>
    <rc><c>Ni</c><c>   1</c></rc>
    <rc><c>Ni</c><c>   1</c></rc>
    <rc><c>Ni</c><c>   1</c></rc>
    <rc><c>Ni</c><c>   1</c></rc>
    <rc><c>S </c><c>   2</c></rc>
   </set>
  </array>
  <array name="atomtypes" >
   <dimension dim="1">type</dimension>
   <field type="int">atomspertype</field>
   <field type="string">element</field>
   <field>mass</field>
   <field>valence</field>
   <field type="string">pseudopotential</field>
   <set>
    <rc><c>  55</c><c>Ni</c><c>     58.69000000</c><c>     10.00000000</c><c> PAW_PBE Ni 06Sep2000                   </c></rc>
    <rc><c>   1</c><c>S </c><c>     32.06600000</c><c>      6.00000000</c><c>  PAW_PBE S 17Jan2003                   </c></rc>
   </set>
  </array>
 </atominfo>
 <structure name="initialpos" >
  <crystal>
   <varray name="basis" >
    <v>      20.00000000       0.00000000       0.00000000 </v>
    <v>       0.00000000      20.00000000       0.00000000 </v>
    <v>       0.00000000       0.00000000      20.00000000 </v>
   </varray>
   <i name="volume">   8000.00000000 </i>
   <varray name="rec_basis" >
    <v>       0.05000000       0.00000000       0.00000000 </v>
    <v>       0.00000000       0.05000000       0.00000000 </v>
    <v>       0.00000000       0.00000000       0.05000000 </v>
   </varray>
  </crystal>
  <varray name="positions" >
   <v>       0.35000293       0.59602216       0.41030693 </v>
   <v>       0.45137945       0.66319976       0.37751942 </v>
   <v>       0.41182470       0.66271010       0.49705177 </v>
   <v>       0.51283502       0.72347861       0.46448592 </v>
   <v>       0.51462933       0.60858199       0.46442791 </v>
   <v>       0.57701518       0.66506980       0.37786420 </v>
   <v>       0.61567126       0.66531181       0.49702740 </v>
   <v>       0.31659221       0.59269282       0.52789017 </v>
   <v>       0.35032149       0.48842717       0.58298292 </v>
   <v>       0.41494109       0.54248257       0.49654201 </v>
   <v>       0.41267935       0.59623379       0.60447671 </v>
   <v>       0.51363796       0.66348349       0.57129015 </v>
   <v>       0.51453969       0.54290341       0.57038072 </v>
   <v>       0.61533463       0.54461749       0.49699647 </v>
   <v>       0.61599919       0.59871613       0.60446312 </v>
   <v>       0.39266219       0.59380183       0.29555873 </v>
   <v>       0.35180310       0.48901811       0.34417512 </v>
   <v>       0.45389718       0.49092957       0.27012795 </v>
   <v>       0.45352132       0.54274116       0.37890700 </v>
   <v>       0.51517144       0.59796881       0.29094379 </v>
   <v>       0.51659933       0.43843396       0.35876291 </v>
   <v>       0.57914884       0.49228854       0.27059694 </v>
   <v>       0.57751680       0.54451279       0.37926218 </v>
   <v>       0.31250138       0.48788106       0.46412725 </v>
   <v>       0.35210368       0.38114797       0.51714689 </v>
   <v>       0.41627080       0.43665569       0.43222769 </v>
   <v>       0.45488592       0.43741506       0.54996374 </v>
   <v>       0.51584733       0.49068488       0.46462031 </v>
   <v>       0.51752681       0.37282676       0.46383771 </v>
   <v>       0.61692471       0.43946441       0.43170797 </v>
   <v>       0.57811708       0.43821283       0.54994692 </v>
   <v>       0.67958615       0.60002922       0.41103882 </v>
   <v>       0.71225280       0.59688448       0.52905272 </v>
   <v>       0.68037261       0.49232525       0.58386195 </v>
   <v>       0.63739402       0.59677434       0.29612399 </v>
   <v>       0.68093871       0.49315055       0.34455967 </v>
   <v>       0.71957876       0.49334497       0.46399713 </v>
   <v>       0.68176561       0.38566258       0.51759736 </v>
   <v>       0.45242366       0.49162810       0.66320607 </v>
   <v>       0.51473374       0.59624895       0.67250381 </v>
   <v>       0.57955537       0.49182429       0.65739146 </v>
   <v>       0.39313450       0.38376493       0.63297186 </v>
   <v>       0.45452809       0.31700500       0.54962420 </v>
   <v>       0.51902558       0.38122213       0.64084823 </v>
   <v>       0.58063045       0.31809676       0.55081895 </v>
   <v>       0.64077230       0.38723761       0.63199357 </v>
   <v>       0.41573926       0.38308486       0.32360680 </v>
   <v>       0.51738899       0.38731443       0.25560150 </v>
   <v>       0.61917908       0.38571331       0.32384033 </v>
   <v>       0.31951111       0.38468131       0.39827198 </v>
   <v>       0.41616557       0.31656831       0.43096144 </v>
   <v>       0.51817362       0.31793075       0.35647440 </v>
   <v>       0.61986205       0.31895991       0.43040374 </v>
   <v>       0.71532981       0.38919712       0.39982659 </v>
   <v>       0.51920696       0.25803992       0.46323463 </v>
   <v>       0.43352488       0.41147469       0.71686815 </v>
  </varray>
 </structure>
 <calculation>
  <scstep>
   <time name="dav">   53.27   53.46</time>
   <time name="total">   53.57   53.76</time>
   <energy>
    <i name="alphaZ">    387.12086559 </i>
    <i name="ewald"> 181052.55010223 </i>
    <i name="hartreedc">-235826.34083924 </i>
    <i name="XCdc">   1717.62161618 </i>
    <i name="pawpsdc">  47983.58147063 </i>
    <i name="pawaedc"> -51655.55533713 </i>
    <i name="eentropy">     -0.06543657 </i>
    <i name="bandstr">   -370.41484446 </i>
    <i name="atom">  59560.90262231 </i>
    <i name="e_fr_energy">   2857.94435146 </i>
    <i name="e_wo_entrp">   2858.01478803 </i>
    <i name="e_0_energy">   2857.97956975 </i>
   </energy>
  </scstep>
  <scstep>
   <time name="dav">   63.94   64.34</time>
   <time name="total">   63.94   64.34</time>
   <energy>
    <i name="e_fr_energy">   -111.65073088 </i>
    <i name="e_wo_entrp">   -111.50621094 </i>
    <i name="e_0_energy">   -111.57847091 </i>
   </energy>
  </scstep>
  <scstep>
   <time name="dav">   68.51   69.06</time>
   <time name="total">   68.51   69.06</time>
   <energy>
    <i name="e_fr_energy">   -295.64590544 </i>
    <i name="e_wo_entrp">   -295.33312422 </i>
    <i name="e_0_energy">   -295.48951483 </i>
   </energy>
  </scstep>
  <scstep>
   <time name="dav">   63.26   63.76</time>
   <time name="total">   63.26   63.76</time>
   <energy>
    <i name="e_fr_energy">   -302.90998785 </i>
    <i name="e_wo_entrp">   -302.59173042 </i>
    <i name="e_0_energy">   -302.75085913 </i>
   </energy>
  </scstep>
  <scstep>
   <time name="dav">   69.50   70.01</time>
   <time name="total">   70.03   70.54</time>
   <energy>
    <i name="e_fr_energy">   -303.12047820 </i>
    <i name="e_wo_entrp">   -302.80191702 </i>
    <i name="e_0_energy">   -302.96119761 </i>
   </energy>
  </scstep>
  <scstep>
   <time name="diag">    1.73    1.74</time>
   <time name="diis">   50.08   50.41</time>
   <time name="orth">    0.51    0.53</time>
   <time name="total">   53.20   53.57</time>
   <energy>
    <i name="e_fr_energy">   -457.38075662 </i>
    <i name="e_wo_entrp">   -457.27451434 </i>
    <i name="e_0_energy">   -457.32763548 </i>
   </energy>
  </scstep>
  <scstep>
   <time name="diag">    1.89    1.91</time>
   <time name="diis">   46.82   47.21</time>
   <time name="orth">    0.51    0.52</time>
   <time name="total">   50.15   50.58</time>
   <energy>
    <i name="e_fr_energy">   -343.06564924 </i>
    <i name="e_wo_entrp">   -342.84040723 </i>
    <i name="e_0_energy">   -342.95302823 </i>
   </energy>
  </scstep>
  <scstep>
   <time name="diag">    1.78    1.80</time>
   <time name="diis">   44.67   44.89</time>
   <time name="orth">    0.50    0.52</time>
   <time name="total">   47.88   48.15</time>
   <energy>
    <i name="e_fr_energy">   -314.19014479 </i>
    <i name="e_wo_entrp">   -314.07446518 </i>
    <i name="e_0_energy">   -314.13230498 </i>
   </energy>
  </scstep>
  <scstep>
   <time name="diag">    1.89    1.91</time>
   <time name="diis">   48.90   49.34</time>
   <time name="orth">    0.52    0.52</time>
   <time name="total">   52.26   52.73</time>
   <energy>
    <i name="e_fr_energy">   -307.92364635 </i>
    <i name="e_wo_entrp">   -307.83839474 </i>
    <i name="e_0_energy">   -307.88102055 </i>
   </energy>
  </scstep>
  <scstep>
   <time name="diag">    1.89    1.91</time>
   <time name="diis">   45.47   45.70</time>
   <time name="orth">    0.45    0.45</time>
   <time name="total">   48.67   48.92</time>
   <energy>
    <i name="e_fr_energy">   -291.12772034 </i>
    <i name="e_wo_entrp">   -290.98988459 </i>
    <i name="e_0_energy">   -291.05880246 </i>
   </energy>
  </scstep>
  <scstep>
   <time name="diag">    1.72    1.73</time>
   <time name="diis">   50.09   50.37</time>
   <time name="orth">    0.53    0.53</time>
   <time name="total">   53.25   53.54</time>
   <energy>
    <i name="e_fr_energy">   -271.17996113 </i>
    <i name="e_wo_entrp">   -270.95439773 </i>
    <i name="e_0_energy">   -271.06717943 </i>
   </energy>
  </scstep>
  <scstep>
   <time name="diag">    1.89    1.90</time>
   <time name="diis">   46.91   47.33</time>
   <time name="orth">    0.53    0.53</time>
   <time name="total">   50.24   50.68</time>
   <energy>
    <i name="e_fr_energy">   -266.94382375 </i>
    <i name="e_wo_entrp">   -266.69953723 </i>
    <i name="e_0_energy">   -266.82168049 </i>
   </energy>
  </scstep>
  <scstep>
   <time name="diag">    1.85    1.87</time>
   <time name="diis">   44.48   44.75</time>
   <time name="orth">    0.54    0.54</time>
   <time name="total">   47.82   48.13</time>
   <energy>
    <i name="e_fr_energy">   -265.73937707 </i>
    <i name="e_wo_entrp">   -265.53096423 </i>
    <i name="e_0_energy">   -265.63517065 </i>
   </energy>
  </scstep>
  <scstep>
   <time name="diag">    1.91    1.92</time>
   <time name="diis">   49.14   49.60</time>
   <time name="orth">    0.53    0.54</time>
   <time name="total">   52.53   53.02</time>
   <energy>
    <i name="e_fr_energy">   -264.89774587 </i>
    <i name="e_wo_entrp">   -264.65713895 </i>
    <i name="e_0_energy">   -264.77744241 </i>
   </energy>
  </scstep>
  <scstep>
   <time name="diag">    1.90    1.92</time>
   <time name="diis">   45.49   45.76</time>
   <time name="orth">    0.49    0.49</time>
   <time name="total">   48.75   49.05</time>
   <energy>
    <i name="e_fr_energy">   -266.23266618 </i>
    <i name="e_wo_entrp">   -266.05481694 </i>
    <i name="e_0_energy">   -266.14374156 </i>
   </energy>
  </scstep>
  <scstep>
   <time name="diag">    1.75    1.75</time>
   <time name="diis">   49.97   50.32</time>
   <time name="orth">    0.51    0.52</time>
   <time name="total">   53.12   53.50</time>
   <energy>
    <i name="e_fr_energy">   -262.53451230 </i>
    <i name="e_wo_entrp">   -262.34412052 </i>
    <i name="e_0_energy">   -262.43931641 </i>
   </energy>
  </scstep>
  <scstep>
   <time name="diag">    1.90    1.92</time>
   <time name="diis">   46.90   47.26</time>
   <time name="orth">    0.51    0.51</time>
   <time name="total">   50.23   50.62</time>
   <energy>
    <i name="e_fr_energy">   -260.50561016 </i>
    <i name="e_wo_entrp">   -260.26370785 </i>
    <i name="e_0_energy">   -260.38465901 </i>
   </energy>
  </scstep>
  <scstep>
   <time name="diag">    1.84    1.85</time>
   <time name="diis">   44.33   44.54</time>
   <time name="orth">    0.54    0.54</time>
   <time name="total">   47.67   47.91</time>
   <energy>
    <i name="e_fr_energy">   -259.96839350 </i>
    <i name="e_wo_entrp">   -259.70412943 </i>
    <i name="e_0_energy">   -259.83626146 </i>
   </energy>
  </scstep>
  <scstep>
   <time name="diag">    1.91    1.92</time>
   <time name="diis">   49.32   49.70</time>
   <time name="orth">    0.54    0.54</time>
   <time name="total">   52.72   53.12</time>
   <energy>
    <i name="e_fr_energy">   -259.21160991 </i>
    <i name="e_wo_entrp">   -258.90044855 </i>
    <i name="e_0_energy">   -259.05602923 </i>
   </energy>
  </scstep>
  <scstep>
   <time name="diag">    1.90    1.91</time>
   <time name="diis">   45.94   46.17</time>
   <time name="orth">    0.49    0.49</time>
   <time name="total">   49.19   49.45</time>
   <energy>
    <i name="e_fr_energy">   -258.36538904 </i>
    <i name="e_wo_entrp">   -258.00027263 </i>
    <i name="e_0_energy">   -258.18283083 </i>
   </energy>
  </scstep>
  <scstep>
   <time name="diag">    1.72    1.73</time>
   <time name="diis">   49.91   50.17</time>
   <time name="orth">    0.53    0.53</time>
   <time name="total">   53.08   53.36</time>
   <energy>
    <i name="e_fr_energy">   -257.56668049 </i>
    <i name="e_wo_entrp">   -257.13355246 </i>
    <i name="e_0_energy">   -257.35011647 </i>
   </energy>
  </scstep>
  <scstep>
   <time name="diag">    1.89    1.91</time>
   <time name="diis">   47.04   47.41</time>
   <time name="orth">    0.52    0.53</time>
   <time name="total">   50.40   50.80</time>
   <energy>
    <i name="e_fr_energy">   -257.13572453 </i>
    <i name="e_wo_entrp">   -256.65031060 </i>
    <i name="e_0_energy">   -256.89301757 </i>
   </energy>
  </scstep>
  <scstep>
   <time name="diag">    1.88    1.90</time>
   <time name="diis">   44.09   44.30</time>
   <time name="orth">    0.52    0.53</time>
   <time name="total">   47.46   47.70</time>
   <energy>
    <i name="e_fr_energy">   -256.79883610 </i>
    <i name="e_wo_entrp">   -256.28251238 </i>
    <i name="e_0_energy">   -256.54067424 </i>
   </energy>
  </scstep>
  <scstep>
   <time name="diag">    1.91    1.92</time>
   <time name="diis">   49.46   49.90</time>
   <time name="orth">    0.54    0.54</time>
   <time name="total">   52.89   53.36</time>
   <energy>
    <i name="e_fr_energy">   -256.63640798 </i>
    <i name="e_wo_entrp">   -256.12855778 </i>
    <i name="e_0_energy">   -256.38248288 </i>
   </energy>
  </scstep>
  <scstep>
   <time name="diag">    1.89    1.90</time>
   <time name="diis">   46.34   46.56</time>
   <time name="orth">    0.47    0.47</time>
   <time name="total">   49.59   49.84</time>
   <energy>
    <i name="e_fr_energy">   -256.75208385 </i>
    <i name="e_wo_entrp">   -256.27183590 </i>
    <i name="e_0_energy">   -256.51195987 </i>
   </energy>
  </scstep>
  <scstep>
   <time name="diag">    1.73    1.74</time>
   <time name="diis">   49.91   50.20</time>
   <time name="orth">    0.53    0.54</time>
   <time name="total">   53.10   53.41</time>
   <energy>
    <i name="e_fr_energy">   -256.92923283 </i>
    <i name="e_wo_entrp">   -256.48398945 </i>
    <i name="e_0_energy">   -256.70661114 </i>
   </energy>
  </scstep>
  <scstep>
   <time name="diag">    1.90    1.92</time>
   <time name="diis">   54.94   55.42</time>
   <time name="orth">    0.51    0.51</time>
   <time name="total">   58.28   58.80</time>
   <energy>
    <i name="e_fr_energy">   -256.69873275 </i>
    <i name="e_wo_entrp">   -256.19816341 </i>
    <i name="e_0_energy">   -256.44844808 </i>
   </energy>
  </scstep>
  <scstep>
   <time name="diag">    1.78    1.80</time>
   <time name="diis">   45.99   46.26</time>
   <time name="orth">    0.54    0.54</time>
   <time name="total">   49.28   49.58</time>
   <energy>
    <i name="e_fr_energy">   -256.88402534 </i>
    <i name="e_wo_entrp">   -256.41776126 </i>
    <i name="e_0_energy">   -256.65089330 </i>
   </energy>
  </scstep>
  <scstep>
   <time name="diag">    1.91    1.92</time>
   <time name="diis">   48.95   49.37</time>
   <time name="orth">    0.52    0.53</time>
   <time name="total">   52.31   52.76</time>
   <energy>
    <i name="e_fr_energy">   -256.79336809 </i>
    <i name="e_wo_entrp">   -256.31488505 </i>
    <i name="e_0_energy">   -256.55412657 </i>
   </energy>
  </scstep>
  <scstep>
   <time name="diag">    1.83    1.86</time>
   <time name="diis">   44.72   44.88</time>
   <time name="orth">    0.50    0.50</time>
   <time name="total">   48.01   48.21</time>
   <energy>
    <i name="e_fr_energy">   -256.66608190 </i>
    <i name="e_wo_entrp">   -256.15762729 </i>
    <i name="e_0_energy">   -256.41185459 </i>
   </energy>
  </scstep>
  <scstep>
   <time name="diag">    2.11    2.12</time>
   <time name="diis">   50.11   50.50</time>
   <time name="orth">    0.52    0.52</time>
   <time name="total">   53.83   54.25</time>
   <energy>
    <i name="e_fr_energy">   -256.59680513 </i>
    <i name="e_wo_entrp">   -256.10280175 </i>
    <i name="e_0_energy">   -256.34980344 </i>
   </energy>
  </scstep>
  <scstep>
   <time name="diag">    1.90    1.91</time>
   <time name="diis">   46.42   46.79</time>
   <time name="orth">    0.49    0.49</time>
   <time name="total">   49.72   50.12</time>
   <energy>
    <i name="e_fr_energy">   -256.55130973 </i>
    <i name="e_wo_entrp">   -256.05607525 </i>
    <i name="e_0_energy">   -256.30369249 </i>
   </energy>
  </scstep>
  <scstep>
   <time name="diag">    1.78    1.79</time>
   <time name="diis">   45.69   45.93</time>
   <time name="orth">    0.53    0.54</time>
   <time name="total">   48.97   49.23</time>
   <energy>
    <i name="e_fr_energy">   -256.46734862 </i>
    <i name="e_wo_entrp">   -255.94389625 </i>
    <i name="e_0_energy">   -256.20562243 </i>
   </energy>
  </scstep>
  <scstep>
   <time name="diag">    1.92    1.93</time>
   <time name="diis">   48.99   49.36</time>
   <time name="orth">    0.53    0.53</time>
   <time name="total">   52.43   52.83</time>
   <energy>
    <i name="e_fr_energy">   -256.44226817 </i>
    <i name="e_wo_entrp">   -255.90136652 </i>
    <i name="e_0_energy">   -256.17181735 </i>
   </energy>
  </scstep>
  <scstep>
   <time name="diag">    1.86    1.87</time>
   <time name="diis">   44.81   44.94</time>
   <time name="orth">    0.49    0.50</time>
   <time name="total">   48.06   48.21</time>
   <energy>
    <i name="e_fr_energy">   -256.46547400 </i>
    <i name="e_wo_entrp">   -255.92324397 </i>
    <i name="e_0_energy">   -256.19435898 </i>
   </energy>
  </scstep>
  <scstep>
   <time name="diag">    2.04    2.05</time>
   <time name="diis">   50.33   50.66</time>
   <time name="orth">    0.52    0.52</time>
   <time name="total">   53.84   54.20</time>
   <energy>
    <i name="e_fr_energy">   -256.46402793 </i>
    <i name="e_wo_entrp">   -255.94553370 </i>
    <i name="e_0_energy">   -256.20478081 </i>
   </energy>
  </scstep>
  <scstep>
   <time name="diag">    1.90    1.91</time>
   <time name="diis">   46.66   47.04</time>
   <time name="orth">    0.49    0.49</time>
   <time name="total">   50.02   50.43</time>
   <energy>
    <i name="e_fr_energy">   -256.42974273 </i>
    <i name="e_wo_entrp">   -255.91475311 </i>
    <i name="e_0_energy">   -256.17224792 </i>
   </energy>
  </scstep>
  <scstep>
   <time name="diag">    1.77    1.77</time>
   <time name="diis">   45.27   45.53</time>
   <time name="orth">    0.53    0.53</time>
   <time name="total">   48.56   48.84</time>
   <energy>
    <i name="e_fr_energy">   -256.42229442 </i>
    <i name="e_wo_entrp">   -255.89065360 </i>
    <i name="e_0_energy">   -256.15647401 </i>
   </energy>
  </scstep>
  <scstep>
   <time name="diag">    1.91    1.93</time>
   <time name="diis">   48.94   49.36</time>
   <time name="orth">    0.53    0.53</time>
   <time name="total">   52.40   52.85</time>
   <energy>
    <i name="e_fr_energy">   -256.42812457 </i>
    <i name="e_wo_entrp">   -255.88991272 </i>
    <i name="e_0_energy">   -256.15901865 </i>
   </energy>
  </scstep>
  <scstep>
   <time name="diag">    1.90    1.91</time>
   <time name="diis">   44.98   45.20</time>
   <time name="orth">    0.50    0.51</time>
   <time name="total">   48.31   48.56</time>
   <energy>
    <i name="e_fr_energy">   -256.42598412 </i>
    <i name="e_wo_entrp">   -255.89423978 </i>
    <i name="e_0_energy">   -256.16011195 </i>
   </energy>
  </scstep>
  <scstep>
   <time name="diag">    1.76    1.77</time>
   <time name="diis">   50.76   51.14</time>
   <time name="orth">    0.52    0.53</time>
   <time name="total">   54.03   54.43</time>
   <energy>
    <i name="e_fr_energy">   -256.41464101 </i>
    <i name="e_wo_entrp">   -255.88427724 </i>
    <i name="e_0_energy">   -256.14945913 </i>
   </energy>
  </scstep>
  <scstep>
   <time name="diag">    1.91    1.92</time>
   <time name="diis">   46.61   47.04</time>
   <time name="orth">    0.50    0.51</time>
   <time name="total">   50.00   50.46</time>
   <energy>
    <i name="e_fr_energy">   -256.41718950 </i>
    <i name="e_wo_entrp">   -255.88711555 </i>
    <i name="e_0_energy">   -256.15215252 </i>
   </energy>
  </scstep>
  <scstep>
   <time name="diag">    1.76    1.77</time>
   <time name="diis">   45.21   45.46</time>
   <time name="orth">    0.52    0.52</time>
   <time name="total">   48.50   48.78</time>
   <energy>
    <i name="e_fr_energy">   -256.41796158 </i>
    <i name="e_wo_entrp">   -255.87849930 </i>
    <i name="e_0_energy">   -256.14823044 </i>
   </energy>
  </scstep>
  <scstep>
   <time name="diag">    1.91    1.92</time>
   <time name="diis">   48.81   49.31</time>
   <time name="orth">    0.52    0.53</time>
   <time name="total">   52.28   52.80</time>
   <energy>
    <i name="e_fr_energy">   -256.41676354 </i>
    <i name="e_wo_entrp">   -255.88009889 </i>
    <i name="e_0_energy">   -256.14843122 </i>
   </energy>
  </scstep>
  <scstep>
   <time name="diag">    1.86    1.88</time>
   <time name="diis">   45.03   45.25</time>
   <time name="orth">    0.48    0.48</time>
   <time name="total">   48.31   48.56</time>
   <energy>
    <i name="e_fr_energy">   -256.41584155 </i>
    <i name="e_wo_entrp">   -255.87913885 </i>
    <i name="e_0_energy">   -256.14749020 </i>
   </energy>
  </scstep>
  <scstep>
   <time name="diag">    1.73    1.74</time>
   <time name="diis">   50.98   51.37</time>
   <time name="orth">    0.55    0.55</time>
   <time name="total">   54.29   54.70</time>
   <energy>
    <i name="e_fr_energy">   -256.41811528 </i>
    <i name="e_wo_entrp">   -255.88388894 </i>
    <i name="e_0_energy">   -256.15100211 </i>
   </energy>
  </scstep>
  <scstep>
   <time name="diag">    1.95    1.96</time>
   <time name="diis">   49.28   49.73</time>
   <time name="orth">    0.55    0.55</time>
   <time name="total">   52.85   53.34</time>
   <energy>
    <i name="e_fr_energy">   -256.41966549 </i>
    <i name="e_wo_entrp">   -255.88548476 </i>
    <i name="e_0_energy">   -256.15257513 </i>
   </energy>
  </scstep>
  <scstep>
   <time name="diag">    1.94    1.96</time>
   <time name="diis">   48.90   49.38</time>
   <time name="orth">    0.54    0.55</time>
   <time name="total">   52.44   52.96</time>
   <energy>
    <i name="e_fr_energy">   -256.41946990 </i>
    <i name="e_wo_entrp">   -255.88448575 </i>
    <i name="e_0_energy">   -256.15197783 </i>
   </energy>
  </scstep>
  <scstep>
   <time name="diag">    1.93    1.94</time>
   <time name="diis">   45.88   46.23</time>
   <time name="orth">    0.50    0.51</time>
   <time name="total">   49.30   49.67</time>
   <energy>
    <i name="e_fr_energy">   -256.42228479 </i>
    <i name="e_wo_entrp">   -255.88742494 </i>
    <i name="e_0_energy">   -256.15485487 </i>
   </energy>
  </scstep>
  <scstep>
   <time name="diag">    1.81    1.82</time>
   <time name="diis">   44.46   44.61</time>
   <time name="orth">    0.56    0.57</time>
   <time name="total">   47.93   48.10</time>
   <energy>
    <i name="e_fr_energy">   -256.42389903 </i>
    <i name="e_wo_entrp">   -255.88877706 </i>
    <i name="e_0_energy">   -256.15633805 </i>
   </energy>
  </scstep>
  <scstep>
   <time name="diag">    2.24    2.25</time>
   <time name="diis">   51.21   51.60</time>
   <time name="orth">    0.55    0.55</time>
   <time name="total">   55.01   55.44</time>
   <energy>
    <i name="e_fr_energy">   -256.42461507 </i>
    <i name="e_wo_entrp">   -255.88982923 </i>
    <i name="e_0_energy">   -256.15722215 </i>
   </energy>
  </scstep>
  <scstep>
   <time name="diag">    1.81    1.82</time>
   <time name="diis">   44.49   44.84</time>
   <time name="orth">    0.54    0.54</time>
   <time name="total">   47.86   48.24</time>
   <energy>
    <i name="e_fr_energy">   -256.42795094 </i>
    <i name="e_wo_entrp">   -255.89376783 </i>
    <i name="e_0_energy">   -256.16085939 </i>
   </energy>
  </scstep>
  <scstep>
   <time name="diag">    1.94    1.96</time>
   <time name="diis">   49.96   50.35</time>
   <time name="orth">    0.56    0.56</time>
   <time name="total">   53.56   53.99</time>
   <energy>
    <i name="e_fr_energy">   -256.42837888 </i>
    <i name="e_wo_entrp">   -255.89414989 </i>
    <i name="e_0_energy">   -256.16126438 </i>
   </energy>
  </scstep>
  <scstep>
   <time name="diag">    1.94    1.95</time>
   <time name="diis">   49.32   49.71</time>
   <time name="orth">    0.54    0.54</time>
   <time name="total">   52.85   53.29</time>
   <energy>
    <i name="e_fr_energy">   -256.43011781 </i>
    <i name="e_wo_entrp">   -255.89507829 </i>
    <i name="e_0_energy">   -256.16259805 </i>
   </energy>
  </scstep>
  <scstep>
   <time name="diag">    1.90    1.92</time>
   <time name="diis">   45.55   45.71</time>
   <time name="orth">    0.52    0.52</time>
   <time name="total">   48.94   49.14</time>
   <energy>
    <i name="e_fr_energy">   -256.43074928 </i>
    <i name="e_wo_entrp">   -255.89552055 </i>
    <i name="e_0_energy">   -256.16313491 </i>
   </energy>
  </scstep>
  <scstep>
   <time name="diag">    1.77    1.78</time>
   <time name="diis">   47.35   47.61</time>
   <time name="orth">    0.66    0.66</time>
   <time name="total">   50.99   51.27</time>
   <energy>
    <i name="e_fr_energy">   -256.43163132 </i>
    <i name="e_wo_entrp">   -255.89631986 </i>
    <i name="e_0_energy">   -256.16397559 </i>
   </energy>
  </scstep>
  <scstep>
   <time name="diag">    2.22    2.24</time>
   <time name="diis">   47.77   48.15</time>
   <time name="orth">    0.52    0.52</time>
   <time name="total">   51.66   52.09</time>
   <energy>
    <i name="e_fr_energy">   -256.43283221 </i>
    <i name="e_wo_entrp">   -255.89784894 </i>
    <i name="e_0_energy">   -256.16534058 </i>
   </energy>
  </scstep>
  <scstep>
   <time name="diag">    1.89    1.90</time>
   <time name="diis">   45.21   45.46</time>
   <time name="orth">    0.51    0.51</time>
   <time name="total">   48.58   48.86</time>
   <energy>
    <i name="e_fr_energy">   -256.43316297 </i>
    <i name="e_wo_entrp">   -255.89775486 </i>
    <i name="e_0_energy">   -256.16545891 </i>
   </energy>
  </scstep>
  <scstep>
   <time name="diag">    1.83    1.83</time>
   <time name="diis">   48.59   48.97</time>
   <time name="orth">    0.54    0.54</time>
   <time name="total">   51.96   52.37</time>
   <energy>
    <i name="e_fr_energy">   -256.43384471 </i>
    <i name="e_wo_entrp">   -255.89866777 </i>
    <i name="e_0_energy">   -256.16625624 </i>
   </energy>
  </scstep>
  <scstep>
   <time name="diag">    1.90    1.91</time>
   <time name="diis">   47.79   48.12</time>
   <time name="orth">    0.51    0.51</time>
   <time name="total">   51.17   51.53</time>
   <energy>
    <i name="e_fr_energy">   -256.43434000 </i>
    <i name="e_wo_entrp">   -255.89932553 </i>
    <i name="e_0_energy">   -256.16683277 </i>
   </energy>
  </scstep>
  <scstep>
   <time name="diag">    1.79    1.80</time>
   <time name="diis">   47.72   47.92</time>
   <time name="orth">    0.66    0.67</time>
   <time name="total">   51.25   51.48</time>
   <energy>
    <i name="e_fr_energy">   -256.43472633 </i>
    <i name="e_wo_entrp">   -255.89990348 </i>
    <i name="e_0_energy">   -256.16731491 </i>
   </energy>
  </scstep>
  <scstep>
   <time name="diag">    2.00    2.01</time>
   <time name="diis">   47.06   47.53</time>
   <time name="orth">    0.52    0.53</time>
   <time name="total">   50.64   51.13</time>
   <energy>
    <i name="e_fr_energy">   -256.43495263 </i>
    <i name="e_wo_entrp">   -255.90002867 </i>
    <i name="e_0_energy">   -256.16749065 </i>
   </energy>
  </scstep>
  <scstep>
   <time name="diag">    1.90    1.92</time>
   <time name="diis">   45.18   45.48</time>
   <time name="orth">    0.50    0.50</time>
   <time name="total">   48.54   48.87</time>
   <energy>
    <i name="e_fr_energy">   -256.43527242 </i>
    <i name="e_wo_entrp">   -255.90022192 </i>
    <i name="e_0_energy">   -256.16774717 </i>
   </energy>
  </scstep>
  <scstep>
   <time name="diag">    1.86    1.87</time>
   <time name="diis">   48.05   48.49</time>
   <time name="orth">    0.53    0.53</time>
   <time name="total">   51.46   51.92</time>
   <energy>
    <i name="e_fr_energy">   -256.43560175 </i>
    <i name="e_wo_entrp">   -255.90045849 </i>
    <i name="e_0_energy">   -256.16803012 </i>
   </energy>
  </scstep>
  <scstep>
   <time name="diag">    1.89    1.91</time>
   <time name="diis">   48.02   48.37</time>
   <time name="orth">    0.50    0.50</time>
   <time name="total">   51.36   51.75</time>
   <energy>
    <i name="e_fr_energy">   -256.43630334 </i>
    <i name="e_wo_entrp">   -255.90135228 </i>
    <i name="e_0_energy">   -256.16882781 </i>
   </energy>
  </scstep>
  <scstep>
   <time name="diag">    1.77    1.78</time>
   <time name="diis">   47.23   47.46</time>
   <time name="orth">    0.65    0.66</time>
   <time name="total">   50.74   51.00</time>
   <energy>
    <i name="e_fr_energy">   -256.43635840 </i>
    <i name="e_wo_entrp">   -255.90104632 </i>
    <i name="e_0_energy">   -256.16870236 </i>
   </energy>
  </scstep>
  <scstep>
   <time name="diag">    2.17    2.18</time>
   <time name="diis">   46.43   46.76</time>
   <time name="orth">    0.53    0.53</time>
   <time name="total">   50.22   50.59</time>
   <energy>
    <i name="e_fr_energy">   -256.43651070 </i>
    <i name="e_wo_entrp">   -255.90146771 </i>
    <i name="e_0_energy">   -256.16898921 </i>
   </energy>
  </scstep>
  <scstep>
   <time name="diag">    1.89    1.91</time>
   <time name="diis">   40.70   40.94</time>
   <time name="orth">    0.51    0.51</time>
   <time name="total">   44.04   44.31</time>
   <energy>
    <i name="e_fr_energy">   -256.43670193 </i>
    <i name="e_wo_entrp">   -255.90170345 </i>
    <i name="e_0_energy">   -256.16920269 </i>
   </energy>
  </scstep>
  <scstep>
   <time name="diag">    1.77    1.77</time>
   <time name="diis">   43.46   43.83</time>
   <time name="orth">    0.53    0.53</time>
   <time name="total">   46.79   47.18</time>
   <energy>
    <i name="e_fr_energy">   -256.43695388 </i>
    <i name="e_wo_entrp">   -255.90187432 </i>
    <i name="e_0_energy">   -256.16941410 </i>
   </energy>
  </scstep>
  <scstep>
   <time name="diag">    1.91    1.92</time>
   <time name="diis">   37.31   37.63</time>
   <time name="orth">    0.52    0.52</time>
   <time name="total">   40.73   41.08</time>
   <energy>
    <i name="e_fr_energy">   -256.43714233 </i>
    <i name="e_wo_entrp">   -255.90204995 </i>
    <i name="e_0_energy">   -256.16959614 </i>
   </energy>
  </scstep>
  <scstep>
   <time name="diag">    1.79    1.79</time>
   <time name="diis">   42.15   42.37</time>
   <time name="orth">    0.63    0.63</time>
   <time name="total">   45.64   45.87</time>
   <energy>
    <i name="e_fr_energy">   -256.43718517 </i>
    <i name="e_wo_entrp">   -255.90188584 </i>
    <i name="e_0_energy">   -256.16953550 </i>
   </energy>
  </scstep>
  <scstep>
   <time name="diag">    2.34    2.36</time>
   <time name="diis">   41.25   41.56</time>
   <time name="orth">    0.52    0.53</time>
   <time name="total">   45.27   45.62</time>
   <energy>
    <i name="e_fr_energy">   -256.43730615 </i>
    <i name="e_wo_entrp">   -255.90225386 </i>
    <i name="e_0_energy">   -256.16978001 </i>
   </energy>
  </scstep>
  <scstep>
   <time name="diag">    1.90    1.92</time>
   <time name="diis">   34.42   34.72</time>
   <time name="orth">    0.52    0.52</time>
   <time name="total">   37.85   38.19</time>
   <energy>
    <i name="e_fr_energy">   -256.43744860 </i>
    <i name="e_wo_entrp">   -255.90243797 </i>
    <i name="e_0_energy">   -256.16994328 </i>
   </energy>
  </scstep>
  <scstep>
   <time name="diag">    1.76    1.78</time>
   <time name="diis">   32.07   32.20</time>
   <time name="orth">    0.55    0.55</time>
   <time name="total">   35.28   35.44</time>
   <energy>
    <i name="e_fr_energy">   -256.43756290 </i>
    <i name="e_wo_entrp">   -255.90249179 </i>
    <i name="e_0_energy">   -256.17002734 </i>
   </energy>
  </scstep>
  <scstep>
   <time name="diag">    1.94    1.95</time>
   <time name="diis">   32.37   32.68</time>
   <time name="orth">    0.53    0.54</time>
   <time name="total">   35.85   36.19</time>
   <energy>
    <i name="e_fr_energy">   -256.43761788 </i>
    <i name="e_wo_entrp">   -255.90252821 </i>
    <i name="e_0_energy">   -256.17007304 </i>
   </energy>
  </scstep>
  <scstep>
   <time name="diag">    1.89    1.91</time>
   <time name="diis">   36.50   36.79</time>
   <time name="orth">    0.51    0.52</time>
   <time name="total">   39.89   40.21</time>
   <energy>
    <i name="e_fr_energy">   -256.43770962 </i>
    <i name="e_wo_entrp">   -255.90262333 </i>
    <i name="e_0_energy">   -256.17016647 </i>
   </energy>
  </scstep>
  <scstep>
   <time name="diag">    1.76    1.77</time>
   <time name="diis">   26.76   26.87</time>
   <time name="orth">    0.48    0.48</time>
   <time name="total">   30.06   30.18</time>
   <energy>
    <i name="e_fr_energy">   -256.43771993 </i>
    <i name="e_wo_entrp">   -255.90264911 </i>
    <i name="e_0_energy">   -256.17018452 </i>
   </energy>
  </scstep>
  <scstep>
   <time name="diag">    1.93    1.94</time>
   <time name="diis">   31.39   31.60</time>
   <time name="orth">    0.53    0.54</time>
   <time name="total">   35.14   35.39</time>
   <energy>
    <i name="e_fr_energy">   -256.43774983 </i>
    <i name="e_wo_entrp">   -255.90266206 </i>
    <i name="e_0_energy">   -256.17020595 </i>
   </energy>
  </scstep>
  <scstep>
   <time name="diag">    1.90    1.91</time>
   <time name="diis">   40.24   40.59</time>
   <time name="orth">    0.52    0.53</time>
   <time name="total">   43.71   44.09</time>
   <energy>
    <i name="e_fr_energy">   -256.48394107 </i>
    <i name="e_wo_entrp">   -255.94887096 </i>
    <i name="e_0_energy">   -256.21640601 </i>
   </energy>
  </scstep>
  <scstep>
   <time name="diag">    1.90    1.91</time>
   <time name="diis">   44.47   44.79</time>
   <time name="orth">    0.53    0.54</time>
   <time name="total">   47.97   48.32</time>
   <energy>
    <i name="e_fr_energy">   -256.43713758 </i>
    <i name="e_wo_entrp">   -255.90214965 </i>
    <i name="e_0_energy">   -256.16964361 </i>
   </energy>
  </scstep>
  <scstep>
   <time name="diag">    1.90    1.92</time>
   <time name="diis">   48.88   49.32</time>
   <time name="orth">    0.52    0.52</time>
   <time name="total">   52.36   52.84</time>
   <energy>
    <i name="e_fr_energy">   -256.43773786 </i>
    <i name="e_wo_entrp">   -255.90260356 </i>
    <i name="e_0_energy">   -256.17017071 </i>
   </energy>
  </scstep>
  <scstep>
   <time name="diag">    1.89    1.91</time>
   <time name="diis">   32.55   32.72</time>
   <time name="orth">    0.50    0.50</time>
   <time name="total">   35.91   36.11</time>
   <energy>
    <i name="e_fr_energy">   -256.43778805 </i>
    <i name="e_wo_entrp">   -255.90274461 </i>
    <i name="e_0_energy">   -256.17026633 </i>
   </energy>
  </scstep>
  <scstep>
   <time name="diag">    1.77    1.77</time>
   <time name="diis">   35.16   35.34</time>
   <time name="orth">    0.67    0.68</time>
   <time name="total">   38.67   38.87</time>
   <energy>
    <i name="e_fr_energy">   -256.43781973 </i>
    <i name="e_wo_entrp">   -255.90269488 </i>
    <i name="e_0_energy">   -256.17025731 </i>
   </energy>
  </scstep>
  <scstep>
   <time name="diag">    2.20    2.20</time>
   <time name="diis">   29.34   29.54</time>
   <time name="orth">    0.52    0.52</time>
   <time name="total">   33.14   33.37</time>
   <energy>
    <i name="e_fr_energy">   -256.43783655 </i>
    <i name="e_wo_entrp">   -255.90274718 </i>
    <i name="e_0_energy">   -256.17029187 </i>
   </energy>
  </scstep>
  <scstep>
   <time name="diag">    1.91    1.92</time>
   <time name="diis">   27.62   27.84</time>
   <time name="orth">    0.52    0.53</time>
   <time name="total">   31.08   31.34</time>
   <energy>
    <i name="e_fr_energy">   -256.43784101 </i>
    <i name="e_wo_entrp">   -255.90275461 </i>
    <i name="e_0_energy">   -256.17029781 </i>
   </energy>
  </scstep>
  <scstep>
   <time name="diag">    1.87    1.88</time>
   <time name="diis">   26.25   26.37</time>
   <time name="orth">    0.50    0.50</time>
   <time name="total">   29.57   29.71</time>
   <energy>
    <i name="e_fr_energy">   -256.43784716 </i>
    <i name="e_wo_entrp">   -255.90272879 </i>
    <i name="e_0_energy">   -256.17028798 </i>
   </energy>
  </scstep>
  <scstep>
   <time name="diag">    1.78    1.79</time>
   <time name="diis">   27.91   28.14</time>
   <time name="orth">    0.54    0.54</time>
   <time name="total">   30.55   30.78</time>
   <energy>
    <i name="alphaZ">    387.12086559 </i>
    <i name="ewald"> 181136.21828925 </i>
    <i name="hartreedc">-236082.18138479 </i>
    <i name="XCdc">   1677.52818896 </i>
    <i name="pawpsdc">  50175.93982522 </i>
    <i name="pawaedc"> -53925.21782504 </i>
    <i name="eentropy">     -0.53509248 </i>
    <i name="bandstr">  -3186.21333634 </i>
    <i name="atom">  59560.90262231 </i>
    <i name="e_fr_energy">   -256.43784732 </i>
    <i name="e_wo_entrp">   -255.90275483 </i>
    <i name="e_0_energy">   -256.17030108 </i>
   </energy>
  </scstep>
  <structure>
   <crystal>
    <varray name="basis" >
     <v>      20.00000000       0.00000000       0.00000000 </v>
     <v>       0.00000000      20.00000000       0.00000000 </v>
     <v>       0.00000000       0.00000000      20.00000000 </v>
    </varray>
    <i name="volume">   8000.00000000 </i>
    <varray name="rec_basis" >
     <v>       0.05000000       0.00000000       0.00000000 </v>
     <v>       0.00000000       0.05000000       0.00000000 </v>
     <v>       0.00000000       0.00000000       0.05000000 </v>
    </varray>
   </crystal>
   <varray name="positions" >
    <v>       0.35028874       0.59584257       0.41040513 </v>
    <v>       0.45165231       0.66333912       0.37711798 </v>
    <v>       0.41213378       0.66243256       0.49694595 </v>
    <v>       0.51312559       0.72322822       0.46431790 </v>
    <v>       0.51477283       0.60852209       0.46419696 </v>
    <v>       0.57718396       0.66503247       0.37765697 </v>
    <v>       0.61604498       0.66531564       0.49692040 </v>
    <v>       0.31631519       0.59301815       0.52723707 </v>
    <v>       0.34814420       0.48970527       0.58462657 </v>
    <v>       0.41485749       0.54199972       0.49691751 </v>
    <v>       0.41322815       0.59704411       0.60381549 </v>
    <v>       0.51393285       0.66343217       0.57115771 </v>
    <v>       0.51490517       0.54286994       0.57018232 </v>
    <v>       0.61557657       0.54476669       0.49693676 </v>
    <v>       0.61637271       0.59871067       0.60437818 </v>
    <v>       0.39268574       0.59369902       0.29550265 </v>
    <v>       0.35164954       0.48888717       0.34394268 </v>
    <v>       0.45366460       0.49066316       0.27036248 </v>
    <v>       0.45359316       0.54290304       0.37886493 </v>
    <v>       0.51515751       0.59807020       0.29087558 </v>
    <v>       0.51685426       0.43833901       0.35870496 </v>
    <v>       0.57928351       0.49223609       0.27051940 </v>
    <v>       0.57755452       0.54449580       0.37909093 </v>
    <v>       0.31262681       0.48794302       0.46418473 </v>
    <v>       0.35333853       0.38101199       0.51692634 </v>
    <v>       0.41648677       0.43681220       0.43131246 </v>
    <v>       0.45472874       0.43753843       0.54969732 </v>
    <v>       0.51592946       0.49074392       0.46446102 </v>
    <v>       0.51722660       0.37282907       0.46429930 </v>
    <v>       0.61693125       0.43939318       0.43147692 </v>
    <v>       0.57880735       0.43851732       0.54935884 </v>
    <v>       0.67967675       0.60003498       0.41095460 </v>
    <v>       0.71268318       0.59698420       0.52894824 </v>
    <v>       0.68088589       0.49229715       0.58372708 </v>
    <v>       0.63749054       0.59665788       0.29594526 </v>
    <v>       0.68097285       0.49324118       0.34446832 </v>
    <v>       0.71955977       0.49331015       0.46413280 </v>
    <v>       0.68218125       0.38553409       0.51739331 </v>
    <v>       0.45248095       0.49177978       0.66285743 </v>
    <v>       0.51569870       0.59571740       0.67258300 </v>
    <v>       0.57904172       0.49131470       0.65753691 </v>
    <v>       0.39397584       0.38343526       0.63318034 </v>
    <v>       0.45511918       0.31618947       0.54999546 </v>
    <v>       0.51813548       0.38204510       0.63772885 </v>
    <v>       0.58097196       0.31801236       0.55029950 </v>
    <v>       0.64022661       0.38765561       0.63210495 </v>
    <v>       0.41576553       0.38281298       0.32335074 </v>
    <v>       0.51744508       0.38735158       0.25545768 </v>
    <v>       0.61953387       0.38604985       0.32347769 </v>
    <v>       0.31953783       0.38455977       0.39877277 </v>
    <v>       0.41657160       0.31637687       0.43073539 </v>
    <v>       0.51847387       0.31820349       0.35642757 </v>
    <v>       0.62002884       0.31922350       0.43020009 </v>
    <v>       0.71558525       0.38933908       0.39969206 </v>
    <v>       0.51977602       0.25797347       0.46249913 </v>
    <v>       0.38459867       0.44279141       0.70092065 </v>
   </varray>
  </structure>
  <varray name="forces" >
   <v>       0.05107670      -0.04470531      -0.02290675 </v>
   <v>      -0.04275687      -0.05268692       0.01854910 </v>
   <v>       0.06848978      -0.02872941       0.02639331 </v>
   <v>      -0.00130893      -0.07397302       0.00170399 </v>
   <v>      -0.01450796      -0.18351071      -0.03496311 </v>
   <v>      -0.00590024      -0.03745300       0.03135832 </v>
   <v>      -0.01311473      -0.03638485       0.02822354 </v>
   <v>       0.10745941      -0.06896421      -0.00242205 </v>
   <v>       0.20564799      -0.09669967       0.33171058 </v>
   <v>       0.13973267      -0.05250685      -0.03263389 </v>
   <v>       0.01771776      -0.02262625      -0.03212525 </v>
   <v>       0.00031924      -0.00473714      -0.05132575 </v>
   <v>      -0.00293468       0.00124933      -0.11226063 </v>
   <v>      -0.12501539      -0.08299336      -0.07304790 </v>
   <v>       0.01044300      -0.04375516      -0.07761878 </v>
   <v>       0.04078782      -0.03180727       0.08391363 </v>
   <v>       0.04233634       0.03873747       0.02927101 </v>
   <v>      -0.00790271      -0.02082814       0.03651987 </v>
   <v>       0.07767930      -0.07552461       0.13788328 </v>
   <v>       0.00297730       0.01181336       0.04509544 </v>
   <v>      -0.01890742       0.04365163       0.14637802 </v>
   <v>      -0.01028426      -0.00681208       0.01996270 </v>
   <v>      -0.05577024      -0.03725178       0.08810156 </v>
   <v>      -0.01827832      -0.00695914       0.05971278 </v>
   <v>       0.05681412       0.07289249      -0.05939479 </v>
   <v>       0.15237235       0.09537153       0.06186975 </v>
   <v>       0.04021653      -0.09737983      -0.10274310 </v>
   <v>       0.06765737       0.05640897      -0.08252518 </v>
   <v>      -0.02231737       0.19341263       0.05732226 </v>
   <v>      -0.15339852       0.04495561       0.07046946 </v>
   <v>      -0.09689776       0.07272082      -0.10262376 </v>
   <v>      -0.05586611      -0.00917619       0.02036889 </v>
   <v>      -0.05335183      -0.02093350      -0.02665437 </v>
   <v>      -0.06878959       0.06715386      -0.00525540 </v>
   <v>      -0.05449444      -0.04112750       0.08386383 </v>
   <v>      -0.01107896       0.00412652       0.01713630 </v>
   <v>      -0.04038201      -0.03976362      -0.01819725 </v>
   <v>      -0.06778701      -0.00608901      -0.05806732 </v>
   <v>       3.94253357       3.07420919      -2.06773721 </v>
   <v>       0.01776582      -0.06525439      -0.10735993 </v>
   <v>      -0.03737929      -0.02834861       0.02765119 </v>
   <v>       0.51521515      -4.21952851      -4.57910688 </v>
   <v>       0.15665577       0.04112692      -0.10245408 </v>
   <v>       0.06460715       0.03779872      -0.23456457 </v>
   <v>      -0.05063446       0.02411279       0.01744697 </v>
   <v>      -0.05318372       0.04144792      -0.05257537 </v>
   <v>       0.06584407      -0.02309345       0.08587348 </v>
   <v>       0.02202641       0.06701896       0.09526244 </v>
   <v>      -0.04260640      -0.03563061       0.05673586 </v>
   <v>       0.07193093       0.02750811       0.01202264 </v>
   <v>      -0.00620067      -0.02462886      -0.03604094 </v>
   <v>      -0.04013736       0.04309964      -0.00196512 </v>
   <v>       0.02561046       0.04127945       0.01872378 </v>
   <v>      -0.06993619       0.04598842       0.02874911 </v>
   <v>       0.00413379       0.07151047      -0.02554880 </v>
   <v>      -4.72692736       1.40226810       6.36384506 </v>
  </varray>
  <varray name="stress" >
   <v>      -0.43712514       0.68687389      -0.87797492 </v>
   <v>       0.68687393       0.17150542       0.84949815 </v>
   <v>      -0.87797495       0.84949835      -0.17622936 </v>
  </varray>
  <energy>
   <i name="e_fr_energy">   -256.43784732 </i>
   <i name="e_wo_entrp">   -256.17030108 </i>
   <i name="e_0_energy">     -0.53509248 </i>
  </energy>
  <time name="totalsc"> 4389.79 4420.91</time>
 </calculation>
      -0.02815675      -0.01029680 </v>
   <v>      -0.01010298      -0.00958200      -0.06826510 </v>
   <v>       0.03281696      -0.01358069      -0.11676202 </v>
   <v>      -0.12332462      -0.09631312      -0.07542131 </v>
   <v>       0.01438634      -0.03625248      -0.06785639 </v>
   <v>       0.04148210      -0.03106239       0.08286834 </v>
   <v>       0.03435366       0.04220330       0.02234363 </v>
   <v>      -0.02462731      -0.02996149       0.04551602 </v>
   <v>       0.06426658      -0.08236232       0.14246741 </v>
  0.00867272       0.03515373 </v>
   <v>       0.05361460       0.03666041      -0.02269746 </v>
   <v>      -0.00714267      -0.01935150      -0.02934514 </v>
   <v>      -0.07807196       0.06019559       0.04047308 </v>
   <v>       0.00471523       0.05734775       0.02204226 </v>
   <v>      -0.07561081       0.04379792       0.03560866 </v>
   <v>      -0.01431673       0.08934804       0.00239122 </v>
   <v>       1.16943466      -1.27427502       2.78710670 </v>
  </varray>
  <varray name="stress" >
   <v>      -1.45292626       0.39118041       0.53948337 </v>
   <v>       0.39118038      -0.87262339      -0.14922918 </v>
   <v>       0.53948302      -0.14922895      -0.70451017 </v>
  </varray>
  <energy>
   <i name="e_fr_energy">   -257.61618901 </i>
   <i name="e_wo_entrp">   -257.35156469 </i>
   <i name="e_0_energy">     -0.52924864 </i>
  </energy>
  <time name="totalsc"> 4406.91 4423.37</time>
 </calculation>
                                                                                                                                                                                                                                                                                                                                                                                                                                                                                                                                                                                                                                                                                                                                                                                                                                                                                                                                                                                                                                                                                                                                                                                                                                                                                                                                                                                                                                                                                                                                                                                                                                                                                                                                                                                                                                                                                                                                                                                                                                                                                                                                                                                                                                                                                                                                                                <calculation>
  <scstep>
   <time name="dav">   56.20   56.45</time>
   <time name="total">   56.94   57.20</time>
   <energy>
    <i name="alphaZ">    387.12086559 </i>
    <i name="ewald"> 181125.23062510 </i>
    <i name="hartreedc">-236077.81702235 </i>
    <i name="XCdc">   1677.02795587 </i>
    <i name="pawpsdc">  50123.50167868 </i>
    <i name="pawaedc"> -53871.71571938 </i>
    <i name="eentropy">     -0.53151216 </i>
    <i name="bandstr">  -3181.46630189 </i>
    <i name="atom">  59560.90262231 </i>
    <i name="e_fr_energy">   -257.74680822 </i>
    <i name="e_wo_entrp">   -257.21529606 </i>
    <i name="e_0_energy">   -257.48105214 </i>
   </energy>
  </scstep>
  <scstep>
   <time name="diag">    1.48    1.48</time>
   <time name="diis">   42.34   42.49</time>
   <time name="orth">    0.42    0.42</time>
   <time name="total">   44.95   45.11</time>
   <energtime>
   <energy>
    <i name="e_fr_energy">   -258.67968255 </i>
    <i name="e_wo_entrp">   -258.28548028 </i>
    <i name="e_0_energy">   -258.48258142 </i>
   </energy>
  </scstep>
  <scstep>
   <time name="diag">    1.82    1.84</time>
   <time name="diis">   44.81   45.02</time>
   <time name="orth">    0.50    0.50</time>
   <time name="total">   48.21   48.45</time>
   <energy>
    <i name="e_fr_energy">   -258.12214786 </i>
    <i name="e_wo_entrp">   -257.75330964 </i>
    <i name="e_0_energy">   -257.93772875 </i>
   </energy>
  </scstep>
  <scstep>
   <time name="diag">    1.95    1.96</time>
   <time name="diis">   50.07   50.45</time>
   <time name="orth">    0.53    0.53</time>
   <time name="total">   53.69   54.09</time>
   <energy>
    <i name="e_fr_energy">   -257.55718470 </i>
    <i name="e_wo_entrp">   -257.08394940 </i>
    <i name="e_0_energy">   -257.32056705 </i>
   </energy>
  </scstep>
  <scstep>
   <time name="diag">    1.89    1.90</time>
   <time name="diis">   46.49   46.86</time>
   <time name="orth">    0.50    0.50</time>
   <time name="total">   49.78   50.17</time>
   <energy>
    <i name="e_fr_energy">   -257.35175092 </i>
    <i name="e_wo_entrp">   -256.83170487 </i>
    <i name="e_0_energy">   -257.09172789 </i>
   </energy>
  </scstep>
  <scstep>
   <time name="diag">    1.78    1.79</time>
   <time name="diis">   45.59   45.83</time>
   <time name="orth">    0.52    0.53</time>
   <time name="total">   48.81   49.07</time>
   <energy>
    <i name="e_fr_energy">   -257.37956637 </i>
    <i name="e_wo_entrp">   -256.88506053 </i>
    <i name="e_0_energy">   -257.13231345 </i>
   </energy>
  </scstep>
  <scstep>
   <time name="diag">    1.90    1.92</time>
   <time name="diis">   48.86   49.28</time>
   <time name="orth">    0.53    0.53</time>
   <time name="total">   52.25   52.71</time>
   <energy>
    <i name="e_fr_energy">   -257.39713064 </i>
    <i name="e_wo_entrp">   -256.89747643 </i>
    <i name="e_0_energy">   -257.14730353 </i>
   </energy>
  </scstep>
  <scstep>
   <time name="diag">    1.88    1.89</time>
   <time name="diis">   44.85   45.05</time>
   <time name="orth">    0.48    0.49</time>
   <time name="total">   48.09   48.31</time>
   <energy>
    <i name="e_fr_energy">   -257.41196487 </i>
    <i name="e_wo_entrp">   -256.90512552 </i>
    <i name="e_0_energy">   -257.15854520 </i>
   </energy>
  </scstep>
  <scstep>
   <time name="diag">    2.10    2.12</time>
   <time name="diis">   50.33   50.64</time>
   <time name="orth">    0.53    0.54</time>
   <time name="total">   53.87   54.22</time>
   <energy>
    <i name="e_fr_energy">   -257.38813089 </i>
    <i name="e_wo_entrp">   -256.88391112 </i>
    <i name="e_0_energy">   -257.13602100 </i>
   </energy>
  </scstep>
  <scstep>
   <time name="diag">    1.91    1.92</time>
   <time name="diis">   46.59   46.97</time>
   <time name="orth">    0.51    0.51</time>
   <time name="total">   49.94   50.35</time>
   <energy>
    <i name="e_fr_energy">   -257.30826246 </i>
    <i name="e_wo_entrp">   -256.77535388 </i>
    <i name="e_0_energy">   -257.04180817 </i>
   </energy>
  </scstep>
  <scstep>
   <time name="diag">    1.77    1.79</time>
   <time name="diis">   45.44   45.73</time>
   <time name="orth">    0.53    0.54</time>
   <time name="total">   48.69   49.01</time>
   <energy>
    <i name="e_fr_energy">   -257.30881775 </i>
    <i name="e_wo_entrp">   -256.78438514 </i>
    <i name="e_0_energy">   -257.04660145 </i>
   </energy>
  </scstep>
  <scstep>
   <time name="diag">    1.90    1.92</time>
   <time name="diis">   48.82   49.30</time>
   <time name="orth">    0.52    0.53</time>
   <time name="total">   52.21   52.72</time>
   <energy>
    <i name="e_fr_energy">   -257.32041985 </i>
    <i name="e_wo_entrp">   -256.79705910 </i>
    <i name="e_0_energy">   -257.05873948 </i>
   </energy>
  </scstep>
  <scstep>
   <time name="diag">    1.89    1.90</time>
   <time name="diis">   44.90   45.10</time>
   <time name="orth">    0.49    0.50</time>
   <time name="total">   48.18   48.40</time>
   <energy>
    <i name="e_fr_energy">   -257.30783877 </i>
    <i name="e_wo_entrp">   -256.77213276 </i>
    <i name="e_0_energy">   -257.03998577 </i>
   </energy>
  </scstep>
  <scstep>
   <time name="diag">    1.76    1.76</time>
   <time name="diis">   50.77   51.12</time>
   <time name="orth">    0.53    0.54</time>
   <time name="total">   53.99   54.36</time>
   <energy>
    <i name="e_fr_energy">   -257.29701981 </i>
    <i name="e_wo_entrp">   -256.76536901 </i>
    <i name="e_0_energy">   -257.03119441 </i>
   </energy>
  </scstep>
  <scstep>
   <time name="diag">    1.91    1.92</time>
   <time name="diis">   46.64   47.01</time>
   <time name="orth">    0.51    0.52</time>
   <time name="total">   50.00   50.40</time>
   <energy>
    <i name="e_fr_energy">   -257.29499420 </i>
    <i name="e_wo_entrp">   -256.75805846 </i>
    <i name="e_0_energy">   -257.02652633 </i>
   </energy>
  </scstep>
  <scstep>
   <time name="diag">    1.79    1.81</time>
   <time name="diis">   45.23   45.44</time>
   <time name="orth">    0.53    0.53</time>
   <time name="total">   48.51   48.75</time>
   <energy>
    <i name="e_fr_energy">   -257.30089652 </i>
    <i name="e_wo_entrp">   -256.76837712 </i>
    <i name="e_0_energy">   -257.03463682 </i>
   </energy>
  </scstep>
  <scstep>
   <time name="diag">    1.91    1.92</time>
   <time name="diis">   48.96   49.36</time>
   <time name="orth">    0.53    0.54</time>
   <time name="total">   52.37   52.80</time>
   <energy>
    <i name="e_fr_energy">   -257.29106742 </i>
    <i name="e_wo_entrp">   -256.75450281 </i>
    <i name="e_0_energy">   -257.02278511 </i>
   </energy>
  </scstep>
  <scstep>
   <time name="diag">    1.89    1.91</time>
   <time name="diis">   45.02   45.24</time>
   <time name="orth">    0.49    0.49</time>
   <time name="total">   48.29   48.55</time>
   <energy>
    <i name="e_fr_energy">   -257.29113220 </i>
    <i name="e_wo_entrp">   -256.75784011 </i>
    <i name="e_0_energy">   -257.02448616 </i>
   </energy>
  </scstep>
  <scstep>
   <time name="diag">    1.76    1.76</time>
   <time name="diis">   50.51   50.88</time>
   <time name="orth">    0.53    0.53</time>
[...]
       <r>   -16.2733     0.0000     2.0000 </r>
       <r>   -16.2130     0.0000     2.0000 </r>
       <r>   -16.1527     0.0000     2.0000 </r>
       <r>   -16.0924     0.0000     2.0000 </r>
       <r>   -16.0321     0.0000     2.0000 </r>
       <r>   -15.9718     0.0000     2.0000 </r>
       <r>   -15.9115     0.0000     2.0000 </r>
       <r>   -15.8512     0.0000     2.0000 </r>
       <r>   -15.7909     0.0000     2.0000 </r>
       <r>   -15.7306     0.0000     2.0000 </r>
       <r>   -15.6703     0.0000     2.0000 </r>
       <r>   -15.6100     0.0000     2.0000 </r>
       <r>   -15.5497     0.0000     2.0000 </r>
       <r>   -15.4894     0.0000     2.0000 </r>
       <r>   -15.4291     0.0000     2.0000 </r>
       <r>   -15.3688     0.0000     2.0000 </r>
       <r>   -15.3085     0.0000     2.0000 </r>
       <r>   -15.2482     0.0000     2.0000 </r>
       <r>   -15.1879     0.0000     2.0000 </r>
       <r>   -15.1276     0.0000     2.0000 </r>
       <r>   -15.0673     0.0000     2.0000 </r>
       <r>   -15.0070     0.0000     2.0000 </r>
       <r>   -14.9467     0.0000     2.0000 </r>
       <r>   -14.8864     0.0000     2.0000 </r>
       <r>   -14.8261     0.0000     2.0000 </r>
       <r>   -14.7658     0.0000     2.0000 </r>
       <r>   -14.7055     0.0000     2.0000 </r>
       <r>   -14.6452     0.0000     2.0000 </r>
       <r>   -14.5849     0.0000     2.0000 </r>
       <r>   -14.5246     0.0000     2.0000 </r>
       <r>   -14.4643     0.0000     2.0000 </r>
       <r>   -14.4040     0.0000     2.0000 </r>
       <r>   -14.3437     0.0000     2.0000 </r>
       <r>   -14.2834     0.0000     2.0000 </r>
       <r>   -14.2231     0.0000     2.0000 </r>
       <r>   -14.1628     0.0000     2.0000 </r>
       <r>   -14.1025     0.0000     2.0000 </r>
       <r>   -14.0422     0.0000     2.0000 </r>
       <r>   -13.9819     0.0000     2.0000 </r>
       <r>   -13.9216     0.0000     2.0000 </r>
       <r>   -13.8613     0.0000     2.0000 </r>
       <r>   -13.8010     0.0000     2.0000 </r>
       <r>   -13.7407     0.0000     2.0000 </r>
       <r>   -13.6804     0.0000     2.0000 </r>
       <r>   -13.6201     0.0000     2.0000 </r>
       <r>   -13.5598     0.0000     2.0000 </r>
       <r>   -13.4995     0.0000     2.0000 </r>
       <r>   -13.4392     0.0000     2.0000 </r>
       <r>   -13.3789     0.0000     2.0000 </r>
       <r>   -13.3186     0.0000     2.0000 </r>
       <r>   -13.2583     0.0000     2.0000 </r>
       <r>   -13.1980     0.0000     2.0000 </r>
       <r>   -13.1377     0.0000     2.0000 </r>
       <r>   -13.0774     0.0000     2.0000 </r>
       <r>   -13.0171     0.0000     2.0000 </r>
       <r>   -12.9568     0.0000     2.0000 </r>
       <r>   -12.8965     0.0000     2.0000 </r>
       <r>   -12.8362     0.0000     2.0000 </r>
       <r>   -12.7759     0.0000     2.0000 </r>
       <r>   -12.7156     0.0000     2.0000 </r>
       <r>   -12.6553     0.0000     2.0000 </r>
       <r>   -12.5950     0.0000     2.0000 </r>
       <r>   -12.5347     0.0000     2.0000 </r>
       <r>   -12.4744     0.0000     2.0000 </r>
       <r>   -12.4141     0.0000     2.0000 </r>
       <r>   -12.3538     0.0000     2.0000 </r>
       <r>   -12.2935     0.0000     2.0000 </r>
       <r>   -12.2332     0.0000     2.0000 </r>
       <r>   -12.1729     0.0009     2.0001 </r>
       <r>   -12.1126     0.3308     2.0200 </r>
       <r>   -12.0523     8.5366     2.5348 </r>
       <r>   -11.9920    19.6886     3.7220 </r>
       <r>   -11.9317     4.5233     3.9947 </r>
       <r>   -11.8714     0.0872     4.0000 </r>
       <r>   -11.8111     0.0001     4.0000 </r>
       <r>   -11.7508     0.0000     4.0000 </r>
       <r>   -11.6905     0.0000     4.0000 </r>
       <r>   -11.6302     0.0000     4.0000 </r>
       <r>   -11.5699     0.0000     4.0000 </r>
       <r>   -11.5096     0.0000     4.0000 </r>
       <r>   -11.4493     0.0000     4.0000 </r>
       <r>   -11.3890     0.0000     4.0000 </r>
       <r>   -11.3287     0.0000     4.0000 </r>
       <r>   -11.2684     0.0000     4.0000 </r>
       <r>   -11.2081     0.0000     4.0000 </r>
       <r>   -11.1478     0.0000     4.0000 </r>
       <r>   -11.0875     0.0000     4.0000 </r>
       <r>   -11.0272     0.0000     4.0000 </r>
       <r>   -10.9669     0.0000     4.0000 </r>
       <r>   -10.9066     0.0000     4.0000 </r>
       <r>   -10.8463     0.0000     4.0000 </r>
       <r>   -10.7860     0.0003     4.0000 </r>
       <r>   -10.7257     0.1749     4.0106 </r>
       <r>   -10.6654     8.6290     4.5309 </r>
       <r>   -10.6051    45.9865     7.3039 </r>
       <r>   -10.5448    38.9279     9.6512 </r>
       <r>   -10.4845     5.6864     9.9941 </r>
       <r>   -10.4242     0.0976    10.0000 </r>
       <r>   -10.3639     0.0001    10.0000 </r>
       <r>   -10.3036     0.0000    10.0000 </r>
       <r>   -10.2433     0.0000    10.0000 </r>
       <r>   -10.1830     0.0000    10.0000 </r>
       <r>   -10.1227     0.0000    10.0000 </r>
       <r>   -10.0624     0.0000    10.0000 </r>
       <r>   -10.0021     0.0000    10.0000 </r>
       <r>    -9.9418     0.0000    10.0000 </r>
       <r>    -9.8815     0.0000    10.0000 </r>
       <r>    -9.8212     0.0000    10.0000 </r>
       <r>    -9.7609     0.0000    10.0000 </r>
       <r>    -9.7006     0.0000    10.0000 </r>
       <r>    -9.6404     0.0000    10.0000 </r>
       <r>    -9.5801     0.0000    10.0000 </r>
       <r>    -9.5198     0.0042    10.0003 </r>
       <r>    -9.4595     0.8513    10.0516 </r>
       <r>    -9.3992    14.6184    10.9331 </r>
       <r>    -9.3389    58.1875    14.4418 </r>
       <r>    -9.2786    78.3350    19.1654 </r>
       <r>    -9.2183    25.7791    20.7198 </r>
       <r>    -9.1580    18.3758    21.8279 </r>
       <r>    -9.0977     2.8189    21.9979 </r>
       <r>    -9.0374     0.0353    22.0000 </r>
       <r>    -8.9771     0.0000    22.0000 </r>
       <r>    -8.9168     0.0000    22.0000 </r>
       <r>    -8.8565     0.0000    22.0000 </r>
       <r>    -8.7962     0.0000    22.0000 </r>
       <r>    -8.7359     0.0000    22.0000 </r>
       <r>    -8.6756     0.0399    22.0024 </r>
       <r>    -8.6153     3.0773    22.1880 </r>
       <r>    -8.5550    22.4593    23.5423 </r>
       <r>    -8.4947    31.1274    25.4192 </r>
       <r>    -8.4344    24.4497    26.8935 </r>
       <r>    -8.3741    38.5714    29.2194 </r>
       <r>    -8.3138    15.5813    30.1589 </r>
       <r>    -8.2535    47.6442    33.0319 </r>
       <r>    -8.1932    90.4932    38.4886 </r>
       <r>    -8.1329    53.9936    41.7444 </r>
       <r>    -8.0726    42.7777    44.3239 </r>
       <r>    -8.0123    80.6224    49.1854 </r>
       <r>    -7.9520    64.3152    53.0636 </r>
       <r>    -7.8917    21.6419    54.3686 </r>
       <r>    -7.8314    20.7307    55.6187 </r>
       <r>    -7.7711    11.4216    56.3074 </r>
       <r>    -7.7108    22.7549    57.6795 </r>
       <r>    -7.6505    27.6393    59.3461 </r>
       <r>    -7.5902    55.3861    62.6859 </r>
       <r>    -7.5299   121.0478    69.9851 </r>
       <r>    -7.4696    90.5775    75.4469 </r>
       <r>    -7.4093    53.6812    78.6838 </r>
       <r>    -7.3490    20.8271    79.9397 </r>
       <r>    -7.2887     7.7955    80.4098 </r>
       <r>    -7.2284    65.7703    84.3757 </r>
       <r>    -7.1681   119.3619    91.5732 </r>
       <r>    -7.1078   119.1233    98.7563 </r>
       <r>    -7.0475    89.9085   104.1778 </r>
       <r>    -6.9872   130.5708   112.0512 </r>
       <r>    -6.9269   122.6847   119.4491 </r>
       <r>    -6.8666    41.0520   121.9245 </r>
       <r>    -6.8063    18.0512   123.0130 </r>
       <r>    -6.7460    46.3014   125.8049 </r>
       <r>    -6.6857    88.3279   131.1311 </r>
       <r>    -6.6254    44.2688   133.8005 </r>
       <r>    -6.5651     9.0767   134.3478 </r>
       <r>    -6.5048    57.9515   137.8423 </r>
       <r>    -6.4445   124.5171   145.3506 </r>
       <r>    -6.3842    80.2282   150.1884 </r>
       <r>    -6.3239    78.4687   154.9200 </r>
       <r>    -6.2636    76.5662   159.5370 </r>
       <r>    -6.2033    89.2937   164.9213 </r>
       <r>    -6.1430   189.0909   176.3235 </r>
       <r>    -6.0827   183.7023   187.4007 </r>
       <r>    -6.0224   103.7245   193.6553 </r>
       <r>    -5.9621    61.4966   197.3635 </r>
       <r>    -5.9018   137.1386   205.6329 </r>
       <r>    -5.8415   182.1889   216.6189 </r>
       <r>    -5.7812   108.5962   223.1672 </r>
       <r>    -5.7209   116.0125   230.1628 </r>
       <r>    -5.6606   232.9963   244.2124 </r>
       <r>    -5.6003   187.1773   255.4991 </r>
       <r>    -5.5400    71.3992   259.8045 </r>
       <r>    -5.4797    59.8972   263.4163 </r>
       <r>    -5.4194    62.7286   267.1988 </r>
       <r>    -5.3591   135.4678   275.3675 </r>
       <r>    -5.2988   214.0072   288.2721 </r>
       <r>    -5.2385   159.2203   297.8730 </r>
       <r>    -5.1782   214.6473   310.8162 </r>
       <r>    -5.1179   227.0790   324.5090 </r>
       <r>    -5.0576   177.1266   335.1897 </r>
       <r>    -4.9973   149.4291   344.2003 </r>
       <r>    -4.9370   141.8914   352.7563 </r>
       <r>    -4.8767   138.4581   361.1053 </r>
       <r>    -4.8164   114.2191   367.9927 </r>
       <r>    -4.7561   129.9905   375.8311 </r>
       <r>    -4.6958   145.3212   384.5939 </r>
       <r>    -4.6355   141.6691   393.1366 </r>
       <r>    -4.5752   189.2149   404.5462 </r>
       <r>    -4.5149   223.5999   418.0292 </r>
       <r>    -4.4546   228.2480   431.7925 </r>
       <r>    -4.3943   197.6304   443.7096 </r>
       <r>    -4.3340   145.3542   452.4744 </r>
       <r>    -4.2737   180.5702   463.3628 </r>
       <r>    -4.2134   288.0883   480.7344 </r>
       <r>    -4.1531   344.2490   501.4926 </r>
       <r>    -4.0928   214.4314   514.4228 </r>
       <r>    -4.0325   242.2360   529.0295 </r>
       <r>    -3.9722   403.6372   553.3688 </r>
       <r>    -3.9119   310.7351   572.1061 </r>
       <r>    -3.8516   127.5688   579.7984 </r>
       <r>    -3.7913   110.5201   586.4628 </r>
       <r>    -3.7310    45.9706   589.2348 </r>
       <r>    -3.6707    12.5547   589.9918 </r>
       <r>    -3.6104    10.5522   590.6281 </r>
       <r>    -3.5501    26.6378   592.2344 </r>
       <r>    -3.4898    46.8446   595.0591 </r>
       <r>    -3.4295    40.2709   597.4874 </r>
       <r>    -3.3692    26.5502   599.0884 </r>
       <r>    -3.3089    41.4236   601.5862 </r>
       <r>    -3.2486    35.3038   603.7150 </r>
       <r>    -3.1883    33.4881   605.7344 </r>
       <r>    -3.1280     4.3565   605.9971 </r>
       <r>    -3.0677     0.0490   606.0000 </r>
       <r>    -3.0074     0.2254   606.0136 </r>
       <r>    -2.9471     7.1768   606.4464 </r>
       <r>    -2.8868    20.3683   607.6746 </r>
       <r>    -2.8265    14.1616   608.5285 </r>
       <r>    -2.7662    24.2829   609.9928 </r>
       <r>    -2.7059    28.9388   611.7378 </r>
       <r>    -2.6456    28.7243   613.4699 </r>
       <r>    -2.5853    11.3072   614.1517 </r>
       <r>    -2.5250    18.4160   615.2622 </r>
       <r>    -2.4647    13.8400   616.0967 </r>
       <r>    -2.4044    17.9044   617.1763 </r>
       <r>    -2.3441    12.7705   617.9464 </r>
       <r>    -2.2838     1.5971   618.0427 </r>
       <r>    -2.2235    14.4953   618.9168 </r>
       <r>    -2.1632    44.0957   621.5757 </r>
       <r>    -2.1029    68.9094   625.7309 </r>
       <r>    -2.0426    58.3566   629.2498 </r>
       <r>    -1.9823    33.7930   631.2876 </r>
       <r>    -1.9220    11.2788   631.9677 </r>
       <r>    -1.8617     0.5343   631.9999 </r>
       <r>    -1.8014     0.0034   632.0001 </r>
       <r>    -1.7411     0.4348   632.0263 </r>
       <r>    -1.6808     9.6095   632.6058 </r>
       <r>    -1.6205    19.2365   633.7657 </r>
       <r>    -1.5602     3.8233   633.9963 </r>
       <r>    -1.4999     0.3843   634.0194 </r>
       <r>    -1.4396     9.7909   634.6098 </r>
       <r>    -1.3793    39.8817   637.0147 </r>
       <r>    -1.3190    40.1133   639.4335 </r>
       <r>    -1.2587    10.3251   640.0561 </r>
       <r>    -1.1984    26.4754   641.6526 </r>
       <r>    -1.1381    57.9320   645.1459 </r>
       <r>    -1.0778    17.7830   646.2182 </r>
       <r>    -1.0175    19.8207   647.4134 </r>
       <r>    -0.9572    20.3624   648.6412 </r>
       <r>    -0.8969    49.4001   651.6200 </r>
       <r>    -0.8366    40.9726   654.0907 </r>
       <r>    -0.7763    24.8342   655.5882 </r>
       <r>    -0.7160    14.5621   656.4662 </r>
       <r>    -0.6557    63.8289   660.3151 </r>
       <r>    -0.5954   106.2331   666.7210 </r>
       <r>    -0.5351    50.4018   669.7602 </r>
       <r>    -0.4748    12.8145   670.5329 </r>
       <r>    -0.4145    19.7238   671.7222 </r>
       <r>    -0.3542     4.5193   671.9947 </r>
       <r>    -0.2939     0.0871   672.0000 </r>
       <r>    -0.2336     0.0001   672.0000 </r>
       <r>    -0.1733     0.0000   672.0000 </r>
       <r>    -0.1130     0.0000   672.0000 </r>
       <r>    -0.0527     0.0000   672.0000 </r>
       <r>     0.0076     0.0000   672.0000 </r>
       <r>     0.0679     0.0000   672.0000 </r>
       <r>     0.1282     0.0000   672.0000 </r>
       <r>     0.1885     0.0000   672.0000 </r>
       <r>     0.2488     0.0000   672.0000 </r>
       <r>     0.3091     0.0000   672.0000 </r>
       <r>     0.3694     0.0000   672.0000 </r>
      </set>
     </set>
    </array>
   </total>
  </dos>
 </calculation>
 <structure name="finalpos" >
  <crystal>
   <varray name="basis" >
    <v>      20.00000000       0.00000000       0.00000000 </v>
    <v>       0.00000000      20.00000000       0.00000000 </v>
    <v>       0.00000000       0.00000000      20.00000000 </v>
   </varray>
   <i name="volume">   8000.00000000 </i>
   <varray name="rec_basis" >
    <v>       0.05000000       0.00000000       0.00000000 </v>
    <v>       0.00000000       0.05000000       0.00000000 </v>
    <v>       0.00000000       0.00000000       0.05000000 </v>
   </varray>
  </crystal>
  <varray name="positions" >
   <v>       0.35069545       0.59491218       0.41119272 </v>
   <v>       0.45090420       0.66305860       0.37762215 </v>
   <v>       0.41268092       0.66186667       0.49758359 </v>
   <v>       0.51304236       0.72252152       0.46402424 </v>
   <v>       0.51462939       0.60784044       0.46335364 </v>
   <v>       0.57712612       0.66487751       0.37796265 </v>
   <v>       0.61575545       0.66497221       0.49731511 </v>
   <v>       0.31794958       0.59128764       0.52874014 </v>
   <v>       0.35174030       0.48795590       0.59035173 </v>
   <v>       0.41562351       0.54133423       0.49754215 </v>
   <v>       0.41418382       0.59747657       0.60407313 </v>
   <v>       0.51440448       0.66410656       0.57026426 </v>
   <v>       0.51547438       0.54362224       0.56909847 </v>
   <v>       0.61532609       0.54439521       0.49587145 </v>
   <v>       0.61705886       0.59885829       0.60334348 </v>
   <v>       0.39302080       0.59330761       0.29648209 </v>
   <v>       0.35195966       0.48917883       0.34458166 </v>
   <v>       0.45342533       0.49045344       0.27072256 </v>
   <v>       0.45409991       0.54247940       0.37936870 </v>
   <v>       0.51502396       0.59814751       0.29154474 </v>
   <v>       0.51685321       0.43871955       0.35925014 </v>
   <v>       0.57914753       0.49215718       0.27080458 </v>
   <v>       0.57736287       0.54411313       0.37930432 </v>
   <v>       0.31315958       0.48746602       0.46594608 </v>
   <v>       0.35372225       0.38092346       0.51563539 </v>
   <v>       0.41726205       0.43735225       0.43134601 </v>
   <v>       0.45474601       0.43683354       0.54905348 </v>
   <v>       0.51601258       0.49102045       0.46437156 </v>
   <v>       0.51737491       0.37372861       0.46423032 </v>
   <v>       0.61609960       0.43950154       0.43160903 </v>
   <v>       0.57829258       0.43953293       0.54897401 </v>
   <v>       0.67935154       0.60016131       0.41103593 </v>
   <v>       0.71231920       0.59659322       0.52827601 </v>
   <v>       0.68010017       0.49294099       0.58372700 </v>
   <v>       0.63700168       0.59632181       0.29677851 </v>
   <v>       0.68075187       0.49314330       0.34473338 </v>
   <v>       0.71923463       0.49286238       0.46421515 </v>
   <v>       0.68126376       0.38556067       0.51710544 </v>
   <v>       0.45667969       0.49454067       0.66195137 </v>
   <v>       0.51724844       0.59711682       0.67120666 </v>
   <v>       0.57946047       0.49183431       0.65760242 </v>
   <v>       0.39394197       0.37679079       0.62821347 </v>
   <v>       0.45652295       0.31529890       0.54805464 </v>
   <v>       0.51782101       0.38281842       0.63600776 </v>
   <v>       0.58064237       0.31833873       0.55019070 </v>
   <v>       0.63954213       0.38830310       0.63144747 </v>
   <v>       0.41631304       0.38265029       0.32398858 </v>
   <v>       0.51765276       0.38793741       0.25631229 </v>
   <v>       0.61920970       0.38555875       0.32404679 </v>
   <v>       0.32030746       0.38514130       0.39876042 </v>
   <v>       0.41672858       0.31612940       0.42980747 </v>
   <v>       0.51823688       0.31852854       0.35645057 </v>
   <v>       0.62013941       0.31942218       0.43038396 </v>
   <v>       0.71479443       0.38968998       0.39990566 </v>
   <v>       0.52020806       0.25853088       0.46178321 </v>
   <v>       0.38074281       0.44107062       0.70753146 </v>
  </varray>
 </structure>
</modeling>
<v>       0.63679720       0.59634423       0.29677069 </v>
   <v>       0.68076458       0.49315655       0.34516448 </v>
   <v>       0.71956365       0.49281464       0.46448594 </v>
   <v>       0.68008794       0.38593127       0.51791299 </v>
   <v>       0.45250149       0.49564651       0.66111341 </v>
   <v>       0.51555711       0.59767860       0.67079511 </v>
   <v>       0.57919759       0.49318448       0.65733109 </v>
   <v>       0.38925019       0.38178516       0.62813464 </v>
   <v>       0.45428189       0.31749351       0.54839346 </v>
   <v>       0.51419929       0.38538791       0.64519716 </v>
   <v>       0.57858321       0.31886630       0.55240863 </v>
   <v>       0.63767962       0.38839765       0.63233828 </v>
   <v>       0.41630656       0.38329641       0.32351585 </v>
   <v>       0.51785039       0.38767715       0.25636826 </v>
   <v>       0.61895054       0.38555330       0.32433019 </v>
   <v>       0.32002503       0.38524043       0.39679561 </v>
   <v>       0.41617681       0.31656392       0.42992961 </v>
   <v>       0.51761055       0.31837657       0.35674084 </v>
   <v>       0.61964271       0.31950161       0.43118438 </v>
   <v>       0.71444301       0.38950861       0.40040266 </v>
   <v>       0.51912687       0.25917254       0.46334292 </v>
   <v>       0.43380007       0.40928903       0.71828292 </v>
  </varray>
 </structure>
</modeling>
v>       0.63808426       0.38847277       0.63199432 </v>
   <v>       0.41631466       0.38304207       0.32369526 </v>
   <v>       0.51781011       0.38782040       0.25640349 </v>
   <v>       0.61913464       0.38548337       0.32410854 </v>
   <v>       0.32015340       0.38519920       0.39748422 </v>
   <v>       0.41641306       0.31630363       0.42972332 </v>
   <v>       0.51776215       0.31842618       0.35666866 </v>
   <v>       0.61984400       0.31948392       0.43087705 </v>
   <v>       0.71453990       0.38958106       0.40018003 </v>
   <v>       0.51954584       0.25895612       0.46283405 </v>
   <v>       0.41435822       0.41970031       0.71837848 </v>
  </varray>
 </structure>
</modeling>
