  65  65   0   0
  0.2920240E+02  0.9294800E-09  0.9294800E-09  0.2197110E-08  0.0000000E+00
  1.000000000000000E-004
  CAR 
 PBE-grap                                
      8.86925139    -63.82026479  301      1.05190513      1.00000000
    -63.820  0.0000E+00  0.0000E+00
    -63.578  0.0000E+00  0.0000E+00
    -63.336  0.0000E+00  0.0000E+00
    -63.093  0.0000E+00  0.0000E+00
    -62.851  0.0000E+00  0.0000E+00
    -62.609  0.0000E+00  0.0000E+00
    -62.366  0.0000E+00  0.0000E+00
    -62.124  0.0000E+00  0.0000E+00
    -61.882  0.0000E+00  0.0000E+00
    -61.640  0.0000E+00  0.0000E+00
    -61.397  0.0000E+00  0.0000E+00
    -61.155  0.0000E+00  0.0000E+00
    -60.913  0.0000E+00  0.0000E+00
    -60.670  0.1558E-05  0.3775E-06
    -60.428  0.8288E+00  0.2008E+00
    -60.186  0.1447E+01  0.5514E+00
    -59.943  0.2997E+01  0.1277E+01
    -59.701  0.1050E-01  0.1280E+01
    -59.459  0.0000E+00  0.1280E+01
    -59.217  0.0000E+00  0.1280E+01
    -58.974  0.0000E+00  0.1280E+01
    -58.732  0.0000E+00  0.1280E+01
    -58.490  0.0000E+00  0.1280E+01
    -58.247  0.0000E+00  0.1280E+01
    -58.005  0.0000E+00  0.1280E+01
    -57.763  0.0000E+00  0.1280E+01
    -57.521  0.0000E+00  0.1280E+01
    -57.278  0.0000E+00  0.1280E+01
    -57.036  0.0000E+00  0.1280E+01
    -56.794  0.0000E+00  0.1280E+01
    -56.551  0.0000E+00  0.1280E+01
    -56.309  0.0000E+00  0.1280E+01
    -56.067  0.0000E+00  0.1280E+01
    -55.824  0.0000E+00  0.1280E+01
    -55.582  0.0000E+00  0.1280E+01
    -55.340  0.0000E+00  0.1280E+01
    -55.098  0.0000E+00  0.1280E+01
    -54.855  0.0000E+00  0.1280E+01
    -54.613  0.0000E+00  0.1280E+01
    -54.371  0.0000E+00  0.1280E+01
    -54.128  0.0000E+00  0.1280E+01
    -53.886  0.0000E+00  0.1280E+01
    -53.644  0.0000E+00  0.1280E+01
    -53.401  0.0000E+00  0.1280E+01
    -53.159  0.0000E+00  0.1280E+01
    -52.917  0.0000E+00  0.1280E+01
    -52.675  0.0000E+00  0.1280E+01
    -52.432  0.0000E+00  0.1280E+01
    -52.190  0.0000E+00  0.1280E+01
    -51.948  0.0000E+00  0.1280E+01
    -51.705  0.0000E+00  0.1280E+01
    -51.463  0.0000E+00  0.1280E+01
    -51.221  0.0000E+00  0.1280E+01
    -50.978  0.0000E+00  0.1280E+01
    -50.736  0.0000E+00  0.1280E+01
    -50.494  0.0000E+00  0.1280E+01
    -50.252  0.0000E+00  0.1280E+01
    -50.009  0.0000E+00  0.1280E+01
    -49.767  0.0000E+00  0.1280E+01
    -49.525  0.0000E+00  0.1280E+01
    -49.282  0.0000E+00  0.1280E+01
    -49.040  0.0000E+00  0.1280E+01
    -48.798  0.0000E+00  0.1280E+01
    -48.555  0.0000E+00  0.1280E+01
    -48.313  0.0000E+00  0.1280E+01
    -48.071  0.0000E+00  0.1280E+01
    -47.829  0.0000E+00  0.1280E+01
    -47.586  0.0000E+00  0.1280E+01
    -47.344  0.0000E+00  0.1280E+01
    -47.102  0.0000E+00  0.1280E+01
    -46.859  0.0000E+00  0.1280E+01
    -46.617  0.0000E+00  0.1280E+01
    -46.375  0.0000E+00  0.1280E+01
    -46.132  0.0000E+00  0.1280E+01
    -45.890  0.0000E+00  0.1280E+01
    -45.648  0.0000E+00  0.1280E+01
    -45.406  0.0000E+00  0.1280E+01
    -45.163  0.0000E+00  0.1280E+01
    -44.921  0.0000E+00  0.1280E+01
    -44.679  0.0000E+00  0.1280E+01
    -44.436  0.0000E+00  0.1280E+01
    -44.194  0.0000E+00  0.1280E+01
    -43.952  0.0000E+00  0.1280E+01
    -43.709  0.0000E+00  0.1280E+01
    -43.467  0.0000E+00  0.1280E+01
    -43.225  0.0000E+00  0.1280E+01
    -42.983  0.0000E+00  0.1280E+01
    -42.740  0.0000E+00  0.1280E+01
    -42.498  0.0000E+00  0.1280E+01
    -42.256  0.0000E+00  0.1280E+01
    -42.013  0.0000E+00  0.1280E+01
    -41.771  0.0000E+00  0.1280E+01
    -41.529  0.0000E+00  0.1280E+01
    -41.287  0.0000E+00  0.1280E+01
    -41.044  0.0000E+00  0.1280E+01
    -40.802  0.0000E+00  0.1280E+01
    -40.560  0.0000E+00  0.1280E+01
    -40.317  0.0000E+00  0.1280E+01
    -40.075  0.0000E+00  0.1280E+01
    -39.833  0.0000E+00  0.1280E+01
    -39.590  0.0000E+00  0.1280E+01
    -39.348  0.0000E+00  0.1280E+01
    -39.106  0.0000E+00  0.1280E+01
    -38.864  0.0000E+00  0.1280E+01
    -38.621  0.0000E+00  0.1280E+01
    -38.379  0.0000E+00  0.1280E+01
    -38.137  0.0000E+00  0.1280E+01
    -37.894  0.0000E+00  0.1280E+01
    -37.652  0.0000E+00  0.1280E+01
    -37.410  0.0000E+00  0.1280E+01
    -37.167  0.0000E+00  0.1280E+01
    -36.925  0.0000E+00  0.1280E+01
    -36.683  0.0000E+00  0.1280E+01
    -36.441  0.0000E+00  0.1280E+01
    -36.198  0.0000E+00  0.1280E+01
    -35.956  0.0000E+00  0.1280E+01
    -35.714  0.0000E+00  0.1280E+01
    -35.471  0.0000E+00  0.1280E+01
    -35.229  0.0000E+00  0.1280E+01
    -34.987  0.0000E+00  0.1280E+01
    -34.744  0.0000E+00  0.1280E+01
    -34.502  0.0000E+00  0.1280E+01
    -34.260  0.0000E+00  0.1280E+01
    -34.018  0.0000E+00  0.1280E+01
    -33.775  0.0000E+00  0.1280E+01
    -33.533  0.0000E+00  0.1280E+01
    -33.291  0.0000E+00  0.1280E+01
    -33.048  0.0000E+00  0.1280E+01
    -32.806  0.0000E+00  0.1280E+01
    -32.564  0.0000E+00  0.1280E+01
    -32.321  0.0000E+00  0.1280E+01
    -32.079  0.0000E+00  0.1280E+01
    -31.837  0.0000E+00  0.1280E+01
    -31.595  0.0000E+00  0.1280E+01
    -31.352  0.0000E+00  0.1280E+01
    -31.110  0.0000E+00  0.1280E+01
    -30.868  0.0000E+00  0.1280E+01
    -30.625  0.0000E+00  0.1280E+01
    -30.383  0.0000E+00  0.1280E+01
    -30.141  0.0000E+00  0.1280E+01
    -29.898  0.0000E+00  0.1280E+01
    -29.656  0.3462E-16  0.1280E+01
    -29.414  0.3078E-01  0.1287E+01
    -29.172  0.2646E+01  0.1929E+01
    -28.929  0.4326E+01  0.2977E+01
    -28.687  0.5339E+01  0.4270E+01
    -28.445  0.3506E+01  0.5120E+01
    -28.202  0.3587E-03  0.5120E+01
    -27.960  0.0000E+00  0.5120E+01
    -27.718  0.0000E+00  0.5120E+01
    -27.476  0.0000E+00  0.5120E+01
    -27.233  0.0000E+00  0.5120E+01
    -26.991  0.0000E+00  0.5120E+01
    -26.749  0.0000E+00  0.5120E+01
    -26.506  0.0000E+00  0.5120E+01
    -26.264  0.0000E+00  0.5120E+01
    -26.022  0.0000E+00  0.5120E+01
    -25.779  0.0000E+00  0.5120E+01
    -25.537  0.0000E+00  0.5120E+01
    -25.295  0.0000E+00  0.5120E+01
    -25.053  0.0000E+00  0.5120E+01
    -24.810  0.0000E+00  0.5120E+01
    -24.568  0.0000E+00  0.5120E+01
    -24.326  0.0000E+00  0.5120E+01
    -24.083  0.0000E+00  0.5120E+01
    -23.841  0.0000E+00  0.5120E+01
    -23.599  0.0000E+00  0.5120E+01
    -23.356  0.0000E+00  0.5120E+01
    -23.114  0.0000E+00  0.5120E+01
    -22.872  0.0000E+00  0.5120E+01
    -22.630  0.0000E+00  0.5120E+01
    -22.387  0.0000E+00  0.5120E+01
    -22.145  0.0000E+00  0.5120E+01
    -21.903  0.0000E+00  0.5120E+01
    -21.660  0.0000E+00  0.5120E+01
    -21.418  0.0000E+00  0.5120E+01
    -21.176  0.0000E+00  0.5120E+01
    -20.933  0.0000E+00  0.5120E+01
    -20.691  0.0000E+00  0.5120E+01
    -20.449  0.0000E+00  0.5120E+01
    -20.207  0.5845E-14  0.5120E+01
    -19.964  0.4347E-01  0.5131E+01
    -19.722  0.1216E+00  0.5160E+01
    -19.480  0.0000E+00  0.5160E+01
    -19.237  0.0000E+00  0.5160E+01
    -18.995  0.0000E+00  0.5160E+01
    -18.753  0.0000E+00  0.5160E+01
    -18.510  0.0000E+00  0.5160E+01
    -18.268  0.0000E+00  0.5160E+01
    -18.026  0.0000E+00  0.5160E+01
    -17.784  0.0000E+00  0.5160E+01
    -17.541  0.0000E+00  0.5160E+01
    -17.299  0.0000E+00  0.5160E+01
    -17.057  0.0000E+00  0.5160E+01
    -16.814  0.0000E+00  0.5160E+01
    -16.572  0.0000E+00  0.5160E+01
    -16.330  0.0000E+00  0.5160E+01
    -16.087  0.0000E+00  0.5160E+01
    -15.845  0.0000E+00  0.5160E+01
    -15.603  0.0000E+00  0.5160E+01
    -15.361  0.0000E+00  0.5160E+01
    -15.118  0.0000E+00  0.5160E+01
    -14.876  0.0000E+00  0.5160E+01
    -14.634  0.0000E+00  0.5160E+01
    -14.391  0.0000E+00  0.5160E+01
    -14.149  0.0000E+00  0.5160E+01
    -13.907  0.0000E+00  0.5160E+01
    -13.664  0.0000E+00  0.5160E+01
    -13.422  0.0000E+00  0.5160E+01
    -13.180  0.0000E+00  0.5160E+01
    -12.938  0.0000E+00  0.5160E+01
    -12.695  0.0000E+00  0.5160E+01
    -12.453  0.0000E+00  0.5160E+01
    -12.211  0.0000E+00  0.5160E+01
    -11.968  0.0000E+00  0.5160E+01
    -11.726  0.0000E+00  0.5160E+01
    -11.484  0.0000E+00  0.5160E+01
    -11.242  0.0000E+00  0.5160E+01
    -10.999  0.1441E-09  0.5160E+01
    -10.757  0.1623E-01  0.5164E+01
    -10.515  0.7286E-01  0.5182E+01
    -10.272  0.7557E-01  0.5200E+01
    -10.030  0.1359E-01  0.5203E+01
     -9.788  0.1554E+00  0.5241E+01
     -9.545  0.1429E+00  0.5275E+01
     -9.303  0.1344E+00  0.5308E+01
     -9.061  0.3470E+00  0.5392E+01
     -8.819  0.6987E+00  0.5561E+01
     -8.576  0.5338E+00  0.5691E+01
     -8.334  0.8725E+00  0.5902E+01
     -8.092  0.6618E+00  0.6062E+01
     -7.849  0.7516E+00  0.6245E+01
     -7.607  0.4672E+00  0.6358E+01
     -7.365  0.2613E+00  0.6421E+01
     -7.122  0.7799E-01  0.6440E+01
     -6.880  0.2356E-05  0.6440E+01
     -6.638  0.0000E+00  0.6440E+01
     -6.396  0.0000E+00  0.6440E+01
     -6.153  0.0000E+00  0.6440E+01
     -5.911  0.0000E+00  0.6440E+01
     -5.669  0.0000E+00  0.6440E+01
     -5.426  0.0000E+00  0.6440E+01
     -5.184  0.4695E-12  0.6440E+01
     -4.942  0.1302E-01  0.6443E+01
     -4.699  0.3111E+00  0.6519E+01
     -4.457  0.5692E-01  0.6532E+01
     -4.215  0.1935E+00  0.6579E+01
     -3.973  0.3131E+00  0.6655E+01
     -3.730  0.1311E+00  0.6687E+01
     -3.488  0.3057E+00  0.6761E+01
     -3.246  0.5594E+00  0.6896E+01
     -3.003  0.5056E+00  0.7019E+01
     -2.761  0.4541E+00  0.7129E+01
     -2.519  0.5933E+00  0.7273E+01
     -2.276  0.5187E+00  0.7398E+01
     -2.034  0.4455E+00  0.7506E+01
     -1.792  0.4700E+00  0.7620E+01
     -1.550  0.1129E+01  0.7894E+01
     -1.307  0.1897E+01  0.8353E+01
     -1.065  0.1313E+01  0.8672E+01
     -0.823  0.1675E+01  0.9077E+01
     -0.580  0.1550E+01  0.9453E+01
     -0.338  0.7210E+00  0.9628E+01
     -0.096  0.9596E+00  0.9860E+01
      0.147  0.8271E+00  0.1006E+02
      0.389  0.3661E+00  0.1015E+02
      0.631  0.3808E+00  0.1024E+02
      0.873  0.3051E+00  0.1032E+02
      1.116  0.2474E+00  0.1038E+02
      1.358  0.1043E+00  0.1040E+02
      1.600  0.1056E+00  0.1043E+02
      1.843  0.4284E+00  0.1053E+02
      2.085  0.2648E+00  0.1059E+02
      2.327  0.2428E+00  0.1065E+02
      2.569  0.1909E+00  0.1070E+02
      2.812  0.2975E+00  0.1077E+02
      3.054  0.5525E+00  0.1091E+02
      3.296  0.9679E+00  0.1114E+02
      3.539  0.7605E+00  0.1132E+02
      3.781  0.5604E+00  0.1146E+02
      4.023  0.3645E+00  0.1155E+02
      4.266  0.6043E+00  0.1169E+02
      4.508  0.6757E+00  0.1186E+02
      4.750  0.5713E+00  0.1200E+02
      4.992  0.9918E+00  0.1224E+02
      5.235  0.9938E+00  0.1248E+02
      5.477  0.1175E+01  0.1276E+02
      5.719  0.1552E+00  0.1280E+02
      5.962  0.1187E-06  0.1280E+02
      6.204  0.0000E+00  0.1280E+02
      6.446  0.0000E+00  0.1280E+02
      6.689  0.0000E+00  0.1280E+02
      6.931  0.0000E+00  0.1280E+02
      7.173  0.0000E+00  0.1280E+02
      7.415  0.0000E+00  0.1280E+02
      7.658  0.0000E+00  0.1280E+02
      7.900  0.0000E+00  0.1280E+02
      8.142  0.0000E+00  0.1280E+02
      8.385  0.0000E+00  0.1280E+02
      8.627  0.0000E+00  0.1280E+02
      8.869  0.0000E+00  0.1280E+02
