       N       E                     dE             d eps       ncg     rms          rms(c)
DAV:   1     0.479551924433E+04    0.47955E+04   -0.29370E+05  3776   0.144E+03
DAV:   2    -0.524848630238E+03   -0.53204E+04   -0.51771E+04  3824   0.444E+02
DAV:   3    -0.899081701890E+03   -0.37423E+03   -0.36772E+03  3760   0.107E+02
DAV:   4    -0.913192299624E+03   -0.14111E+02   -0.14051E+02  4032   0.181E+01
DAV:   5    -0.913558949473E+03   -0.36665E+00   -0.36629E+00  3952   0.256E+00    0.597E+01
DAV:   6    -0.756876443354E+03    0.15668E+03   -0.81366E+02  3568   0.354E+01    0.214E+01
DAV:   7    -0.753194279994E+03    0.36822E+01   -0.51971E+01  4288   0.122E+01    0.119E+01
DAV:   8    -0.751678452426E+03    0.15158E+01   -0.78744E+00  3904   0.615E+00    0.559E+00
DAV:   9    -0.750854894859E+03    0.82356E+00   -0.44813E+00  4224   0.571E+00    0.291E+00
DAV:  10    -0.750512612849E+03    0.34228E+00   -0.25817E+00  3744   0.294E+00    0.179E+00
DAV:  11    -0.750462156638E+03    0.50456E-01   -0.45839E-01  3968   0.106E+00    0.112E+00
DAV:  12    -0.750446355371E+03    0.15801E-01   -0.13860E-01  4112   0.642E-01    0.634E-01
DAV:  13    -0.750430146211E+03    0.16209E-01   -0.51018E-02  3712   0.376E-01    0.263E-01
DAV:  14    -0.750432045927E+03   -0.18997E-02   -0.16969E-02  4112   0.180E-01    0.167E-01
DAV:  15    -0.750436563219E+03   -0.45173E-02   -0.56282E-03  3632   0.102E-01    0.949E-02
DAV:  16    -0.750438310856E+03   -0.17476E-02   -0.31565E-03  3776   0.805E-02    0.618E-02
DAV:  17    -0.750439948570E+03   -0.16377E-02   -0.85324E-04  3520   0.471E-02    0.381E-02
DAV:  18    -0.750441290241E+03   -0.13417E-02   -0.78398E-04  3088   0.341E-02    0.300E-02
DAV:  19    -0.750441877440E+03   -0.58720E-03   -0.36462E-04  3184   0.197E-02    0.229E-02
DAV:  20    -0.750443878549E+03   -0.20011E-02   -0.19968E-04  3152   0.157E-02    0.150E-02
DAV:  21    -0.750445807343E+03   -0.19288E-02   -0.20803E-04  3040   0.120E-02    0.880E-03
DAV:  22    -0.750446447902E+03   -0.64056E-03   -0.57855E-05  2992   0.654E-03    0.433E-03
DAV:  23    -0.750446881403E+03   -0.43350E-03   -0.46258E-05  2880   0.504E-03    0.221E-03
DAV:  24    -0.750446975593E+03   -0.94189E-04   -0.82594E-06  2672   0.258E-03    0.113E-03
DAV:  25    -0.750447021668E+03   -0.46076E-04   -0.35605E-06  2496   0.135E-03    0.718E-04
DAV:  26    -0.750447033805E+03   -0.12136E-04   -0.92454E-07  2416   0.751E-04    0.354E-04
DAV:  27    -0.750447038220E+03   -0.44158E-05   -0.51671E-07  2400   0.533E-04
   1 F= -.75044704E+03 E0= -.75044045E+03  d E =-.750447E+03
       N       E                     dE             d eps       ncg     rms          rms(c)
DAV:   1    -0.750448461373E+03   -0.14276E-02   -0.75264E-04  3456   0.447E-02    0.495E-03
DAV:   2    -0.750448463569E+03   -0.21954E-05   -0.21491E-05  2832   0.730E-03    0.302E-03
DAV:   3    -0.750448463563E+03    0.58790E-08   -0.13793E-06  2064   0.286E-03    0.194E-03
DAV:   4    -0.750448463714E+03   -0.15114E-06   -0.54030E-07  2000   0.174E-03
   2 F= -.75044846E+03 E0= -.75044187E+03  d E =-.142549E-02
       N       E                     dE             d eps       ncg     rms          rms(c)
DAV:   1    -0.750451290102E+03   -0.28265E-02   -0.29904E-03  3456   0.892E-02    0.101E-02
DAV:   2    -0.750451297359E+03   -0.72571E-05   -0.85475E-05  3344   0.144E-02    0.613E-03
DAV:   3    -0.750451296838E+03    0.52107E-06   -0.46443E-06  2208   0.531E-03    0.390E-03
DAV:   4    -0.750451296724E+03    0.11372E-06   -0.17686E-06  2032   0.336E-03
   3 F= -.75045130E+03 E0= -.75044471E+03  d E =-.283301E-02
       N       E                     dE             d eps       ncg     rms          rms(c)
DAV:   1    -0.750455507973E+03   -0.42111E-02   -0.66925E-03  3440   0.133E-01    0.152E-02
DAV:   2    -0.750455523737E+03   -0.15764E-04   -0.19060E-04  3440   0.216E-02    0.916E-03
DAV:   3    -0.750455522642E+03    0.10945E-05   -0.10682E-05  2560   0.772E-03    0.582E-03
DAV:   4    -0.750455522372E+03    0.27045E-06   -0.39922E-06  2080   0.497E-03
   4 F= -.75045552E+03 E0= -.75044893E+03  d E =-.422565E-02
       N       E                     dE             d eps       ncg     rms          rms(c)
DAV:   1    -0.750461088580E+03   -0.55659E-02   -0.11844E-02  3440   0.177E-01    0.204E-02
DAV:   2    -0.750461116090E+03   -0.27510E-04   -0.33590E-04  3488   0.287E-02    0.122E-02
DAV:   3    -0.750461114221E+03    0.18692E-05   -0.19052E-05  2736   0.102E-02    0.772E-03
DAV:   4    -0.750461113779E+03    0.44145E-06   -0.71864E-06  2224   0.664E-03
   5 F= -.75046111E+03 E0= -.75045452E+03  d E =-.559141E-02
       N       E                     dE             d eps       ncg     rms          rms(c)
DAV:   1    -0.750467991895E+03   -0.68777E-02   -0.18398E-02  3440   0.221E-01    0.255E-02
DAV:   2    -0.750468034238E+03   -0.42343E-04   -0.51989E-04  3648   0.357E-02    0.152E-02
DAV:   3    -0.750468031324E+03    0.29141E-05   -0.29222E-05  2880   0.122E-02    0.961E-03
DAV:   4    -0.750468030823E+03    0.50067E-06   -0.11316E-05  2400   0.826E-03
   6 F= -.75046803E+03 E0= -.75046143E+03  d E =-.691704E-02
       N       E                     dE             d eps       ncg     rms          rms(c)
DAV:   1    -0.750476170925E+03   -0.81396E-02   -0.26325E-02  3440   0.264E-01    0.306E-02
DAV:   2    -0.750476231041E+03   -0.60116E-04   -0.74152E-04  3664   0.426E-02    0.181E-02
DAV:   3    -0.750476227005E+03    0.40364E-05   -0.41750E-05  3024   0.145E-02    0.115E-02
DAV:   4    -0.750476226523E+03    0.48227E-06   -0.16431E-05  2544   0.987E-03
   7 F= -.75047623E+03 E0= -.75046962E+03  d E =-.819570E-02
       N       E                     dE             d eps       ncg     rms          rms(c)
DAV:   1    -0.750485564671E+03   -0.93377E-02   -0.35546E-02  3488   0.307E-01    0.355E-02
DAV:   2    -0.750485645497E+03   -0.80826E-04   -0.99655E-04  3728   0.493E-02    0.209E-02
DAV:   3    -0.750485640116E+03    0.53813E-05   -0.55385E-05  3088   0.165E-02    0.133E-02
DAV:   4    -0.750485639500E+03    0.61554E-06   -0.22172E-05  2560   0.114E-02
   8 F= -.75048564E+03 E0= -.75047903E+03  d E =-.941298E-02
       N       E                     dE             d eps       ncg     rms          rms(c)
DAV:   1    -0.750496098576E+03   -0.10458E-01   -0.45971E-02  3488   0.349E-01    0.404E-02
DAV:   2    -0.750496202757E+03   -0.10418E-03   -0.12828E-03  3728   0.559E-02    0.237E-02
DAV:   3    -0.750496195875E+03    0.68821E-05   -0.70382E-05  3136   0.186E-02    0.151E-02
DAV:   4    -0.750496195195E+03    0.68013E-06   -0.28950E-05  2624   0.130E-02
   9 F= -.75049620E+03 E0= -.75048958E+03  d E =-.105557E-01
       N       E                     dE             d eps       ncg     rms          rms(c)
DAV:   1    -0.750507708885E+03   -0.11513E-01   -0.57534E-02  3488   0.390E-01    0.452E-02
DAV:   2    -0.750507838672E+03   -0.12979E-03   -0.16002E-03  3744   0.624E-02    0.264E-02
DAV:   3    -0.750507830032E+03    0.86399E-05   -0.84261E-05  3104   0.205E-02    0.168E-02
DAV:   4    -0.750507829811E+03    0.22077E-06   -0.36096E-05  2672   0.146E-02
  10 F= -.75050783E+03 E0= -.75050120E+03  d E =-.116346E-01
       N       E                     dE             d eps       ncg     rms          rms(c)
DAV:   1    -0.750520300044E+03   -0.12470E-01   -0.70139E-02  3520   0.431E-01    0.499E-02
DAV:   2    -0.750520457249E+03   -0.15721E-03   -0.19415E-03  3712   0.686E-02    0.290E-02
DAV:   3    -0.750520446877E+03    0.10372E-04   -0.99316E-05  3120   0.222E-02    0.184E-02
DAV:   4    -0.750520447125E+03   -0.24757E-06   -0.43843E-05  2720   0.160E-02
  11 F= -.75052045E+03 E0= -.75051381E+03  d E =-.126173E-01
       N       E                     dE             d eps       ncg     rms          rms(c)
DAV:   1    -0.750533802767E+03   -0.13356E-01   -0.83663E-02  3568   0.470E-01    0.546E-02
DAV:   2    -0.750533988790E+03   -0.18602E-03   -0.23063E-03  3664   0.745E-02    0.315E-02
DAV:   3    -0.750533976607E+03    0.12183E-04   -0.11428E-04  3200   0.238E-02    0.200E-02
DAV:   4    -0.750533977607E+03   -0.99994E-06   -0.52010E-05  2720   0.174E-02
  12 F= -.75053398E+03 E0= -.75052734E+03  d E =-.135305E-01
       N       E                     dE             d eps       ncg     rms          rms(c)
DAV:   1    -0.750548138052E+03   -0.14161E-01   -0.97975E-02  3568   0.508E-01    0.591E-02
DAV:   2    -0.750548354168E+03   -0.21612E-03   -0.26866E-03  3696   0.803E-02    0.339E-02
DAV:   3    -0.750548340182E+03    0.13986E-04   -0.12794E-04  3184   0.251E-02    0.215E-02
DAV:   4    -0.750548342215E+03   -0.20335E-05   -0.60795E-05  2752   0.188E-02
  13 F= -.75054834E+03 E0= -.75054169E+03  d E =-.143646E-01
       N       E                     dE             d eps       ncg     rms          rms(c)
DAV:   1    -0.750563209545E+03   -0.14869E-01   -0.11302E-01  3536   0.546E-01    0.633E-02
DAV:   2    -0.750563456966E+03   -0.24742E-03   -0.30779E-03  3696   0.858E-02    0.361E-02
DAV:   3    -0.750563441212E+03    0.15754E-04   -0.14011E-04  3184   0.263E-02    0.229E-02
DAV:   4    -0.750563444502E+03   -0.32904E-05   -0.69686E-05  2816   0.201E-02
  14 F= -.75056344E+03 E0= -.75055679E+03  d E =-.151023E-01
       N       E                     dE             d eps       ncg     rms          rms(c)
DAV:   1    -0.750578907699E+03   -0.15466E-01   -0.12854E-01  3536   0.581E-01    0.674E-02
DAV:   2    -0.750579187801E+03   -0.28010E-03   -0.34780E-03  3632   0.911E-02    0.382E-02
DAV:   3    -0.750579170506E+03    0.17294E-04   -0.14981E-04  3200   0.271E-02    0.242E-02
DAV:   4    -0.750579175088E+03   -0.45814E-05   -0.78487E-05  2880   0.212E-02
  15 F= -.75057918E+03 E0= -.75057252E+03  d E =-.157306E-01
       N       E                     dE             d eps       ncg     rms          rms(c)
DAV:   1    -0.750595144588E+03   -0.15974E-01   -0.14444E-01  3520   0.617E-01    0.712E-02
DAV:   2    -0.750595458233E+03   -0.31365E-03   -0.38776E-03  3632   0.962E-02    0.401E-02
DAV:   3    -0.750595439359E+03    0.18874E-04   -0.15675E-04  3248   0.276E-02    0.254E-02
DAV:   4    -0.750595444925E+03   -0.55665E-05   -0.87040E-05  2960   0.223E-02
  16 F= -.75059544E+03 E0= -.75058878E+03  d E =-.162698E-01
       N       E                     dE             d eps       ncg     rms          rms(c)
DAV:   1    -0.750611847762E+03   -0.16408E-01   -0.16063E-01  3520   0.650E-01    0.750E-02
DAV:   2    -0.750612194750E+03   -0.34699E-03   -0.42787E-03  3664   0.101E-01    0.419E-02
DAV:   3    -0.750612174261E+03    0.20489E-04   -0.16222E-04  3264   0.279E-02    0.266E-02
DAV:   4    -0.750612180925E+03   -0.66647E-05   -0.95441E-05  3024   0.233E-02
  17 F= -.75061218E+03 E0= -.75060552E+03  d E =-.167360E-01
       N       E                     dE             d eps       ncg     rms          rms(c)
DAV:   1    -0.750628914019E+03   -0.16740E-01   -0.17681E-01  3520   0.682E-01    0.784E-02
DAV:   2    -0.750629292479E+03   -0.37846E-03   -0.46613E-03  3664   0.105E-01    0.435E-02
DAV:   3    -0.750629270544E+03    0.21935E-04   -0.16409E-04  3280   0.278E-02    0.276E-02
DAV:   4    -0.750629279233E+03   -0.86899E-05   -0.10294E-04  3104   0.241E-02    0.204E-02
DAV:   5    -0.750629273910E+03    0.53240E-05   -0.57213E-05  2880   0.169E-02
  18 F= -.75062927E+03 E0= -.75062259E+03  d E =-.170930E-01
       N       E                     dE             d eps       ncg     rms          rms(c)
DAV:   1    -0.750646261687E+03   -0.16982E-01   -0.19454E-01  3520   0.715E-01    0.781E-02
DAV:   2    -0.750646699311E+03   -0.43762E-03   -0.51550E-03  3760   0.109E-01    0.444E-02
DAV:   3    -0.750646674614E+03    0.24697E-04   -0.15780E-04  3264   0.272E-02    0.286E-02
DAV:   4    -0.750646683833E+03   -0.92193E-05   -0.10440E-04  3104   0.241E-02    0.208E-02
DAV:   5    -0.750646678065E+03    0.57680E-05   -0.58842E-05  2864   0.172E-02
  19 F= -.75064668E+03 E0= -.75064000E+03  d E =-.174042E-01
       N       E                     dE             d eps       ncg     rms          rms(c)
DAV:   1    -0.750663857073E+03   -0.17173E-01   -0.21050E-01  3520   0.743E-01    0.805E-02
DAV:   2    -0.750664323205E+03   -0.46613E-03   -0.54818E-03  3760   0.113E-01    0.456E-02
DAV:   3    -0.750664297625E+03    0.25580E-04   -0.15407E-04  3264   0.266E-02    0.294E-02
DAV:   4    -0.750664308376E+03   -0.10751E-04   -0.10878E-04  3088   0.246E-02    0.206E-02
DAV:   5    -0.750664301458E+03    0.69183E-05   -0.62067E-05  2832   0.179E-02
  20 F= -.75066430E+03 E0= -.75065763E+03  d E =-.176234E-01
       N       E                     dE             d eps       ncg     rms          rms(c)
DAV:   1    -0.750681614079E+03   -0.17306E-01   -0.22606E-01  3520   0.769E-01    0.828E-02
DAV:   2    -0.750682105911E+03   -0.49183E-03   -0.57895E-03  3760   0.116E-01    0.467E-02
DAV:   3    -0.750682079222E+03    0.26688E-04   -0.15102E-04  3312   0.257E-02    0.301E-02
DAV:   4    -0.750682091531E+03   -0.12309E-04   -0.11026E-04  3184   0.245E-02    0.198E-02
DAV:   5    -0.750682084125E+03    0.74064E-05   -0.62198E-05  2880   0.182E-02
  21 F= -.75068208E+03 E0= -.75067542E+03  d E =-.177827E-01
       N       E                     dE             d eps       ncg     rms          rms(c)
DAV:   1    -0.750699477148E+03   -0.17386E-01   -0.24106E-01  3520   0.793E-01    0.847E-02
DAV:   2    -0.750699993063E+03   -0.51592E-03   -0.60792E-03  3792   0.119E-01    0.478E-02
DAV:   3    -0.750699965365E+03    0.27698E-04   -0.14754E-04  3296   0.247E-02    0.308E-02
DAV:   4    -0.750699977351E+03   -0.11986E-04   -0.10552E-04  3152   0.233E-02    0.178E-02
DAV:   5    -0.750699971349E+03    0.60018E-05   -0.56351E-05  2848   0.176E-02
  22 F= -.75069997E+03 E0= -.75069332E+03  d E =-.178872E-01
       N       E                     dE             d eps       ncg     rms          rms(c)
DAV:   1    -0.750717406392E+03   -0.17429E-01   -0.25533E-01  3520   0.816E-01    0.866E-02
DAV:   2    -0.750717945124E+03   -0.53873E-03   -0.63539E-03  3808   0.121E-01    0.488E-02
DAV:   3    -0.750717917092E+03    0.28032E-04   -0.14952E-04  3328   0.234E-02    0.316E-02
DAV:   4    -0.750717926146E+03   -0.90531E-05   -0.99887E-05  3168   0.206E-02
  23 F= -.75071793E+03 E0= -.75071131E+03  d E =-.179548E-01
       N       E                     dE             d eps       ncg     rms          rms(c)
DAV:   1    -0.750735380453E+03   -0.17463E-01   -0.26901E-01  3520   0.836E-01    0.921E-02
DAV:   2    -0.750735916977E+03   -0.53652E-03   -0.65637E-03  3824   0.125E-01    0.507E-02
DAV:   3    -0.750735887031E+03    0.29946E-04   -0.17013E-04  3280   0.259E-02    0.325E-02
DAV:   4    -0.750735896878E+03   -0.98466E-05   -0.11000E-04  3168   0.230E-02    0.172E-02
DAV:   5    -0.750735893204E+03    0.36740E-05   -0.53423E-05  2880   0.174E-02
  24 F= -.75073589E+03 E0= -.75072929E+03  d E =-.179671E-01
       N       E                     dE             d eps       ncg     rms          rms(c)
DAV:   1    -0.750753254919E+03   -0.17358E-01   -0.28244E-01  3520   0.856E-01    0.897E-02
DAV:   2    -0.750753839484E+03   -0.58457E-03   -0.68872E-03  3824   0.126E-01    0.510E-02
DAV:   3    -0.750753808856E+03    0.30628E-04   -0.16043E-04  3328   0.216E-02    0.332E-02
DAV:   4    -0.750753813970E+03   -0.51140E-05   -0.11002E-04  3136   0.158E-02    0.130E-02
DAV:   5    -0.750753815018E+03   -0.10485E-05   -0.32592E-05  2800   0.791E-03
  25 F= -.75075382E+03 E0= -.75074725E+03  d E =-.179218E-01
       N       E                     dE             d eps       ncg     rms          rms(c)
DAV:   1    -0.750771087066E+03   -0.17273E-01   -0.29503E-01  3520   0.873E-01    0.892E-02
DAV:   2    -0.750771689810E+03   -0.60274E-03   -0.70555E-03  3808   0.128E-01    0.517E-02
DAV:   3    -0.750771659720E+03    0.30090E-04   -0.16838E-04  3296   0.239E-02    0.337E-02
DAV:   4    -0.750771664484E+03   -0.47639E-05   -0.10686E-04  3088   0.185E-02    0.140E-02
DAV:   5    -0.750771664420E+03    0.64276E-07   -0.31474E-05  2816   0.127E-02
  26 F= -.75077166E+03 E0= -.75076513E+03  d E =-.178494E-01
       N       E                     dE             d eps       ncg     rms          rms(c)
DAV:   1    -0.750788796642E+03   -0.17132E-01   -0.30759E-01  3520   0.890E-01    0.919E-02
DAV:   2    -0.750789423929E+03   -0.62729E-03   -0.73781E-03  3824   0.130E-01    0.533E-02
DAV:   3    -0.750789394575E+03    0.29354E-04   -0.19846E-04  3440   0.213E-02    0.350E-02
DAV:   4    -0.750789395292E+03   -0.71662E-06   -0.13633E-04  3104   0.218E-02    0.164E-02
DAV:   5    -0.750789395826E+03   -0.53395E-06   -0.67719E-05  2896   0.180E-02
  27 F= -.75078940E+03 E0= -.75078290E+03  d E =-.177314E-01
       N       E                     dE             d eps       ncg     rms          rms(c)
DAV:   1    -0.750806373318E+03   -0.16978E-01   -0.31903E-01  3520   0.903E-01    0.933E-02
DAV:   2    -0.750807016532E+03   -0.64321E-03   -0.75672E-03  3792   0.132E-01    0.539E-02
DAV:   3    -0.750806987598E+03    0.28934E-04   -0.21355E-04  3424   0.220E-02    0.353E-02
DAV:   4    -0.750806986818E+03    0.77965E-06   -0.13409E-04  3104   0.194E-02    0.152E-02
DAV:   5    -0.750806988346E+03   -0.15277E-05   -0.60567E-05  2880   0.156E-02
  28 F= -.75080699E+03 E0= -.75080054E+03  d E =-.175925E-01
       N       E                     dE             d eps       ncg     rms          rms(c)
DAV:   1    -0.750823742761E+03   -0.16756E-01   -0.33069E-01  3520   0.917E-01    0.944E-02
DAV:   2    -0.750824409588E+03   -0.66683E-03   -0.78312E-03  3808   0.133E-01    0.550E-02
DAV:   3    -0.750824377926E+03    0.31662E-04   -0.22069E-04  3440   0.220E-02    0.360E-02
DAV:   4    -0.750824377633E+03    0.29309E-06   -0.13828E-04  3104   0.202E-02    0.158E-02
DAV:   5    -0.750824378520E+03   -0.88663E-06   -0.64102E-05  2880   0.167E-02
  29 F= -.75082438E+03 E0= -.75081798E+03  d E =-.173902E-01
       N       E                     dE             d eps       ncg     rms          rms(c)
DAV:   1    -0.750840891699E+03   -0.16514E-01   -0.34268E-01  3520   0.932E-01    0.956E-02
DAV:   2    -0.750841580227E+03   -0.68853E-03   -0.80959E-03  3808   0.135E-01    0.559E-02
DAV:   3    -0.750841547309E+03    0.32918E-04   -0.23667E-04  3456   0.223E-02    0.366E-02
DAV:   4    -0.750841549196E+03   -0.18873E-05   -0.14276E-04  3088   0.218E-02    0.167E-02
DAV:   5    -0.750841548906E+03    0.28992E-06   -0.68331E-05  2896   0.181E-02
  30 F= -.75084155E+03 E0= -.75083520E+03  d E =-.171704E-01
       N       E                     dE             d eps       ncg     rms          rms(c)
DAV:   1    -0.750857768812E+03   -0.16220E-01   -0.35398E-01  3520   0.946E-01    0.966E-02
DAV:   2    -0.750858476691E+03   -0.70788E-03   -0.83423E-03  3776   0.136E-01    0.567E-02
DAV:   3    -0.750858444104E+03    0.32587E-04   -0.25382E-04  3456   0.229E-02    0.371E-02
DAV:   4    -0.750858446640E+03   -0.25360E-05   -0.14585E-04  3072   0.231E-02    0.174E-02
DAV:   5    -0.750858445978E+03    0.66282E-06   -0.70111E-05  2896   0.190E-02
  31 F= -.75085845E+03 E0= -.75085214E+03  d E =-.168971E-01
       N       E                     dE             d eps       ncg     rms          rms(c)
DAV:   1    -0.750874267010E+03   -0.15820E-01   -0.36513E-01  3520   0.958E-01    0.975E-02
DAV:   2    -0.750874995649E+03   -0.72864E-03   -0.85878E-03  3776   0.137E-01    0.574E-02
DAV:   3    -0.750874963213E+03    0.32436E-04   -0.26779E-04  3456   0.235E-02    0.376E-02
DAV:   4    -0.750874964872E+03   -0.16589E-05   -0.14708E-04  3072   0.240E-02    0.180E-02
DAV:   5    -0.750874964755E+03    0.11762E-06   -0.70582E-05  2896   0.196E-02
  32 F= -.75087496E+03 E0= -.75086872E+03  d E =-.165188E-01
       N       E                     dE             d eps       ncg     rms          rms(c)
DAV:   1    -0.750890334170E+03   -0.15369E-01   -0.37559E-01  3520   0.970E-01    0.982E-02
DAV:   2    -0.750891081938E+03   -0.74777E-03   -0.88128E-03  3776   0.139E-01    0.580E-02
DAV:   3    -0.750891050100E+03    0.31838E-04   -0.27935E-04  3456   0.241E-02    0.380E-02
DAV:   4    -0.750891049551E+03    0.54845E-06   -0.14806E-04  3056   0.246E-02    0.183E-02
DAV:   5    -0.750891050952E+03   -0.14001E-05   -0.70809E-05  2944   0.199E-02
  33 F= -.75089105E+03 E0= -.75088486E+03  d E =-.160862E-01
       N       E                     dE             d eps       ncg     rms          rms(c)
DAV:   1    -0.750905945293E+03   -0.14896E-01   -0.38783E-01  3520   0.983E-01    0.989E-02
DAV:   2    -0.750906717171E+03   -0.77188E-03   -0.90802E-03  3776   0.140E-01    0.584E-02
DAV:   3    -0.750906686353E+03    0.30818E-04   -0.28600E-04  3456   0.244E-02    0.383E-02
DAV:   4    -0.750906684636E+03    0.17167E-05   -0.14813E-04  3072   0.249E-02    0.184E-02
DAV:   5    -0.750906687098E+03   -0.24615E-05   -0.71150E-05  2960   0.201E-02
  34 F= -.75090669E+03 E0= -.75090055E+03  d E =-.156361E-01
       N       E                     dE             d eps       ncg     rms          rms(c)
DAV:   1    -0.750921039550E+03   -0.14355E-01   -0.39673E-01  3520   0.992E-01    0.992E-02
DAV:   2    -0.750921827597E+03   -0.78805E-03   -0.92567E-03  3776   0.141E-01    0.587E-02
DAV:   3    -0.750921796591E+03    0.31006E-04   -0.28945E-04  3440   0.245E-02    0.386E-02
DAV:   4    -0.750921795009E+03    0.15815E-05   -0.14802E-04  3072   0.251E-02    0.183E-02
DAV:   5    -0.750921797706E+03   -0.26964E-05   -0.71011E-05  2960   0.202E-02
  35 F= -.75092180E+03 E0= -.75091571E+03  d E =-.151106E-01
       N       E                     dE             d eps       ncg     rms          rms(c)
DAV:   1    -0.750935514220E+03   -0.13719E-01   -0.40618E-01  3520   0.100E+00    0.992E-02
DAV:   2    -0.750936320595E+03   -0.80637E-03   -0.94450E-03  3776   0.142E-01    0.589E-02
DAV:   3    -0.750936290044E+03    0.30550E-04   -0.29418E-04  3456   0.247E-02    0.388E-02
DAV:   4    -0.750936288490E+03    0.15545E-05   -0.14699E-04  3072   0.254E-02    0.182E-02
DAV:   5    -0.750936290924E+03   -0.24341E-05   -0.70818E-05  2960   0.203E-02
  36 F= -.75093629E+03 E0= -.75093026E+03  d E =-.144932E-01
       N       E                     dE             d eps       ncg     rms          rms(c)
DAV:   1    -0.750949276991E+03   -0.12989E-01   -0.41379E-01  3520   0.101E+00    0.989E-02
DAV:   2    -0.750950096581E+03   -0.81959E-03   -0.95693E-03  3760   0.142E-01    0.589E-02
DAV:   3    -0.750950068005E+03    0.28575E-04   -0.30108E-04  3472   0.248E-02    0.389E-02
DAV:   4    -0.750950066421E+03    0.15845E-05   -0.14530E-04  3072   0.255E-02    0.180E-02
DAV:   5    -0.750950068306E+03   -0.18852E-05   -0.70328E-05  2960   0.203E-02
  37 F= -.75095007E+03 E0= -.75094408E+03  d E =-.137774E-01
       N       E                     dE             d eps       ncg     rms          rms(c)
DAV:   1    -0.750962268297E+03   -0.12202E-01   -0.42107E-01  3520   0.102E+00    0.982E-02
DAV:   2    -0.750963101370E+03   -0.83307E-03   -0.96858E-03  3760   0.144E-01    0.588E-02
DAV:   3    -0.750963073464E+03    0.27906E-04   -0.29950E-04  3504   0.245E-02    0.390E-02
DAV:   4    -0.750963072858E+03    0.60548E-06   -0.14314E-04  3088   0.254E-02    0.175E-02
DAV:   5    -0.750963073753E+03   -0.89436E-06   -0.69372E-05  2960   0.200E-02
  38 F= -.75096307E+03 E0= -.75095714E+03  d E =-.130054E-01
       N       E                     dE             d eps       ncg     rms          rms(c)
DAV:   1    -0.750974371893E+03   -0.11299E-01   -0.42610E-01  3520   0.103E+00    0.972E-02
DAV:   2    -0.750975214532E+03   -0.84264E-03   -0.97386E-03  3760   0.144E-01    0.586E-02
DAV:   3    -0.750975187421E+03    0.27111E-04   -0.29463E-04  3520   0.239E-02    0.389E-02
DAV:   4    -0.750975186624E+03    0.79694E-06   -0.13892E-04  3088   0.249E-02    0.168E-02
DAV:   5    -0.750975186929E+03   -0.30511E-06   -0.67018E-05  2960   0.195E-02
  39 F= -.75097519E+03 E0= -.75096929E+03  d E =-.121132E-01
       N       E                     dE             d eps       ncg     rms          rms(c)
DAV:   1    -0.750985465226E+03   -0.10279E-01   -0.42970E-01  3520   0.104E+00    0.954E-02
DAV:   2    -0.750986313362E+03   -0.84814E-03   -0.97343E-03  3728   0.145E-01    0.583E-02
DAV:   3    -0.750986289350E+03    0.24012E-04   -0.30547E-04  3552   0.235E-02    0.389E-02
DAV:   4    -0.750986286781E+03    0.25685E-05   -0.13366E-04  3104   0.242E-02    0.163E-02
DAV:   5    -0.750986287471E+03   -0.68935E-06   -0.63280E-05  2944   0.187E-02
  40 F= -.75098629E+03 E0= -.75098043E+03  d E =-.111005E-01
       N       E                     dE             d eps       ncg     rms          rms(c)
DAV:   1    -0.750995452059E+03   -0.91653E-02   -0.43056E-01  3520   0.105E+00    0.932E-02
DAV:   2    -0.750996300696E+03   -0.84864E-03   -0.96632E-03  3728   0.146E-01    0.579E-02
DAV:   3    -0.750996277981E+03    0.22715E-04   -0.29560E-04  3552   0.226E-02    0.388E-02
DAV:   4    -0.750996273286E+03    0.46945E-05   -0.12267E-04  3088   0.220E-02    0.154E-02
DAV:   5    -0.750996274734E+03   -0.14476E-05   -0.54115E-05  2960   0.164E-02
  41 F= -.75099627E+03 E0= -.75099045E+03  d E =-.998726E-02
       N       E                     dE             d eps       ncg     rms          rms(c)
DAV:   1    -0.751004256145E+03   -0.79829E-02   -0.42594E-01  3520   0.105E+00    0.900E-02
DAV:   2    -0.751005088097E+03   -0.83195E-03   -0.94115E-03  3728   0.145E-01    0.574E-02
DAV:   3    -0.751005065391E+03    0.22706E-04   -0.28229E-04  3584   0.219E-02    0.385E-02
DAV:   4    -0.751005059180E+03    0.62109E-05   -0.10841E-04  3104   0.188E-02    0.148E-02
DAV:   5    -0.751005061597E+03   -0.24176E-05   -0.40654E-05  2864   0.126E-02
  42 F= -.75100506E+03 E0= -.75099927E+03  d E =-.878686E-02
       N       E                     dE             d eps       ncg     rms          rms(c)
DAV:   1    -0.751011681819E+03   -0.66226E-02   -0.41726E-01  3520   0.105E+00    0.856E-02
DAV:   2    -0.751012490569E+03   -0.80875E-03   -0.90660E-03  3728   0.144E-01    0.569E-02
DAV:   3    -0.751012468125E+03    0.22444E-04   -0.26836E-04  3696   0.217E-02    0.387E-02
DAV:   4    -0.751012460135E+03    0.79901E-05   -0.10231E-04  3152   0.163E-02    0.149E-02
DAV:   5    -0.751012462682E+03   -0.25475E-05   -0.30192E-05  2720   0.758E-03
  43 F= -.75101246E+03 E0= -.75100670E+03  d E =-.740108E-02
       N       E                     dE             d eps       ncg     rms          rms(c)
DAV:   1    -0.751017668153E+03   -0.52080E-02   -0.40708E-01  3520   0.106E+00    0.804E-02
DAV:   2    -0.751018450954E+03   -0.78280E-03   -0.87117E-03  3728   0.145E-01    0.565E-02
DAV:   3    -0.751018429173E+03    0.21782E-04   -0.25438E-04  3728   0.212E-02    0.389E-02
DAV:   4    -0.751018418334E+03    0.10838E-04   -0.89026E-05  3072   0.157E-02    0.128E-02
DAV:   5    -0.751018421653E+03   -0.33191E-05   -0.28864E-05  2768   0.736E-03
  44 F= -.75101842E+03 E0= -.75101268E+03  d E =-.595897E-02
       N       E                     dE             d eps       ncg     rms          rms(c)
DAV:   1    -0.751022044726E+03   -0.36264E-02   -0.39196E-01  3520   0.105E+00    0.760E-02
DAV:   2    -0.751022785877E+03   -0.74115E-03   -0.82092E-03  3712   0.144E-01    0.562E-02
DAV:   3    -0.751022764322E+03    0.21555E-04   -0.23930E-04  3712   0.216E-02    0.391E-02
DAV:   4    -0.751022752214E+03    0.12108E-04   -0.81300E-05  3168   0.159E-02    0.121E-02
DAV:   5    -0.751022754813E+03   -0.25993E-05   -0.33913E-05  2800   0.104E-02
  45 F= -.75102275E+03 E0= -.75101704E+03  d E =-.433316E-02
       N       E                     dE             d eps       ncg     rms          rms(c)
DAV:   1    -0.751024748900E+03   -0.19967E-02   -0.36801E-01  3520   0.103E+00    0.721E-02
DAV:   2    -0.751025419353E+03   -0.67045E-03   -0.74769E-03  3680   0.141E-01    0.555E-02
DAV:   3    -0.751025398021E+03    0.21332E-04   -0.21552E-04  3744   0.216E-02    0.388E-02
DAV:   4    -0.751025386428E+03    0.11593E-04   -0.83380E-05  3152   0.170E-02    0.119E-02
DAV:   5    -0.751025387727E+03   -0.12984E-05   -0.39647E-05  2848   0.137E-02
  46 F= -.75102539E+03 E0= -.75101969E+03  d E =-.263291E-02
       N       E                     dE             d eps       ncg     rms          rms(c)
DAV:   1    -0.751025743866E+03   -0.35744E-03   -0.34274E-01  3520   0.101E+00    0.693E-02
DAV:   2    -0.751026340492E+03   -0.59663E-03   -0.67470E-03  3648   0.137E-01    0.551E-02
DAV:   3    -0.751026317424E+03    0.23068E-04   -0.19192E-04  3648   0.221E-02    0.385E-02
DAV:   4    -0.751026308418E+03    0.90061E-05   -0.98697E-05  3072   0.194E-02
  47 F= -.75102631E+03 E0= -.75102062E+03  d E =-.920691E-03
       N       E                     dE             d eps       ncg     rms          rms(c)
DAV:   1    -0.751025085959E+03    0.12315E-02   -0.31529E-01  3520   0.982E-01    0.691E-02
DAV:   2    -0.751025593404E+03   -0.50744E-03   -0.59232E-03  3616   0.133E-01    0.546E-02
DAV:   3    -0.751025566741E+03    0.26663E-04   -0.18709E-04  3392   0.261E-02    0.377E-02
DAV:   4    -0.751025564644E+03    0.20973E-05   -0.11796E-04  3040   0.232E-02    0.161E-02
DAV:   5    -0.751025561218E+03    0.34259E-05   -0.51992E-05  2976   0.193E-02
  48 F= -.75102556E+03 E0= -.75101989E+03  d E =0.747200E-03
       N       E                     dE             d eps       ncg     rms          rms(c)
DAV:   1    -0.751023022057E+03    0.25426E-02   -0.29794E-01  3520   0.956E-01    0.676E-02
DAV:   2    -0.751023504806E+03   -0.48275E-03   -0.56654E-03  3616   0.131E-01    0.572E-02
DAV:   3    -0.751023472476E+03    0.32330E-04   -0.19028E-04  3328   0.273E-02    0.396E-02
DAV:   4    -0.751023469008E+03    0.34680E-05   -0.13072E-04  3040   0.230E-02    0.173E-02
DAV:   5    -0.751023465500E+03    0.35082E-05   -0.52553E-05  2944   0.199E-02
  49 F= -.75102347E+03 E0= -.75101780E+03  d E =0.209572E-02
       N       E                     dE             d eps       ncg     rms          rms(c)
DAV:   1    -0.751019650975E+03    0.38180E-02   -0.28824E-01  3520   0.938E-01    0.742E-02
DAV:   2    -0.751020119529E+03   -0.46855E-03   -0.56403E-03  3648   0.129E-01    0.581E-02
DAV:   3    -0.751020081904E+03    0.37624E-04   -0.18261E-04  3328   0.263E-02    0.389E-02
DAV:   4    -0.751020082079E+03   -0.17509E-06   -0.14481E-04  3040   0.239E-02    0.168E-02
DAV:   5    -0.751020079052E+03    0.30277E-05   -0.56014E-05  2976   0.199E-02
  50 F= -.75102008E+03 E0= -.75101442E+03  d E =0.338645E-02
