 vasp.5.4.4.18Apr17-6-g9f103f2a35 (build Aug 09 2024 17:42:55) complex          
  
 executed on             LinuxIFC date 2025.12.26  00:41:42
 running on   64 total cores
 each image running on   16 cores
 distrk:  each k-point on   16 cores,    1 groups
 distr:  one band on NCORES_PER_BAND=   1 cores,   16 groups


--------------------------------------------------------------------------------------------------------


 INCAR:
 POTCAR:    PAW_PBE Hf_sv 10Jan2008 GW suitable   
 POTCAR:    PAW_PBE C 08Apr2002                   
 POTCAR:    PAW_PBE O 08Apr2002                   

 ----------------------------------------------------------------------------- 
|                                                                             |
|           W    W    AA    RRRRR   N    N  II  N    N   GGGG   !!!           |
|           W    W   A  A   R    R  NN   N  II  NN   N  G    G  !!!           |
|           W    W  A    A  R    R  N N  N  II  N N  N  G       !!!           |
|           W WW W  AAAAAA  RRRRR   N  N N  II  N  N N  G  GGG   !            |
|           WW  WW  A    A  R   R   N   NN  II  N   NN  G    G                |
|           W    W  A    A  R    R  N    N  II  N    N   GGGG   !!!           |
|                                                                             |
|      For optimal performance we recommend to set                            |
|        NCORE= 4 - approx SQRT( number of cores)                             |
|      NCORE specifies how many cores store one orbital (NPAR=cpu/NCORE).     |
|      This setting can  greatly improve the performance of VASP for DFT.     |
|      The default,   NCORE=1            might be grossly inefficient         |
|      on modern multi-core architectures or massively parallel machines.     |
|      Do your own testing !!!!                                               |
|      Unfortunately you need to use the default for GW and RPA calculations. |
|      (for HF NCORE is supported but not extensively tested yet)             |
|                                                                             |
 ----------------------------------------------------------------------------- 

 POTCAR:    PAW_PBE Hf_sv 10Jan2008 GW suitable   
  local pseudopotential read in
  partial core-charges read in
  partial kinetic energy density read in
  atomic valenz-charges read in
  non local Contribution for L=           0  read in
    real space projection operators read in
  non local Contribution for L=           0  read in
    real space projection operators read in
  non local Contribution for L=           1  read in
    real space projection operators read in
  non local Contribution for L=           1  read in
    real space projection operators read in
  non local Contribution for L=           2  read in
    real space projection operators read in
  non local Contribution for L=           2  read in
    real space projection operators read in
    PAW grid and wavefunctions read in
 
   number of l-projection  operators is LMAX  =           6
   number of lm-projection operators is LMMAX =          18
 
 POTCAR:    PAW_PBE C 08Apr2002                   
  local pseudopotential read in
  partial core-charges read in
  partial kinetic energy density read in
  atomic valenz-charges read in
  non local Contribution for L=           0  read in
    real space projection operators read in
  non local Contribution for L=           0  read in
    real space projection operators read in
  non local Contribution for L=           1  read in
    real space projection operators read in
  non local Contribution for L=           1  read in
    real space projection operators read in
    PAW grid and wavefunctions read in
 
   number of l-projection  operators is LMAX  =           4
   number of lm-projection operators is LMMAX =           8
 
 POTCAR:    PAW_PBE O 08Apr2002                   
  local pseudopotential read in
  partial core-charges read in
  partial kinetic energy density read in
  kinetic energy density of atom read in
  atomic valenz-charges read in
  non local Contribution for L=           0  read in
    real space projection operators read in
  non local Contribution for L=           0  read in
    real space projection operators read in
  non local Contribution for L=           1  read in
    real space projection operators read in
  non local Contribution for L=           1  read in
    real space projection operators read in
    PAW grid and wavefunctions read in
 
   number of l-projection  operators is LMAX  =           4
   number of lm-projection operators is LMMAX =           8
 
 Optimization of the real space projectors (new method)

 maximal supplied QI-value         = 15.68
 optimisation between [QCUT,QGAM] = [ 11.61, 23.21] = [ 37.72,150.90] Ry 
 Optimized for a Real-space Cutoff    1.36 Angstroem

   l    n(q)    QCUT    max X(q) W(low)/X(q) W(high)/X(q)  e(spline) 
   0      9    11.607     5.470    0.13E-04    0.45E-05    0.57E-08
   0      9    11.607     5.281    0.11E-03    0.46E-04    0.81E-07
   1      9    11.607     3.359    0.52E-04    0.11E-03    0.11E-06
   1      9    11.607     5.307    0.35E-03    0.51E-03    0.48E-06
   2      8    11.607     9.057    0.26E-03    0.45E-04    0.27E-06
   2      8    11.607     6.147    0.23E-03    0.33E-04    0.24E-06
 Optimization of the real space projectors (new method)

 maximal supplied QI-value         = 25.13
 optimisation between [QCUT,QGAM] = [ 11.56, 23.12] = [ 37.43,149.72] Ry 
 Optimized for a Real-space Cutoff    1.04 Angstroem

   l    n(q)    QCUT    max X(q) W(low)/X(q) W(high)/X(q)  e(spline) 
   0      7    11.561   115.676    0.20E-03    0.60E-03    0.21E-06
   0      7    11.561    87.132    0.20E-03    0.59E-03    0.21E-06
   1      7    11.561     4.429    0.23E-03    0.35E-03    0.15E-06
   1      7    11.561     2.733    0.18E-03    0.25E-03    0.12E-06
 Optimization of the real space projectors (new method)

 maximal supplied QI-value         = 24.76
 optimisation between [QCUT,QGAM] = [ 11.64, 23.27] = [ 37.91,151.63] Ry 
 Optimized for a Real-space Cutoff    1.04 Angstroem

   l    n(q)    QCUT    max X(q) W(low)/X(q) W(high)/X(q)  e(spline) 
   0      7    11.635    20.381    0.14E-03    0.49E-03    0.18E-06
   0      7    11.635    15.268    0.16E-03    0.52E-03    0.19E-06
   1      7    11.635     5.964    0.30E-03    0.44E-03    0.22E-06
   1      7    11.635     5.382    0.27E-03    0.34E-03    0.19E-06
  PAW_PBE Hf_sv 10Jan2008 GW suitable   :
 energy of atom  1       EATOM=-1349.7602
 kinetic energy error for atom=    0.0057 (will be added to EATOM!!)
  PAW_PBE C 08Apr2002                   :
 energy of atom  2       EATOM= -147.1560
 kinetic energy error for atom=    0.0071 (will be added to EATOM!!)
  PAW_PBE O 08Apr2002                   :
 energy of atom  3       EATOM= -432.3788
 kinetic energy error for atom=    0.0208 (will be added to EATOM!!)
 
 
 POSCAR: 00                                      
  positions in direct lattice
  No initial velocities read in
 exchange correlation table for  LEXCH =        8
   RHO(1)=    0.500       N(1)  =     2000
   RHO(2)=  100.500       N(2)  =     4000

 VTST: version 3.2, (02/03/18)

 CHAIN: initializing optimizer
 
 OPT: Using Quick-Min optimizer
 OPT: QM, Init
 OPT: QM, MAXMOVE       0.200000
 OPT: QM, TIMESTEP      0.010000
 
 CHAIN: Read ICHAIN            0
 CHAIN: Running the NEB
 NEB:          SPRING     -5.000000
 NEB:          LCLIMB      F
 NEB:     LTANGENTOLD      F
 NEB:           LDNEB      F
 NEB:        LDNEBORG      F
 NEB:        LNEBCELL      F
 NEB:          EFIRST      0.000000
 NEB:           ELAST      0.000000
 
 POSCAR: Hf   C    O                             
  positions in direct lattice
  No initial velocities read in
 
 POSCAR: Hf   C    O                             
  positions in direct lattice
  No initial velocities read in
 


--------------------------------------------------------------------------------------------------------


 ion  position               nearest neighbor table
   1  0.001  0.999  0.313-  38 2.22  35 2.31  52 2.31  36 2.33  43 2.33  23 3.23   8 3.23  10 3.24
                             7 3.24  16 3.25  18 3.27  26 3.28   2 3.28
   2  0.251  0.249  0.313-  37 2.22  35 2.31  44 2.31  36 2.33  51 2.33  15 3.23   8 3.23   7 3.24
                            17 3.24  24 3.25   9 3.27  25 3.28   1 3.28
   3  0.000  0.250  0.000-  40 2.32  34 2.32  33 2.32  41 2.32  50 2.32   6 3.29  14 3.29  21 3.29
                             5 3.29  20 3.29  12 3.29  28 3.29   4 3.29
   4  0.250  0.000  0.000-  39 2.32  34 2.32  33 2.32  42 2.32  49 2.32   6 3.29  13 3.29  22 3.29
                             5 3.29  19 3.29  11 3.29  27 3.29   3 3.29
   5  0.000  0.000  0.106-  38 2.32  34 2.32  39 2.32  40 2.32  47 2.32  56 2.32   8 3.26  16 3.26
                             7 3.26  23 3.26  19 3.29   4 3.29  12 3.29   3 3.29   6 3.29  30 3.29
   6  0.250  0.250  0.106-  37 2.32  33 2.32  39 2.32  40 2.32  48 2.32  55 2.32   8 3.25  24 3.26
                             7 3.26  15 3.26  20 3.29   4 3.29  11 3.29   3 3.29   5 3.29  29 3.29
   7  0.000  0.250  0.210-  40 2.29  45 2.32  54 2.32  37 2.32  38 2.33  36 2.34  10 3.23  17 3.23
                             2 3.24   1 3.24   6 3.26   5 3.26  21 3.26  14 3.27   8 3.28  24 3.30
   8  0.250  0.000  0.210-  39 2.28  37 2.32  38 2.32  46 2.33  53 2.33  35 2.35   9 3.23  18 3.23
                             1 3.23   2 3.23   6 3.25   5 3.26  13 3.26  22 3.26   7 3.28  15 3.28
   9  0.499  1.000  0.312-  46 2.23  60 2.26  35 2.32  44 2.33  43 2.34  31 3.23   8 3.23  15 3.23
                            16 3.25  10 3.25   2 3.27  18 3.27  26 3.28
  10  0.751  0.242  0.312-  45 2.20  43 2.26  36 2.32  44 2.34  59 2.46  16 3.19   7 3.23  15 3.24
                             1 3.24   9 3.25  32 3.28  25 3.36  17 3.38
  11  0.500  0.250  0.000-  48 2.32  41 2.32  42 2.32  33 2.32  58 2.32  13 3.29  14 3.29  29 3.29
                             6 3.29  20 3.29  28 3.29   4 3.29  12 3.29
  12  0.750  0.000  0.000-  47 2.32  41 2.32  42 2.32  34 2.32  57 2.32  13 3.29  14 3.29  30 3.29
                             5 3.29  19 3.29  27 3.29   3 3.29  11 3.29
  13  0.500  0.000  0.106-  46 2.31  42 2.32  39 2.32  47 2.32  48 2.32  64 2.32   8 3.26  16 3.26
                            15 3.26  31 3.27  27 3.29  12 3.29   4 3.29  11 3.29  30 3.29  14 3.29
  14  0.750  0.250  0.106-  41 2.32  40 2.32  47 2.32  48 2.32  63 2.32  45 2.34  15 3.26   7 3.27
                            16 3.27  11 3.29  28 3.29  12 3.29   3 3.29   5 3.29  29 3.29  13 3.29
  15  0.500  0.250  0.210-  48 2.29  46 2.32  37 2.32  62 2.32  45 2.33  44 2.34   2 3.23   9 3.23
                            10 3.24  14 3.26  13 3.26  29 3.26   6 3.26  25 3.27  24 3.28   8 3.28
  16  0.750  0.999  0.210-  47 2.28  61 2.31  46 2.32  38 2.32  45 2.34  43 2.36  10 3.19   9 3.25
                            30 3.25   1 3.25  26 3.25   5 3.26  13 3.26  14 3.27  31 3.28  23 3.28
  17  0.008  0.499  0.312-  54 2.20  51 2.26  36 2.32  52 2.34  59 2.45  24 3.19   7 3.23  23 3.24
                             2 3.24  18 3.25  32 3.28  26 3.36  10 3.38
  18  0.250  0.751  0.312-  53 2.23  60 2.26  35 2.32  52 2.33  51 2.34  31 3.23  23 3.23   8 3.23
                            24 3.25  17 3.25   1 3.27   9 3.27  25 3.28
  19  0.000  0.750  0.000-  56 2.32  49 2.32  50 2.32  34 2.32  57 2.32  21 3.29  22 3.29  30 3.29
                             5 3.29  12 3.29  28 3.29  20 3.29   4 3.29
  20  0.250  0.500  0.000-  55 2.32  49 2.32  50 2.32  33 2.32  58 2.32  21 3.29  22 3.29  29 3.29
                             6 3.29  11 3.29  27 3.29  19 3.29   3 3.29
  21  0.000  0.500  0.106-  50 2.32  40 2.32  55 2.32  56 2.32  63 2.32  54 2.34  23 3.26   7 3.26
                            24 3.27  19 3.29  28 3.29  20 3.29   3 3.29  22 3.29  30 3.29   6 3.29
  22  0.250  0.750  0.106-  53 2.31  49 2.32  39 2.32  55 2.32  56 2.32  64 2.32  24 3.26   8 3.26
                            23 3.26  31 3.27  27 3.29  20 3.29   4 3.29  19 3.29  29 3.29   5 3.29
  23  0.000  0.750  0.210-  56 2.29  53 2.32  38 2.32  61 2.32  54 2.33  52 2.34   1 3.23  18 3.23
                            17 3.24  22 3.26   5 3.26  21 3.26  30 3.27  26 3.27  16 3.28   8 3.29
  24  0.252  0.500  0.210-  55 2.28  62 2.31  53 2.32  37 2.32  54 2.34  51 2.36  17 3.19  18 3.25
                            29 3.25   2 3.25  25 3.25   6 3.26  22 3.26  21 3.27  31 3.28  15 3.28
  25  0.499  0.500  0.314-  62 2.27  51 2.30  44 2.32  60 2.38  59 2.43  65 2.50  32 3.25  24 3.25
                            31 3.26  15 3.27   2 3.28  18 3.28  26 3.31  10 3.36
  26  0.750  0.751  0.315-  61 2.27  43 2.30  52 2.32  60 2.39  59 2.42  65 2.49  32 3.25  16 3.25
                            31 3.26  23 3.27   1 3.28   9 3.28  25 3.31  17 3.36
  27  0.500  0.750  0.000-  64 2.32  49 2.32  57 2.32  58 2.32  42 2.32  22 3.29  29 3.29  30 3.29
                            13 3.29  28 3.29   4 3.29  20 3.29  12 3.29
  28  0.750  0.500  0.000-  63 2.32  50 2.32  57 2.32  58 2.32  41 2.32  21 3.29  29 3.29  30 3.29
                            14 3.29  27 3.29   3 3.29  19 3.29  11 3.29
  29  0.500  0.500  0.106-  62 2.31  58 2.32  48 2.32  55 2.32  63 2.32  64 2.32  24 3.25  15 3.26
                            31 3.27  32 3.27  20 3.29  11 3.29  27 3.29  28 3.29   6 3.29  14 3.29
  30  0.750  0.750  0.106-  61 2.32  57 2.32  47 2.32  56 2.32  63 2.32  64 2.32  16 3.25  23 3.27
                            31 3.27  32 3.27  19 3.29  12 3.29  27 3.29  28 3.29   5 3.29  13 3.29
  31  0.501  0.750  0.210-  60 2.28  64 2.30  62 2.32  61 2.32  46 2.33  53 2.33   9 3.23  18 3.23
                            25 3.26  26 3.26  32 3.26  30 3.27  29 3.27  13 3.27  22 3.27  16 3.28
  32  0.748  0.502  0.211-  62 2.31  61 2.31  63 2.32  54 2.34  45 2.34  59 2.84  25 3.25  26 3.25
                            31 3.26  30 3.27  29 3.27  17 3.28  10 3.28  15 3.29  23 3.29  21 3.29
  33  0.250  0.250  0.000-   6 2.32   4 2.32   3 2.32  11 2.32  20 2.32
  34  0.000  0.000  0.000-   5 2.32   4 2.32   3 2.32  12 2.32  19 2.32
  35  0.250  0.001  0.316-   1 2.31   2 2.31   9 2.32  18 2.32   8 2.35
  36  0.001  0.250  0.317-  10 2.32  17 2.32   2 2.33   1 2.33   7 2.34
  37  0.251  0.250  0.211-   2 2.22  15 2.32   6 2.32   8 2.32  24 2.32   7 2.32
  38  0.000  1.000  0.211-   1 2.22  23 2.32   5 2.32   8 2.32  16 2.32   7 2.33
  39  0.250  0.000  0.106-   8 2.28   4 2.32   6 2.32   5 2.32  13 2.32  22 2.32
  40  0.000  0.250  0.106-   7 2.29   3 2.32   6 2.32   5 2.32  14 2.32  21 2.32
  41  0.750  0.250  0.000-  14 2.32  11 2.32  12 2.32   3 2.32  28 2.32
  42  0.500  0.000  0.000-  13 2.32  11 2.32  12 2.32   4 2.32  27 2.32
  43  0.751  0.999  0.317-  10 2.26  26 2.30   1 2.33   9 2.34  16 2.36
  44  0.499  0.251  0.317-   2 2.31  25 2.32   9 2.33  10 2.34  15 2.34
  45  0.750  0.250  0.212-  10 2.20   7 2.32  15 2.33  14 2.34  32 2.34  16 2.34
  46  0.500  0.000  0.211-   9 2.23  13 2.31  15 2.32  16 2.32   8 2.33  31 2.33
  47  0.750  0.000  0.106-  16 2.28  12 2.32  13 2.32  14 2.32   5 2.32  30 2.32
  48  0.500  0.250  0.106-  15 2.29  11 2.32  13 2.32  14 2.32   6 2.32  29 2.32
  49  0.250  0.750  0.000-  22 2.32  19 2.32  20 2.32   4 2.32  27 2.32
  50  0.000  0.500  0.000-  21 2.32  19 2.32  20 2.32   3 2.32  28 2.32
  51  0.252  0.500  0.317-  17 2.26  25 2.30   2 2.33  18 2.34  24 2.36
  52  0.999  0.751  0.317-   1 2.31  26 2.32  18 2.33  17 2.34  23 2.34
  53  0.250  0.750  0.211-  18 2.23  22 2.31  23 2.32  24 2.32   8 2.33  31 2.33
  54  1.000  0.500  0.212-  17 2.20   7 2.32  23 2.33  21 2.34  32 2.34  24 2.34
  55  0.250  0.500  0.106-  24 2.28  20 2.32  21 2.32  22 2.32   6 2.32  29 2.32
  56  0.000  0.750  0.106-  23 2.29  19 2.32  21 2.32  22 2.32   5 2.32  30 2.32
  57  0.750  0.750  0.000-  30 2.32  19 2.32  27 2.32  28 2.32  12 2.32
  58  0.500  0.500  0.000-  29 2.32  20 2.32  27 2.32  28 2.32  11 2.32
  59  0.753  0.498  0.340-  65 1.43  26 2.42  25 2.43  17 2.45  10 2.46  32 2.84
  60  0.494  0.756  0.314-  18 2.26   9 2.26  31 2.28  25 2.38  26 2.39
  61  0.751  0.750  0.211-  26 2.27  16 2.31  32 2.31  30 2.32  23 2.32  31 2.32
  62  0.500  0.500  0.211-  25 2.27  24 2.31  32 2.31  29 2.31  15 2.32  31 2.32
  63  0.750  0.500  0.106-  32 2.32  28 2.32  14 2.32  29 2.32  30 2.32  21 2.32
  64  0.500  0.750  0.106-  31 2.30  27 2.32  13 2.32  29 2.32  30 2.32  22 2.32
  65  0.685  0.566  0.391-  59 1.43  26 2.49  25 2.50
 

IMPORTANT INFORMATION: All symmetrisations will be switched off!
NOSYMM: (Re-)initialisation of all symmetry stuff for point group C_1.

 
 
 KPOINTS: Automatic mesh                          

Automatic generation of k-mesh.
Space group operators:
 irot       det(A)        alpha          n_x          n_y          n_z        tau_x        tau_y        tau_z
    1     1.000000     0.000000     1.000000     0.000000     0.000000     0.000000     0.000000     0.000000
 
 Subroutine IBZKPT returns following result:
 ===========================================
 
 Found      5 irreducible k-points:
 
 Following reciprocal coordinates:
            Coordinates               Weight
  0.000000  0.000000  0.000000      1.000000
  0.333333  0.000000  0.000000      2.000000
  0.000000  0.333333  0.000000      2.000000
  0.333333  0.333333  0.000000      2.000000
 -0.333333  0.333333  0.000000      2.000000
 
 Following cartesian coordinates:
            Coordinates               Weight
  0.000000  0.000000  0.000000      1.000000
  0.035862  0.000000  0.000000      2.000000
  0.000000  0.035862  0.000000      2.000000
  0.035862  0.035862  0.000000      2.000000
 -0.035862  0.035862  0.000000      2.000000
 


--------------------------------------------------------------------------------------------------------




 Dimension of arrays:
   k-points           NKPTS =      5   k-points in BZ     NKDIM =      5   number of bands    NBANDS=    320
   number of dos      NEDOS =    301   number of ions     NIONS =     65
   non local maximal  LDIM  =      6   non local SUM 2l+1 LMDIM =     18
   total plane-waves  NPLWV = 367416
   max r-space proj   IRMAX =   2102   max aug-charges    IRDMAX=   7505
   dimension x,y,z NGX =    54 NGY =   54 NGZ =  126
   dimension x,y,z NGXF=   108 NGYF=  108 NGZF=  252
   support grid    NGXF=   108 NGYF=  108 NGZF=  252
   ions per type =              32  32   1
   NGX,Y,Z   is equivalent  to a cutoff of   9.66,  9.66,  9.53 a.u.
   NGXF,Y,Z  is equivalent  to a cutoff of  19.32, 19.32, 19.07 a.u.

 SYSTEM =  PBE-grap                                
 POSCAR =  00                                      

 Startparameter for this run:
   NWRITE =      0    write-flag & timer
   PREC   = normal    normal or accurate (medium, high low for compatibility)
   ISTART =      0    job   : 0-new  1-cont  2-samecut
   ICHARG =      2    charge: 1-file 2-atom 10-const
   ISPIN  =      1    spin polarized calculation?
   LNONCOLLINEAR =      F non collinear calculations
   LSORBIT =      F    spin-orbit coupling
   INIWAV =      1    electr: 0-lowe 1-rand  2-diag
   LASPH  =      F    aspherical Exc in radial PAW
   METAGGA=      F    non-selfconsistent MetaGGA calc.

 Electronic Relaxation 1
   ENCUT  =  520.0 eV  38.22 Ry    6.18 a.u.  17.28 17.28 40.85*2*pi/ulx,y,z
   ENINI  =  520.0     initial cutoff
   ENAUG  =  644.9 eV  augmentation charge cutoff
   NELM   =    150;   NELMIN=  4; NELMDL= -5     # of ELM steps 
   EDIFF  = 0.1E-04   stopping-criterion for ELM
   LREAL  =      T    real-space projection
   NLSPLINE    = F    spline interpolate recip. space projectors
   LCOMPAT=      F    compatible to vasp.4.4
   GGA_COMPAT  = T    GGA compatible to vasp.4.4-vasp.4.6
   LMAXPAW     = -100 max onsite density
   LMAXMIX     =    2 max onsite mixed and CHGCAR
   VOSKOWN=      0    Vosko Wilk Nusair interpolation
   ROPT   =   -0.00050  -0.00050  -0.00050
 Ionic relaxation
   EDIFFG = -.1E-01   stopping-criterion for IOM
   NSW    =     50    number of steps for IOM
   NBLOCK =      1;   KBLOCK =     50    inner block; outer block 
   IBRION =      3    ionic relax: 0-MD 1-quasi-New 2-CG
   NFREE  =      0    steps in history (QN), initial steepest desc. (CG)
   ISIF   =      2    stress and relaxation
   IWAVPR =     11    prediction:  0-non 1-charg 2-wave 3-comb
   ISYM   =      0    0-nonsym 1-usesym 2-fastsym
   LCORR  =      T    Harris-Foulkes like correction to forces

   POTIM  = 0.0000    time-step for ionic-motion
   TEIN   =    0.0    initial temperature
   TEBEG  =    0.0;   TEEND  =   0.0 temperature during run
   SMASS  =  -3.00    Nose mass-parameter (am)
   estimated Nose-frequenzy (Omega)   =  0.10E-29 period in steps =  0.00 mass=  -0.197E-26a.u.
   SCALEE = 1.0000    scale energy and forces
   NPACO  =    256;   APACO  = 16.0  distance and # of slots for P.C.
   PSTRESS=    0.0 pullay stress

  Mass of Ions in am
   POMASS = 178.49 12.01 16.00
  Ionic Valenz
   ZVAL   =  12.00  4.00  6.00
  Atomic Wigner-Seitz radii
   RWIGS  =  -1.00 -1.00 -1.00
  virtual crystal weights 
   VCA    =   1.00  1.00  1.00
   NELECT =     518.0000    total number of electrons
   NUPDOWN=      -1.0000    fix difference up-down

 DOS related values:
   EMIN   =  10.00;   EMAX   =-10.00  energy-range for DOS
   EFERMI =   0.00
   ISMEAR =     0;   SIGMA  =   0.05  broadening in eV -4-tet -1-fermi 0-gaus

 Electronic relaxation 2 (details)
   IALGO  =     38    algorithm
   LDIAG  =      T    sub-space diagonalisation (order eigenvalues)
   LSUBROT=      F    optimize rotation matrix (better conditioning)
   TURBO    =      0    0=normal 1=particle mesh
   IRESTART =      0    0=no restart 2=restart with 2 vectors
   NREBOOT  =      0    no. of reboots
   NMIN     =      0    reboot dimension
   EREF     =   0.00    reference energy to select bands
   IMIX   =      4    mixing-type and parameters
     AMIX     =   0.40;   BMIX     =  1.00
     AMIX_MAG =   1.60;   BMIX_MAG =  1.00
     AMIN     =   0.10
     WC   =   100.;   INIMIX=   1;  MIXPRE=   1;  MAXMIX= -45

 Intra band minimization:
   WEIMIN = 0.0010     energy-eigenvalue tresh-hold
   EBREAK =  0.78E-08  absolut break condition
   DEPER  =   0.30     relativ break condition  

   TIME   =   0.40     timestep for ELM

  volume/ion in A,a.u.               =      29.20       197.07
  Fermi-wavevector in a.u.,A,eV,Ry     =   1.061877  2.006656 15.341689  1.127582
  Thomas-Fermi vector in A             =   2.197308
 
 Write flags
   LWAVE        =      F    write WAVECAR
   LDOWNSAMPLE  =      F    k-point downsampling of WAVECAR
   LCHARG       =      F    write CHGCAR
   LVTOT        =      F    write LOCPOT, total local potential
   LVHAR        =      F    write LOCPOT, Hartree potential only
   LELF         =      F    write electronic localiz. function (ELF)
   LORBIT       =      0    0 simple, 1 ext, 2 COOP (PROOUT), +10 PAW based schemes


 Dipole corrections
   LMONO  =      F    monopole corrections only (constant potential shift)
   LDIPOL =      F    correct potential (dipole corrections)
   IDIPOL =      0    1-x, 2-y, 3-z, 4-all directions 
   EPSILON=  1.0000000 bulk dielectric constant

 Exchange correlation treatment:
   GGA     =    PE    GGA type
   LEXCH   =     8    internal setting for exchange type
   VOSKOWN=      0    Vosko Wilk Nusair interpolation
   LHFCALC =     F    Hartree Fock is set to
   LHFONE  =     F    Hartree Fock one center treatment
   AEXX    =    0.0000 exact exchange contribution

 Linear response parameters
   LEPSILON=     F    determine dielectric tensor
   LRPA    =     F    only Hartree local field effects (RPA)
   LNABLA  =     F    use nabla operator in PAW spheres
   LVEL    =     F    velocity operator in full k-point grid
   LINTERFAST=   F  fast interpolation
   KINTER  =     0    interpolate to denser k-point grid
   CSHIFT  =0.1000    complex shift for real part using Kramers Kronig
   OMEGAMAX=  -1.0    maximum frequency
   DEG_THRESHOLD= 0.2000000E-02 threshold for treating states as degnerate
   RTIME   =   -0.100 relaxation time in fs
  (WPLASMAI=    0.000 imaginary part of plasma frequency in eV, 0.658/RTIME)
   DFIELD  = 0.0000000 0.0000000 0.0000000 field for delta impulse in time
 
 Orbital magnetization related:
   ORBITALMAG=     F  switch on orbital magnetization
   LCHIMAG   =     F  perturbation theory with respect to B field
   DQ        =  0.001000  dq finite difference perturbation B field
   LLRAUG    =     F  two centre corrections for induced B field



--------------------------------------------------------------------------------------------------------


 quickmin algorithm: (dynamic with friction)
   using selective dynamics as specified on POSCAR
 charge density and potential will be updated during run
 non-spin polarized calculation
 Variant of blocked Davidson
 Davidson routine will perform the subspace rotation
 perform sub-space diagonalisation
    after iterative eigenvector-optimisation
 modified Broyden-mixing scheme, WC =      100.0
 initial mixing is a Kerker type mixing with AMIX =  0.4000 and BMIX =      1.0000
 Hartree-type preconditioning will be used
 using additional bands           61
 real space projection scheme for non local part
 use partial core corrections
 calculate Harris-corrections to forces 
   (improved forces if not selfconsistent)
 use gradient corrections 
 use of overlap-Matrix (Vanderbilt PP)
 Gauss-broadening in eV      SIGMA  =   0.05


--------------------------------------------------------------------------------------------------------


  energy-cutoff  :      520.00
  volume of cell :     1898.16
      direct lattice vectors                 reciprocal lattice vectors
     9.294799805  0.000000000  0.000000000     0.107587040  0.000000000  0.000000000
     0.000000000  9.294799805  0.000000000     0.000000000  0.107587040  0.000000000
     0.000000000  0.000000000 21.971099854     0.000000000  0.000000000  0.045514335

  length of vectors
     9.294799805  9.294799805 21.971099854     0.107587040  0.107587040  0.045514335


 
 k-points in units of 2pi/SCALE and weight: Automatic mesh                          
   0.00000000  0.00000000  0.00000000       0.111
   0.03586235  0.00000000  0.00000000       0.222
   0.00000000  0.03586235  0.00000000       0.222
   0.03586235  0.03586235  0.00000000       0.222
  -0.03586235  0.03586235  0.00000000       0.222
 
 k-points in reciprocal lattice and weights: Automatic mesh                          
   0.00000000  0.00000000  0.00000000       0.111
   0.33333333  0.00000000  0.00000000       0.222
   0.00000000  0.33333333  0.00000000       0.222
   0.33333333  0.33333333  0.00000000       0.222
  -0.33333333  0.33333333  0.00000000       0.222
 
 position of ions in fractional coordinates (direct lattice) 
   0.00136000  0.99913000  0.31262000
   0.25099000  0.24891000  0.31260000
   0.00000000  0.25000000  0.00000000
   0.25000000  0.00000000  0.00000000
   0.00000000  0.00000000  0.10576000
   0.25000000  0.25000000  0.10576000
   0.00048000  0.24969000  0.21001000
   0.24992000  0.00029000  0.20961000
   0.49883000  0.99980000  0.31222000
   0.75100000  0.24176000  0.31226000
   0.50000000  0.25000000  0.00000000
   0.75000000  0.00000000  0.00000000
   0.50000000  0.00000000  0.10576000
   0.75000000  0.25000000  0.10576000
   0.50015000  0.24987000  0.21005000
   0.75009000  0.99866000  0.20967000
   0.00826000  0.49921000  0.31225000
   0.25031000  0.75123000  0.31222000
   0.00000000  0.75000000  0.00000000
   0.25000000  0.50000000  0.00000000
   0.00000000  0.50000000  0.10576000
   0.25000000  0.75000000  0.10576000
   0.00030000  0.75007000  0.21006000
   0.25154000  0.50000000  0.20965000
   0.49852000  0.50005000  0.31445000
   0.75012000  0.75147000  0.31453000
   0.50000000  0.75000000  0.00000000
   0.75000000  0.50000000  0.00000000
   0.50000000  0.50000000  0.10576000
   0.75000000  0.75000000  0.10576000
   0.50056000  0.74959000  0.21046000
   0.74850000  0.50165000  0.21118000
   0.25000000  0.25000000  0.00000000
   0.00000000  0.00000000  0.00000000
   0.24954000  0.00059000  0.31645000
   0.00062000  0.24952000  0.31653000
   0.25059000  0.24994000  0.21136000
   0.00017000  0.99955000  0.21137000
   0.25000000  0.00000000  0.10576000
   0.00000000  0.25000000  0.10576000
   0.75000000  0.25000000  0.00000000
   0.50000000  0.00000000  0.00000000
   0.75052000  0.99862000  0.31701000
   0.49948000  0.25078000  0.31665000
   0.75042000  0.25019000  0.21206000
   0.50013000  0.00038000  0.21091000
   0.75000000  0.00000000  0.10576000
   0.50000000  0.25000000  0.10576000
   0.25000000  0.75000000  0.00000000
   0.00000000  0.50000000  0.00000000
   0.25151000  0.49967000  0.31697000
   0.99940000  0.75067000  0.31666000
   0.24969000  0.74999000  0.21093000
   0.99995000  0.49977000  0.21206000
   0.25000000  0.50000000  0.10576000
   0.00000000  0.75000000  0.10576000
   0.75000000  0.75000000  0.00000000
   0.50000000  0.50000000  0.00000000
   0.75285000  0.49789000  0.34046000
   0.49354000  0.75647000  0.31398000
   0.75058000  0.75039000  0.21117000
   0.49977000  0.49959000  0.21109000
   0.75000000  0.50000000  0.10576000
   0.50000000  0.75000000  0.10576000
   0.68497000  0.56579000  0.39143000
 
 position of ions in cartesian coordinates  (Angst):
   0.01264093  9.28671333  6.86860524
   2.33290180  2.31356862  6.86816581
   0.00000000  2.32369995  0.00000000
   2.32369995  0.00000000  0.00000000
   0.00000000  0.00000000  2.32366352
   2.32369995  2.32369995  2.32366352
   0.00446150  2.32081856  4.61415068
   2.32295637  0.00269549  4.60536224
   4.63652499  9.29294084  6.85981680
   6.98039465  2.24711080  6.86069564
   4.64739990  2.32369995  0.00000000
   6.97109985  0.00000000  0.00000000
   4.64739990  0.00000000  2.32366352
   6.97109985  2.32369995  2.32366352
   4.64879412  2.32249163  4.61502952
   6.97193639  9.28234477  4.60668051
   0.07677505  4.64005701  6.86047593
   2.32658134  6.98253246  6.85981680
   0.00000000  6.97109985  0.00000000
   2.32369995  4.64739990  0.00000000
   0.00000000  4.64739990  2.32366352
   2.32369995  6.97109985  2.32366352
   0.00278844  6.97175049  4.61524924
   2.33801394  4.64739990  4.60624108
   4.63364360  4.64786464  6.90881235
   6.97221523  6.98476321  6.91057004
   4.64739990  6.97109985  0.00000000
   6.97109985  4.64739990  0.00000000
   4.64739990  4.64739990  2.32366352
   6.97109985  6.97109985  2.32366352
   4.65260499  6.96728899  4.62403768
   6.95715765  4.66273632  4.63985687
   2.32369995  2.32369995  0.00000000
   0.00000000  0.00000000  0.00000000
   2.31942434  0.00548393  6.95275455
   0.00576278  2.31923845  6.95451224
   2.32918388  2.32314226  4.64381167
   0.00158012  9.29061714  4.64403138
   2.32369995  0.00000000  2.32366352
   0.00000000  2.32369995  2.32366352
   6.97109985  2.32369995  0.00000000
   4.64739990  0.00000000  0.00000000
   6.97593315  9.28197298  6.96505836
   4.64256661  2.33094990  6.95714877
   6.97500367  2.32546596  4.65919143
   4.64860823  0.00353202  4.63392467
   6.97109985  0.00000000  2.32366352
   4.64739990  2.32369995  2.32366352
   2.32369995  6.97109985  0.00000000
   0.00000000  4.64739990  0.00000000
   2.33773510  4.64433262  6.96417952
   9.28922292  6.97732737  6.95736848
   2.32081856  6.97100691  4.63436409
   9.29433506  4.64526210  4.65919143
   2.32369995  4.64739990  2.32366352
   0.00000000  6.97109985  2.32366352
   6.97109985  6.97109985  0.00000000
   4.64739990  4.64739990  0.00000000
   6.99759003  4.62778787  7.48028066
   4.58735550  7.03123721  6.89848593
   6.97649084  6.97472483  4.63963716
   4.64526210  4.64358903  4.63787947
   6.97109985  4.64739990  2.32366352
   4.64739990  6.97109985  2.32366352
   6.36665902  5.25890478  8.60014762
 


--------------------------------------------------------------------------------------------------------


 k-point  1 :   0.0000 0.0000 0.0000  plane waves:   51165
 k-point  2 :   0.3333 0.0000 0.0000  plane waves:   51094
 k-point  3 :   0.0000 0.3333 0.0000  plane waves:   51094
 k-point  4 :   0.3333 0.3333 0.0000  plane waves:   51048
 k-point  5 :  -0.3333 0.3333 0.0000  plane waves:   51048

 maximum and minimum number of plane-waves per node :     51165    51048

 maximum number of plane-waves:     51165
 maximum index in each direction: 
   IXMAX=   17   IYMAX=   17   IZMAX=   40
   IXMIN=  -17   IYMIN=  -17   IZMIN=  -40


 serial   3D FFT for wavefunctions
 parallel 3D FFT for charge:
    minimum data exchange during FFTs selected (reduces bandwidth)


 total amount of memory used by VASP MPI-rank0   163582. kBytes
=======================================================================

   base      :      30000. kBytes
   nonlr-proj:      14444. kBytes
   fftplans  :       7895. kBytes
   grid      :      27008. kBytes
   one-center:       1010. kBytes
   wavefun   :      83225. kBytes
 
     INWAV:  cpu time    0.0002: real time    0.0002
 Broyden mixing: mesh for mixing (old mesh)
   NGX = 35   NGY = 35   NGZ = 81
  (NGX  =108   NGY  =108   NGZ  =252)
  gives a total of  99225 points

 initial charge density was supplied:
 charge density of overlapping atoms calculated
 number of electron     518.0000000 magnetization 
 keeping initial charge density in first step


--------------------------------------------------------------------------------------------------------


 Maximum index for non-local projection operator         2005
 Maximum index for augmentation-charges          474 (set IRDMAX)


--------------------------------------------------------------------------------------------------------


 First call to EWALD:  gamma=   0.143
 Maximum number of real-space cells 3x 3x 2
 Maximum number of reciprocal cells 2x 2x 4

    FEWALD:  cpu time    0.0132: real time    0.0133


--------------------------------------- Iteration      1(   1)  ---------------------------------------


    POTLOK:  cpu time    0.5339: real time    1.3438
    SETDIJ:  cpu time    0.0547: real time    0.0547
     EDDAV:  cpu time   30.6734: real time   30.8121
       DOS:  cpu time    0.0112: real time    0.0112
    --------------------------------------------
      LOOP:  cpu time   31.2734: real time   32.2220

 eigenvalue-minimisations  :  3776
 total energy-change (2. order) : 0.4795519E+04  (-0.2937030E+05)
 number of electron     518.0000000 magnetization 
 augmentation part      518.0000000 magnetization 

 Free energy of the ion-electron system (eV)
  ---------------------------------------------------
  alpha Z        PSCENC =      1649.05367391
  Ewald energy   TEWEN  =    135573.99479042
  -Hartree energ DENC   =   -177296.79813264
  -exchange      EXHF   =         0.00000000
  -V(xc)+E(xc)   XCENC  =      1407.43088941
  PAW double counting   =     36999.11784765   -36263.23664038
  entropy T*S    EENTRO =        -0.01803217
  eigenvalues    EBANDS =     -5607.29272763
  atomic energy  EATOM  =     48333.26757577
  Solvation  Ediel_sol  =         0.00000000
  ---------------------------------------------------
  free energy    TOTEN  =      4795.51924433 eV

  energy without entropy =     4795.53727650  energy(sigma->0) =     4795.52826042


--------------------------------------------------------------------------------------------------------




--------------------------------------- Iteration      1(   2)  ---------------------------------------


     EDDAV:  cpu time   32.0960: real time   32.4653
       DOS:  cpu time    0.0040: real time    0.0040
    --------------------------------------------
      LOOP:  cpu time   32.1000: real time   32.4693

 eigenvalue-minimisations  :  3824
 total energy-change (2. order) :-0.5320368E+04  (-0.5177085E+04)
 number of electron     518.0000000 magnetization 
 augmentation part      518.0000000 magnetization 

 Free energy of the ion-electron system (eV)
  ---------------------------------------------------
  alpha Z        PSCENC =      1649.05367391
  Ewald energy   TEWEN  =    135573.99479042
  -Hartree energ DENC   =   -177296.79813264
  -exchange      EXHF   =         0.00000000
  -V(xc)+E(xc)   XCENC  =      1407.43088941
  PAW double counting   =     36999.11784765   -36263.23664038
  entropy T*S    EENTRO =        -0.00219367
  eigenvalues    EBANDS =    -10927.67644069
  atomic energy  EATOM  =     48333.26757577
  Solvation  Ediel_sol  =         0.00000000
  ---------------------------------------------------
  free energy    TOTEN  =      -524.84863024 eV

  energy without entropy =     -524.84643657  energy(sigma->0) =     -524.84753340


--------------------------------------------------------------------------------------------------------




--------------------------------------- Iteration      1(   3)  ---------------------------------------


     EDDAV:  cpu time   32.6004: real time   32.6574
       DOS:  cpu time    0.0041: real time    0.0041
    --------------------------------------------
      LOOP:  cpu time   32.6045: real time   32.6615

 eigenvalue-minimisations  :  3760
 total energy-change (2. order) :-0.3742331E+03  (-0.3677211E+03)
 number of electron     518.0000000 magnetization 
 augmentation part      518.0000000 magnetization 

 Free energy of the ion-electron system (eV)
  ---------------------------------------------------
  alpha Z        PSCENC =      1649.05367391
  Ewald energy   TEWEN  =    135573.99479042
  -Hartree energ DENC   =   -177296.79813264
  -exchange      EXHF   =         0.00000000
  -V(xc)+E(xc)   XCENC  =      1407.43088941
  PAW double counting   =     36999.11784765   -36263.23664038
  entropy T*S    EENTRO =        -0.01260790
  eigenvalues    EBANDS =    -11301.89909812
  atomic energy  EATOM  =     48333.26757577
  Solvation  Ediel_sol  =         0.00000000
  ---------------------------------------------------
  free energy    TOTEN  =      -899.08170189 eV

  energy without entropy =     -899.06909399  energy(sigma->0) =     -899.07539794


--------------------------------------------------------------------------------------------------------




--------------------------------------- Iteration      1(   4)  ---------------------------------------


     EDDAV:  cpu time   34.6909: real time   34.8562
       DOS:  cpu time    0.0047: real time    0.0047
    --------------------------------------------
      LOOP:  cpu time   34.6955: real time   34.8609

 eigenvalue-minimisations  :  4032
 total energy-change (2. order) :-0.1411060E+02  (-0.1405091E+02)
 number of electron     518.0000000 magnetization 
 augmentation part      518.0000000 magnetization 

 Free energy of the ion-electron system (eV)
  ---------------------------------------------------
  alpha Z        PSCENC =      1649.05367391
  Ewald energy   TEWEN  =    135573.99479042
  -Hartree energ DENC   =   -177296.79813264
  -exchange      EXHF   =         0.00000000
  -V(xc)+E(xc)   XCENC  =      1407.43088941
  PAW double counting   =     36999.11784765   -36263.23664038
  entropy T*S    EENTRO =        -0.01063724
  eigenvalues    EBANDS =    -11316.01166652
  atomic energy  EATOM  =     48333.26757577
  Solvation  Ediel_sol  =         0.00000000
  ---------------------------------------------------
  free energy    TOTEN  =      -913.19229962 eV

  energy without entropy =     -913.18166239  energy(sigma->0) =     -913.18698101


--------------------------------------------------------------------------------------------------------




--------------------------------------- Iteration      1(   5)  ---------------------------------------


     EDDAV:  cpu time   34.0737: real time   34.1294
       DOS:  cpu time    0.0040: real time    0.0040
    CHARGE:  cpu time    1.6175: real time    1.6704
    MIXING:  cpu time    0.0163: real time    0.0164
    --------------------------------------------
      LOOP:  cpu time   35.7115: real time   35.8202

 eigenvalue-minimisations  :  3952
 total energy-change (2. order) :-0.3666498E+00  (-0.3662930E+00)
 number of electron     518.0000129 magnetization 
 augmentation part       15.1461449 magnetization 

 Broyden mixing:
  rms(total) = 0.59717E+01    rms(broyden)= 0.59709E+01
  rms(prec ) = 0.67743E+01
  weight for this iteration     100.00

 Free energy of the ion-electron system (eV)
  ---------------------------------------------------
  alpha Z        PSCENC =      1649.05367391
  Ewald energy   TEWEN  =    135573.99479042
  -Hartree energ DENC   =   -177296.79813264
  -exchange      EXHF   =         0.00000000
  -V(xc)+E(xc)   XCENC  =      1407.43088941
  PAW double counting   =     36999.11784765   -36263.23664038
  entropy T*S    EENTRO =        -0.01058113
  eigenvalues    EBANDS =    -11316.37837248
  atomic energy  EATOM  =     48333.26757577
  Solvation  Ediel_sol  =         0.00000000
  ---------------------------------------------------
  free energy    TOTEN  =      -913.55894947 eV

  energy without entropy =     -913.54836835  energy(sigma->0) =     -913.55365891


--------------------------------------------------------------------------------------------------------




--------------------------------------- Iteration      1(   6)  ---------------------------------------


    POTLOK:  cpu time    0.4374: real time    0.4386
    SETDIJ:  cpu time    0.0719: real time    0.0903
     EDDAV:  cpu time   31.7817: real time   31.8942
       DOS:  cpu time    0.0023: real time    0.0025
    CHARGE:  cpu time    1.6096: real time    1.6118
    MIXING:  cpu time    0.0207: real time    0.0302
    --------------------------------------------
      LOOP:  cpu time   33.9236: real time   34.0676

 eigenvalue-minimisations  :  3568
 total energy-change (2. order) : 0.1566825E+03  (-0.8136638E+02)
 number of electron     518.0000022 magnetization 
 augmentation part       16.2450269 magnetization 

 Broyden mixing:
  rms(total) = 0.21372E+01    rms(broyden)= 0.21362E+01
  rms(prec ) = 0.23382E+01
  weight for this iteration     100.00

 eigenvalues of (default mixing * dielectric matrix)
  average eigenvalue GAMMA=   0.8308
  0.8308

 Free energy of the ion-electron system (eV)
  ---------------------------------------------------
  alpha Z        PSCENC =      1649.05367391
  Ewald energy   TEWEN  =    135573.99479042
  -Hartree energ DENC   =   -177382.33591677
  -exchange      EXHF   =         0.00000000
  -V(xc)+E(xc)   XCENC  =      1413.44561433
  PAW double counting   =     36832.29339069   -36137.53283281
  entropy T*S    EENTRO =        -0.01525023
  eigenvalues    EBANDS =    -11039.04748867
  atomic energy  EATOM  =     48333.26757577
  Solvation  Ediel_sol  =         0.00000000
  ---------------------------------------------------
  free energy    TOTEN  =      -756.87644335 eV

  energy without entropy =     -756.86119313  energy(sigma->0) =     -756.86881824


--------------------------------------------------------------------------------------------------------




--------------------------------------- Iteration      1(   7)  ---------------------------------------


    POTLOK:  cpu time    0.4278: real time    0.4289
    SETDIJ:  cpu time    0.0673: real time    0.0673
     EDDAV:  cpu time   36.6816: real time   36.8124
       DOS:  cpu time    0.0021: real time    0.0021
    CHARGE:  cpu time    1.6059: real time    1.6079
    MIXING:  cpu time    0.0185: real time    0.0212
    --------------------------------------------
      LOOP:  cpu time   38.8032: real time   38.9399

 eigenvalue-minimisations  :  4288
 total energy-change (2. order) : 0.3682163E+01  (-0.5197127E+01)
 number of electron     518.0000027 magnetization 
 augmentation part       16.7787672 magnetization 

 Broyden mixing:
  rms(total) = 0.11913E+01    rms(broyden)= 0.11913E+01
  rms(prec ) = 0.12775E+01
  weight for this iteration     100.00

 eigenvalues of (default mixing * dielectric matrix)
  average eigenvalue GAMMA=   1.2599
  1.0123  1.5074

 Free energy of the ion-electron system (eV)
  ---------------------------------------------------
  alpha Z        PSCENC =      1649.05367391
  Ewald energy   TEWEN  =    135573.99479042
  -Hartree energ DENC   =   -177545.56556570
  -exchange      EXHF   =         0.00000000
  -V(xc)+E(xc)   XCENC  =      1406.65042075
  PAW double counting   =     38093.83252601   -37394.79591072
  entropy T*S    EENTRO =        -0.02571412
  eigenvalues    EBANDS =    -10869.60607631
  atomic energy  EATOM  =     48333.26757577
  Solvation  Ediel_sol  =         0.00000000
  ---------------------------------------------------
  free energy    TOTEN  =      -753.19427999 eV

  energy without entropy =     -753.16856587  energy(sigma->0) =     -753.18142293


--------------------------------------------------------------------------------------------------------




--------------------------------------- Iteration      1(   8)  ---------------------------------------


    POTLOK:  cpu time    0.4319: real time    0.4319
    SETDIJ:  cpu time    0.0718: real time    0.0718
     EDDAV:  cpu time   34.1018: real time   34.1506
       DOS:  cpu time    0.0025: real time    0.0025
    CHARGE:  cpu time    1.6024: real time    1.6043
    MIXING:  cpu time    0.0186: real time    0.0186
    --------------------------------------------
      LOOP:  cpu time   36.2290: real time   36.2798

 eigenvalue-minimisations  :  3904
 total energy-change (2. order) : 0.1515828E+01  (-0.7874422E+00)
 number of electron     518.0000029 magnetization 
 augmentation part       16.8581042 magnetization 

 Broyden mixing:
  rms(total) = 0.55881E+00    rms(broyden)= 0.55878E+00
  rms(prec ) = 0.74213E+00
  weight for this iteration     100.00

 eigenvalues of (default mixing * dielectric matrix)
  average eigenvalue GAMMA=   1.2951
  2.1809  0.9046  0.7998

 Free energy of the ion-electron system (eV)
  ---------------------------------------------------
  alpha Z        PSCENC =      1649.05367391
  Ewald energy   TEWEN  =    135573.99479042
  -Hartree energ DENC   =   -177648.92123693
  -exchange      EXHF   =         0.00000000
  -V(xc)+E(xc)   XCENC  =      1404.07097602
  PAW double counting   =     39283.12447678   -38577.79102644
  entropy T*S    EENTRO =        -0.01843525
  eigenvalues    EBANDS =    -10768.45924671
  atomic energy  EATOM  =     48333.26757577
  Solvation  Ediel_sol  =         0.00000000
  ---------------------------------------------------
  free energy    TOTEN  =      -751.67845243 eV

  energy without entropy =     -751.66001718  energy(sigma->0) =     -751.66923480


--------------------------------------------------------------------------------------------------------




--------------------------------------- Iteration      1(   9)  ---------------------------------------


    POTLOK:  cpu time    0.4319: real time    0.4332
    SETDIJ:  cpu time    0.0660: real time    0.0659
     EDDAV:  cpu time   36.3290: real time   36.5183
       DOS:  cpu time    0.0025: real time    0.0025
    CHARGE:  cpu time    1.5964: real time    1.5975
    MIXING:  cpu time    0.0214: real time    0.0214
    --------------------------------------------
      LOOP:  cpu time   38.4471: real time   38.6389

 eigenvalue-minimisations  :  4224
 total energy-change (2. order) : 0.8235576E+00  (-0.4481331E+00)
 number of electron     518.0000030 magnetization 
 augmentation part       16.8483532 magnetization 

 Broyden mixing:
  rms(total) = 0.29135E+00    rms(broyden)= 0.29125E+00
  rms(prec ) = 0.46756E+00
  weight for this iteration     100.00

 eigenvalues of (default mixing * dielectric matrix)
  average eigenvalue GAMMA=   1.1169
  2.2805  0.8798  0.8798  0.4273

 Free energy of the ion-electron system (eV)
  ---------------------------------------------------
  alpha Z        PSCENC =      1649.05367391
  Ewald energy   TEWEN  =    135573.99479042
  -Hartree energ DENC   =   -177778.64407274
  -exchange      EXHF   =         0.00000000
  -V(xc)+E(xc)   XCENC  =      1403.27665042
  PAW double counting   =     39935.54802237   -39226.75260426
  entropy T*S    EENTRO =        -0.02064698
  eigenvalues    EBANDS =    -10640.57828375
  atomic energy  EATOM  =     48333.26757577
  Solvation  Ediel_sol  =         0.00000000
  ---------------------------------------------------
  free energy    TOTEN  =      -750.85489486 eV

  energy without entropy =     -750.83424788  energy(sigma->0) =     -750.84457137


--------------------------------------------------------------------------------------------------------




--------------------------------------- Iteration      1(  10)  ---------------------------------------


    POTLOK:  cpu time    0.4398: real time    0.4412
    SETDIJ:  cpu time    0.0655: real time    0.0661
     EDDAV:  cpu time   33.0577: real time   33.1989
       DOS:  cpu time    0.0021: real time    0.0021
    CHARGE:  cpu time    1.6088: real time    1.6440
    MIXING:  cpu time    0.0202: real time    0.0202
    --------------------------------------------
      LOOP:  cpu time   35.1942: real time   35.3726

 eigenvalue-minimisations  :  3744
 total energy-change (2. order) : 0.3422820E+00  (-0.2581703E+00)
 number of electron     518.0000031 magnetization 
 augmentation part       16.9185595 magnetization 

 Broyden mixing:
  rms(total) = 0.17922E+00    rms(broyden)= 0.17915E+00
  rms(prec ) = 0.21262E+00
  weight for this iteration     100.00

 eigenvalues of (default mixing * dielectric matrix)
  average eigenvalue GAMMA=   1.0882
  2.2346  1.0088  1.0088  0.8057  0.3832

 Free energy of the ion-electron system (eV)
  ---------------------------------------------------
  alpha Z        PSCENC =      1649.05367391
  Ewald energy   TEWEN  =    135573.99479042
  -Hartree energ DENC   =   -177856.11322499
  -exchange      EXHF   =         0.00000000
  -V(xc)+E(xc)   XCENC  =      1403.14074986
  PAW double counting   =     40072.21953137   -39362.26858014
  entropy T*S    EENTRO =        -0.01174487
  eigenvalues    EBANDS =    -10563.79538419
  atomic energy  EATOM  =     48333.26757577
  Solvation  Ediel_sol  =         0.00000000
  ---------------------------------------------------
  free energy    TOTEN  =      -750.51261285 eV

  energy without entropy =     -750.50086798  energy(sigma->0) =     -750.50674042


--------------------------------------------------------------------------------------------------------




--------------------------------------- Iteration      1(  11)  ---------------------------------------


    POTLOK:  cpu time    0.4415: real time    0.4575
    SETDIJ:  cpu time    0.0673: real time    0.0680
     EDDAV:  cpu time   34.4977: real time   34.5448
       DOS:  cpu time    0.0023: real time    0.0023
    CHARGE:  cpu time    1.5935: real time    1.5957
    MIXING:  cpu time    0.0209: real time    0.0209
    --------------------------------------------
      LOOP:  cpu time   36.6232: real time   36.6892

 eigenvalue-minimisations  :  3968
 total energy-change (2. order) : 0.5045621E-01  (-0.4583941E-01)
 number of electron     518.0000030 magnetization 
 augmentation part       16.9363698 magnetization 

 Broyden mixing:
  rms(total) = 0.11216E+00    rms(broyden)= 0.11215E+00
  rms(prec ) = 0.13673E+00
  weight for this iteration     100.00

 eigenvalues of (default mixing * dielectric matrix)
  average eigenvalue GAMMA=   1.1671
  2.0946  2.0946  0.8199  0.7911  0.7911  0.4112

 Free energy of the ion-electron system (eV)
  ---------------------------------------------------
  alpha Z        PSCENC =      1649.05367391
  Ewald energy   TEWEN  =    135573.99479042
  -Hartree energ DENC   =   -177889.49180220
  -exchange      EXHF   =         0.00000000
  -V(xc)+E(xc)   XCENC  =      1403.62011299
  PAW double counting   =     39949.51634824   -39239.55479842
  entropy T*S    EENTRO =        -0.01347106
  eigenvalues    EBANDS =    -10530.85458628
  atomic energy  EATOM  =     48333.26757577
  Solvation  Ediel_sol  =         0.00000000
  ---------------------------------------------------
  free energy    TOTEN  =      -750.46215664 eV

  energy without entropy =     -750.44868557  energy(sigma->0) =     -750.45542111


--------------------------------------------------------------------------------------------------------




--------------------------------------- Iteration      1(  12)  ---------------------------------------


    POTLOK:  cpu time    0.4431: real time    0.4433
    SETDIJ:  cpu time    0.0672: real time    0.0680
     EDDAV:  cpu time   35.7490: real time   36.1327
       DOS:  cpu time    0.0023: real time    0.0023
    CHARGE:  cpu time    1.5999: real time    1.6016
    MIXING:  cpu time    0.0218: real time    0.0218
    --------------------------------------------
      LOOP:  cpu time   37.8833: real time   38.2698

 eigenvalue-minimisations  :  4112
 total energy-change (2. order) : 0.1580127E-01  (-0.1386046E-01)
 number of electron     518.0000030 magnetization 
 augmentation part       16.9207760 magnetization 

 Broyden mixing:
  rms(total) = 0.63379E-01    rms(broyden)= 0.63373E-01
  rms(prec ) = 0.87417E-01
  weight for this iteration     100.00

 eigenvalues of (default mixing * dielectric matrix)
  average eigenvalue GAMMA=   1.2421
  2.4637  2.4637  0.9606  0.9606  0.7127  0.7127  0.4206

 Free energy of the ion-electron system (eV)
  ---------------------------------------------------
  alpha Z        PSCENC =      1649.05367391
  Ewald energy   TEWEN  =    135573.99479042
  -Hartree energ DENC   =   -177953.54195434
  -exchange      EXHF   =         0.00000000
  -V(xc)+E(xc)   XCENC  =      1404.27897242
  PAW double counting   =     39728.81491177   -39018.35791202
  entropy T*S    EENTRO =        -0.01474994
  eigenvalues    EBANDS =    -10467.94166336
  atomic energy  EATOM  =     48333.26757577
  Solvation  Ediel_sol  =         0.00000000
  ---------------------------------------------------
  free energy    TOTEN  =      -750.44635537 eV

  energy without entropy =     -750.43160543  energy(sigma->0) =     -750.43898040


--------------------------------------------------------------------------------------------------------




--------------------------------------- Iteration      1(  13)  ---------------------------------------


    POTLOK:  cpu time    0.4412: real time    0.4417
    SETDIJ:  cpu time    0.0679: real time    0.0679
     EDDAV:  cpu time   32.7592: real time   32.8716
       DOS:  cpu time    0.0026: real time    0.0026
    CHARGE:  cpu time    1.6266: real time    1.6286
    MIXING:  cpu time    0.0230: real time    0.0230
    --------------------------------------------
      LOOP:  cpu time   34.9204: real time   35.0354

 eigenvalue-minimisations  :  3712
 total energy-change (2. order) : 0.1620916E-01  (-0.5101804E-02)
 number of electron     518.0000030 magnetization 
 augmentation part       16.9066985 magnetization 

 Broyden mixing:
  rms(total) = 0.26335E-01    rms(broyden)= 0.26332E-01
  rms(prec ) = 0.44312E-01
  weight for this iteration     100.00

 eigenvalues of (default mixing * dielectric matrix)
  average eigenvalue GAMMA=   1.2288
  2.4857  2.4857  1.0554  1.0554  0.7702  0.7702  0.7887  0.4195

 Free energy of the ion-electron system (eV)
  ---------------------------------------------------
  alpha Z        PSCENC =      1649.05367391
  Ewald energy   TEWEN  =    135573.99479042
  -Hartree energ DENC   =   -178009.93738659
  -exchange      EXHF   =         0.00000000
  -V(xc)+E(xc)   XCENC  =      1404.47187407
  PAW double counting   =     39661.36907921   -38950.33957008
  entropy T*S    EENTRO =        -0.01376893
  eigenvalues    EBANDS =    -10412.29641397
  atomic energy  EATOM  =     48333.26757577
  Solvation  Ediel_sol  =         0.00000000
  ---------------------------------------------------
  free energy    TOTEN  =      -750.43014621 eV

  energy without entropy =     -750.41637728  energy(sigma->0) =     -750.42326174


--------------------------------------------------------------------------------------------------------




--------------------------------------- Iteration      1(  14)  ---------------------------------------


    POTLOK:  cpu time    0.4453: real time    0.4454
    SETDIJ:  cpu time    0.0700: real time    0.0700
     EDDAV:  cpu time   35.4976: real time   35.7400
       DOS:  cpu time    0.0022: real time    0.0022
    CHARGE:  cpu time    1.6430: real time    1.6482
    MIXING:  cpu time    0.0243: real time    0.0243
    --------------------------------------------
      LOOP:  cpu time   37.6824: real time   37.9301

 eigenvalue-minimisations  :  4112
 total energy-change (2. order) :-0.1899716E-02  (-0.1696865E-02)
 number of electron     518.0000030 magnetization 
 augmentation part       16.9030878 magnetization 

 Broyden mixing:
  rms(total) = 0.16694E-01    rms(broyden)= 0.16691E-01
  rms(prec ) = 0.29908E-01
  weight for this iteration     100.00

 eigenvalues of (default mixing * dielectric matrix)
  average eigenvalue GAMMA=   1.2777
  2.6362  2.2806  1.8923  0.9634  0.9634  0.4198  0.8728  0.7352  0.7352

 Free energy of the ion-electron system (eV)
  ---------------------------------------------------
  alpha Z        PSCENC =      1649.05367391
  Ewald energy   TEWEN  =    135573.99479042
  -Hartree energ DENC   =   -178040.25840669
  -exchange      EXHF   =         0.00000000
  -V(xc)+E(xc)   XCENC  =      1404.48981564
  PAW double counting   =     39657.70475487   -38946.69920317
  entropy T*S    EENTRO =        -0.01323783
  eigenvalues    EBANDS =    -10381.97180883
  atomic energy  EATOM  =     48333.26757577
  Solvation  Ediel_sol  =         0.00000000
  ---------------------------------------------------
  free energy    TOTEN  =      -750.43204593 eV

  energy without entropy =     -750.41880810  energy(sigma->0) =     -750.42542701


--------------------------------------------------------------------------------------------------------




--------------------------------------- Iteration      1(  15)  ---------------------------------------


    POTLOK:  cpu time    0.4603: real time    0.4611
    SETDIJ:  cpu time    0.0679: real time    0.0679
     EDDAV:  cpu time   32.2430: real time   32.4255
       DOS:  cpu time    0.0023: real time    0.0023
    CHARGE:  cpu time    1.6073: real time    1.6150
    MIXING:  cpu time    0.0257: real time    0.0257
    --------------------------------------------
      LOOP:  cpu time   34.4066: real time   34.5976

 eigenvalue-minimisations  :  3632
 total energy-change (2. order) :-0.4517292E-02  (-0.5628170E-03)
 number of electron     518.0000030 magnetization 
 augmentation part       16.9030673 magnetization 

 Broyden mixing:
  rms(total) = 0.94945E-02    rms(broyden)= 0.94935E-02
  rms(prec ) = 0.18616E-01
  weight for this iteration     100.00

 eigenvalues of (default mixing * dielectric matrix)
  average eigenvalue GAMMA=   1.4073
  3.7755  2.3308  2.3308  0.9895  0.9895  0.8819  0.8819  0.7364  0.7364  0.4200

 Free energy of the ion-electron system (eV)
  ---------------------------------------------------
  alpha Z        PSCENC =      1649.05367391
  Ewald energy   TEWEN  =    135573.99479042
  -Hartree energ DENC   =   -178069.90669006
  -exchange      EXHF   =         0.00000000
  -V(xc)+E(xc)   XCENC  =      1404.52765265
  PAW double counting   =     39648.78321548   -38937.97693019
  entropy T*S    EENTRO =        -0.01314769
  eigenvalues    EBANDS =    -10352.16670350
  atomic energy  EATOM  =     48333.26757577
  Solvation  Ediel_sol  =         0.00000000
  ---------------------------------------------------
  free energy    TOTEN  =      -750.43656322 eV

  energy without entropy =     -750.42341553  energy(sigma->0) =     -750.42998937


--------------------------------------------------------------------------------------------------------




--------------------------------------- Iteration      1(  16)  ---------------------------------------


    POTLOK:  cpu time    0.4621: real time    0.4662
    SETDIJ:  cpu time    0.0541: real time    0.0541
     EDDAV:  cpu time   33.2131: real time   33.2647
       DOS:  cpu time    0.0022: real time    0.0022
    CHARGE:  cpu time    1.6030: real time    1.6041
    MIXING:  cpu time    0.0251: real time    0.0251
    --------------------------------------------
      LOOP:  cpu time   35.3595: real time   35.4164

 eigenvalue-minimisations  :  3776
 total energy-change (2. order) :-0.1747636E-02  (-0.3156508E-03)
 number of electron     518.0000030 magnetization 
 augmentation part       16.9042249 magnetization 

 Broyden mixing:
  rms(total) = 0.61757E-02    rms(broyden)= 0.61749E-02
  rms(prec ) = 0.11192E-01
  weight for this iteration     100.00

 eigenvalues of (default mixing * dielectric matrix)
  average eigenvalue GAMMA=   1.4685
  4.2910  2.5421  2.2833  1.4168  0.4200  0.9803  0.9803  0.8834  0.8834  0.7364
  0.7364

 Free energy of the ion-electron system (eV)
  ---------------------------------------------------
  alpha Z        PSCENC =      1649.05367391
  Ewald energy   TEWEN  =    135573.99479042
  -Hartree energ DENC   =   -178096.66224563
  -exchange      EXHF   =         0.00000000
  -V(xc)+E(xc)   XCENC  =      1404.58294410
  PAW double counting   =     39635.68135171   -38925.01342226
  entropy T*S    EENTRO =        -0.01317644
  eigenvalues    EBANDS =    -10325.32980244
  atomic energy  EATOM  =     48333.26757577
  Solvation  Ediel_sol  =         0.00000000
  ---------------------------------------------------
  free energy    TOTEN  =      -750.43831086 eV

  energy without entropy =     -750.42513442  energy(sigma->0) =     -750.43172264


--------------------------------------------------------------------------------------------------------




--------------------------------------- Iteration      1(  17)  ---------------------------------------


    POTLOK:  cpu time    0.4565: real time    0.4577
    SETDIJ:  cpu time    0.0542: real time    0.0542
     EDDAV:  cpu time   31.9521: real time   32.1728
       DOS:  cpu time    0.0022: real time    0.0022
    CHARGE:  cpu time    1.6022: real time    1.6044
    MIXING:  cpu time    0.0264: real time    0.0264
    --------------------------------------------
      LOOP:  cpu time   34.0936: real time   34.3177

 eigenvalue-minimisations  :  3520
 total energy-change (2. order) :-0.1637714E-02  (-0.8532439E-04)
 number of electron     518.0000030 magnetization 
 augmentation part       16.9038801 magnetization 

 Broyden mixing:
  rms(total) = 0.38082E-02    rms(broyden)= 0.38077E-02
  rms(prec ) = 0.74160E-02
  weight for this iteration     100.00

 eigenvalues of (default mixing * dielectric matrix)
  average eigenvalue GAMMA=   1.5546
  4.8518  2.6523  2.5078  1.7611  1.2986  0.4200  0.9689  0.9689  0.8684  0.8684
  0.7445  0.7445

 Free energy of the ion-electron system (eV)
  ---------------------------------------------------
  alpha Z        PSCENC =      1649.05367391
  Ewald energy   TEWEN  =    135573.99479042
  -Hartree energ DENC   =   -178107.87616098
  -exchange      EXHF   =         0.00000000
  -V(xc)+E(xc)   XCENC  =      1404.59168699
  PAW double counting   =     39638.98732991   -38928.30683622
  entropy T*S    EENTRO =        -0.01314634
  eigenvalues    EBANDS =    -10314.13886202
  atomic energy  EATOM  =     48333.26757577
  Solvation  Ediel_sol  =         0.00000000
  ---------------------------------------------------
  free energy    TOTEN  =      -750.43994857 eV

  energy without entropy =     -750.42680223  energy(sigma->0) =     -750.43337540


--------------------------------------------------------------------------------------------------------




--------------------------------------- Iteration      1(  18)  ---------------------------------------


    POTLOK:  cpu time    0.4535: real time    0.4535
    SETDIJ:  cpu time    0.0542: real time    0.0542
     EDDAV:  cpu time   28.6760: real time   28.7198
       DOS:  cpu time    0.0020: real time    0.0021
    CHARGE:  cpu time    1.6036: real time    1.6055
    MIXING:  cpu time    0.0278: real time    0.0278
    --------------------------------------------
      LOOP:  cpu time   30.8171: real time   30.8628

 eigenvalue-minimisations  :  3088
 total energy-change (2. order) :-0.1341671E-02  (-0.7839759E-04)
 number of electron     518.0000030 magnetization 
 augmentation part       16.9025125 magnetization 

 Broyden mixing:
  rms(total) = 0.29964E-02    rms(broyden)= 0.29961E-02
  rms(prec ) = 0.51139E-02
  weight for this iteration     100.00

 eigenvalues of (default mixing * dielectric matrix)
  average eigenvalue GAMMA=   1.5857
  5.2993  3.1336  2.2531  2.1708  1.2768  0.4200  0.9758  0.9758  0.9178  0.8499
  0.8499  0.7456  0.7456

 Free energy of the ion-electron system (eV)
  ---------------------------------------------------
  alpha Z        PSCENC =      1649.05367391
  Ewald energy   TEWEN  =    135573.99479042
  -Hartree energ DENC   =   -178116.82220068
  -exchange      EXHF   =         0.00000000
  -V(xc)+E(xc)   XCENC  =      1404.59690563
  PAW double counting   =     39644.14791173   -38933.41395008
  entropy T*S    EENTRO =        -0.01310019
  eigenvalues    EBANDS =    -10305.25289675
  atomic energy  EATOM  =     48333.26757577
  Solvation  Ediel_sol  =         0.00000000
  ---------------------------------------------------
  free energy    TOTEN  =      -750.44129024 eV

  energy without entropy =     -750.42819005  energy(sigma->0) =     -750.43474015


--------------------------------------------------------------------------------------------------------




--------------------------------------- Iteration      1(  19)  ---------------------------------------


    POTLOK:  cpu time    0.4466: real time    0.4475
    SETDIJ:  cpu time    0.0537: real time    0.0537
     EDDAV:  cpu time   30.3098: real time   30.4329
       DOS:  cpu time    0.0021: real time    0.0021
    CHARGE:  cpu time    1.6033: real time    1.6055
    MIXING:  cpu time    0.0288: real time    0.0288
    --------------------------------------------
      LOOP:  cpu time   32.4442: real time   32.5706

 eigenvalue-minimisations  :  3184
 total energy-change (2. order) :-0.5871995E-03  (-0.3646186E-04)
 number of electron     518.0000030 magnetization 
 augmentation part       16.9023316 magnetization 

 Broyden mixing:
  rms(total) = 0.22896E-02    rms(broyden)= 0.22895E-02
  rms(prec ) = 0.35777E-02
  weight for this iteration     100.00

 eigenvalues of (default mixing * dielectric matrix)
  average eigenvalue GAMMA=   1.6349
  5.8098  3.3333  2.3505  2.3505  1.4477  0.4200  1.0363  1.0363  0.8951  0.8951
  0.7441  0.7441  0.9131  0.9131

 Free energy of the ion-electron system (eV)
  ---------------------------------------------------
  alpha Z        PSCENC =      1649.05367391
  Ewald energy   TEWEN  =    135573.99479042
  -Hartree energ DENC   =   -178120.43203179
  -exchange      EXHF   =         0.00000000
  -V(xc)+E(xc)   XCENC  =      1404.60031358
  PAW double counting   =     39643.98831847   -38933.24517896
  entropy T*S    EENTRO =        -0.01315422
  eigenvalues    EBANDS =    -10301.65618461
  atomic energy  EATOM  =     48333.26757577
  Solvation  Ediel_sol  =         0.00000000
  ---------------------------------------------------
  free energy    TOTEN  =      -750.44187744 eV

  energy without entropy =     -750.42872322  energy(sigma->0) =     -750.43530033


--------------------------------------------------------------------------------------------------------




--------------------------------------- Iteration      1(  20)  ---------------------------------------


    POTLOK:  cpu time    0.4433: real time    0.4435
    SETDIJ:  cpu time    0.0539: real time    0.0539
     EDDAV:  cpu time   29.1185: real time   29.1616
       DOS:  cpu time    0.0021: real time    0.0022
    CHARGE:  cpu time    1.6061: real time    1.6096
    MIXING:  cpu time    0.0303: real time    0.0303
    --------------------------------------------
      LOOP:  cpu time   31.2544: real time   31.3010

 eigenvalue-minimisations  :  3152
 total energy-change (2. order) :-0.2001109E-02  (-0.1996828E-04)
 number of electron     518.0000030 magnetization 
 augmentation part       16.9028225 magnetization 

 Broyden mixing:
  rms(total) = 0.14954E-02    rms(broyden)= 0.14951E-02
  rms(prec ) = 0.21386E-02
  weight for this iteration     100.00

 eigenvalues of (default mixing * dielectric matrix)
  average eigenvalue GAMMA=   1.7401
  6.2470  4.2534  2.4694  2.4694  1.8585  1.3107  0.4200  0.9955  0.9955  0.9617
  0.9617  0.7404  0.7404  0.8386  0.8386

 Free energy of the ion-electron system (eV)
  ---------------------------------------------------
  alpha Z        PSCENC =      1649.05367391
  Ewald energy   TEWEN  =    135573.99479042
  -Hartree energ DENC   =   -178123.43179395
  -exchange      EXHF   =         0.00000000
  -V(xc)+E(xc)   XCENC  =      1404.60524855
  PAW double counting   =     39641.15919994   -38930.42883023
  entropy T*S    EENTRO =        -0.01320213
  eigenvalues    EBANDS =    -10298.65054083
  atomic energy  EATOM  =     48333.26757577
  Solvation  Ediel_sol  =         0.00000000
  ---------------------------------------------------
  free energy    TOTEN  =      -750.44387855 eV

  energy without entropy =     -750.43067642  energy(sigma->0) =     -750.43727749


--------------------------------------------------------------------------------------------------------




--------------------------------------- Iteration      1(  21)  ---------------------------------------


    POTLOK:  cpu time    0.4442: real time    0.4444
    SETDIJ:  cpu time    0.0539: real time    0.0539
     EDDAV:  cpu time   28.9757: real time   29.1878
       DOS:  cpu time    0.0019: real time    0.0019
    CHARGE:  cpu time    1.6168: real time    1.6202
    MIXING:  cpu time    0.0316: real time    0.0316
    --------------------------------------------
      LOOP:  cpu time   31.1242: real time   31.3398

 eigenvalue-minimisations  :  3040
 total energy-change (2. order) :-0.1928794E-02  (-0.2080272E-04)
 number of electron     518.0000030 magnetization 
 augmentation part       16.9028296 magnetization 

 Broyden mixing:
  rms(total) = 0.88002E-03    rms(broyden)= 0.87993E-03
  rms(prec ) = 0.10986E-02
  weight for this iteration     100.00

 eigenvalues of (default mixing * dielectric matrix)
  average eigenvalue GAMMA=   1.8187
  7.1482  4.7830  2.8003  2.2791  2.2791  0.4200  1.1453  1.1453  1.0485  1.0485
  0.9143  0.9143  0.7436  0.7436  0.8429  0.8429

 Free energy of the ion-electron system (eV)
  ---------------------------------------------------
  alpha Z        PSCENC =      1649.05367391
  Ewald energy   TEWEN  =    135573.99479042
  -Hartree energ DENC   =   -178124.45636840
  -exchange      EXHF   =         0.00000000
  -V(xc)+E(xc)   XCENC  =      1404.59857630
  PAW double counting   =     39641.47666808   -38930.75211582
  entropy T*S    EENTRO =        -0.01318047
  eigenvalues    EBANDS =    -10297.61542714
  atomic energy  EATOM  =     48333.26757577
  Solvation  Ediel_sol  =         0.00000000
  ---------------------------------------------------
  free energy    TOTEN  =      -750.44580734 eV

  energy without entropy =     -750.43262688  energy(sigma->0) =     -750.43921711


--------------------------------------------------------------------------------------------------------




--------------------------------------- Iteration      1(  22)  ---------------------------------------


    POTLOK:  cpu time    0.4399: real time    0.4399
    SETDIJ:  cpu time    0.0540: real time    0.0540
     EDDAV:  cpu time   28.1226: real time   28.1610
       DOS:  cpu time    0.0022: real time    0.0022
    CHARGE:  cpu time    1.6107: real time    1.6374
    MIXING:  cpu time    0.0334: real time    0.0338
    --------------------------------------------
      LOOP:  cpu time   30.2628: real time   30.3283

 eigenvalue-minimisations  :  2992
 total energy-change (2. order) :-0.6405588E-03  (-0.5785486E-05)
 number of electron     518.0000030 magnetization 
 augmentation part       16.9028743 magnetization 

 Broyden mixing:
  rms(total) = 0.43334E-03    rms(broyden)= 0.43329E-03
  rms(prec ) = 0.54581E-03
  weight for this iteration     100.00

 eigenvalues of (default mixing * dielectric matrix)
  average eigenvalue GAMMA=   1.9103
  8.1020  5.3963  2.8540  2.3439  2.3439  1.6308  0.4200  1.2599  1.0019  1.0019
  0.9695  0.9695  0.7428  0.7428  0.9839  0.8563  0.8563

 Free energy of the ion-electron system (eV)
  ---------------------------------------------------
  alpha Z        PSCENC =      1649.05367391
  Ewald energy   TEWEN  =    135573.99479042
  -Hartree energ DENC   =   -178124.98067454
  -exchange      EXHF   =         0.00000000
  -V(xc)+E(xc)   XCENC  =      1404.59657232
  PAW double counting   =     39641.60472979   -38930.88165011
  entropy T*S    EENTRO =        -0.01317795
  eigenvalues    EBANDS =    -10297.08828751
  atomic energy  EATOM  =     48333.26757577
  Solvation  Ediel_sol  =         0.00000000
  ---------------------------------------------------
  free energy    TOTEN  =      -750.44644790 eV

  energy without entropy =     -750.43326995  energy(sigma->0) =     -750.43985892


--------------------------------------------------------------------------------------------------------




--------------------------------------- Iteration      1(  23)  ---------------------------------------


    POTLOK:  cpu time    0.4439: real time    0.4476
    SETDIJ:  cpu time    0.0533: real time    0.0540
     EDDAV:  cpu time   27.4892: real time   27.6940
       DOS:  cpu time    0.0020: real time    0.0020
    CHARGE:  cpu time    1.6007: real time    1.6028
    MIXING:  cpu time    0.0350: real time    0.0350
    --------------------------------------------
      LOOP:  cpu time   29.6240: real time   29.8355

 eigenvalue-minimisations  :  2880
 total energy-change (2. order) :-0.4335014E-03  (-0.4625809E-05)
 number of electron     518.0000030 magnetization 
 augmentation part       16.9028207 magnetization 

 Broyden mixing:
  rms(total) = 0.22069E-03    rms(broyden)= 0.22059E-03
  rms(prec ) = 0.26519E-03
  weight for this iteration     100.00

 eigenvalues of (default mixing * dielectric matrix)
  average eigenvalue GAMMA=   1.9263
  8.7083  5.5200  3.0377  2.5098  2.0911  2.0911  0.4200  0.9804  0.9804  1.0294
  1.0294  1.0328  1.0230  1.0230  0.7424  0.7424  0.8562  0.8562

 Free energy of the ion-electron system (eV)
  ---------------------------------------------------
  alpha Z        PSCENC =      1649.05367391
  Ewald energy   TEWEN  =    135573.99479042
  -Hartree energ DENC   =   -178125.04400849
  -exchange      EXHF   =         0.00000000
  -V(xc)+E(xc)   XCENC  =      1404.59595900
  PAW double counting   =     39641.74207496   -38931.01763609
  entropy T*S    EENTRO =        -0.01317784
  eigenvalues    EBANDS =    -10297.02613305
  atomic energy  EATOM  =     48333.26757577
  Solvation  Ediel_sol  =         0.00000000
  ---------------------------------------------------
  free energy    TOTEN  =      -750.44688140 eV

  energy without entropy =     -750.43370357  energy(sigma->0) =     -750.44029248


--------------------------------------------------------------------------------------------------------




--------------------------------------- Iteration      1(  24)  ---------------------------------------


    POTLOK:  cpu time    0.4484: real time    0.4484
    SETDIJ:  cpu time    0.0532: real time    0.0540
     EDDAV:  cpu time   26.0125: real time   26.0472
       DOS:  cpu time    0.0022: real time    0.0022
    CHARGE:  cpu time    1.5990: real time    1.6009
    MIXING:  cpu time    0.0366: real time    0.0366
    --------------------------------------------
      LOOP:  cpu time   28.1519: real time   28.1892

 eigenvalue-minimisations  :  2672
 total energy-change (2. order) :-0.9418950E-04  (-0.8259433E-06)
 number of electron     518.0000030 magnetization 
 augmentation part       16.9027803 magnetization 

 Broyden mixing:
  rms(total) = 0.11254E-03    rms(broyden)= 0.11253E-03
  rms(prec ) = 0.13586E-03
  weight for this iteration     100.00

 eigenvalues of (default mixing * dielectric matrix)
  average eigenvalue GAMMA=   1.9526
  8.9967  5.7933  3.0907  2.6149  2.3492  2.1356  1.3789  0.4200  1.1767  1.1767
  0.9722  0.9722  0.9440  0.9440  0.9496  0.7424  0.7424  0.8500  0.8500

 Free energy of the ion-electron system (eV)
  ---------------------------------------------------
  alpha Z        PSCENC =      1649.05367391
  Ewald energy   TEWEN  =    135573.99479042
  -Hartree energ DENC   =   -178125.09272842
  -exchange      EXHF   =         0.00000000
  -V(xc)+E(xc)   XCENC  =      1404.59650052
  PAW double counting   =     39641.54679185   -38930.82203029
  entropy T*S    EENTRO =        -0.01317861
  eigenvalues    EBANDS =    -10296.97837075
  atomic energy  EATOM  =     48333.26757577
  Solvation  Ediel_sol  =         0.00000000
  ---------------------------------------------------
  free energy    TOTEN  =      -750.44697559 eV

  energy without entropy =     -750.43379699  energy(sigma->0) =     -750.44038629


--------------------------------------------------------------------------------------------------------




--------------------------------------- Iteration      1(  25)  ---------------------------------------


    POTLOK:  cpu time    0.4487: real time    0.4498
    SETDIJ:  cpu time    0.0541: real time    0.0541
     EDDAV:  cpu time   24.8841: real time   25.0418
       DOS:  cpu time    0.0019: real time    0.0019
    CHARGE:  cpu time    1.5994: real time    1.6015
    MIXING:  cpu time    0.0378: real time    0.0378
    --------------------------------------------
      LOOP:  cpu time   27.0263: real time   27.1871

 eigenvalue-minimisations  :  2496
 total energy-change (2. order) :-0.4607552E-04  (-0.3560550E-06)
 number of electron     518.0000030 magnetization 
 augmentation part       16.9027725 magnetization 

 Broyden mixing:
  rms(total) = 0.71761E-04    rms(broyden)= 0.71744E-04
  rms(prec ) = 0.86068E-04
  weight for this iteration     100.00

 eigenvalues of (default mixing * dielectric matrix)
  average eigenvalue GAMMA=   1.9475
  9.3146  5.7444  3.5048  2.6619  2.1959  2.1751  1.5411  0.4200  1.1588  1.1588
  1.0033  1.0033  0.9511  0.9511  0.9930  0.9930  0.7425  0.7425  0.8471  0.8471

 Free energy of the ion-electron system (eV)
  ---------------------------------------------------
  alpha Z        PSCENC =      1649.05367391
  Ewald energy   TEWEN  =    135573.99479042
  -Hartree energ DENC   =   -178125.07197882
  -exchange      EXHF   =         0.00000000
  -V(xc)+E(xc)   XCENC  =      1404.59639891
  PAW double counting   =     39641.55911035   -38930.83425459
  entropy T*S    EENTRO =        -0.01317817
  eigenvalues    EBANDS =    -10296.99915944
  atomic energy  EATOM  =     48333.26757577
  Solvation  Ediel_sol  =         0.00000000
  ---------------------------------------------------
  free energy    TOTEN  =      -750.44702167 eV

  energy without entropy =     -750.43384349  energy(sigma->0) =     -750.44043258


--------------------------------------------------------------------------------------------------------




--------------------------------------- Iteration      1(  26)  ---------------------------------------


    POTLOK:  cpu time    0.4487: real time    0.4488
    SETDIJ:  cpu time    0.0541: real time    0.0541
     EDDAV:  cpu time   24.3317: real time   24.3657
       DOS:  cpu time    0.0023: real time    0.0023
    CHARGE:  cpu time    1.5996: real time    1.6007
    MIXING:  cpu time    0.0400: real time    0.0400
    --------------------------------------------
      LOOP:  cpu time   26.4761: real time   26.5114

 eigenvalue-minimisations  :  2416
 total energy-change (2. order) :-0.1213616E-04  (-0.9245351E-07)
[...]
 -----------------------------------------------------------------------------------------------
   -.116E+02 -.115E+02 -.273E+04   0.118E+02 0.113E+02 0.272E+04   -.213E+00 0.118E+00 0.378E+01   -.206E-02 -.144E-02 0.187E-01
   0.112E+02 0.112E+02 -.273E+04   -.110E+02 -.114E+02 0.272E+04   -.112E+00 0.216E+00 0.379E+01   0.168E-02 0.203E-03 0.183E-01
   -.371E-01 -.875E-02 0.279E+04   0.566E-01 -.112E-01 -.278E+04   -.267E-01 0.260E-01 -.387E+01   -.506E-03 0.740E-03 0.251E-02
   0.992E-01 -.992E-01 0.279E+04   -.986E-01 0.957E-01 -.278E+04   -.321E-03 0.181E-02 -.395E+01   0.476E-03 -.584E-03 0.270E-02
   0.830E+00 -.103E+01 0.967E+03   -.849E+00 0.101E+01 -.967E+03   -.584E-02 0.208E-01 0.657E-01   0.211E-03 -.881E-03 0.169E-01
   0.985E+00 -.111E+01 0.967E+03   -.963E+00 0.113E+01 -.967E+03   -.214E-01 0.511E-02 0.146E+00   0.624E-03 0.534E-04 0.170E-01
   0.111E+01 -.183E+01 -.883E+03   -.119E+01 0.191E+01 0.884E+03   0.752E-01 -.840E-01 -.272E+00   -.130E-02 0.353E-03 0.239E-01
   0.202E+01 -.172E+01 -.871E+03   -.200E+01 0.170E+01 0.871E+03   -.112E-01 0.245E-01 -.168E+00   0.378E-03 -.108E-02 0.233E-01
   0.110E+02 -.215E+02 -.272E+04   -.113E+02 0.213E+02 0.272E+04   0.226E+00 0.178E+00 0.375E+01   0.201E-02 0.127E-02 0.185E-01
   -.880E+01 0.228E+02 -.270E+04   0.861E+01 -.236E+02 0.269E+04   0.198E+00 0.892E+00 0.328E+01   -.188E-02 -.527E-02 0.225E-01
   0.636E-01 0.103E+00 0.279E+04   -.588E-01 -.155E+00 -.278E+04   -.631E-02 0.288E-01 -.387E+01   0.638E-03 0.782E-03 0.284E-02
   -.120E+00 -.251E+00 0.279E+04   0.107E+00 0.260E+00 -.278E+04   0.142E-01 -.376E-02 -.394E+01   -.574E-03 -.586E-03 0.217E-02
   -.656E+00 -.191E+00 0.968E+03   0.691E+00 0.146E+00 -.968E+03   0.131E-01 -.460E-02 0.448E-01   -.290E-03 -.111E-03 0.162E-01
   -.840E+00 0.220E+01 0.964E+03   0.816E+00 -.235E+01 -.964E+03   0.130E-01 0.392E-01 0.302E+00   -.633E-03 0.262E-02 0.172E-01
   -.328E+01 -.122E+01 -.884E+03   0.328E+01 0.132E+01 0.885E+03   -.417E-02 -.970E-01 -.267E+00   0.656E-03 0.134E-02 0.239E-01
   -.245E+01 -.531E+01 -.876E+03   0.244E+01 0.512E+01 0.876E+03   0.660E-02 0.184E+00 -.738E-01   0.144E-03 0.228E-03 0.243E-01
   -.249E+02 0.939E+01 -.270E+04   0.257E+02 -.918E+01 0.269E+04   -.844E+00 -.215E+00 0.323E+01   0.471E-03 0.256E-02 0.231E-01
   0.212E+02 -.115E+02 -.272E+04   -.210E+02 0.117E+02 0.272E+04   -.163E+00 -.221E+00 0.378E+01   -.153E-02 -.134E-02 0.188E-01
   -.156E+00 -.144E-01 0.279E+04   0.208E+00 0.117E-01 -.278E+04   -.296E-01 0.448E-02 -.387E+01   -.518E-03 -.737E-03 0.300E-02
   0.240E+00 0.119E+00 0.279E+04   -.252E+00 -.108E+00 -.278E+04   0.542E-02 -.131E-01 -.394E+01   0.504E-03 0.491E-03 0.237E-02
   -.239E+01 0.832E+00 0.963E+03   0.253E+01 -.809E+00 -.964E+03   -.393E-01 -.134E-01 0.223E+00   -.256E-02 0.836E-03 0.170E-01
   0.182E+00 0.813E+00 0.968E+03   -.136E+00 -.846E+00 -.968E+03   0.410E-02 -.129E-01 0.128E+00   0.828E-05 -.334E-04 0.174E-01
   0.319E+00 0.400E+01 -.884E+03   -.393E+00 -.401E+01 0.884E+03   0.783E-01 0.114E-01 -.268E+00   -.101E-02 -.216E-03 0.235E-01
   0.492E+01 0.268E+01 -.876E+03   -.471E+01 -.268E+01 0.876E+03   -.201E+00 -.531E-02 -.729E-01   0.126E-02 0.672E-03 0.222E-01
   0.867E+02 0.457E+02 -.265E+04   -.889E+02 -.461E+02 0.264E+04   0.227E+01 0.369E+00 0.339E+01   -.186E-02 -.758E-03 0.225E-01
   -.448E+02 -.878E+02 -.265E+04   0.452E+02 0.899E+02 0.264E+04   -.393E+00 -.225E+01 0.341E+01   0.977E-03 0.117E-02 0.219E-01
   0.255E+00 -.200E+00 0.279E+04   -.234E+00 0.182E+00 -.278E+04   -.446E-02 0.273E-02 -.386E+01   0.643E-03 -.771E-03 0.281E-02
   -.299E+00 0.301E+00 0.279E+04   0.275E+00 -.279E+00 -.279E+04   0.216E-01 -.203E-01 -.389E+01   -.603E-03 0.478E-03 0.412E-02
   0.300E+01 0.835E+00 0.967E+03   -.311E+01 -.841E+00 -.968E+03   0.436E-01 -.156E-01 0.243E+00   0.243E-02 0.748E-04 0.167E-01
   -.796E+00 -.271E+01 0.968E+03   0.801E+00 0.282E+01 -.968E+03   0.151E-01 -.453E-01 0.327E+00   0.135E-03 -.275E-02 0.164E-01
   0.210E+01 -.154E+01 -.875E+03   -.206E+01 0.149E+01 0.875E+03   -.277E-01 0.426E-01 -.378E+00   -.153E-03 -.956E-03 0.232E-01
   -.945E+01 0.975E+01 -.891E+03   0.922E+01 -.951E+01 0.889E+03   0.235E+00 -.234E+00 0.182E+01   0.127E-04 0.188E-03 0.165E-01
   0.547E-01 -.620E-01 0.952E+03   -.631E-01 0.390E-01 -.953E+03   -.140E-02 0.699E-02 0.104E+01   0.192E-03 0.981E-04 0.117E-02
   0.495E-01 -.577E-01 0.952E+03   -.222E-01 0.643E-01 -.953E+03   -.711E-02 0.209E-02 0.104E+01   -.239E-05 -.225E-03 0.116E-02
   0.167E+01 -.153E+01 -.955E+03   -.169E+01 0.156E+01 0.956E+03   0.187E-01 -.209E-01 -.177E+01   0.734E-04 -.268E-04 0.581E-02
   -.532E+01 0.517E+01 -.946E+03   0.543E+01 -.528E+01 0.947E+03   -.991E-01 0.960E-01 -.170E+01   -.317E-03 -.616E-03 0.632E-02
   0.198E+01 -.805E-01 -.291E+03   -.196E+01 0.812E-01 0.291E+03   -.234E-01 0.157E-02 0.123E+00   0.325E-03 0.318E-03 0.829E-02
   -.203E+00 -.203E+01 -.291E+03   0.207E+00 0.201E+01 0.291E+03   -.535E-02 0.203E-01 0.124E+00   -.437E-03 -.252E-03 0.879E-02
   0.951E-01 -.444E-01 0.326E+03   -.906E-01 0.407E-01 -.326E+03   -.165E-01 0.197E-01 -.631E+00   0.749E-04 -.199E-03 0.589E-02
   -.344E-01 -.416E-01 0.323E+03   0.460E-01 0.314E-01 -.323E+03   -.394E-01 0.398E-01 -.596E+00   -.262E-03 0.324E-03 0.587E-02
   -.909E-01 0.762E-01 0.952E+03   0.638E-01 -.109E+00 -.953E+03   0.105E-01 0.300E-01 0.108E+01   -.252E-03 0.404E-03 0.124E-02
   -.306E-01 -.231E-01 0.952E+03   0.194E-01 0.436E-01 -.953E+03   0.862E-02 0.177E-01 0.102E+01   0.522E-04 -.136E-03 0.112E-02
   -.204E+01 -.704E+01 -.950E+03   0.205E+01 0.718E+01 0.951E+03   -.881E-02 -.154E+00 -.153E+01   -.470E-04 0.424E-03 0.719E-02
   0.292E+01 0.118E+02 -.943E+03   -.303E+01 -.120E+02 0.945E+03   0.911E-01 0.104E+00 -.181E+01   0.461E-03 0.309E-03 0.697E-02
   -.673E+00 -.239E+01 -.301E+03   0.642E+00 0.235E+01 0.300E+03   0.296E-01 0.381E-01 0.128E+00   -.106E-03 0.775E-04 0.813E-02
   0.514E+00 -.941E+00 -.288E+03   -.548E+00 0.949E+00 0.288E+03   0.375E-01 -.694E-02 0.131E+00   0.241E-03 0.316E-04 0.904E-02
   -.150E+00 -.675E+00 0.324E+03   0.143E+00 0.681E+00 -.324E+03   0.228E-02 0.101E-01 -.502E+00   -.509E-04 -.438E-04 0.599E-02
   -.160E-01 0.278E+00 0.323E+03   -.401E-02 -.279E+00 -.323E+03   0.503E-01 0.367E-01 -.658E+00   0.275E-03 0.367E-03 0.586E-02
   0.207E-01 0.510E-01 0.952E+03   -.427E-01 -.348E-01 -.953E+03   -.173E-01 -.101E-01 0.102E+01   0.103E-03 -.519E-04 0.120E-02
   -.883E-01 0.908E-01 0.952E+03   0.125E+00 -.645E-01 -.953E+03   -.299E-01 -.916E-02 0.108E+01   -.307E-03 0.226E-03 0.127E-02
   0.759E+01 0.246E+01 -.950E+03   -.771E+01 -.247E+01 0.951E+03   0.141E+00 0.967E-02 -.153E+01   0.870E-03 0.530E-03 0.734E-02
   -.118E+02 -.266E+01 -.943E+03   0.119E+02 0.279E+01 0.945E+03   -.112E+00 -.985E-01 -.181E+01   -.200E-03 0.168E-03 0.713E-02
   0.945E+00 -.514E+00 -.289E+03   -.951E+00 0.552E+00 0.288E+03   0.546E-02 -.404E-01 0.126E+00   0.296E-03 -.132E-03 0.825E-02
   0.220E+01 0.709E+00 -.301E+03   -.215E+01 -.673E+00 0.300E+03   -.463E-01 -.361E-01 0.124E+00   -.764E-03 0.221E-03 0.776E-02
   0.629E+00 0.172E+00 0.324E+03   -.633E+00 -.163E+00 -.324E+03   -.129E-01 0.377E-03 -.501E+00   0.110E-03 0.200E-03 0.601E-02
   -.372E+00 0.131E+00 0.323E+03   0.375E+00 -.110E+00 -.323E+03   -.370E-01 -.452E-01 -.655E+00   -.174E-03 -.315E-03 0.589E-02
   -.745E-01 -.981E-01 0.952E+03   0.513E-01 0.115E+00 -.953E+03   -.654E-02 -.282E-01 0.108E+01   -.168E-03 -.350E-03 0.124E-02
   0.119E+00 0.752E-01 0.952E+03   -.132E+00 -.525E-01 -.953E+03   0.280E-01 0.725E-02 0.108E+01   0.358E-03 0.141E-03 0.125E-02
   -.795E+02 0.799E+02 -.916E+03   0.885E+02 -.887E+02 0.910E+03   -.902E+01 0.874E+01 0.497E+01   -.124E-02 0.276E-02 0.141E-01
   0.118E+02 -.119E+02 -.924E+03   -.121E+02 0.122E+02 0.926E+03   0.315E+00 -.317E+00 -.201E+01   0.491E-03 -.354E-03 0.701E-02
   -.261E+01 0.251E+00 -.303E+03   0.265E+01 -.346E-01 0.303E+03   -.440E-01 -.221E+00 0.181E+00   0.178E-03 -.293E-03 0.852E-02
   0.136E+00 0.281E+01 -.303E+03   -.354E+00 -.285E+01 0.303E+03   0.223E+00 0.439E-01 0.180E+00   0.290E-03 -.199E-03 0.839E-02
   -.901E+00 0.912E+00 0.328E+03   0.888E+00 -.897E+00 -.328E+03   -.133E-01 0.148E-01 -.283E+00   -.680E-04 0.910E-04 0.646E-02
   0.595E+00 -.497E+00 0.323E+03   -.627E+00 0.530E+00 -.323E+03   0.292E-01 -.250E-01 -.643E+00   0.144E-03 -.367E-03 0.573E-02
   0.300E+02 -.287E+02 -.170E+04   -.445E+02 0.429E+02 0.174E+04   0.143E+02 -.140E+02 -.340E+02   -.109E-01 0.914E-02 0.117E-01
 -----------------------------------------------------------------------------------------------
   -.692E+01 0.689E+01 0.364E+02   -.114E-12 -.298E-12 0.591E-11   0.689E+01 -.689E+01 -.371E+02   -.130E-01 0.882E-02 0.701E+00
 
 
 POSITION                                       TOTAL-FORCE (eV/Angst)
 -----------------------------------------------------------------------------------
      0.01447      9.28747      6.87003        -0.005707     -0.014079      0.030466
      2.33242      2.31060      6.87048         0.010743      0.008845      0.028052
      0.00000      2.32370      0.00000        -0.007037      0.006654      1.353054
      2.32370      0.00000      0.00000         0.001437     -0.002402      1.101682
      0.00000      0.00000      2.32366        -0.023098     -0.001440     -0.118631
      2.32370      2.32370      2.32366         0.001854      0.024967     -0.030669
     -0.00803      2.33123      4.62988         0.002136     -0.007183      0.025474
      2.32312      0.00219      4.60861         0.003626     -0.000629      0.015311
      4.63635      9.29362      6.86680         0.012719     -0.002820      0.028948
      6.98215      2.26517      6.91258         0.004893      0.020246      0.006464
      4.64740      2.32370      0.00000        -0.000184     -0.022902      1.348577
      6.97110      0.00000      0.00000         0.001310      0.004066      1.164123
      4.64740      0.00000      2.32366         0.048358     -0.050266     -0.070597
      6.97110      2.32370      2.32366        -0.010599     -0.108079     -0.063715
      4.65477      2.33135      4.63341         0.001555     -0.000554      0.022514
      6.97107      9.28608      4.61988         0.000446     -0.010290      0.025386
      0.05761      4.63725      6.91305        -0.016092     -0.010059     -0.004360
      2.32512      6.98191      6.86855         0.004679     -0.020037      0.031423
      0.00000      6.97110      0.00000         0.022596      0.000860      1.346757
      2.32370      4.64740      0.00000        -0.004810     -0.002359      1.161797
      0.00000      4.64740      2.32366         0.105000      0.010024     -0.145789
      2.32370      6.97110      2.32366         0.050083     -0.046520      0.021447
     -0.00788      6.96589      4.63341         0.003370     -0.001622      0.021755
      2.33125      4.64822      4.62012         0.008615     -0.001941      0.025386
      4.62148      4.64436      6.97840         0.089644     -0.015396      0.073567
      6.97657      6.99722      6.97841         0.012141     -0.097549      0.066810
      4.64740      6.97110      0.00000         0.017609     -0.016169      1.366319
      6.97110      4.64740      0.00000        -0.002658      0.001818      1.186932
      4.64740      4.64740      2.32366        -0.062788     -0.021433     -0.089796
      6.97110      6.97110      2.32366         0.021446      0.061169     -0.012218
      4.66043      6.95895      4.64309         0.007155     -0.006629      0.033290
      6.95831      4.66051      4.58422        -0.003345      0.003368      0.060570
      2.32370      2.32370      0.00000        -0.008862     -0.016091     -0.580603
      0.00000      0.00000      0.00000         0.020903      0.008333     -0.579720
      2.31990      0.00572      6.95908        -0.003926      0.005822      0.006051
      0.00433      2.32032      6.94819         0.011262     -0.011683     -0.014548
      2.32889      2.32716      4.64692         0.004097      0.002402      0.009535
     -0.00256      9.29058      4.64716        -0.001250     -0.004544      0.012772
      2.32370      0.00000      2.32366        -0.011196      0.015590     -0.497849
      0.00000      2.32370      2.32366        -0.027316      0.029792     -0.595628
      6.97110      2.32370      0.00000        -0.016252     -0.002603     -0.560781
      4.64740      0.00000      0.00000        -0.001844      0.037894     -0.595518
      6.97280      9.27764      6.99031         0.004022     -0.015967      0.056977
      4.64219      2.33065      6.96665        -0.022881     -0.011707     -0.004233
      6.97215      2.33800      4.67338        -0.001014     -0.007319      0.007012
      4.65109      0.00382      4.64241         0.003725      0.001059      0.013607
      6.97110      0.00000      2.32366        -0.004665      0.016072     -0.410125
      4.64740      2.32370      2.32366         0.031325      0.036145     -0.617661
      2.32370      6.97110      0.00000        -0.038469      0.005941     -0.594664
      0.00000      4.64740      0.00000         0.006761      0.017212     -0.557822
      2.34379      4.64780      6.99131         0.014962      0.001930      0.061040
      9.29071      6.97995      6.96665         0.015109      0.024845     -0.006815
      2.32050      6.96813      4.64324        -0.000088     -0.002742      0.008817
      9.27993      4.64713      4.67383         0.000663     -0.000124      0.006206
      2.32370      4.64740      2.32366        -0.016105      0.009255     -0.406713
      0.00000      6.97110      2.32366        -0.033454     -0.024846     -0.615661
      6.97110      6.97110      0.00000        -0.029244     -0.011402     -0.561323
      4.64740      4.64740      0.00000         0.015632      0.029990     -0.559989
      7.06766      4.56384      7.51865         0.027631     -0.054075     -0.744424
      4.60395      7.01574      6.92588        -0.053306      0.052304     -0.030834
      6.97240      6.96066      4.67168         0.004490     -0.004690      0.007906
      4.65893      4.64705      4.67100         0.006331     -0.004784      0.005565
      6.97110      4.64740      2.32366        -0.025817      0.029678     -0.198928
      4.64740      6.97110      2.32366        -0.002432      0.007212     -0.662828
      6.30540      5.31151      8.39680        -0.163885      0.159441     -0.809152
 -----------------------------------------------------------------------------------
    total drift:                               -0.044932      0.008415      0.052713


--------------------------------------------------------------------------------------------------------



  FREE ENERGIE OF THE ION-ELECTRON SYSTEM (eV)
  ---------------------------------------------------
  free  energy   TOTEN  =      -751.02007905 eV

  energy  without entropy=     -751.00876229  energy(sigma->0) =     -751.01442067
 
 d Force =-0.3395317E-02[-0.351E-02,-0.328E-02]  d Energy =-0.3386448E-02-0.887E-05
 d Force = 0.4125232E+02[ 0.413E+02, 0.412E+02]  d Ewald  = 0.4125232E+02-0.117E-05


--------------------------------------------------------------------------------------------------------


    POTLOK:  cpu time    0.5261: real time    0.5269


--------------------------------------------------------------------------------------------------------


 NEB: the previous image is higher in energy: F
 NEB: the next image is higher in energy    : T
 NEB: only next energy greater

 NEB: Tangent
 ----------------------------------------------
      0.00780      0.00676     -0.01130
     -0.00964     -0.00742     -0.01145
      0.00000      0.00000      0.00000
      0.00000      0.00000      0.00000
      0.00000      0.00000      0.00000
      0.00000      0.00000      0.00000
     -0.00424      0.00406     -0.00786
     -0.00134      0.00033     -0.00534
     -0.01164      0.00214     -0.01082
     -0.00448     -0.01390      0.02242
      0.00000      0.00000      0.00000
      0.00000      0.00000      0.00000
      0.00000      0.00000      0.00000
      0.00000      0.00000      0.00000
     -0.00054      0.00161     -0.00946
     -0.00069      0.00998     -0.01346
      0.00481      0.00314      0.03106
     -0.00323      0.01195     -0.01267
      0.00000      0.00000      0.00000
      0.00000      0.00000      0.00000
      0.00000      0.00000      0.00000
      0.00000      0.00000      0.00000
     -0.00254     -0.00054     -0.00971
     -0.01034      0.00132     -0.01232
     -0.08009      0.00764     -0.03800
     -0.00759      0.07966     -0.04052
      0.00000      0.00000      0.00000
      0.00000      0.00000      0.00000
      0.00000      0.00000      0.00000
      0.00000      0.00000      0.00000
     -0.00425      0.00502     -0.01777
      0.00500     -0.00614     -0.05417
      0.00000      0.00000      0.00000
      0.00000      0.00000      0.00000
      0.00310     -0.00285      0.00168
     -0.00860      0.00831      0.02510
     -0.00355      0.00047      0.00020
     -0.00036      0.00355     -0.00039
      0.00000      0.00000      0.00000
      0.00000      0.00000      0.00000
      0.00000      0.00000      0.00000
      0.00000      0.00000      0.00000
     -0.00001      0.01540     -0.02220
      0.01936      0.01105      0.01971
     -0.00021      0.00265      0.00414
     -0.00205     -0.00016      0.00071
      0.00000      0.00000      0.00000
      0.00000      0.00000      0.00000
      0.00000      0.00000      0.00000
      0.00000      0.00000      0.00000
     -0.01440      0.00167     -0.02250
     -0.01136     -0.01643      0.01975
      0.00034      0.00193      0.00135
     -0.00456      0.00067      0.00430
      0.00000      0.00000      0.00000
      0.00000      0.00000      0.00000
      0.00000      0.00000      0.00000
      0.00000      0.00000      0.00000
     -0.00744      0.05009      0.70854
      0.04178     -0.03870      0.03715
     -0.00207      0.00254      0.00635
     -0.00143      0.00230      0.00560
      0.00000      0.00000      0.00000
      0.00000      0.00000      0.00000
      0.09050     -0.10776      0.66625

 NEB: forces: par spring, perp REAL, dneb     0.095500    0.149844    0.000000
 NEB: distance to prev, next image, angle between     0.613920    0.633020  148.981893
 NEB: projections on to tangent (spring, REAL)     0.095500   -1.140616

 stress matrix after NEB project (eV)
    -34.69682     -1.00525     -0.22633
     -1.00525    -34.64341      0.05621
     -0.22633      0.05621    -19.25760
  FORCES: max atom, RMS     0.132938    0.022040
  FORCE total and by dimension    0.177689    0.131420
  Stress total and by dimension   52.697441   34.696820
 
 OPT: Flag T
 OPT: QM Step


--------------------------------------------------------------------------------------------------------


     LOOP+:  cpu time  258.3499: real time  261.4315
    4ORBIT:  cpu time    0.0000: real time    0.0000

 total amount of memory used by VASP MPI-rank0   163582. kBytes
=======================================================================

   base      :      30000. kBytes
   nonlr-proj:      14444. kBytes
   fftplans  :       7895. kBytes
   grid      :      27008. kBytes
   one-center:       1010. kBytes
   wavefun   :      83225. kBytes
 
  
  
 General timing and accounting informations for this job:
 ========================================================
  
                  Total CPU time used (sec):    13423.187
                            User time (sec):    13330.047
                          System time (sec):       93.140
                         Elapsed time (sec):    13597.842
  
                   Maximum memory used (kb):      882484.
                   Average memory used (kb):           0.
  
                          Minor page faults:      9705710
                          Major page faults:            0
                 Voluntary context switches:        96477
