PBE-grap                                
           1
     9.294800    0.000000    0.000000
     0.000000    9.294800    0.000000
     0.000000    0.000000   21.971100
   Hf   C    O 
  32  32   1
Direct configuration=     1
   0.00136037  0.99912943  0.31262009
   0.25099053  0.24890949  0.31260018
   0.00000000  0.25000000  0.00000000
   0.25000000  0.00000000  0.00000000
   0.00000000  0.00000000  0.10576000
   0.25000000  0.25000000  0.10576000
   0.00047945  0.24969070  0.21001069
   0.24991996  0.00028994  0.20961034
   0.49882966  0.99980050  0.31222005
   0.75099969  0.24176279  0.31226318
   0.50000000  0.25000000  0.00000000
   0.75000000  0.00000000  0.00000000
   0.50000000  0.00000000  0.10576000
   0.75000000  0.25000000  0.10576000
   0.50015033  0.24987015  0.21005065
   0.75009004  0.99866033  0.20967012
   0.00825750  0.49921010  0.31225315
   0.25030946  0.75123040  0.31222016
   0.00000000  0.75000000  0.00000000
   0.25000000  0.50000000  0.00000000
   0.00000000  0.50000000  0.10576000
   0.25000000  0.75000000  0.10576000
   0.00029991  0.75006962  0.21006065
   0.25153931  0.50000002  0.20965007
   0.49851793  0.50005042  0.31445484
   0.75011958  0.75147226  0.31453477
   0.50000000  0.75000000  0.00000000
   0.75000000  0.50000000  0.00000000
   0.50000000  0.50000000  0.10576000
   0.75000000  0.75000000  0.10576000
   0.50056025  0.74958990  0.21046010
   0.74849964  0.50165052  0.21117643
   0.25000000  0.25000000  0.00000000
   0.00000000  0.00000000  0.00000000
   0.24953998  0.00059003  0.31644997
   0.00061945  0.24952049  0.31652913
   0.25059003  0.24993998  0.21135971
   0.00016999  0.99954997  0.21136972
   0.25000000  0.00000000  0.10576000
   0.00000000  0.25000000  0.10576000
   0.75000000  0.25000000  0.00000000
   0.50000000  0.00000000  0.00000000
   0.75051985  0.99861895  0.31700967
   0.49947993  0.25078025  0.31664933
   0.75041995  0.25019180  0.21206004
   0.50013002  0.00037999  0.21090990
   0.75000000  0.00000000  0.10576000
   0.50000000  0.25000000  0.10576000
   0.25000000  0.75000000  0.00000000
   0.00000000  0.50000000  0.00000000
   0.25151114  0.49967016  0.31696969
   0.99939985  0.75067016  0.31665931
   0.24969000  0.74998996  0.21092990
   0.99994816  0.49977006  0.21206004
   0.25000000  0.50000000  0.10576000
   0.00000000  0.75000000  0.10576000
   0.75000000  0.75000000  0.00000000
   0.50000000  0.50000000  0.00000000
   0.75285058  0.49788926  0.34046249
   0.49354256  0.75646738  0.31398051
   0.75057941  0.75038763  0.21117095
   0.49977233  0.49959056  0.21109098
   0.75000000  0.50000000  0.10576000
   0.50000000  0.75000000  0.10576000
   0.68497265  0.56578726  0.39141683
Direct configuration=     2
   0.00136109  0.99912831  0.31262028
   0.25099159  0.24890847  0.31260052
   0.00000000  0.25000000  0.00000000
   0.25000000  0.00000000  0.00000000
   0.00000000  0.00000000  0.10576000
   0.25000000  0.25000000  0.10576000
   0.00047834  0.24969209  0.21001207
   0.24991987  0.00028983  0.20961101
   0.49882897  0.99980150  0.31222013
   0.75099908  0.24176837  0.31226954
   0.50000000  0.25000000  0.00000000
   0.75000000  0.00000000  0.00000000
   0.50000000  0.00000000  0.10576000
   0.75000000  0.25000000  0.10576000
   0.50015099  0.24987046  0.21005199
   0.75009011  0.99866099  0.20967037
   0.00825251  0.49921030  0.31225946
   0.25030839  0.75123121  0.31222049
   0.00000000  0.75000000  0.00000000
   0.25000000  0.50000000  0.00000000
   0.00000000  0.50000000  0.10576000
   0.25000000  0.75000000  0.10576000
   0.00029972  0.75006887  0.21006193
   0.25153794  0.50000007  0.20965022
   0.49851377  0.50005125  0.31446449
   0.75011873  0.75147678  0.31454430
   0.50000000  0.75000000  0.00000000
   0.75000000  0.50000000  0.00000000
   0.50000000  0.50000000  0.10576000
   0.75000000  0.75000000  0.10576000
   0.50056075  0.74958969  0.21046031
   0.74849893  0.50165156  0.21116928
   0.25000000  0.25000000  0.00000000
   0.00000000  0.00000000  0.00000000
   0.24953994  0.00059009  0.31644991
   0.00061835  0.24952148  0.31652738
   0.25059009  0.24993995  0.21135914
   0.00016997  0.99954990  0.21136915
   0.25000000  0.00000000  0.10576000
   0.00000000  0.25000000  0.10576000
   0.75000000  0.25000000  0.00000000
   0.50000000  0.00000000  0.00000000
   0.75051954  0.99861686  0.31700902
   0.49947978  0.25078076  0.31664798
   0.75041984  0.25019540  0.21206013
   0.50013005  0.00037998  0.21090969
   0.75000000  0.00000000  0.10576000
   0.50000000  0.25000000  0.10576000
   0.25000000  0.75000000  0.00000000
   0.00000000  0.50000000  0.00000000
   0.25151341  0.49967048  0.31696907
   0.99939956  0.75067048  0.31665794
   0.24969001  0.74998988  0.21092970
   0.99994449  0.49977017  0.21206012
   0.25000000  0.50000000  0.10576000
   0.00000000  0.75000000  0.10576000
   0.75000000  0.75000000  0.00000000
   0.50000000  0.50000000  0.00000000
   0.75285179  0.49788773  0.34046744
   0.49354767  0.75646215  0.31398153
   0.75057823  0.75038290  0.21117284
   0.49977699  0.49959167  0.21109293
   0.75000000  0.50000000  0.10576000
   0.50000000  0.75000000  0.10576000
   0.68497793  0.56578178  0.39139052
Direct configuration=     3
   0.00136218  0.99912662  0.31262055
   0.25099316  0.24890696  0.31260104
   0.00000000  0.25000000  0.00000000
   0.25000000  0.00000000  0.00000000
   0.00000000  0.00000000  0.10576000
   0.25000000  0.25000000  0.10576000
   0.00047667  0.24969419  0.21001413
   0.24991973  0.00028966  0.20961202
   0.49882794  0.99980299  0.31222026
   0.75099817  0.24177671  0.31227904
   0.50000000  0.25000000  0.00000000
   0.75000000  0.00000000  0.00000000
   0.50000000  0.00000000  0.10576000
   0.75000000  0.25000000  0.10576000
   0.50015197  0.24987095  0.21005399
   0.75009021  0.99866197  0.20967075
   0.00824505  0.49921059  0.31226890
   0.25030679  0.75123241  0.31222097
   0.00000000  0.75000000  0.00000000
   0.25000000  0.50000000  0.00000000
   0.00000000  0.50000000  0.10576000
   0.25000000  0.75000000  0.10576000
   0.00029942  0.75006774  0.21006386
   0.25153588  0.50000014  0.20965044
   0.49850753  0.50005250  0.31447893
   0.75011747  0.75148358  0.31455854
   0.50000000  0.75000000  0.00000000
   0.75000000  0.50000000  0.00000000
   0.50000000  0.50000000  0.10576000
   0.75000000  0.75000000  0.10576000
   0.50056152  0.74958936  0.21046062
   0.74849785  0.50165311  0.21115858
   0.25000000  0.25000000  0.00000000
   0.00000000  0.00000000  0.00000000
   0.24953987  0.00059019  0.31644983
   0.00061670  0.24952297  0.31652477
   0.25059018  0.24993991  0.21135828
   0.00016993  0.99954979  0.21136830
   0.25000000  0.00000000  0.10576000
   0.00000000  0.25000000  0.10576000
   0.75000000  0.25000000  0.00000000
   0.50000000  0.00000000  0.00000000
   0.75051908  0.99861372  0.31700806
   0.49947956  0.25078152  0.31664598
   0.75041968  0.25020080  0.21206027
   0.50013011  0.00037996  0.21090939
   0.75000000  0.00000000  0.10576000
   0.50000000  0.25000000  0.10576000
   0.25000000  0.75000000  0.00000000
   0.00000000  0.50000000  0.00000000
   0.25151681  0.49967095  0.31696814
   0.99939911  0.75067096  0.31665590
   0.24969003  0.74998977  0.21092942
   0.99993898  0.49977035  0.21206025
   0.25000000  0.50000000  0.10576000
   0.00000000  0.75000000  0.10576000
   0.75000000  0.75000000  0.00000000
   0.50000000  0.50000000  0.00000000
   0.75285374  0.49788530  0.34047478
   0.49355534  0.75645430  0.31398307
   0.75057646  0.75037581  0.21117570
   0.49978396  0.49959334  0.21109587
   0.75000000  0.50000000  0.10576000
   0.50000000  0.75000000  0.10576000
   0.68498573  0.56577368  0.39135107
Direct configuration=     4
   0.00136362  0.99912440  0.31262089
   0.25099525  0.24890495  0.31260171
   0.00000000  0.25000000  0.00000000
   0.25000000  0.00000000  0.00000000
   0.00000000  0.00000000  0.10576000
   0.25000000  0.25000000  0.10576000
   0.00047442  0.24969700  0.21001688
   0.24991955  0.00028943  0.20961334
   0.49882657  0.99980496  0.31222042
   0.75099699  0.24178788  0.31229170
   0.50000000  0.25000000  0.00000000
   0.75000000  0.00000000  0.00000000
   0.50000000  0.00000000  0.10576000
   0.75000000  0.25000000  0.10576000
   0.50015329  0.24987162  0.21005664
   0.75009036  0.99866327  0.20967126
   0.00823513  0.49921098  0.31228144
   0.25030466  0.75123400  0.31222159
   0.00000000  0.75000000  0.00000000
   0.25000000  0.50000000  0.00000000
   0.00000000  0.50000000  0.10576000
   0.25000000  0.75000000  0.10576000
   0.00029899  0.75006622  0.21006643
   0.25153316  0.50000023  0.20965075
   0.49849916  0.50005411  0.31449811
   0.75011590  0.75149274  0.31457749
   0.50000000  0.75000000  0.00000000
   0.75000000  0.50000000  0.00000000
   0.50000000  0.50000000  0.10576000
   0.75000000  0.75000000  0.10576000
   0.50056257  0.74958890  0.21046104
   0.74849636  0.50165526  0.21114433
   0.25000000  0.25000000  0.00000000
   0.00000000  0.00000000  0.00000000
   0.24953980  0.00059030  0.31644973
   0.00061448  0.24952496  0.31652130
   0.25059030  0.24993985  0.21135716
   0.00016987  0.99954965  0.21136719
   0.25000000  0.00000000  0.10576000
   0.00000000  0.25000000  0.10576000
   0.75000000  0.25000000  0.00000000
   0.50000000  0.00000000  0.00000000
   0.75051847  0.99860955  0.31700681
   0.49947928  0.25078254  0.31664332
   0.75041946  0.25020801  0.21206049
   0.50013019  0.00037993  0.21090900
   0.75000000  0.00000000  0.10576000
   0.50000000  0.25000000  0.10576000
   0.25000000  0.75000000  0.00000000
   0.00000000  0.50000000  0.00000000
   0.25152134  0.49967159  0.31696694
   0.99939851  0.75067158  0.31665320
   0.24969004  0.74998961  0.21092904
   0.99993163  0.49977058  0.21206046
   0.25000000  0.50000000  0.10576000
   0.00000000  0.75000000  0.10576000
   0.75000000  0.75000000  0.00000000
   0.50000000  0.50000000  0.00000000
   0.75285661  0.49788178  0.34048441
   0.49356559  0.75644382  0.31398516
   0.75057409  0.75036636  0.21117952
   0.49979325  0.49959557  0.21109981
   0.75000000  0.50000000  0.10576000
   0.50000000  0.75000000  0.10576000
   0.68499590  0.56576309  0.39129854
Direct configuration=     5
   0.00136539  0.99912164  0.31262131
   0.25099782  0.24890245  0.31260252
   0.00000000  0.25000000  0.00000000
   0.25000000  0.00000000  0.00000000
   0.00000000  0.00000000  0.10576000
   0.25000000  0.25000000  0.10576000
   0.00047158  0.24970054  0.21002030
   0.24991936  0.00028922  0.20961502
   0.49882487  0.99980740  0.31222061
   0.75099551  0.24180198  0.31230748
   0.50000000  0.25000000  0.00000000
   0.75000000  0.00000000  0.00000000
   0.50000000  0.00000000  0.10576000
   0.75000000  0.25000000  0.10576000
   0.50015497  0.24987252  0.21005996
   0.75009053  0.99866488  0.20967191
   0.00822281  0.49921146  0.31229701
   0.25030201  0.75123597  0.31222237
   0.00000000  0.75000000  0.00000000
   0.25000000  0.50000000  0.00000000
   0.00000000  0.50000000  0.10576000
   0.25000000  0.75000000  0.10576000
   0.00029839  0.75006428  0.21006963
   0.25152978  0.50000033  0.20965115
   0.49848872  0.50005617  0.31452199
   0.75011395  0.75150422  0.31460104
   0.50000000  0.75000000  0.00000000
   0.75000000  0.50000000  0.00000000
   0.50000000  0.50000000  0.10576000
   0.75000000  0.75000000  0.10576000
   0.50056392  0.74958825  0.21046159
   0.74849448  0.50165806  0.21112652
   0.25000000  0.25000000  0.00000000
   0.00000000  0.00000000  0.00000000
   0.24953971  0.00059043  0.31644962
   0.00061169  0.24952747  0.31651699
   0.25059045  0.24993979  0.21135577
   0.00016978  0.99954946  0.21136582
   0.25000000  0.00000000  0.10576000
   0.00000000  0.25000000  0.10576000
   0.75000000  0.25000000  0.00000000
   0.50000000  0.00000000  0.00000000
   0.75051769  0.99860435  0.31700527
   0.49947894  0.25078380  0.31664005
   0.75041917  0.25021701  0.21206080
   0.50013029  0.00037989  0.21090853
   0.75000000  0.00000000  0.10576000
   0.50000000  0.25000000  0.10576000
   0.25000000  0.75000000  0.00000000
   0.00000000  0.50000000  0.00000000
   0.25152698  0.49967237  0.31696548
   0.99939775  0.75067234  0.31664986
   0.24969006  0.74998939  0.21092860
   0.99992243  0.49977087  0.21206075
   0.25000000  0.50000000  0.10576000
   0.00000000  0.75000000  0.10576000
   0.75000000  0.75000000  0.00000000
   0.50000000  0.50000000  0.00000000
   0.75286066  0.49787691  0.34049617
   0.49357841  0.75643069  0.31398781
   0.75057113  0.75035457  0.21118434
   0.49980484  0.49959835  0.21110477
   0.75000000  0.50000000  0.10576000
   0.50000000  0.75000000  0.10576000
   0.68500831  0.56575024  0.39123297
Direct configuration=     6
   0.00136749  0.99911837  0.31262177
   0.25100086  0.24889949  0.31260347
   0.00000000  0.25000000  0.00000000
   0.25000000  0.00000000  0.00000000
   0.00000000  0.00000000  0.10576000
   0.25000000  0.25000000  0.10576000
   0.00046812  0.24970482  0.21002440
   0.24991921  0.00028892  0.20961704
   0.49882285  0.99981031  0.31222082
   0.75099368  0.24181882  0.31232637
   0.50000000  0.25000000  0.00000000
   0.75000000  0.00000000  0.00000000
   0.50000000  0.00000000  0.10576000
   0.75000000  0.25000000  0.10576000
   0.50015697  0.24987370  0.21006401
   0.75009084  0.99866690  0.20967273
   0.00820778  0.49921217  0.31231565
   0.25029888  0.75123832  0.31222326
   0.00000000  0.75000000  0.00000000
   0.25000000  0.50000000  0.00000000
   0.00000000  0.50000000  0.10576000
   0.25000000  0.75000000  0.10576000
   0.00029753  0.75006195  0.21007355
   0.25152577  0.50000044  0.20965166
   0.49847629  0.50005862  0.31455056
   0.75011154  0.75151814  0.31462912
   0.50000000  0.75000000  0.00000000
   0.75000000  0.50000000  0.00000000
   0.50000000  0.50000000  0.10576000
   0.75000000  0.75000000  0.10576000
   0.50056561  0.74958741  0.21046227
   0.74849218  0.50166130  0.21110517
   0.25000000  0.25000000  0.00000000
   0.00000000  0.00000000  0.00000000
   0.24953962  0.00059056  0.31644950
   0.00060832  0.24953050  0.31651185
   0.25059064  0.24993973  0.21135412
   0.00016967  0.99954923  0.21136419
   0.25000000  0.00000000  0.10576000
   0.00000000  0.25000000  0.10576000
   0.75000000  0.25000000  0.00000000
   0.50000000  0.00000000  0.00000000
   0.75051676  0.99859813  0.31700349
   0.49947857  0.25078533  0.31663616
   0.75041884  0.25022778  0.21206117
   0.50013042  0.00037983  0.21090800
   0.75000000  0.00000000  0.10576000
   0.50000000  0.25000000  0.10576000
   0.25000000  0.75000000  0.00000000
   0.00000000  0.50000000  0.00000000
   0.25153372  0.49967332  0.31696378
   0.99939671  0.75067318  0.31664593
   0.24969009  0.74998912  0.21092809
   0.99991150  0.49977116  0.21206113
   0.25000000  0.50000000  0.10576000
   0.00000000  0.75000000  0.10576000
   0.75000000  0.75000000  0.00000000
   0.50000000  0.50000000  0.00000000
   0.75286623  0.49787036  0.34050986
   0.49359375  0.75641504  0.31399104
   0.75056747  0.75034048  0.21119012
   0.49981871  0.49960165  0.21111070
   0.75000000  0.50000000  0.10576000
   0.50000000  0.75000000  0.10576000
   0.68502265  0.56573529  0.39115444
Direct configuration=     7
   0.00136989  0.99911463  0.31262225
   0.25100435  0.24889607  0.31260452
   0.00000000  0.25000000  0.00000000
   0.25000000  0.00000000  0.00000000
   0.00000000  0.00000000  0.10576000
   0.25000000  0.25000000  0.10576000
   0.00046401  0.24970987  0.21002915
   0.24991903  0.00028859  0.20961935
   0.49882052  0.99981368  0.31222102
   0.75099156  0.24183833  0.31234821
   0.50000000  0.25000000  0.00000000
   0.75000000  0.00000000  0.00000000
   0.50000000  0.00000000  0.10576000
   0.75000000  0.25000000  0.10576000
   0.50015938  0.24987515  0.21006882
   0.75009120  0.99866924  0.20967373
   0.00819047  0.49921283  0.31233740
   0.25029525  0.75124104  0.31222427
   0.00000000  0.75000000  0.00000000
   0.25000000  0.50000000  0.00000000
   0.00000000  0.50000000  0.10576000
   0.25000000  0.75000000  0.10576000
   0.00029637  0.75005911  0.21007830
   0.25152114  0.50000058  0.20965228
   0.49846176  0.50006154  0.31458368
   0.75010881  0.75153466  0.31466166
   0.50000000  0.75000000  0.00000000
   0.75000000  0.50000000  0.00000000
   0.50000000  0.50000000  0.10576000
   0.75000000  0.75000000  0.10576000
   0.50056767  0.74958632  0.21046310
   0.74848947  0.50166509  0.21108033
   0.25000000  0.25000000  0.00000000
   0.00000000  0.00000000  0.00000000
   0.24953953  0.00059071  0.31644939
   0.00060434  0.24953408  0.31650590
   0.25059086  0.24993968  0.21135224
   0.00016951  0.99954895  0.21136232
   0.25000000  0.00000000  0.10576000
   0.00000000  0.25000000  0.10576000
   0.75000000  0.25000000  0.00000000
   0.50000000  0.00000000  0.00000000
   0.75051566  0.99859091  0.31700148
   0.49947816  0.25078713  0.31663170
   0.75041843  0.25024035  0.21206167
   0.50013060  0.00037977  0.21090740
   0.75000000  0.00000000  0.10576000
   0.50000000  0.25000000  0.10576000
   0.25000000  0.75000000  0.00000000
   0.00000000  0.50000000  0.00000000
   0.25154155  0.49967443  0.31696187
   0.99939548  0.75067414  0.31664142
   0.24969012  0.74998879  0.21092752
   0.99989887  0.49977151  0.21206168
   0.25000000  0.50000000  0.10576000
   0.00000000  0.75000000  0.10576000
   0.75000000  0.75000000  0.00000000
   0.50000000  0.50000000  0.00000000
   0.75287373  0.49786171  0.34052523
   0.49361170  0.75639674  0.31399489
   0.75056323  0.75032419  0.21119686
   0.49983486  0.49960550  0.21111768
   0.75000000  0.50000000  0.10576000
   0.50000000  0.75000000  0.10576000
   0.68503835  0.56571850  0.39106302
Direct configuration=     8
   0.00137260  0.99911043  0.31262275
   0.25100826  0.24889221  0.31260565
   0.00000000  0.25000000  0.00000000
   0.25000000  0.00000000  0.00000000
   0.00000000  0.00000000  0.10576000
   0.25000000  0.25000000  0.10576000
   0.00045922  0.24971571  0.21003456
   0.24991882  0.00028820  0.20962194
   0.49881784  0.99981769  0.31222125
   0.75098922  0.24186041  0.31237306
   0.50000000  0.25000000  0.00000000
   0.75000000  0.00000000  0.00000000
   0.50000000  0.00000000  0.10576000
   0.75000000  0.25000000  0.10576000
   0.50016222  0.24987697  0.21007430
   0.75009163  0.99867187  0.20967491
   0.00817084  0.49921356  0.31236203
   0.25029117  0.75124410  0.31222538
   0.00000000  0.75000000  0.00000000
   0.25000000  0.50000000  0.00000000
   0.00000000  0.50000000  0.10576000
   0.25000000  0.75000000  0.10576000
   0.00029489  0.75005580  0.21008372
   0.25151593  0.50000071  0.20965305
   0.49844500  0.50006485  0.31462121
   0.75010525  0.75155406  0.31469859
   0.50000000  0.75000000  0.00000000
   0.75000000  0.50000000  0.00000000
   0.50000000  0.50000000  0.10576000
   0.75000000  0.75000000  0.10576000
   0.50057014  0.74958494  0.21046410
   0.74848636  0.50166941  0.21105203
   0.25000000  0.25000000  0.00000000
   0.00000000  0.00000000  0.00000000
   0.24953946  0.00059083  0.31644929
   0.00059975  0.24953822  0.31649916
   0.25059113  0.24993964  0.21135013
   0.00016930  0.99954862  0.21136023
   0.25000000  0.00000000  0.10576000
   0.00000000  0.25000000  0.10576000
   0.75000000  0.25000000  0.00000000
   0.50000000  0.00000000  0.00000000
   0.75051440  0.99858268  0.31699930
   0.49947773  0.25078918  0.31662670
   0.75041796  0.25025474  0.21206235
   0.50013081  0.00037968  0.21090676
   0.75000000  0.00000000  0.10576000
   0.50000000  0.25000000  0.10576000
   0.25000000  0.75000000  0.00000000
   0.00000000  0.50000000  0.00000000
   0.25155047  0.49967569  0.31695980
   0.99939407  0.75067518  0.31663636
   0.24969016  0.74998838  0.21092692
   0.99988443  0.49977191  0.21206242
   0.25000000  0.50000000  0.10576000
   0.00000000  0.75000000  0.10576000
   0.75000000  0.75000000  0.00000000
   0.50000000  0.50000000  0.00000000
   0.75288366  0.49785045  0.34054196
   0.49363229  0.75637576  0.31399941
   0.75055839  0.75030561  0.21120466
   0.49985328  0.49960991  0.21112575
   0.75000000  0.50000000  0.10576000
   0.50000000  0.75000000  0.10576000
   0.68505521  0.56570057  0.39095881
Direct configuration=     9
   0.00137559  0.99910582  0.31262324
   0.25101256  0.24888795  0.31260686
   0.00000000  0.25000000  0.00000000
   0.25000000  0.00000000  0.00000000
   0.00000000  0.00000000  0.10576000
   0.25000000  0.25000000  0.10576000
   0.00045375  0.24972232  0.21004076
   0.24991857  0.00028778  0.20962479
   0.49881487  0.99982215  0.31222147
   0.75098680  0.24188507  0.31240077
   0.50000000  0.25000000  0.00000000
   0.75000000  0.00000000  0.00000000
   0.50000000  0.00000000  0.10576000
   0.75000000  0.25000000  0.10576000
   0.50016551  0.24987924  0.21008045
   0.75009212  0.99867480  0.20967630
   0.00814831  0.49921441  0.31238966
   0.25028647  0.75124735  0.31222659
   0.00000000  0.75000000  0.00000000
   0.25000000  0.50000000  0.00000000
   0.00000000  0.50000000  0.10576000
   0.25000000  0.75000000  0.10576000
   0.00029302  0.75005199  0.21008979
   0.25151015  0.50000085  0.20965398
   0.49842622  0.50006854  0.31466304
   0.75010131  0.75157603  0.31473970
   0.50000000  0.75000000  0.00000000
   0.75000000  0.50000000  0.00000000
   0.50000000  0.50000000  0.10576000
   0.75000000  0.75000000  0.10576000
   0.50057308  0.74958320  0.21046529
   0.74848284  0.50167427  0.21102031
   0.25000000  0.25000000  0.00000000
   0.00000000  0.00000000  0.00000000
   0.24953941  0.00059094  0.31644922
   0.00059452  0.24954294  0.31649164
   0.25059144  0.24993965  0.21134781
   0.00016903  0.99954823  0.21135794
   0.25000000  0.00000000  0.10576000
   0.00000000  0.25000000  0.10576000
   0.75000000  0.25000000  0.00000000
   0.50000000  0.00000000  0.00000000
   0.75051298  0.99857349  0.31699698
   0.49947731  0.25079152  0.31662119
   0.75041740  0.25027097  0.21206326
   0.50013109  0.00037958  0.21090610
   0.75000000  0.00000000  0.10576000
   0.50000000  0.25000000  0.10576000
   0.25000000  0.75000000  0.00000000
   0.00000000  0.50000000  0.00000000
   0.25156046  0.49967712  0.31695761
   0.99939246  0.75067630  0.31663079
   0.24969021  0.74998790  0.21092632
   0.99986815  0.49977239  0.21206340
   0.25000000  0.50000000  0.10576000
   0.00000000  0.75000000  0.10576000
   0.75000000  0.75000000  0.00000000
   0.50000000  0.50000000  0.00000000
   0.75289634  0.49783616  0.34055969
   0.49365555  0.75635206  0.31400466
   0.75055293  0.75028475  0.21121355
   0.49987395  0.49961488  0.21113494
   0.75000000  0.50000000  0.10576000
   0.50000000  0.75000000  0.10576000
   0.68507292  0.56568191  0.39084194
Direct configuration=    10
   0.00137883  0.99910084  0.31262369
   0.25101721  0.24888307  0.31260803
   0.00000000  0.25000000  0.00000000
   0.25000000  0.00000000  0.00000000
   0.00000000  0.00000000  0.10576000
   0.25000000  0.25000000  0.10576000
   0.00044750  0.24972981  0.21004761
   0.24991828  0.00028734  0.20962787
   0.49881160  0.99982705  0.31222165
   0.75098442  0.24191223  0.31243137
   0.50000000  0.25000000  0.00000000
   0.75000000  0.00000000  0.00000000
   0.50000000  0.00000000  0.10576000
   0.75000000  0.25000000  0.10576000
   0.50016927  0.24988202  0.21008725
   0.75009267  0.99867801  0.20967792
   0.00812344  0.49921519  0.31242007
   0.25028133  0.75125091  0.31222786
   0.00000000  0.75000000  0.00000000
   0.25000000  0.50000000  0.00000000
   0.00000000  0.50000000  0.10576000
   0.25000000  0.75000000  0.10576000
   0.00029067  0.75004766  0.21009651
   0.25150382  0.50000100  0.20965509
   0.49840515  0.50007249  0.31470914
   0.75009700  0.75160072  0.31478498
   0.50000000  0.75000000  0.00000000
   0.75000000  0.50000000  0.00000000
   0.50000000  0.50000000  0.10576000
   0.75000000  0.75000000  0.10576000
   0.50057652  0.74958106  0.21046670
   0.74847905  0.50167978  0.21098511
   0.25000000  0.25000000  0.00000000
   0.00000000  0.00000000  0.00000000
   0.24953940  0.00059103  0.31644920
   0.00058863  0.24954828  0.31648339
   0.25059180  0.24993971  0.21134531
   0.00016866  0.99954779  0.21135546
   0.25000000  0.00000000  0.10576000
   0.00000000  0.25000000  0.10576000
   0.75000000  0.25000000  0.00000000
   0.50000000  0.00000000  0.00000000
   0.75051137  0.99856334  0.31699457
   0.49947699  0.25079389  0.31661525
   0.75041676  0.25028904  0.21206445
   0.50013143  0.00037947  0.21090545
   0.75000000  0.00000000  0.10576000
   0.50000000  0.25000000  0.10576000
   0.25000000  0.75000000  0.00000000
   0.00000000  0.50000000  0.00000000
   0.25157149  0.49967873  0.31695536
   0.99939064  0.75067750  0.31662475
   0.24969026  0.74998734  0.21092572
   0.99985002  0.49977297  0.21206465
   0.25000000  0.50000000  0.10576000
   0.00000000  0.75000000  0.10576000
   0.75000000  0.75000000  0.00000000
   0.50000000  0.50000000  0.00000000
   0.75291267  0.49781802  0.34057798
   0.49368126  0.75632592  0.31401057
   0.75054684  0.75026166  0.21122357
   0.49989684  0.49962044  0.21114529
   0.75000000  0.50000000  0.10576000
   0.50000000  0.75000000  0.10576000
   0.68509076  0.56566291  0.39071264
Direct configuration=    11
   0.00138231  0.99909551  0.31262408
   0.25102218  0.24887781  0.31260921
   0.00000000  0.25000000  0.00000000
   0.25000000  0.00000000  0.00000000
   0.00000000  0.00000000  0.10576000
   0.25000000  0.25000000  0.10576000
   0.00044028  0.24973838  0.21005506
   0.24991796  0.00028686  0.20963115
   0.49880797  0.99983251  0.31222188
   0.75098174  0.24194201  0.31246462
   0.50000000  0.25000000  0.00000000
   0.75000000  0.00000000  0.00000000
   0.50000000  0.00000000  0.10576000
   0.75000000  0.25000000  0.10576000
   0.50017356  0.24988539  0.21009503
   0.75009329  0.99868149  0.20967978
   0.00809641  0.49921600  0.31245306
   0.25027579  0.75125476  0.31222919
   0.00000000  0.75000000  0.00000000
   0.25000000  0.50000000  0.00000000
   0.00000000  0.50000000  0.10576000
   0.25000000  0.75000000  0.10576000
   0.00028774  0.75004284  0.21010404
   0.25149700  0.50000115  0.20965642
   0.49838148  0.50007701  0.31475935
   0.75009252  0.75162810  0.31483419
   0.50000000  0.75000000  0.00000000
   0.75000000  0.50000000  0.00000000
   0.50000000  0.50000000  0.10576000
   0.75000000  0.75000000  0.10576000
   0.50058055  0.74957843  0.21046835
   0.74847480  0.50168577  0.21094641
   0.25000000  0.25000000  0.00000000
   0.00000000  0.00000000  0.00000000
   0.24953945  0.00059107  0.31644925
   0.00058207  0.24955423  0.31647443
   0.25059228  0.24994005  0.21134273
   0.00016821  0.99954728  0.21135283
   0.25000000  0.00000000  0.10576000
   0.00000000  0.25000000  0.10576000
   0.75000000  0.25000000  0.00000000
   0.50000000  0.00000000  0.00000000
   0.75050959  0.99855225  0.31699214
   0.49947672  0.25079652  0.31660891
   0.75041602  0.25030895  0.21206595
   0.50013185  0.00037933  0.21090482
   0.75000000  0.00000000  0.10576000
   0.50000000  0.25000000  0.10576000
   0.25000000  0.75000000  0.00000000
   0.00000000  0.50000000  0.00000000
   0.25158356  0.49968049  0.31695309
   0.99938863  0.75067873  0.31661831
   0.24969033  0.74998667  0.21092516
   0.99983005  0.49977362  0.21206623
   0.25000000  0.50000000  0.10576000
   0.00000000  0.75000000  0.10576000
   0.75000000  0.75000000  0.00000000
   0.50000000  0.50000000  0.00000000
   0.75293339  0.49779530  0.34059648
   0.49370945  0.75629711  0.31401723
   0.75054030  0.75023641  0.21123466
   0.49992163  0.49962657  0.21115685
   0.75000000  0.50000000  0.10576000
   0.50000000  0.75000000  0.10576000
   0.68510807  0.56564392  0.39057106
Direct configuration=    12
   0.00138611  0.99908992  0.31262429
   0.25102741  0.24887220  0.31261036
   0.00000000  0.25000000  0.00000000
   0.25000000  0.00000000  0.00000000
   0.00000000  0.00000000  0.10576000
   0.25000000  0.25000000  0.10576000
   0.00043218  0.24974790  0.21006314
   0.24991760  0.00028637  0.20963461
   0.49880407  0.99983837  0.31222206
   0.75097891  0.24197412  0.31250032
   0.50000000  0.25000000  0.00000000
   0.75000000  0.00000000  0.00000000
   0.50000000  0.00000000  0.10576000
   0.75000000  0.25000000  0.10576000
   0.50017840  0.24988946  0.21010347
   0.75009399  0.99868523  0.20968193
   0.00806657  0.49921702  0.31248856
   0.25026987  0.75125890  0.31223054
   0.00000000  0.75000000  0.00000000
   0.25000000  0.50000000  0.00000000
   0.00000000  0.50000000  0.10576000
   0.25000000  0.75000000  0.10576000
   0.00028412  0.75003736  0.21011239
   0.25148972  0.50000130  0.20965799
   0.49835519  0.50008139  0.31481363
   0.75008774  0.75165867  0.31488709
   0.50000000  0.75000000  0.00000000
   0.75000000  0.50000000  0.00000000
   0.50000000  0.50000000  0.10576000
   0.75000000  0.75000000  0.10576000
   0.50058521  0.74957526  0.21047029
   0.74847034  0.50169241  0.21090439
   0.25000000  0.25000000  0.00000000
   0.00000000  0.00000000  0.00000000
   0.24953956  0.00059105  0.31644938
   0.00057483  0.24956084  0.31646481
   0.25059285  0.24994064  0.21134016
   0.00016764  0.99954671  0.21135006
   0.25000000  0.00000000  0.10576000
   0.00000000  0.25000000  0.10576000
   0.75000000  0.25000000  0.00000000
   0.50000000  0.00000000  0.00000000
   0.75050763  0.99854026  0.31698976
   0.49947651  0.25079940  0.31660223
   0.75041517  0.25033071  0.21206785
   0.50013236  0.00037919  0.21090425
   0.75000000  0.00000000  0.10576000
   0.50000000  0.25000000  0.10576000
   0.25000000  0.75000000  0.00000000
   0.00000000  0.50000000  0.00000000
   0.25159662  0.49968244  0.31695090
   0.99938641  0.75067999  0.31661151
   0.24969040  0.74998589  0.21092466
   0.99980840  0.49977418  0.21206814
   0.25000000  0.50000000  0.10576000
   0.00000000  0.75000000  0.10576000
   0.75000000  0.75000000  0.00000000
   0.50000000  0.50000000  0.00000000
   0.75295932  0.49776716  0.34061479
   0.49374032  0.75626557  0.31402479