<?xml version="1.0" encoding="ISO-8859-1"?>
<modeling>
 <generator>
  <i name="program" type="string">vasp </i>
  <i name="version" type="string">5.4.4.18Apr17-6-g9f103f2a35  </i>
  <i name="subversion" type="string">(build Jun 16 2022 14:25:58) complex            parallel </i>
  <i name="platform" type="string">LinuxIFC </i>
  <i name="date" type="string">2025 05 15 </i>
  <i name="time" type="string">00:01:46 </i>
 </generator>
 <incar>
  <i type="string" name="SYSTEM"> TS</i>
  <i type="string" name="PREC">normal</i>
  <i type="int" name="IBRION">     3</i>
  <i name="EDIFF">      0.00000010</i>
  <i name="EDIFFG">     -0.01000000</i>
  <i type="int" name="NSW">   400</i>
  <i type="int" name="ISIF">     2</i>
  <i type="int" name="ISYM">     0</i>
  <i name="ENCUT">    500.00000000</i>
  <i name="POTIM">      0.00000000</i>
  <i type="string" name="LREAL"> Auto</i>
  <i type="int" name="ISMEAR">     0</i>
  <i name="SIGMA">      0.01000000</i>
  <i type="logical" name="LWAVE"> F  </i>
  <i type="logical" name="LCHARG"> F  </i>
  <i type="logical" name="LASPH"> T  </i>
  <v type="int" name="KPOINT_BSE">    -1     0     0     0</v>
  <i type="logical" name="LASPH"> T  </i>
 </incar>
 <structure name="primitive_cell" >
  <crystal>
   <varray name="basis" >
    <v>       4.42708529      -2.55597888       0.00000000 </v>
    <v>       0.00000000       5.11195776       0.00000000 </v>
    <v>       0.00000000       0.00000000      15.00000000 </v>
   </varray>
   <i name="volume">    339.46609504 </i>
   <varray name="rec_basis" >
    <v>       0.22588225       0.00000000       0.00000000 </v>
    <v>       0.11294113       0.19561977       0.00000000 </v>
    <v>       0.00000000       0.00000000       0.06666667 </v>
   </varray>
  </crystal>
  <varray name="positions" >
   <v>       0.00000000       0.00000000       0.00000000 </v>
   <v>       0.16666667      -0.16666667       0.13912987 </v>
   <v>      -0.33333333      -0.16666667       0.13912987 </v>
   <v>       0.16666667       0.33333333       0.13912987 </v>
   <v>      -0.50000000       0.00000000       0.00000000 </v>
   <v>       0.00000000      -0.50000000       0.00000000 </v>
   <v>      -0.50000000      -0.50000000       0.00000000 </v>
   <v>      -0.33333333       0.33333333       0.13912987 </v>
   <v>       0.32777388       0.17224984       0.27622753 </v>
   <v>      -0.16915697      -0.33080542       0.27976969 </v>
   <v>      -0.17434045       0.16941348       0.27914805 </v>
   <v>       0.33059367      -0.32564752       0.27914313 </v>
   <v>      -0.02584171      -0.01547377       0.41677165 </v>
   <v>      -0.48439389      -0.47402112       0.41675396 </v>
   <v>       0.48243709       0.01764841       0.41933275 </v>
   <v>       0.00470398       0.49537680       0.42047336 </v>
   <v>       0.24448800       0.25553381       0.49819563 </v>
  </varray>
 </structure>
 <varray name="primitive_index" >
  <v type="int" >        1 </v>
  <v type="int" >        5 </v>
  <v type="int" >        8 </v>
  <v type="int" >       13 </v>
  <v type="int" >       12 </v>
  <v type="int" >        9 </v>
  <v type="int" >        4 </v>
  <v type="int" >       16 </v>
  <v type="int" >       14 </v>
  <v type="int" >        2 </v>
  <v type="int" >       10 </v>
  <v type="int" >        6 </v>
  <v type="int" >       15 </v>
  <v type="int" >        3 </v>
  <v type="int" >       11 </v>
  <v type="int" >        7 </v>
  <v type="int" >       17 </v>
 </varray>
 <kpoints>
  <generation param="Gamma">
   <v type="int" name="divisions">       9        9        2 </v>
   <v name="usershift">      0.00000000       0.00000000       0.00000000 </v>
   <v name="genvec1">      0.11111111       0.00000000       0.00000000 </v>
   <v name="genvec2">     -0.00000000       0.11111111       0.00000000 </v>
   <v name="genvec3">      0.00000000       0.00000000       0.50000000 </v>
   <v name="shift">      0.00000000       0.00000000       0.00000000 </v>
  </generation>
  <varray name="kpointlist" >
   <v>       0.00000000       0.00000000       0.00000000 </v>
   <v>       0.11111111       0.00000000       0.00000000 </v>
   <v>       0.22222222       0.00000000       0.00000000 </v>
   <v>       0.33333333       0.00000000       0.00000000 </v>
   <v>       0.44444444       0.00000000       0.00000000 </v>
   <v>      -0.00000000       0.11111111       0.00000000 </v>
   <v>       0.11111111       0.11111111       0.00000000 </v>
   <v>       0.22222222       0.11111111       0.00000000 </v>
   <v>       0.33333333       0.11111111       0.00000000 </v>
   <v>       0.44444444       0.11111111       0.00000000 </v>
   <v>      -0.44444444       0.11111111       0.00000000 </v>
   <v>      -0.33333333       0.11111111       0.00000000 </v>
   <v>      -0.22222222       0.11111111       0.00000000 </v>
   <v>      -0.11111111       0.11111111       0.00000000 </v>
   <v>       0.00000000       0.22222222       0.00000000 </v>
   <v>       0.11111111       0.22222222       0.00000000 </v>
   <v>       0.22222222       0.22222222       0.00000000 </v>
   <v>       0.33333333       0.22222222       0.00000000 </v>
   <v>       0.44444444       0.22222222       0.00000000 </v>
   <v>      -0.44444444       0.22222222       0.00000000 </v>
   <v>      -0.33333333       0.22222222       0.00000000 </v>
   <v>      -0.22222222       0.22222222       0.00000000 </v>
   <v>      -0.11111111       0.22222222       0.00000000 </v>
   <v>       0.00000000       0.33333333       0.00000000 </v>
   <v>       0.11111111       0.33333333       0.00000000 </v>
   <v>       0.22222222       0.33333333       0.00000000 </v>
   <v>       0.33333333       0.33333333       0.00000000 </v>
   <v>       0.44444444       0.33333333       0.00000000 </v>
   <v>      -0.44444444       0.33333333       0.00000000 </v>
   <v>      -0.33333333       0.33333333       0.00000000 </v>
   <v>      -0.22222222       0.33333333       0.00000000 </v>
   <v>      -0.11111111       0.33333333       0.00000000 </v>
   <v>       0.00000000       0.44444444       0.00000000 </v>
   <v>       0.11111111       0.44444444       0.00000000 </v>
   <v>       0.22222222       0.44444444       0.00000000 </v>
   <v>       0.33333333       0.44444444       0.00000000 </v>
   <v>       0.44444444       0.44444444       0.00000000 </v>
   <v>      -0.44444444       0.44444444       0.00000000 </v>
   <v>      -0.33333333       0.44444444       0.00000000 </v>
   <v>      -0.22222222       0.44444444       0.00000000 </v>
   <v>      -0.11111111       0.44444444       0.00000000 </v>
   <v>       0.00000000       0.00000000       0.50000000 </v>
   <v>       0.11111111       0.00000000       0.50000000 </v>
   <v>       0.22222222       0.00000000       0.50000000 </v>
   <v>       0.33333333       0.00000000       0.50000000 </v>
   <v>       0.44444444       0.00000000       0.50000000 </v>
   <v>      -0.00000000       0.11111111       0.50000000 </v>
   <v>       0.11111111       0.11111111       0.50000000 </v>
   <v>       0.22222222       0.11111111       0.50000000 </v>
   <v>       0.33333333       0.11111111       0.50000000 </v>
   <v>       0.44444444       0.11111111       0.50000000 </v>
   <v>      -0.44444444       0.11111111       0.50000000 </v>
   <v>      -0.33333333       0.11111111       0.50000000 </v>
   <v>      -0.22222222       0.11111111       0.50000000 </v>
   <v>      -0.11111111       0.11111111       0.50000000 </v>
   <v>       0.00000000       0.22222222       0.50000000 </v>
   <v>       0.11111111       0.22222222       0.50000000 </v>
   <v>       0.22222222       0.22222222       0.50000000 </v>
   <v>       0.33333333       0.22222222       0.50000000 </v>
   <v>       0.44444444       0.22222222       0.50000000 </v>
   <v>      -0.44444444       0.22222222       0.50000000 </v>
   <v>      -0.33333333       0.22222222       0.50000000 </v>
   <v>      -0.22222222       0.22222222       0.50000000 </v>
   <v>      -0.11111111       0.22222222       0.50000000 </v>
   <v>       0.00000000       0.33333333       0.50000000 </v>
   <v>       0.11111111       0.33333333       0.50000000 </v>
   <v>       0.22222222       0.33333333       0.50000000 </v>
   <v>       0.33333333       0.33333333       0.50000000 </v>
   <v>       0.44444444       0.33333333       0.50000000 </v>
   <v>      -0.44444444       0.33333333       0.50000000 </v>
   <v>      -0.33333333       0.33333333       0.50000000 </v>
   <v>      -0.22222222       0.33333333       0.50000000 </v>
   <v>      -0.11111111       0.33333333       0.50000000 </v>
   <v>       0.00000000       0.44444444       0.50000000 </v>
   <v>       0.11111111       0.44444444       0.50000000 </v>
   <v>       0.22222222       0.44444444       0.50000000 </v>
   <v>       0.33333333       0.44444444       0.50000000 </v>
   <v>       0.44444444       0.44444444       0.50000000 </v>
   <v>      -0.44444444       0.44444444       0.50000000 </v>
   <v>      -0.33333333       0.44444444       0.50000000 </v>
   <v>      -0.22222222       0.44444444       0.50000000 </v>
   <v>      -0.11111111       0.44444444       0.50000000 </v>
  </varray>
  <varray name="weights" >
   <v>       0.00617284 </v>
   <v>       0.01234568 </v>
   <v>       0.01234568 </v>
   <v>       0.01234568 </v>
   <v>       0.01234568 </v>
   <v>       0.01234568 </v>
   <v>       0.01234568 </v>
   <v>       0.01234568 </v>
   <v>       0.01234568 </v>
   <v>       0.01234568 </v>
   <v>       0.01234568 </v>
   <v>       0.01234568 </v>
   <v>       0.01234568 </v>
   <v>       0.01234568 </v>
   <v>       0.01234568 </v>
   <v>       0.01234568 </v>
   <v>       0.01234568 </v>
   <v>       0.01234568 </v>
   <v>       0.01234568 </v>
   <v>       0.01234568 </v>
   <v>       0.01234568 </v>
   <v>       0.01234568 </v>
   <v>       0.01234568 </v>
   <v>       0.01234568 </v>
   <v>       0.01234568 </v>
   <v>       0.01234568 </v>
   <v>       0.01234568 </v>
   <v>       0.01234568 </v>
   <v>       0.01234568 </v>
   <v>       0.01234568 </v>
   <v>       0.01234568 </v>
   <v>       0.01234568 </v>
   <v>       0.01234568 </v>
   <v>       0.01234568 </v>
   <v>       0.01234568 </v>
   <v>       0.01234568 </v>
   <v>       0.01234568 </v>
   <v>       0.01234568 </v>
   <v>       0.01234568 </v>
   <v>       0.01234568 </v>
   <v>       0.01234568 </v>
   <v>       0.00617284 </v>
   <v>       0.01234568 </v>
   <v>       0.01234568 </v>
   <v>       0.01234568 </v>
   <v>       0.01234568 </v>
   <v>       0.01234568 </v>
   <v>       0.01234568 </v>
   <v>       0.01234568 </v>
   <v>       0.01234568 </v>
   <v>       0.01234568 </v>
   <v>       0.01234568 </v>
   <v>       0.01234568 </v>
   <v>       0.01234568 </v>
   <v>       0.01234568 </v>
   <v>       0.01234568 </v>
   <v>       0.01234568 </v>
   <v>       0.01234568 </v>
   <v>       0.01234568 </v>
   <v>       0.01234568 </v>
   <v>       0.01234568 </v>
   <v>       0.01234568 </v>
   <v>       0.01234568 </v>
   <v>       0.01234568 </v>
   <v>       0.01234568 </v>
   <v>       0.01234568 </v>
   <v>       0.01234568 </v>
   <v>       0.01234568 </v>
   <v>       0.01234568 </v>
   <v>       0.01234568 </v>
   <v>       0.01234568 </v>
   <v>       0.01234568 </v>
   <v>       0.01234568 </v>
   <v>       0.01234568 </v>
   <v>       0.01234568 </v>
   <v>       0.01234568 </v>
   <v>       0.01234568 </v>
   <v>       0.01234568 </v>
   <v>       0.01234568 </v>
   <v>       0.01234568 </v>
   <v>       0.01234568 </v>
   <v>       0.01234568 </v>
  </varray>
 </kpoints>
 <parameters>
  <separator name="general" >
   <i type="string" name="SYSTEM">TS</i>
   <i type="logical" name="LCOMPAT"> F  </i>
  </separator>
  <separator name="electronic" >
   <i type="string" name="PREC">normal</i>
   <i name="ENMAX">    500.00000000</i>
   <i name="ENAUG">    605.39200000</i>
   <i name="EDIFF">      0.00000010</i>
   <i type="int" name="IALGO">    38</i>
   <i type="int" name="IWAVPR">    11</i>
   <i type="int" name="NBANDS">   114</i>
   <i name="NELECT">    182.00000000</i>
   <i type="int" name="TURBO">     0</i>
   <i type="int" name="IRESTART">     0</i>
   <i type="int" name="NREBOOT">     0</i>
   <i type="int" name="NMIN">     0</i>
   <i name="EREF">      0.00000000</i>
   <separator name="electronic smearing" >
    <i type="int" name="ISMEAR">     0</i>
    <i name="SIGMA">      0.01000000</i>
    <i name="KSPACING">      0.50000000</i>
    <i type="logical" name="KGAMMA"> T  </i>
   </separator>
   <separator name="electronic projectors" >
    <i type="logical" name="LREAL"> T  </i>
    <v name="ROPT">     -0.00050000     -0.00050000</v>
    <i type="int" name="LMAXPAW">  -100</i>
    <i type="int" name="LMAXMIX">     2</i>
    <i type="logical" name="NLSPLINE"> F  </i>
   </separator>
   <separator name="electronic startup" >
    <i type="int" name="ISTART">     0</i>
    <i type="int" name="ICHARG">     2</i>
    <i type="int" name="INIWAV">     1</i>
   </separator>
   <separator name="electronic spin" >
    <i type="int" name="ISPIN">     1</i>
    <i type="logical" name="LNONCOLLINEAR"> F  </i>
    <v name="MAGMOM">      1.00000000      1.00000000      1.00000000      1.00000000      1.00000000      1.00000000      1.00000000      1.00000000      1.00000000      1.00000000      1.00000000      1.00000000      1.00000000      1.00000000      1.00000000      1.00000000      1.00000000</v>
    <i name="NUPDOWN">     -1.00000000</i>
    <i type="logical" name="LSORBIT"> F  </i>
    <v name="SAXIS">      0.00000000      0.00000000      1.00000000</v>
    <i type="logical" name="LSPIRAL"> F  </i>
    <v name="QSPIRAL">      0.00000000      0.00000000      0.00000000</v>
    <i type="logical" name="LZEROZ"> F  </i>
   </separator>
   <separator name="electronic exchange-correlation" >
    <i type="logical" name="LASPH"> T  </i>
    <i type="logical" name="LMETAGGA"> F  </i>
   </separator>
   <separator name="electronic convergence" >
    <i type="int" name="NELM">    60</i>
    <i type="int" name="NELMDL">     0</i>
    <i type="int" name="NELMIN">     2</i>
    <i name="ENINI">    500.00000000</i>
    <separator name="electronic convergence detail" >
     <i type="logical" name="LDIAG"> T  </i>
     <i type="logical" name="LSUBROT"> F  </i>
     <i name="WEIMIN">      0.00100000</i>
     <i name="EBREAK">      0.00000000</i>
     <i name="DEPER">      0.30000000</i>
     <i type="int" name="NRMM">     4</i>
     <i name="TIME">      0.40000000</i>
    </separator>
   </separator>
   <separator name="electronic mixer" >
    <i name="AMIX">      0.40000000</i>
    <i name="BMIX">      1.00000000</i>
    <i name="AMIN">      0.10000000</i>
    <i name="AMIX_MAG">      1.60000000</i>
    <i name="BMIX_MAG">      1.00000000</i>
    <separator name="electronic mixer details" >
     <i type="int" name="IMIX">     4</i>
     <i type="logical" name="MIXFIRST"> F  </i>
     <i type="int" name="MAXMIX">   -45</i>
     <i name="WC">    100.00000000</i>
     <i type="int" name="INIMIX">     1</i>
     <i type="int" name="MIXPRE">     1</i>
     <i type="int" name="MREMOVE">     5</i>
    </separator>
   </separator>
   <separator name="electronic dipolcorrection" >
    <i type="logical" name="LDIPOL"> F  </i>
    <i type="logical" name="LMONO"> F  </i>
    <i type="int" name="IDIPOL">     0</i>
    <i name="EPSILON">      1.00000000</i>
    <v name="DIPOL">   -100.00000000   -100.00000000   -100.00000000</v>
    <i name="EFIELD">      0.00000000</i>
   </separator>
  </separator>
  <separator name="grids" >
   <i type="int" name="NGX">    28</i>
   <i type="int" name="NGY">    28</i>
   <i type="int" name="NGZ">    84</i>
   <i type="int" name="NGXF">    56</i>
   <i type="int" name="NGYF">    56</i>
   <i type="int" name="NGZF">   168</i>
   <i type="logical" name="ADDGRID"> F  </i>
  </separator>
  <separator name="ionic" >
   <i type="int" name="NSW">   400</i>
   <i type="int" name="IBRION">     3</i>
   <i type="int" name="MDALGO">     0</i>
   <i type="int" name="ISIF">     2</i>
   <i name="PSTRESS">      0.00000000</i>
   <i name="EDIFFG">     -0.01000000</i>
   <i type="int" name="NFREE">     0</i>
   <i name="POTIM">      0.00000000</i>
   <i name="SMASS">     -3.00000000</i>
   <i name="SCALEE">      1.00000000</i>
  </separator>
  <separator name="ionic md" >
   <i name="TEBEG">      0.00010000</i>
   <i name="TEEND">      0.00010000</i>
   <i type="int" name="NBLOCK">     1</i>
   <i type="int" name="KBLOCK">   400</i>
   <i type="int" name="NPACO">   256</i>
   <i name="APACO">     16.00000000</i>
  </separator>
  <separator name="symmetry" >
   <i type="int" name="ISYM">     0</i>
   <i name="SYMPREC">      0.00001000</i>
  </separator>
  <separator name="dos" >
   <i type="int" name="LORBIT">     0</i>
   <v name="RWIGS">     -1.00000000     -1.00000000</v>
   <i type="int" name="NEDOS">   301</i>
   <i name="EMIN">     10.00000000</i>
   <i name="EMAX">    -10.00000000</i>
   <i name="EFERMI">      0.00000000</i>
  </separator>
  <separator name="writing" >
   <i type="int" name="NWRITE">     2</i>
   <i type="logical" name="LWAVE"> F  </i>
   <i type="logical" name="LDOWNSAMPLE"> F  </i>
   <i type="logical" name="LCHARG"> F  </i>
   <i type="logical" name="LPARD"> F  </i>
   <i type="logical" name="LVTOT"> F  </i>
   <i type="logical" name="LVHAR"> F  </i>
   <i type="logical" name="LELF"> F  </i>
   <i type="logical" name="LOPTICS"> F  </i>
   <v name="STM">      0.00000000      0.00000000      0.00000000      0.00000000      0.00000000      0.00000000      0.00000000</v>
  </separator>
  <separator name="performance" >
   <i type="int" name="NPAR">     6</i>
   <i type="int" name="NSIM">     4</i>
   <i type="int" name="NBLK">    -1</i>
   <i type="logical" name="LPLANE"> T  </i>
   <i type="logical" name="LSCALAPACK"> T  </i>
   <i type="logical" name="LSCAAWARE"> F  </i>
   <i type="logical" name="LSCALU"> F  </i>
   <i type="logical" name="LASYNC"> F  </i>
   <i type="logical" name="LORBITALREAL"> F  </i>
  </separator>
  <separator name="miscellaneous" >
   <i type="int" name="IDIOT">     3</i>
   <i type="int" name="ISPECIAL">     0</i>
   <i type="logical" name="LMUSIC"> F  </i>
   <v name="POMASS">     63.54600000     16.00000000</v>
   <v name="DARWINR">      0.00000000      0.00000000</v>
   <v name="DARWINV">      1.00000000      1.00000000</v>
   <i type="logical" name="LCORR"> T  </i>
  </separator>
  <i type="logical" name="GGA_COMPAT"> T  </i>
  <i type="logical" name="LBERRY"> F  </i>
  <i type="int" name="ICORELEVEL">     0</i>
  <i type="logical" name="LDAU"> F  </i>
  <i type="int" name="I_CONSTRAINED_M">     0</i>
  <separator name="electronic exchange-correlation" >
   <i type="string" name="GGA">--</i>
   <i type="int" name="VOSKOWN">     0</i>
   <i type="logical" name="LHFCALC"> F  </i>
   <i type="string" name="PRECFOCK"></i>
   <i type="logical" name="LSYMGRAD"> F  </i>
   <i type="logical" name="LHFONE"> F  </i>
   <i type="logical" name="LRHFCALC"> F  </i>
   <i type="logical" name="LTHOMAS"> F  </i>
   <i type="logical" name="LMODELHF"> F  </i>
   <i name="ENCUT4O">     -1.00000000</i>
   <i type="int" name="EXXOEP">     0</i>
   <i type="int" name="FOURORBIT">     0</i>
   <i name="AEXX">      0.00000000</i>
   <i name="HFALPHA">      0.00000000</i>
   <i name="MCALPHA">      0.00000000</i>
   <i name="ALDAX">      1.00000000</i>
   <i name="AGGAX">      1.00000000</i>
   <i name="ALDAC">      1.00000000</i>
   <i name="AGGAC">      1.00000000</i>
   <i type="int" name="NKREDX">     1</i>
   <i type="int" name="NKREDY">     1</i>
   <i type="int" name="NKREDZ">     1</i>
   <i type="logical" name="SHIFTRED"> F  </i>
   <i type="logical" name="ODDONLY"> F  </i>
   <i type="logical" name="EVENONLY"> F  </i>
   <i type="int" name="LMAXFOCK">     0</i>
   <i type="int" name="NMAXFOCKAE">     0</i>
   <i type="logical" name="LFOCKAEDFT"> F  </i>
   <i name="HFSCREEN">      0.00000000</i>
   <i name="HFSCREENC">      0.00000000</i>
   <i type="int" name="NBANDSGWLOW">     0</i>
  </separator>
  <separator name="vdW DFT" >
   <i type="logical" name="LUSE_VDW"> F  </i>
   <i name="Zab_VDW">     -0.84910000</i>
   <i name="PARAM1">      0.12340000</i>
   <i name="PARAM2">      1.00000000</i>
   <i name="PARAM3">      0.00000000</i>
  </separator>
  <separator name="model GW" >
   <i type="int" name="MODEL_GW">     0</i>
   <i name="MODEL_EPS0">     11.98115630</i>
   <i name="MODEL_ALPHA">      1.00000000</i>
  </separator>
  <separator name="linear response parameters" >
   <i type="logical" name="LEPSILON"> F  </i>
   <i type="logical" name="LRPA"> F  </i>
   <i type="logical" name="LNABLA"> F  </i>
   <i type="logical" name="LVEL"> F  </i>
   <i type="int" name="KINTER">     0</i>
   <i name="CSHIFT">      0.10000000</i>
   <i name="OMEGAMAX">     -1.00000000</i>
   <i name="DEG_THRESHOLD">      0.00200000</i>
   <i name="RTIME">     -0.10000000</i>
   <i name="WPLASMAI">      0.00000000</i>
   <v name="DFIELD">      0.00000000      0.00000000      0.00000000</v>
   <v name="WPLASMA">      0.00000000      0.00000000      0.00000000      0.00000000      0.00000000      0.00000000      0.00000000      0.00000000      0.00000000</v>
  </separator>
  <separator name="orbital magnetization" >
   <i type="logical" name="NUCIND"> F  </i>
   <v name="MAGPOS">      0.00000000      0.00000000      0.00000000</v>
   <i type="logical" name="LNICSALL"> T  </i>
   <i type="logical" name="ORBITALMAG"> F  </i>
   <i type="logical" name="LMAGBLOCH"> F  </i>
   <i type="logical" name="LCHIMAG"> F  </i>
   <i type="logical" name="LGAUGE"> T  </i>
   <i type="int" name="MAGATOM">     0</i>
   <v name="MAGDIPOL">      0.00000000      0.00000000      0.00000000</v>
   <v name="AVECCONST">      0.00000000      0.00000000      0.00000000</v>
  </separator>
  <separator name="response functions" >
   <i type="logical" name="LADDER"> F  </i>
   <i type="logical" name="LRPAFORCE"> F  </i>
   <i type="logical" name="LFXC"> F  </i>
   <i type="logical" name="LHARTREE"> T  </i>
   <i type="int" name="IBSE">     0</i>
   <v type="int" name="KPOINT">    -1     0     0     0</v>
   <i type="logical" name="LTCTE"> F  </i>
   <i type="logical" name="LTETE"> F  </i>
   <i type="logical" name="LTRIPLET"> F  </i>
   <i type="logical" name="LFXCEPS"> F  </i>
   <i type="logical" name="LFXHEG"> F  </i>
   <i type="int" name="NATURALO">     2</i>
   <i type="logical" name="L2ORDER"> F  </i>
   <i type="logical" name="LMP2LT"> F  </i>
   <i type="logical" name="LUSEW"> F  </i>
   <i name="ENCUTGW">     -2.00000000</i>
   <i name="ENCUTGWSOFT">     -2.00000000</i>
   <i name="ENCUTLF">     -1.00000000</i>
   <i type="int" name="LMAXMP2">    -1</i>
   <i name="SCISSOR">      0.00000000</i>
   <i type="int" name="NOMEGA">     0</i>
   <i type="int" name="NOMEGAR">     0</i>
   <i type="int" name="NBANDSGW">    -1</i>
   <i type="int" name="NBANDSO">    -1</i>
   <i type="int" name="NBANDSV">    -1</i>
   <i type="int" name="NELM">     1</i>
   <i type="int" name="NELMHF">     1</i>
   <i type="int" name="DIM">     3</i>
   <i type="int" name="ANTIRES">     0</i>
   <i name="OMEGAMAX">    -30.00000000</i>
   <i name="OMEGAMIN">    -30.00000000</i>
   <i name="OMEGATL">   -200.00000000</i>
   <i type="int" name="OMEGAGRID">   140</i>
   <i name="CSHIFT">     -0.10000000</i>
   <i type="logical" name="SELFENERGY"> F  </i>
   <i type="logical" name="LSPECTRAL"> F  </i>
   <i type="logical" name="LSPECTRALGW"> F  </i>
   <i type="logical" name="LSINGLES"> F  </i>
   <i type="logical" name="LFERMIGW"> F  </i>
   <i type="logical" name="ODDONLYGW"> F  </i>
   <i type="logical" name="EVENONLYGW"> F  </i>
   <i type="int" name="NKREDLFX">     1</i>
   <i type="int" name="NKREDLFY">     1</i>
   <i type="int" name="NKREDLFZ">     1</i>
   <i type="int" name="MAXMEM">  2800</i>
   <i type="int" name="TELESCOPE">     0</i>
   <i type="int" name="TAUPAR">     1</i>
   <i type="int" name="OMEGAPAR">    -1</i>
   <i name="LAMBDA">      1.00000000</i>
  </separator>
  <separator name="External order field" >
   <i name="OFIELD_KAPPA">      0.00000000</i>
   <v name="OFIELD_K">      0.00000000      0.00000000      0.00000000</v>
   <i name="OFIELD_Q6_NEAR">      0.00000000</i>
   <i name="OFIELD_Q6_FAR">      0.00000000</i>
   <i name="OFIELD_A">      0.00000000</i>
  </separator>
  <separator name="solvation model" >
   <i type="logical" name="LSOL"> F  </i>
  </separator>
 </parameters>
 <atominfo>
  <atoms>      17 </atoms>
  <types>       2 </types>
  <array name="atoms" >
   <dimension dim="1">ion</dimension>
   <field type="string">element</field>
   <field type="int">atomtype</field>
   <set>
    <rc><c>Cu</c><c>   1</c></rc>
    <rc><c>Cu</c><c>   1</c></rc>
    <rc><c>Cu</c><c>   1</c></rc>
    <rc><c>Cu</c><c>   1</c></rc>
    <rc><c>Cu</c><c>   1</c></rc>
    <rc><c>Cu</c><c>   1</c></rc>
    <rc><c>Cu</c><c>   1</c></rc>
    <rc><c>Cu</c><c>   1</c></rc>
    <rc><c>Cu</c><c>   1</c></rc>
    <rc><c>Cu</c><c>   1</c></rc>
    <rc><c>Cu</c><c>   1</c></rc>
    <rc><c>Cu</c><c>   1</c></rc>
    <rc><c>Cu</c><c>   1</c></rc>
    <rc><c>Cu</c><c>   1</c></rc>
    <rc><c>Cu</c><c>   1</c></rc>
    <rc><c>Cu</c><c>   1</c></rc>
    <rc><c>O </c><c>   2</c></rc>
   </set>
  </array>
  <array name="atomtypes" >
   <dimension dim="1">type</dimension>
   <field type="int">atomspertype</field>
   <field type="string">element</field>
   <field>mass</field>
   <field>valence</field>
   <field type="string">pseudopotential</field>
   <set>
    <rc><c>  16</c><c>Cu</c><c>     63.54600000</c><c>     11.00000000</c><c>  PAW_PBE Cu 22Jun2005                  </c></rc>
    <rc><c>   1</c><c>O </c><c>     16.00000000</c><c>      6.00000000</c><c>  PAW_PBE O 08Apr2002                   </c></rc>
   </set>
  </array>
 </atominfo>
 <structure name="initialpos" >
  <crystal>
   <varray name="basis" >
    <v>       4.42708529      -2.55597888       0.00000000 </v>
    <v>       0.00000000       5.11195776       0.00000000 </v>
    <v>       0.00000000       0.00000000      15.00000000 </v>
   </varray>
   <i name="volume">    339.46609504 </i>
   <varray name="rec_basis" >
    <v>       0.22588225       0.00000000       0.00000000 </v>
    <v>       0.11294113       0.19561977       0.00000000 </v>
    <v>       0.00000000       0.00000000       0.06666667 </v>
   </varray>
  </crystal>
  <varray name="positions" >
   <v>       0.00000000       0.00000000       0.00000000 </v>
   <v>       0.83084303       0.66919458       0.27976969 </v>
   <v>       0.51560611       0.52597888       0.41675396 </v>
   <v>       0.50000000       0.50000000       0.00000000 </v>
   <v>       0.16666667       0.83333333       0.13912987 </v>
   <v>       0.33059367       0.67435248       0.27914313 </v>
   <v>       0.00470398       0.49537680       0.42047336 </v>
   <v>       0.66666667       0.83333333       0.13912987 </v>
   <v>       0.00000000       0.50000000       0.00000000 </v>
   <v>       0.82565955       0.16941348       0.27914805 </v>
   <v>       0.48243709       0.01764841       0.41933275 </v>
   <v>       0.50000000       0.00000000       0.00000000 </v>
   <v>       0.16666667       0.33333333       0.13912987 </v>
   <v>       0.32777388       0.17224984       0.27622753 </v>
   <v>       0.97415829       0.98452623       0.41677165 </v>
   <v>       0.66666667       0.33333333       0.13912987 </v>
   <v>       0.24448800       0.25553381       0.49819563 </v>
  </varray>
  <varray name="selective"  type="logical" >
   <v type="logical" >  F  F  F </v>
   <v type="logical" >  T  T  T </v>
   <v type="logical" >  T  T  T </v>
   <v type="logical" >  F  F  F </v>
   <v type="logical" >  F  F  F </v>
   <v type="logical" >  T  T  T </v>
   <v type="logical" >  T  T  T </v>
   <v type="logical" >  F  F  F </v>
   <v type="logical" >  F  F  F </v>
   <v type="logical" >  T  T  T </v>
   <v type="logical" >  T  T  T </v>
   <v type="logical" >  F  F  F </v>
   <v type="logical" >  F  F  F </v>
   <v type="logical" >  T  T  T </v>
   <v type="logical" >  T  T  T </v>
   <v type="logical" >  F  F  F </v>
   <v type="logical" >  T  T  T </v>
  </varray>
  <nose>
   <v>      -3.00000000       0.00000000       0.00010000       0.00010000 </v>
  </nose>
 </structure>
 <calculation>
  <scstep>
   <time name="dav">    9.89    9.89</time>
   <time name="total">   10.07   10.08</time>
   <energy>
    <i name="alphaZ">    582.73103390 </i>
    <i name="ewald">  14007.25774382 </i>
    <i name="hartreedc"> -36490.60244831 </i>
    <i name="XCdc">    756.55696332 </i>
    <i name="pawpsdc">  19997.85603494 </i>
    <i name="pawaedc"> -21693.12362158 </i>
    <i name="eentropy">     -0.00040676 </i>
    <i name="bandstr">   1946.99440363 </i>
    <i name="atom">  22687.98115858 </i>
    <i name="e_fr_energy">   1795.65086154 </i>
    <i name="e_wo_entrp">   1795.65126830 </i>
    <i name="e_0_energy">   1795.65106492 </i>
   </energy>
  </scstep>
  <scstep>
   <time name="dav">    9.88    9.88</time>
   <time name="total">    9.88    9.88</time>
   <energy>
    <i name="e_fr_energy">    229.11777758 </i>
    <i name="e_wo_entrp">    229.11817421 </i>
    <i name="e_0_energy">    229.11797590 </i>
   </energy>
  </scstep>
  <scstep>
   <time name="dav">   11.01   11.01</time>
   <time name="total">   11.02   11.02</time>
   <energy>
    <i name="e_fr_energy">    -51.21750271 </i>
    <i name="e_wo_entrp">    -51.21709244 </i>
    <i name="e_0_energy">    -51.21729757 </i>
   </energy>
  </scstep>
  <scstep>
   <time name="dav">   13.10   13.10</time>
   <time name="total">   13.10   13.10</time>
   <energy>
    <i name="e_fr_energy">    -77.35373595 </i>
    <i name="e_wo_entrp">    -77.35313144 </i>
    <i name="e_0_energy">    -77.35343370 </i>
   </energy>
  </scstep>
  <scstep>
   <time name="dav">   11.72   11.72</time>
   <time name="total">   12.05   12.05</time>
   <energy>
    <i name="e_fr_energy">    -78.24993822 </i>
    <i name="e_wo_entrp">    -78.24919339 </i>
    <i name="e_0_energy">    -78.24956581 </i>
   </energy>
  </scstep>
  <scstep>
   <time name="dav">   11.83   11.83</time>
   <time name="total">   12.34   12.34</time>
   <energy>
    <i name="e_fr_energy">    -71.45489962 </i>
    <i name="e_wo_entrp">    -71.45449535 </i>
    <i name="e_0_energy">    -71.45469748 </i>
   </energy>
  </scstep>
  <scstep>
   <time name="dav">   12.60   12.60</time>
   <time name="total">   13.11   13.11</time>
   <energy>
    <i name="e_fr_energy">    -63.67829961 </i>
    <i name="e_wo_entrp">    -63.67752507 </i>
    <i name="e_0_energy">    -63.67791234 </i>
   </energy>
  </scstep>
  <scstep>
   <time name="dav">   13.44   13.44</time>
   <time name="total">   13.95   13.95</time>
   <energy>
    <i name="e_fr_energy">    -62.40637969 </i>
    <i name="e_wo_entrp">    -62.40632802 </i>
    <i name="e_0_energy">    -62.40635386 </i>
   </energy>
  </scstep>
  <scstep>
   <time name="dav">   13.22   13.22</time>
   <time name="total">   13.72   13.72</time>
   <energy>
    <i name="e_fr_energy">    -62.27137470 </i>
    <i name="e_wo_entrp">    -62.27031548 </i>
    <i name="e_0_energy">    -62.27084509 </i>
   </energy>
  </scstep>
  <scstep>
   <time name="dav">   13.67   13.67</time>
   <time name="total">   14.18   14.18</time>
   <energy>
    <i name="e_fr_energy">    -62.16234965 </i>
    <i name="e_wo_entrp">    -62.16173910 </i>
    <i name="e_0_energy">    -62.16204437 </i>
   </energy>
  </scstep>
  <scstep>
   <time name="dav">   13.54   13.54</time>
   <time name="total">   14.05   14.05</time>
   <energy>
    <i name="e_fr_energy">    -62.14865683 </i>
    <i name="e_wo_entrp">    -62.14798021 </i>
    <i name="e_0_energy">    -62.14831852 </i>
   </energy>
  </scstep>
  <scstep>
   <time name="dav">   13.58   13.58</time>
   <time name="total">   14.09   14.09</time>
   <energy>
    <i name="e_fr_energy">    -62.12820647 </i>
    <i name="e_wo_entrp">    -62.12782363 </i>
    <i name="e_0_energy">    -62.12801505 </i>
   </energy>
  </scstep>
  <scstep>
   <time name="dav">   13.47   13.47</time>
   <time name="total">   13.97   13.97</time>
   <energy>
    <i name="e_fr_energy">    -62.11137204 </i>
    <i name="e_wo_entrp">    -62.11108090 </i>
    <i name="e_0_energy">    -62.11122647 </i>
   </energy>
  </scstep>
  <scstep>
   <time name="dav">   12.43   12.43</time>
   <time name="total">   12.96   12.96</time>
   <energy>
    <i name="e_fr_energy">    -62.10315513 </i>
    <i name="e_wo_entrp">    -62.10261518 </i>
    <i name="e_0_energy">    -62.10288515 </i>
   </energy>
  </scstep>
  <scstep>
   <time name="dav">   13.53   13.53</time>
   <time name="total">   14.04   14.04</time>
   <energy>
    <i name="e_fr_energy">    -62.10409177 </i>
    <i name="e_wo_entrp">    -62.10352766 </i>
    <i name="e_0_energy">    -62.10380972 </i>
   </energy>
  </scstep>
  <scstep>
   <time name="dav">   11.67   11.67</time>
   <time name="total">   12.17   12.17</time>
   <energy>
    <i name="e_fr_energy">    -62.10402932 </i>
    <i name="e_wo_entrp">    -62.10334815 </i>
    <i name="e_0_energy">    -62.10368873 </i>
   </energy>
  </scstep>
  <scstep>
   <time name="dav">   14.74   14.74</time>
   <time name="total">   15.26   15.27</time>
   <energy>
    <i name="e_fr_energy">    -62.10419917 </i>
    <i name="e_wo_entrp">    -62.10344673 </i>
    <i name="e_0_energy">    -62.10382295 </i>
   </energy>
  </scstep>
  <scstep>
   <time name="dav">   11.27   11.27</time>
   <time name="total">   11.77   11.77</time>
   <energy>
    <i name="e_fr_energy">    -62.10404148 </i>
    <i name="e_wo_entrp">    -62.10336033 </i>
    <i name="e_0_energy">    -62.10370091 </i>
   </energy>
  </scstep>
  <scstep>
   <time name="dav">   14.42   14.42</time>
   <time name="total">   14.93   14.93</time>
   <energy>
    <i name="e_fr_energy">    -62.10409061 </i>
    <i name="e_wo_entrp">    -62.10348595 </i>
    <i name="e_0_energy">    -62.10378828 </i>
   </energy>
  </scstep>
  <scstep>
   <time name="dav">   12.69   12.69</time>
   <time name="total">   13.20   13.20</time>
   <energy>
    <i name="e_fr_energy">    -62.10415243 </i>
    <i name="e_wo_entrp">    -62.10352822 </i>
    <i name="e_0_energy">    -62.10384033 </i>
   </energy>
  </scstep>
  <scstep>
   <time name="dav">   12.96   12.96</time>
   <time name="total">   13.47   13.47</time>
   <energy>
    <i name="e_fr_energy">    -62.10418896 </i>
    <i name="e_wo_entrp">    -62.10354708 </i>
    <i name="e_0_energy">    -62.10386802 </i>
   </energy>
  </scstep>
  <scstep>
   <time name="dav">   12.19   12.19</time>
   <time name="total">   12.70   12.70</time>
   <energy>
    <i name="e_fr_energy">    -62.10422164 </i>
    <i name="e_wo_entrp">    -62.10358973 </i>
    <i name="e_0_energy">    -62.10390568 </i>
   </energy>
  </scstep>
  <scstep>
   <time name="dav">   13.07   13.07</time>
   <time name="total">   13.58   13.58</time>
   <energy>
    <i name="e_fr_energy">    -62.10424844 </i>
    <i name="e_wo_entrp">    -62.10360766 </i>
    <i name="e_0_energy">    -62.10392805 </i>
   </energy>
  </scstep>
  <scstep>
   <time name="dav">   13.09   13.09</time>
   <time name="total">   13.60   13.60</time>
   <energy>
    <i name="e_fr_energy">    -62.10425470 </i>
    <i name="e_wo_entrp">    -62.10361792 </i>
    <i name="e_0_energy">    -62.10393631 </i>
   </energy>
  </scstep>
  <scstep>
   <time name="dav">   10.82   10.82</time>
   <time name="total">   11.32   11.32</time>
   <energy>
    <i name="e_fr_energy">    -62.10425703 </i>
    <i name="e_wo_entrp">    -62.10361741 </i>
    <i name="e_0_energy">    -62.10393722 </i>
   </energy>
  </scstep>
  <scstep>
   <time name="dav">   11.29   11.29</time>
   <time name="total">   11.80   11.80</time>
   <energy>
    <i name="e_fr_energy">    -62.10425911 </i>
    <i name="e_wo_entrp">    -62.10362289 </i>
    <i name="e_0_energy">    -62.10394100 </i>
   </energy>
  </scstep>
  <scstep>
   <time name="dav">    8.63    8.63</time>
   <time name="total">    8.81    8.81</time>
   <energy>
    <i name="alphaZ">    582.73103390 </i>
    <i name="ewald">  14007.25774382 </i>
    <i name="hartreedc"> -36190.54367655 </i>
    <i name="XCdc">    740.89750204 </i>
    <i name="pawpsdc">  21369.81101814 </i>
    <i name="pawaedc"> -23096.26854953 </i>
    <i name="eentropy">     -0.00063666 </i>
    <i name="bandstr">   -163.96985291 </i>
    <i name="atom">  22687.98115858 </i>
    <i name="e_fr_energy">    -62.10425918 </i>
    <i name="e_wo_entrp">    -62.10362252 </i>
    <i name="e_0_energy">    -62.10394085 </i>
   </energy>
  </scstep>
  <structure>
   <crystal>
    <varray name="basis" >
     <v>       4.42708529      -2.55597888       0.00000000 </v>
     <v>       0.00000000       5.11195776       0.00000000 </v>
     <v>       0.00000000       0.00000000      15.00000000 </v>
    </varray>
    <i name="volume">    339.46609504 </i>
    <varray name="rec_basis" >
     <v>       0.22588225       0.00000000       0.00000000 </v>
     <v>       0.11294113       0.19561977       0.00000000 </v>
     <v>       0.00000000       0.00000000       0.06666667 </v>
    </varray>
   </crystal>
   <varray name="positions" >
    <v>       0.00000000       0.00000000       0.00000000 </v>
    <v>       0.83084303       0.66919458       0.27976969 </v>
    <v>       0.51560611       0.52597888       0.41675396 </v>
    <v>       0.50000000       0.50000000       0.00000000 </v>
    <v>       0.16666667       0.83333333       0.13912987 </v>
    <v>       0.33059367       0.67435248       0.27914313 </v>
    <v>       0.00470398       0.49537680       0.42047336 </v>
    <v>       0.66666667       0.83333333       0.13912987 </v>
    <v>       0.00000000       0.50000000       0.00000000 </v>
    <v>       0.82565955       0.16941348       0.27914805 </v>
    <v>       0.48243709       0.01764841       0.41933275 </v>
    <v>       0.50000000       0.00000000       0.00000000 </v>
    <v>       0.16666667       0.33333333       0.13912987 </v>
    <v>       0.32777388       0.17224984       0.27622753 </v>
    <v>       0.97415829       0.98452623       0.41677165 </v>
    <v>       0.66666667       0.33333333       0.13912987 </v>
    <v>       0.24448800       0.25553381       0.49819563 </v>
   </varray>
  </structure>
  <varray name="forces" >
   <v>      -0.03198132      -0.02539366      -0.00080691 </v>
   <v>       0.00767396      -0.01294695      -0.00012052 </v>
   <v>       0.00994735      -0.03996072       0.00394318 </v>
   <v>       0.03798514       0.01497950      -0.00079769 </v>
   <v>      -0.05476050       0.00587990      -0.02249720 </v>
   <v>       0.00255807      -0.00846094       0.00057005 </v>
   <v>       0.02538977      -0.04371018       0.02468632 </v>
   <v>      -0.01236506       0.02153804      -0.01532638 </v>
   <v>      -0.01835427       0.03177152       0.00626067 </v>
   <v>       0.00625101      -0.00628838       0.00056867 </v>
   <v>       0.00810663      -0.01367918      -0.01595654 </v>
   <v>       0.01817433      -0.03146359       0.02604249 </v>
   <v>      -0.02083080       0.03599931       0.02979030 </v>
   <v>       0.00415164      -0.00681591      -0.00130857 </v>
   <v>       0.02418082      -0.03184434      -0.00152661 </v>
   <v>       0.02243136       0.05035799      -0.02233545 </v>
   <v>      -0.02855813       0.06003757      -0.01118581 </v>
  </varray>
  <varray name="stress" >
   <v>       4.42248272       8.45369854       0.23390202 </v>
   <v>       8.45369833      -5.35270449      -0.35970482 </v>
   <v>       0.23390306      -0.35970639      -1.70224862 </v>
  </varray>
  <energy>
   <i name="e_fr_energy">    -62.10425918 </i>
   <i name="e_wo_entrp">    -62.10394085 </i>
   <i name="e_0_energy">     -0.00063666 </i>
  </energy>
  <time name="totalsc">  362.93  362.95</time>
 </calculation>
 <calculation>
  <scstep>
   <time name="dav">   10.15   10.15</time>
   <time name="total">   10.66   10.66</time>
   <energy>
    <i name="alphaZ">    582.73103390 </i>
    <i name="ewald">  14007.17640972 </i>
    <i name="hartreedc"> -36190.47050645 </i>
    <i name="XCdc">    740.89855838 </i>
    <i name="pawpsdc">  21369.84367556 </i>
    <i name="pawaedc"> -23096.30470889 </i>
    <i name="eentropy">     -0.00063911 </i>
    <i name="bandstr">   -163.95928274 </i>
    <i name="atom">  22687.98115858 </i>
    <i name="e_fr_energy">    -62.10430104 </i>
    <i name="e_wo_entrp">    -62.10366193 </i>
    <i name="e_0_energy">    -62.10398148 </i>
   </energy>
  </scstep>
  <scstep>
   <time name="dav">   13.50   13.50</time>
   <time name="total">   14.02   14.02</time>
   <energy>
    <i name="e_fr_energy">    -62.10431610 </i>
    <i name="e_wo_entrp">    -62.10368133 </i>
    <i name="e_0_energy">    -62.10399871 </i>
   </energy>
  </scstep>
  <scstep>
   <time name="dav">   11.10   11.10</time>
   <time name="total">   11.61   11.61</time>
   <energy>
    <i name="e_fr_energy">    -62.10431615 </i>
    <i name="e_wo_entrp">    -62.10367421 </i>
    <i name="e_0_energy">    -62.10399518 </i>
   </energy>
  </scstep>
  <scstep>
   <time name="dav">   11.31   11.31</time>
   <time name="total">   11.83   11.83</time>
   <energy>
    <i name="e_fr_energy">    -62.10431574 </i>
    <i name="e_wo_entrp">    -62.10367859 </i>
    <i name="e_0_energy">    -62.10399717 </i>
   </energy>
  </scstep>
  <scstep>
   <time name="dav">   14.04   14.04</time>
   <time name="total">   14.55   14.55</time>
   <energy>
    <i name="e_fr_energy">    -62.10431560 </i>
    <i name="e_wo_entrp">    -62.10367632 </i>
    <i name="e_0_energy">    -62.10399596 </i>
   </energy>
  </scstep>
  <scstep>
   <time name="dav">   11.44   11.44</time>
   <time name="total">   11.95   11.95</time>
   <energy>
    <i name="e_fr_energy">    -62.10431547 </i>
    <i name="e_wo_entrp">    -62.10367753 </i>
    <i name="e_0_energy">    -62.10399650 </i>
   </energy>
  </scstep>
  <scstep>
   <time name="dav">    7.41    7.41</time>
   <time name="total">    7.60    7.60</time>
   <energy>
    <i name="alphaZ">    582.73103390 </i>
    <i name="ewald">  14007.17640972 </i>
    <i name="hartreedc"> -36190.48445482 </i>
    <i name="XCdc">    740.89849209 </i>
    <i name="pawpsdc">  21369.92641039 </i>
    <i name="pawaedc"> -23096.38713447 </i>
    <i name="eentropy">     -0.00063781 </i>
    <i name="bandstr">   -163.94559306 </i>
    <i name="atom">  22687.98115858 </i>
    <i name="e_fr_energy">    -62.10431548 </i>
    <i name="e_wo_entrp">    -62.10367767 </i>
    <i name="e_0_energy">    -62.10399658 </i>
   </energy>
  </scstep>
  <structure>
   <crystal>
    <varray name="basis" >
     <v>       4.42708529      -2.55597888       0.00000000 </v>
     <v>       0.00000000       5.11195776       0.00000000 </v>
     <v>       0.00000000       0.00000000      15.00000000 </v>
    </varray>
    <i name="volume">    339.46609504 </i>
    <varray name="rec_basis" >
     <v>       0.22588225       0.00000000       0.00000000 </v>
     <v>       0.11294113       0.19561977       0.00000000 </v>
     <v>       0.00000000       0.00000000       0.06666667 </v>
    </varray>
   </crystal>
   <varray name="positions" >
    <v>       0.00000000       0.00000000       0.00000000 </v>
    <v>       0.83086178       0.66917644       0.27976795 </v>
    <v>       0.51561326       0.52588880       0.41676311 </v>
    <v>       0.50000000       0.50000000       0.00000000 </v>
    <v>       0.16666667       0.83333333       0.13912987 </v>
    <v>       0.33060746       0.67433005       0.27914275 </v>
    <v>       0.00475467       0.49532652       0.42047730 </v>
    <v>       0.66666667       0.83333333       0.13912987 </v>
    <v>       0.00000000       0.50000000       0.00000000 </v>
    <v>       0.82568241       0.16940022       0.27914766 </v>
    <v>       0.48248688       0.01759919       0.41932504 </v>
    <v>       0.50000000      -0.00000000       0.00000000 </v>
    <v>       0.16666667       0.33333333       0.13912987 </v>
    <v>       0.32779109       0.17223332       0.27622715 </v>
    <v>       0.97423587       0.98450638       0.41677713 </v>
    <v>       0.66666667       0.33333333       0.13912987 </v>
    <v>       0.24454918       0.25549331       0.49818673 </v>
   </varray>
  </structure>
  <varray name="forces" >
   <v>      -0.03206703      -0.02524860      -0.00076110 </v>
   <v>       0.00729755      -0.01252779       0.00069131 </v>
   <v>       0.01537166      -0.03673642       0.00021276 </v>
   <v>       0.03786484       0.01510887      -0.00076087 </v>
   <v>      -0.05476672       0.00588298      -0.02246753 </v>
   <v>       0.00274203      -0.00845892       0.00076045 </v>
   <v>       0.02463289      -0.04251457       0.02415684 </v>
   <v>      -0.01240291       0.02157128      -0.01526633 </v>
   <v>      -0.01843582       0.03"stress" >
   <v>       4.50837103       5.58447385      -2.15173101 </v>
   <v>       5.58447355      -1.95997418       3.68277671 </v>
   <v>      -2.15173169       3.68277806      -3.60930199 </v>
  </varray>
  <energy>
   <i name="e_fr_energy">    -62.35443208 </i>
   <i name="e_wo_entrp">    -62.35416400 </i>
   <i name="e_0_energy">     -0.00053616 </i>
  </energy>
  <time name="totalsc">   91.61   91.62</time>
 </calculation>
 <calculation>
  <scstep>
   <time name="dav">    9.98    9.98</time>
   <time name="total">   10.49   10.49</time>
   <energy>
    <i name="alphaZ">    582.73103390 </i>
    <i name="ewald">  14043.04239261 </i>
    <i name="hartreedc"> -36227.97148009 </i>
    <i name="XCdc">    740.95577390 </i>
    <i name="pawpsdc">  21380.87477383 </i>
    <i name="pawaedc"> -23107.54459198 </i>
    <i name="eentropy">     -0.00053426 </i>
    <i name="bandstr">   -162.42301109 </i>
    <i name="atom">  22687.98115858 </i>
    <i name="e_fr_energy">    -62.35448460 </i>
    <i name="e_wo_entrp">    -62.35395034 </i>
    <i name="e_0_energy">    -62.35421747 </i>
   </energy>
  </scstep>
  <scstep>
   <time name="dav">   13.39   13.39</time>
   <time name="total">   13.90   13.90</time>
   <energy>
    <i name="e_fr_energy">    -62.35450896 </i>
    <i name="e_wo_entrp">    -62.35397345 </i>
    <i name="e_0_energy">    -62.35424121 </i>
   </energy>
  </scstep>
  <scstep>
   <time name="dav">   11.39   11.39</time>
   <time name="total">   11.89   11.89</time>
   <energy>
    <i name="e_fr_energy">    -62.35450850 </i>
    <i name="e_wo_entrp">    -62.35397450 </i>
    <i name="e_0_energy">    -62.35424150 </i>
   </energy>
  </scstep>
  <scstep>
   <time name="dav">   11.21   11.21</time>
   <time name="total">   11.71   11.71</time>
   <energy>
    <i name="e_fr_energy">    -62.35450822 </i>
    <i name="e_wo_entrp">    -62.35397227 </i>
    <i name="e_0_energy">    -62.35424025 </i>
   </energy>
  </scstep>
  <scstep>
   <time name="dav">   15.72   15.72</time>
   <time name="total">   16.23   16.23</time>
   <energy>
    <i name="e_fr_energy">    -62.35450780 </i>
    <i name="e_wo_entrp">    -62.35397317 </i>
    <i name="e_0_energy">    -62.35424049 </i>
   </energy>
  </scstep>
  <scstep>
   <time name="dav">   10.66   10.67</time>
   <time name="total">   11.17   11.17</time>
   <energy>
    <i name="e_fr_energy">    -62.35450768 </i>
    <i name="e_wo_entrp">    -62.35397245 </i>
    <i name="e_0_energy">    -62.35424007 </i>
   </energy>
  </scstep>
  <scstep>
   <time name="dav">    6.87    6.87</time>
   <time name="total">    7.05    7.06</time>
   <energy>
    <i name="alphaZ">    582.73103390 </i>
    <i name="ewald">  14043.04239261 </i>
    <i name="hartreedc"> -36227.95144916 </i>
    <i name="XCdc">    740.95556765 </i>
    <i name="pawpsdc">  21380.83242284 </i>
    <i name="pawaedc"> -23107.50144670 </i>
    <i name="eentropy">     -0.00053508 </i>
    <i name="bandstr">   -162.44365232 </i>
    <i name="atom">  22687.98115858 </i>
    <i name="e_fr_energy">    -62.35450767 </i>
    <i name="e_wo_entrp">    -62.35397259 </i>
    <i name="e_0_energy">    -62.35424013 </i>
   </energy>
  </scstep>
  <structure>
   <crystal>
    <varray name="basis" >
     <v>       4.42708529      -2.55597888       0.00000000 </v>
     <v>       0.00000000       5.11195776       0.00000000 </v>
     <v>       0.00000000       0.00000000      15.00000000 </v>
    </varray>
    <i name="volume">    339.46609504 </i>
    <varray name="rec_basis" >
     <v>       0.22588225       0.00000000       0.00000000 </v>
     <v>       0.11294113       0.19561977       0.00000000 </v>
     <v>       0.00000000       0.00000000       0.06666667 </v>
    </varray>
   </crystal>
   <varray name="positions" >
    <v>       0.00000000       0.00000000       0.00000000 </v>
    <v>       0.83332152       0.66670972       0.28054835 </v>
    <v>       0.52101690       0.51577944       0.41737284 </v>
    <v>       0.50000000       0.50000000       0.00000000 </v>
    <v>       0.16666667       0.83333333       0.13912987 </v>
    <v>       0.33130097       0.67078026       0.27866380 </v>
    <v>       0.00840654       0.49166442       0.42488959 </v>
    <v>       0.66666667       0.83333333       0.13912987 </v>
    <v>       0.00000000       0.50000000       0.00000000 </v>
    <v>       0.82921856       0.16869501       0.27866785 </v>
    <v>       0.49116008       0.00890016       0.41429269 </v>
    <v>       0.50000000      -0.00000000       0.00000000 </v>
    <v>       0.16666667       0.33333333       0.13912987 </v>
    <v>       0.32923487       0.17077772       0.27608810 </v>
    <v>       0.98434181       0.97911671       0.41738996 </v>
    <v>       0.66666667       0.33333333       0.13912987 </v>
    <v>       0.20417622       0.29606248       0.49604770 </v>
   </varray>
  </structure>
  <varray name="forces" >
   <v>      -0.02186324      -0.03180585       0.00817684 </v>
   <v>       0.02473715      -0.04242037       0.02559482 </v>
   <v>       0.06147734      -0.15611115       0.02264261 </v>
   <v>       0.03837454       0.00299021       0.00813136 </v>
   <v>      -0.08143881      -0.01043238      -0.03311821 </v>
   <v>       0.00866294      -0.04829313      -0.01545934 </v>
   <v>       0.04530591      -0.07800684       0.13442232 </v>
   <v>       0.01122934      -0.01943125       0.01217120 </v>
   <v>      -0.02725179       0.04715892       0.01766853 </v>
   <v>       0.03777588      -0.03149750      -0.01557848 </v>
   <v>       0.09403655      -0.16265826      -0.16129871 </v>
   <v>       0.00536861      -0.00934032       0.06441988 </v>
   <v>      -0.01987721       0.03438712       0.00849436 </v>
   <v>       0.01666015      -0.02860944      -0.00331499 </v>
   <v>       0.10522869      -0.13053306       0.02295688 </v>
   <v>       0.04971782       0.06521803      -0.03292421 </v>
   <v>      -0.34814387       0.59938528      -0.06298485 </v>
  </varray>
  <varray name="stress" >
   <v>       4.54447268       5.58000310      -2.16681900 </v>
   <v>       5.58000293      -1.95006023       3.71102426 </v>
   <v>      -2.16681981       3.71102562      -3.62030714 </v>
  </varray>
  <energy>
   <i name="e_fr_energy">    -62.35450767 </i>
   <i name="e_wo_entrp">    -62.35424013 </i>
   <i name="e_0_energy">     -0.00053508 </i>
  </energy>
  <time name="totalsc">   99.44   99.46</time>
 </calculation>
                                                                                                                                                                                                                                                                                                                                                                                                                                                                                                                                                                                                <calculation>
  <scstep>
   <time name="dav">   10.07   10.07</time>
   <time name="total">   10.58   10.58</time>
   <energy>
    <i name="alphaZ">    582.73103390 </i>
    <i name="ewald">  14042.92613376 </i>
    <i name="hartreedc"> -36227.83737916 </i>
    <i name="XCdc">    740.95581887 </i>
    <i name="pawpsdc">  21380.83443796 </i>
    <i name="pawaedc"> -23107.50343938 </i>
    <i name="eentropy">     -0.00053385 </i>
    <i name="bandstr">   -162.44182366 </i>
    <i name="atom">  22687.98115858 </i>
    <i name="e_fr_energy">    -62.35459298 </i>
    <i name="e_wo_entrp">    -62.35405913 </i>
    <i name="e_0_energy">    -62.35432606 </i>
   </energy>
  </scstep>
  <scstep>
   <time name="dav">   13.31   13.32</time>
   <time name="total">   13.82   13.82</time>
   <energy>
    <i name="e_fr_energy">    -62.35464587 </i>
    <i name="e_wo_entrp">    -62.35411238 </i>
    <i name="e_0_energy">    -62.35437912 </i>
   </energy>
  </scstep>
  <scstep>
   <time name="dav">   11.76   11.76</time>
   <time name="total">   12.27   12.27</time>
   <energy>
    <i name="e_fr_energy">    -62.35464460 </i>
    <i name="e_wo_entrp">    -62    <i name="e_0_energy">    -62.10424115 </i>
   </energy>
  </scstep>
  <scstep>
   <time name="dav">   11.43   11.43</time>
   <time name="total">   11.94   11.94</time>
   <energy>
    <i name="e_fr_energy">    -62.10456067 </i>
    <i name="e_wo_entrp">    -62.10393123 </i>
    <i name="e_0_energy">    -62.10424595 </i>
   </energy>
  </scstep>
  <scstep>
   <time name="dav">   17.25   17.25</time>
   <time name="total">   17.76   17.76</time>
   <energy>
    <i name="e_fr_energy">    -62.10455832 </i>
    <i name="e_wo_entrp">    -62.10391766 </i>
    <i name="e_0_energy">    -62.10423799 </i>
   </energy>
  </scstep>
  <scstep>
   <time name="dav">   15.37   15.37</time>
   <time name="total">   15.87   15.87</time>
   <energy>
    <i name="e_fr_energy">    -62.10455795 </i>
    <i name="e_wo_entrp">    -62.10392085 </i>
    <i name="e_0_energy">    -62.10423940 </i>
   </energy>
  </scstep>
  <scstep>
   <time name="dav">   10.51   10.51</time>
   <time name="total">   10.69   10.69</time>
   <energy>
    <i name="alphaZ">    582.73103390 </i>
    <i name="ewald">  14007.20577423 </i>
    <i name="hartreedc"> -36190.52570899 </i>
    <i name="XCdc">    740.89961451 </i>
    <i name="pawpsdc">  21370.17193112 </i>
    <i name="pawaedc"> -23096.63631394 </i>
    <i name="eentropy">     -0.00063709 </i>
    <i name="bandstr">   -163.93141025 </i>
    <i name="atom">  22687.98115858 </i>
    <i name="e_fr_energy">    -62.10455793 </i>
    <i name="e_wo_entrp">    -62.10392084 </i>
    <i name="e_0_energy">    -62.10423939 </i>
   </energy>
  </scstep>
  <structure>
   <crystal>
    <varray name="basis" >
     <v>       4.42708529      -2.55597888       0.00000000 </v>
     <v>       0.00000000       5.11195776       0.00000000 </v>
     <v>       0.00000000       0.00000000      15.00000000 </v>
    </varray>
    <i name="volume">    339.46609504 </i>
    <varray name="rec_basis" >
     <v>       0.22588225       0.00000000       0.00000000 </v>
     <v>       0.11294113       0.19561977       0.00000000 </v>
     <v>       0.00000000       0.00000000       0.06666667 </v>
    </varray>
   </crystal>
   <varray name="positions" >
    <v>       0.00000000       0.00000000       0.00000000 </v>
    <v>       0.83094951       0.66908705       0.27976472 </v>
    <v>       0.51576557       0.52555377       0.41678404 </v>
    <v>       0.50000000       0.50000000       0.00000000 </v>
    <v>       0.16666667       0.83333333       0.13912987 </v>
    <v>       0.33067981       0.67421958       0.27914232 </v>
    <v>       0.00499828       0.49508173       0.42049682 </v>
    <v>       0.66666667       0.83333333       0.13912987 </v>
    <v>       0.00000000       0.50000000       0.00000000 </v>
    <v>       0.82579360       0.16932969       0.27914672 </v>
    <v>       0.48273923       0.01734587       0.41928603 </v>
    <v>       0.50000000      -0.00000000       0.00000000 </v>
    <v>       0.16666667       0.33333333       0.13912987 </v>
    <v>       0.32787595       0.17215056       0.27622464 </v>
    <v>       0.97453912       0.98432220       0.41678930 </v>
    <v>       0.66666667       0.33333333       0.13912987 </v>
    <v>       0.24484693       0.25526003       0.49817362 </v>
   </varray>
  </structure>
  <varray name="forces" >
   <v>      -0.03158063      -0.02559644      -0.00095180 </v>
   <v>       0.00760687      -0.01276573       0.00202651 </v>
   <v>       0.02630368      -0.02925521      -0.00823578 </v>
   <v>       0.03837877       0.01478823      -0.00097623 </v>
   <v>      -0.05391695       0.00493283      -0.02262627 </v>
   <v>       0.00390747      -0.00895000       0.00094281 </v>
   <v>       0.02365282      -0.04046474       0.02288349 </v>
   <v>      -0.01158663       0.02071542      -0.01534271 </v>
   <v>      -0.01789802       0.03151598       0.00613264 </v>
   <v>       0.00641879      -0.00741094       0.00076848 </v>
   <v>       0.00940042      -0.01584738      -0.01486381 </v>
   <v>       0.01860376      -0.03170383       0.02582900 </v>
   <v>      -0.01990859       0.03497969       0.02962326 </v>
   <v>       0.00469404      -0.00752226      -0.00187732 </v>
   <v>       0.01245034      -0.03737856      -0.00847053 </v>
   <v>       0.02323010       0.04939803      -0.02247788 </v>
   <v>      -0.03975626       0.06056491       0.00761616 </v>
  </varray>
  <varray name="stress" >
   <v>       4.36735499       8.53341261       0.18432043 </v>
   <v>       8.53341244      -5.52809733      -0.32004169 </v>
   <v>       0.18432140      -0.32004315      -1.79780449 </v>
  </varray>
  <energy>
   <i name="e_fr_energy">    -62.10455793 </i>
   <i name="e_wo_entrp">    -62.10423939 </i>
   <i name="e_0_energy">     -0.00063709 </i>
  </energy>
  <time name="totalsc">  102.86  102.87</time>
 </calculation>
 <calculation>
  <scstep>
   <time name="dav">    9.85    9.85</time>
   <time name="total">   10.36   10.36</time>
   <energy>
    <i name="alphaZ">    582.73103390 </i>
    <i name="ewald">  14007.22694982 </i>
    <i name="hartreedc"> -36190.55239534 </i>
    <i name="XCdc">    740.89958842 </i>
    <i name="pawpsdc">  21370.16890122 </i>
    <i name="pawaedc"> -23096.63312941 </i>
    <i name="eentropy">     -0.00063533 </i>
    <i name="bandstr">   -163.92592459 </i>
    <i name="atom">  22687.98115858 </i>
    <i name="e_fr_energy">    -62.10445273 </i>
    <i name="e_wo_entrp">    -62.10381740 </i>
    <i name="e_0_energy">    -62.10413506 </i>
   </energy>
  </scstep>
  <scstep>
   <time name="dav">   13.12   13.12</time>
   <time name="total">   13.63   13.63</time>
   <energy>
    <i name="e_fr_energy">    -62.10469377 </i>
    <i name="e_wo_entrp">    -62.10405896 </i>
    <i name="e_0_energy">    -62.10437637 </i>
   </energy>
  </scstep>
  <scstep>
   <time name="dav">   11.87   11.87</time>
   <time name="total">   12.38   12.38</time>
   <energy>
    <i name="e_fr_energy">    -62.10468951 </i>
    <i name="e_wo_entrp">    -62.10405122 </i>
    <i name="e_0_energy">    -62.10437037 </i>
   </energy>
  </scstep>
  <scstep>
   <time name="dav">   11.64   11.63</time>
   <time name="total">   12.14   12.14</time>
   <energy>
    <i name="e_fr_energy">    -62.10468781 </i>
    <i name="e_wo_entrp">    -62.10406030 </i>
    <i name="e_0_energy">    -62.10437406 </i>
   </energy>
  </scstep>
  <scstep>
   <time name="dav">   17.23   17.23</time>
   <time name="total">   17.73   17.74</time>
   <energy>
    <i name="e_fr_energy">    -62.10468467 </i>
    <i name="e_wo_entrp">    -62.10404170 </i>
    <i name="e_0_energy">    -62.10436319 </i>
   </energy>
  </scstep>
  <scstep>
   <time name="dav">   15.39   15.39</time>
   <time name="total">   15.90   15.90</time>
   <energy>
    <i name="e_fr_energy">    -62.10468370 </i>
    <i name="e_wo_entrp">    -62.10404850 </i>
    <i name="e_0_energy">    -62.10436610 </i>
   </energy>
  </scstep>
  <scstep>
   <time name="dav">   13.74   13.74</time>
   <time name="total">   14.25   14.25</time>
   <energy>
    <i name="e_fr_energy">    -62.10468366 </i>
    <i name="e_wo_entrp">    -62.10404795 </i>
    <i name="e_0_energy">    -62.10436580 </i>
   </energy>
  </scstep>
  <scstep>
   <time name="dav">    7.71    7.71</time>
   <time name="total">    7.89    7.89</time>
   <energy>
    <i name="alphaZ">    582.73103390 </i>
    <i name="ewald">  14007.22694982 </i>
    <i name="hartreedc"> -36190.53313609 </i>
    <i name="XCdc">    740.89943872 </i>
    <i name="pawpsdc">  21370.16885112 </i>
    <i name="pawaedc"> -23096.63356367 </i>
    <i name="eentropy">     -0.00063580 </i>
    <i name="bandstr">   -163.94478018 </i>
    <i name="atom">  22687.98115858 </i>
    <i name="e_fr_energy">    -62.10468361 </i>
    <i name="e_wo_entrp">    -62.10404781 </i>
    <i name="e_0_energy">    -62.10436571 </i>
   </energy>
  </scstep>
  <structure>
   <crystal>
    <varray name="basis" >
     <v>       4.42708529      -2.55597888       0.00000000 </v>
     <v>       0.00000000       5.11195776       0.00000000 </v>
     <v>       0.00000000       0.00000000      15.00000000 </v>
    </varray>
    <i name="volume">    339.46609504 </i>
    <varray name="rec_basis" >
     <v>       0.22588225       0.00000000       0.00000000 </v>
     <v>       0.11294113       0.19561977       0.00000000 </v>
     <v>       0.00000000       0.00000000       0.06666667 </v>
    </varray>
   </crystal>
   <varray name="positions" >
    <v>       0.00000000       0.00000000       0.00000000 </v>
    <v>       0.83102057       0.66901878       0.27976255 </v>
    <v>       0.51592274       0.52534889       0.41679193 </v>
    <v>       0.50000000       0.50000000       0.00000000 </v>
    <v>       0.16666667       0.83333333       0.13912987 </v>
    <v>       0.33074845       0.67413163       0.27914134 </v>
    <v>       0.00517024       0.49491300       0.42049915 </v>
    <v>       0.66666667       0.83333333       0.13912987 </v>
    <v>       0.00000000       0.50000000       0.00000000 </v>
    <v>       0.82588679       0.16926698       0.27914526 </v>
    <v>       0.48295803       0.01712972       0.41926158 </v>
    <v>       0.50000000      -0.00000000       0.00000000 </v>
    <v>       0.16666667       0.33333333       0.13912987 </v>
    <v>       0.32795051       0.17208035       0.27622211 </v>
    <v>       0.97474577       0.98416584       0.41679657 </v>
    <v>       0.66666667       0.33333333       0.13912987 </v>
    <v>       0.24506106       0.25498359       0.49818667 </v>
   </varray>
  </structure>
  <varray name="forces" >
   <v>      -0.03137965      -0.02660653      -0.00054531 </v>
   <v>       0.00806197      -0.01417276       0.00257075 </v>
   <v>       0.02606063      -0.02985633      -0.00747946 </v>
   <v>       0.03863583       0.01380001      -0.00055504 </v>
   <v>      -0.05336440       0.00344051      -0.02215253 </v>
   <v>       0.00431748      -0.01004458       0.00142437 </v>
   <v>       0.02355743      -0.04104960       0.02297412 </v>
   <v>      -0.01110569       0.01926683      -0.01493099 </v>
   <v>      -0.01764782       0.03045045       0.00660132 </v>
   <v>       0.00660649      -0.00864840       0.00126789 </v>
   <v>       0.00905935      -0.01581069      -0.01324356 </v>
   <v>       0.01886649      -0.03276611       0.02616969 </v>
   <v>      -0.01932621       0.03335499       0.03005517 </v>
   <v>       0.00519646      -0.00889437      -0.00123949 </v>
   <v>       0.01100137      -0.03854411      -0.00902220 </v>
   <v>       0.02374979       0.04789025      -0.02204844 </v>
   <v>      -0.04228950       0.07819043       0.00015370 </v>
  </varray>
  <varray name="stress" >
   <v>       4.30267403       8.53614013       0.15985641 </v>
   <v>       8.53613989      -5.56414515      -0.26523937 </v>
   <v>       0.15985752      -0.26524101      -1.81721788 </v>
  </varray>
  <energy>
   <i name="e_fr_energy">    -62.10468361 </i>
   <i name="e_wo_entrp">    -62.10436571 </i>
   <i name="e_0_energy">     -0.00063580 </i>
  </energy>
  <time name="totalsc">  113.68  113.69</time>
 </calculation>
 <calculation>
  <scstep>
   <time name="dav">    9.82    9.82</time>
   <time name="total">   10.33   10.33</time>
   <energy>
    <i name="alphaZ">    582.73103390 </i>
    <i name="ewald">  14007.48286055 </i>
    <i name="hartreedc"> -36190.78097390 </i>
    <i name="XCdc">    740.90011550 </i>
    <i name="pawpsdc">  21370.16407619 </i>
    <i name="pawaedc"> -23096.62782782 </i>
    <i name="eentropy">     -0.00063384 </i>
    <i name="bandstr">   -163.95417147 </i>
    <i name="atom">  22687.98115858 </i>
    <i name="e_fr_energy">    -62.10436231 </i>
    <i name="e_wo_entrp">    -62.10372847 </i>
    <i name="e_0_energy">    -62.10404539 </i>
   </energy>
  </scstep>
  <scstep>
   <time name="dav">   13.21   13.21</time>
   <time name="total">   13.72   13.72</time>
   <energy>
    <i name="e_fr_energy">    -62.10478339 </i>
    <i name="e_wo_entrp">    -62.10415236 </i>
    <i name="e_0_energy">    -62.10446787 </i>
   </energy>
  </scstep>
  <scstep>
   <time name="dav">   11.28   11.28</time>
   <time name="total">   11.78   11.78</time>
   <energy>
    <i name="e_fr_energy">    -62.10477772 </i>
    <i name="e_wo_entrp">    -62.10413499 </i>
    <i name="e_0_energy">    -62.10445635 </i>
   </energy>
  </scstep>
  <scstep>
   <time name="dav">   11.69   11.69</time>
   <time name="total">   12.19   12.19</time>
   <energy>
    <i name="e_fr_energy">    -62.10477464 </i>
    <i name="e_wo_entrp">    -62.10415017 </i>
    <i name="e_0_energy">    -62.10446240 </i>
   </energy>
  </scstep>
  <scstep>
   <time name="dav">   17.81   17.81</time>
   <time name="total">   18.32   18.32</time>
   <energy>
    <i name="e_fr_energy">    -62.10476895 </i>
    <i name="e_wo_entrp">    -62.10412736 </i>
    <i name="e_0_energy">    -62.10444816 </i>
   </energy>
  </scstep>
  <scstep>
   <time name="dav">   15.14   15.14</time>
   <time name="total">   15.65   15.65</time>
   <energy>
    <i name="e_fr_energy">    -62.10476709 </i>
    <i name="e_wo_entrp">    -62.10413292 </i>
    <i name="e_0_energy">    -62.10445000 </i>
   </energy>
  </scstep>
  <scstep>
   <time name="dav">   13.76   13.76</time>
   <time name="total">   14.27   14.27</time>
   <energy>
    <i name="e_fr_energy">    -62.10476706 </i>
    <i name="e_wo_entrp">    -62.10413314 </i>
    <i name="e_0_energy">    -62.10445010 </i>
   </energy>
  </scstep>
  <scstep>
   <time name="dav">    9.44    9.44</time>
   <time name="total">    9.62    9.62</time>
   <energy>
    <i name="alphaZ">    582.73103390 </i>
    <i name="ewald">  14007.48286055 </i>
    <i name="hartreedc"> -36190.77875124 </i>
    <i name="XCdc">    740.90003686 </i>
    <i name="pawpsdc">  21370.34760598 </i>
    <i name="pawaedc"> -23096.81441634 </i>
    <i name="eentropy">     -0.00063426 </i>
    <i name="bandstr">   -163.95366101 </i>
    <i name="atom">  22687.98115858 </i>
    <i name="e_fr_energy">    -62.10476698 </i>
    <i name="e_wo_entrp">    -62.10413271 </i>
    <i name="e_0_energy">    -62.10444985 </i>
   </energy>
  </scstep>
  <structure>
   <crystal>
    <varray name="basis" >
     <v>       4.42708529      -2.55597888       0.00000000 </v>
     <v>       0.00000000       5.11195776       0.00000000 </v>
     <v>       0.00000000       0.00000000      15.00000000 </v>
    </varray>
    <i name="volume">    339.46609504 </i>
    <varray name="rec_basis" >
     <v>       0.22588225       0.00000000       0.00000000 </v>
     <v>       0.11294113       0.19561977       0.00000000 </v>
     <v>       0.00000000       0.00000000       0.06666667 </v>
    </varray>
   </crystal>
   <varray name="positions" >
    <v>       0.00000000       0.00000000       0.00000000 </v>
    <v>       0.83110817       0.66892898       0.27975972 </v>
    <v>       0.51608245       0.52508076       0.41681084 </v>
    <v>       0.50000000       0.50000000       0.00000000 </v>
    <v>       0.16666667       0.83333333       0.13912987 </v>
    <v>       0.33084061       0.67401317       0.27914073 </v>
    <v>       0.00535837       0.49472197       0.42048731 </v>
    <v>       0.66666667       0.83333333       0.13912987 </v>
    <v>       0.00000000       0.50000000       0.00000000 </v>
    <v>       0.82600570       0.16917595       0.27914414 </v>
    <v>       0.48324239       0.01684347       0.41924178 </v>
    <v>       0.50000000      -0.00000000       0.00000000 </v>
    <v>       0.16666667       0.33333333       0.13912987 </v>
    <v>       0.32805016       0.17198130       0.27622167 </v>
    <v>       0.97499498       0.98398725       0.41681093 </v>
    <v>       0.66666667       0.33333333       0.13912987 </v>
    <v>       0.24542907       0.25465797       0.49817808 </v>
   </varray>
  </structure>
  <varray name="forces" >
   <v>      -0.03177630      -0.02609510      -0.00052885 </v>
   <v>       0.00768198      -0.01393563       0.00283103 </v>
   <v>       0.03099635      -0.02553545      -0.01204850 </v>
   <v>       0.03834561       0.01438052      -0.00055390 </v>
   <v>      -0.05326658       0.00329623      -0.02201267 </v>
   <v>       0.00432928      -0.00953313       0.00133693 </v>
   <v>       0.02260679      -0.03950062       0.02208727 </v>
   <v>      -0.01110209       0.01922893      -0.01497462 </v>
   <v>      -0.01791786       0.03089224       0.00666295 </v>
   <v>       0.00610232      -0.00842843       0.00113247 </v>
   <v>       0.00727748      -0.01288776      -0.01192979 </v>
   <v>       0.01860637      -0.03235610       0.02609090 </v>
   <v>      -0.01912114       0.03299940       0.03019211 </v>
   <v>       0.00502938      -0.00880145      -0.00108162 </v>
   <v>       0.00675666      -0.03959787      -0.01191014 </v>
   <v>       0.02376464       0.04770739      -0.02191543 </v>
   <v>      -0.03831289       0.06816684       0.00662186 </v>
  </varray>
  <varray name="stress" >
   <v>       4.38987002       8.56282255       0.12786759 </v>
   <v>       8.56282240      -5.50482138      -0.23630893 </v>
   <v>       0.12786841      -0.23631045      -1.75397576 </v>
  </varray>
  <energy>
   <i name="e_fr_energy">    -62.10476698 </i>
   <i name="e_wo_entrp">    -62.10444985 </i>
   <i name="e_0_energy">     -0.00063426 </i>
  </energy>
  <time name="totalsc">  115.32  115.33</time>
 </calculation>
 <calculation>
  <scstep>
   <time name="dav">    9.84    9.84</time>
   <time name="total">   10.35   10.36</time>
   <energy>
    <i name="alphaZ">    582.73103390 </i>
    <i name="ewald">  14008.07902173 </i>
    <i name="hartreedc"> -36191.38576626 </i>
    <i name="XCdc">    740.89994911 </i>
    <i name="pawpsdc">  21370.34644780 </i>
    <i name="pawaedc"> -23096.81308273 </i>
    <i name="eentropy">     -0.00062948 </i>
    <i name="bandstr">   -163.94243700 </i>
    <i name="atom">  22687.98115858 </i>
    <i name="e_fr_energy">    -62.10430434 </i>
    <i name="e_wo_entrp">    -62.10367486 </i>
    <i name="e_0_energy">    -62.10398960 </i>
   </energy>
  </scstep>
  <scstep>
   <time name="dav">   13.14   13.14</time>
   <time name="total">   13.65   13.65</time>
   <energy>
    <i name="e_fr_energy">    -62.10492893 </i>
    <i name="e_wo_entrp">    -62.10429574 </i>
    <i name="e_0_energy">    -62.10461234 </i>
   </energy>
  </scstep>
  <scstep>
   <time name="dav">   11.47   11.47</time>
   <time name="total">   11.98   11.98</time>
   <energy>
    <i name="e_fr_energy">    -62.10491930 </i>
    <i name="e_wo_entrp">    -62.10428960 </i>
    <i name="e_0_energy">    -62.10460445 </i>
   </energy>
  </scstep>
  <scstep>
   <time name="dav">   11.63   11.63</time>
   <time name="total">   12.14   12.14</time>
   <energy>
    <i name="e_fr_energy">    -62.10491399 </i>
    <i name="e_wo_entrp">    -62.10427193 </i>
    <i name="e_0_energy">    -62.10459296 </i>
   </energy>
  </scstep>
  <scstep>
   <time name="dav">   17.73   17.73</time>
   <time name="total">   18.24   18.24</time>
   <energy>
    <i name="e_fr_energy">    -62.10490760 </i>
    <i name="e_wo_entrp">    -62.10428839 </i>
    <i name="e_0_energy">    -62.10459800 </i>
   </energy>
  </scstep>
  <scstep>
   <time name="dav">   15.37   15.37</time>
   <time name="total">   15.88   15.88</time>
   <energy>
    <i name="e_fr_energy">    -62.10490534 </i>
    <i name="e_wo_entrp">    -62.10427234 </i>
    <i name="e_0_energy">    -62.10458884 </i>
   </energy>
  </scstep>
  <scstep>
   <time name="dav">   13.58   13.58</time>
   <time name="total">   14.09   14.09</time>
   <energy>
    <i name="e_fr_energy">    -62.10490520 </i>
    <i name="e_wo_entrp">    -62.10427365 </i>
    <i name="e_0_energy">    -62.10458943 </i>
   </energy>
  </scstep>
  <scstep>
   <time name="dav">   10.13   10.13</time>
   <time name="total">   10.31   10.31</time>
   <energy>
    <i name="alphaZ">    582.73103390 </i>
    <i name="ewald">  14008.07902173 </i>
    <i name="hartreedc"> -36191.35045513 </i>
    <i name="XCdc">    740.89965064 </i>
    <i name="pawpsdc">  21370.30476366 </i>
    <i name="pawaedc"> -23096.77204808 </i>
    <i name="eentropy">     -0.00063171 </i>
    <i name="bandstr">   -163.97739871 </i>
    <i name="atom">  22687.98115858 </i>
    <i name="e_fr_energy">    -62.10490512 </i>
    <i name="e_wo_entrp">    -62.10427340 </i>
    <i name="e_0_energy">    -62.10458926 </i>
   </energy>
  </ </energy>
  </scstep>
  <structure>
   <crystal>
    <varray name="basis" >
     <v>       4.42708529      -2.55597888       0.00000000 </v>
     <v>       0.00000000       5.11195776       0.00000000 </v>
     <v>       0.00000000       0.00000000      15.00000000 </v>
    </varray>
    <i name="volume">    339.46609504 </i>
    <varray name="rec_basis" >
     <v>       0.22588225       0.00000000       0.00000000 </v>
     <v>       0.11294113       0.19561977       0.00000000 </v>
     <v>       0.00000000       0.00000000       0.06666667 </v>
    </varray>
   </crystal>
   <varray name="positions" >
    <v>       0.00000000       0.00000000       0.00000000 </v>
    <v>       0.83349380       0.66654214       0.28056022 </v>
    <v>       0.52159535       0.51511584       0.41741441 </v>
    <v>       0.50000000       0.50000000       0.00000000 </v>
    <v>       0.16666667       0.83333333       0.13912987 </v>
    <v>       0.33145658       0.67050520       0.27865282 </v>
    <v>       0.00897208       0.49110385       0.42491685 </v>
    <v>       0.66666667       0.83333333       0.13912987 </v>
    <v>       0.00000000       0.50000000       0.00000000 </v>
    <v>       0.82950378       0.16855086       0.27865577 </v>
    <v>       0.49186829       0.00820136       0.41419310 </v>
    <v>       0.50000000      -0.00000000       0.00000000 </v>
    <v>       0.16666667       0.33333333       0.13912987 </v>
    <v>       0.32943559       0.17058633       0.27609549 </v>
    <v>       0.98499758       0.97852551       0.41742674 </v>
    <v>       0.66666667       0.33333333       0.13912987 </v>
    <v>       0.20468758       0.29551763       0.49604831 </v>
   </varray>
  </structure>
  <varray name="forces" >
   <v>      -0.02150272      -0.03170449       0.00923515 </v>
   <v>       0.02616400      -0.04472891       0.02446841 </v>
   <v>       0.06254623      -0.15380549       0.02020046 </v>
   <v>       0.03836105       0.00287540       0.00919400 </v>
   <v>      -0.08096469      -0.01162246      -0.03157141 </v>
   <v>       0.01003025      -0.04877981      -0.01454255 </v>
   <v>       0.04487214      -0.07716873       0.13559200 </v>
   <v>       0.01196602      -0.02040043       0.01324386 </v>
   <v>      -0.02708641       0.04715952       0.01906130 </v>
   <v>       0.03772686      -0.03285480      -0.01458373 </v>
   <v>       0.09127678      -0.15775005      -0.15526170 </v>
   <v>       0.00555993      -0.00938847       0.06573044 </v>
   <v>      -0.01844762       0.03224349       0.00929621 </v>
   <v>       0.01746368      -0.02992635      -0.00253491 </v>
   <v>       0.10287705      -0.13014421       0.02075903 </v>
   <v>       0.05079233       0.06438788      -0.03143839 </v>
   <v>      -0.35163487       0.60160790      -0.07684820 </v>
  </varray>
  <varray name="stress" >
   <v>       4.56073700       5.62358983      -2.25862011 </v>
   <v>       5.62358970      -1.92983883       3.84314588 </v>
   <v>      -2.25862105       3.84314723      -3.56048159 </v>
  </varray>
  <energy>
   <i name="e_fr_energy">    -62.35539121 </i>
   <i name="e_wo_entrp">    -62.35512783 </i>
   <i name="e_0_energy">     -0.00052676 </i>
  </energy>
  <time name="totalsc">  116.09  116.11</time>
 </calculation>
 <calculation>
  <scstep>
   <time name="dav">   10.03   10.03</time>
   <time name="total">   10.53   10.53</time>
   <energy>
    <i name="alphaZ">    582.73103390 </i>
    <i name="ewald">  14043.81781760 </i>
    <i name="hartreedc"> -36228.67532972 </i>
    <i name="XCdc">    740.95814275 </i>
    <i name="pawpsdc">  21381.08287349 </i>
    <i name="pawaedc"> -23107.75558068 </i>
    <i name="eentropy">     -0.00052309 </i>
    <i name="bandstr">   -162.49487532 </i>
    <i name="atom">  22687.98115858 </i>
    <i name="e_fr_energy">    -62.35528249 </i>
    <i name="e_wo_entrp">    -62.35475940 </i>
    <i name="e_0_energy">    -62.35502095 </i>
   </energy>
  </scstep>
  <scstep>
   <time name="dav">   13.40   13.40</time>
   <time name="total">   13.90   13.90</time>
   <energy>
    <i ny">    -62.10515645 </i>
    <i name="e_wo_entrp">    -62.10452677 </i>
    <i name="e_0_energy">    -62.10484161 </i>
   </energy>
  </scstep>
  <scstep>
   <time name="dav">   11.44   11.44</time>
   <time name="total">   11.95   11.95</time>
   <energy>
    <i name="e_fr_energy">    -62.10514269 </i>
    <i name="e_wo_entrp">    -62.10450486 </i>
    <i name="e_0_energy">    -62.10482377 </i>
   </energy>
  </scstep>
  <scstep>
   <time name="dav">   11.79   11.79</time>
   <time name="total">   12.30   12.30</time>
   <energy>
    <i name="e_fr_energy">    -62.10513811 </i>
    <i name="e_wo_entrp">    -62.10452535 </i>
    <i name="e_0_energy">    -62.10483173 </i>
   </energy>
  </scstep>
  <scstep>
   <time name="dav">   17.21   17.21</time>
   <time name="total">   17.72   17.72</time>
   <energy>
    <i name="e_fr_energy">    -62.10512616 </i>
    <i name="e_wo_entrp">    -62.10448435 </i>
    <i name="e_0_energy">    -62.10480526 </i>
   </energy>
  </scstep>
  <scstep>
   <time name="dav">   16.32   16.32</time>
   <time name="total">   16.84   16.84</time>
   <energy>
    <i name="e_fr_energy">    -62.10512336 </i>
    <i name="e_wo_entrp">    -62.10449307 </i>
    <i name="e_0_energy">    -62.10480822 </i>
   </energy>
  </scstep>
  <scstep>
   <time name="dav">   13.86   13.86</time>
   <time name="total">   14.37   14.37</time>
   <energy>
    <i name="e_fr_energy">    -62.10512336 </i>
    <i name="e_wo_entrp">    -62.10449322 </i>
    <i name="e_0_energy">    -62.10480829 </i>
   </energy>
  </scstep>
  <scstep>
   <time name="dav">   11.21   11.21</time>
   <time name="total">   11.71   11.71</time>
   <energy>
    <i name="e_fr_energy">    -62.10512321 </i>
    <i name="e_wo_entrp">    -62.10449253 </i>
    <i name="e_0_energy">    -62.10480787 </i>
   </energy>
  </scstep>
  <scstep>
   <time name="dav">    9.58    9.58</time>
   <time name="total">    9.76    9.76</time>
   <energy>
    <i name="alphaZ">    582.73103390 </i>
    <i name="ewald">  14009.08147924 </i>
    <i name="hartreedc"> -36192.35495629 </i>
    <i name="XCdc">    740.90085294 </i>
    <i name="pawpsdc">  21370.52532358 </i>
[...]
       <r>    0.1766    1.0000 </r>
       <r>    0.2418    1.0000 </r>
       <r>    0.2491    1.0000 </r>
       <r>    0.2771    1.0000 </r>
       <r>    0.3050    1.0000 </r>
       <r>    0.3600    1.0000 </r>
       <r>    0.3865    1.0000 </r>
       <r>    0.4111    1.0000 </r>
       <r>    0.4510    1.0000 </r>
       <r>    0.4747    1.0000 </r>
       <r>    0.4990    1.0000 </r>
       <r>    0.5311    1.0000 </r>
       <r>    0.5513    1.0000 </r>
       <r>    0.5591    1.0000 </r>
       <r>    0.5892    1.0000 </r>
       <r>    0.6332    1.0000 </r>
       <r>    0.6908    1.0000 </r>
       <r>    1.0329    1.0000 </r>
       <r>    1.0946    1.0000 </r>
       <r>    1.3439    1.0000 </r>
       <r>    1.5817    1.0000 </r>
       <r>    1.8613    1.0000 </r>
       <r>    2.4533    0.0000 </r>
       <r>    2.8498    0.0000 </r>
       <r>    3.1506    0.0000 </r>
       <r>    3.5561    0.0000 </r>
       <r>    3.9765    0.0000 </r>
       <r>    4.5243    0.0000 </r>
       <r>    4.7085    0.0000 </r>
       <r>    5.6134    0.0000 </r>
       <r>    5.8946    0.0000 </r>
       <r>    6.3816    0.0000 </r>
       <r>    6.9711    0.0000 </r>
       <r>    7.5504    0.0000 </r>
       <r>    7.5971    0.0000 </r>
       <r>    8.3614    0.0000 </r>
       <r>    8.6577    0.0000 </r>
       <r>    8.9789    0.0000 </r>
       <r>    9.1029    0.0000 </r>
       <r>    9.4544    0.0000 </r>
       <r>    9.7477    0.0000 </r>
       <r>    9.8477    0.0000 </r>
       <r>   10.0036    0.0000 </r>
       <r>   10.2727    0.0000 </r>
       <r>   10.5164    0.0000 </r>
      </set>
     </set>
    </set>
   </array>
  </eigenvalues>
  <separator name="orbital magnetization" >
   <v name="MAGDIPOLOUT">      0.00000000      0.00000000      0.00000000</v>
  </separator>
  <dos>
   <i name="efermi">      2.13144659 </i>
   <total>
    <array>
     <dimension dim="1">gridpoints</dimension>
     <dimension dim="2">spin</dimension>
     <field>energy</field>
     <field>total</field>
     <field>integrated</field>
     <set>
      <set comment="spin 1">
       <r>   -17.1344     0.0000     0.0000 </r>
       <r>   -17.0363     0.0000     0.0000 </r>
       <r>   -16.9382     0.0000     0.0000 </r>
       <r>   -16.8401     0.0000     0.0000 </r>
       <r>   -16.7420     0.0000     0.0000 </r>
       <r>   -16.6439     0.0000     0.0000 </r>
       <r>   -16.5459     0.0000     0.0000 </r>
       <r>   -16.4478     0.0000     0.0000 </r>
       <r>   -16.3497     0.0000     0.0000 </r>
       <r>   -16.2516     0.0000     0.0000 </r>
       <r>   -16.1535     0.0000     0.0000 </r>
       <r>   -16.0554     0.0000     0.0000 </r>
       <r>   -15.9573     0.0000     0.0000 </r>
       <r>   -15.8592     0.0000     0.0000 </r>
       <r>   -15.7611    20.3750     1.9986 </r>
       <r>   -15.6630     0.0000     2.0000 </r>
       <r>   -15.5650     0.0000     2.0000 </r>
       <r>   -15.4669     0.0000     2.0000 </r>
       <r>   -15.3688     0.0000     2.0000 </r>
       <r>   -15.2707     0.0000     2.0000 </r>
       <r>   -15.1726     0.0000     2.0000 </r>
       <r>   -15.0745     0.0000     2.0000 </r>
       <r>   -14.9764     0.0000     2.0000 </r>
       <r>   -14.8783     0.0000     2.0000 </r>
       <r>   -14.7802     0.0000     2.0000 </r>
       <r>   -14.6822     0.0000     2.0000 </r>
       <r>   -14.5841     0.0000     2.0000 </r>
       <r>   -14.4860     0.0000     2.0000 </r>
       <r>   -14.3879     0.0000     2.0000 </r>
       <r>   -14.2898     0.0000     2.0000 </r>
       <r>   -14.1917     0.0000     2.0000 </r>
       <r>   -14.0936     0.0000     2.0000 </r>
       <r>   -13.9955     0.0000     2.0000 </r>
       <r>   -13.8974     0.0000     2.0000 </r>
       <r>   -13.7994     0.0000     2.0000 </r>
       <r>   -13.7013     0.0000     2.0000 </r>
       <r>   -13.6032     0.0000     2.0000 </r>
       <r>   -13.5051     0.0000     2.0000 </r>
       <r>   -13.4070     0.0000     2.0000 </r>
       <r>   -13.3089     0.0000     2.0000 </r>
       <r>   -13.2108     0.0000     2.0000 </r>
       <r>   -13.1127     0.0000     2.0000 </r>
       <r>   -13.0146     0.0000     2.0000 </r>
       <r>   -12.9166     0.0000     2.0000 </r>
       <r>   -12.8185     0.0000     2.0000 </r>
       <r>   -12.7204     0.0000     2.0000 </r>
       <r>   -12.6223     0.0000     2.0000 </r>
       <r>   -12.5242     0.0000     2.0000 </r>
       <r>   -12.4261     0.0000     2.0000 </r>
       <r>   -12.3280     0.0000     2.0000 </r>
       <r>   -12.2299     0.0000     2.0000 </r>
       <r>   -12.1318     0.0000     2.0000 </r>
       <r>   -12.0337     0.0000     2.0000 </r>
       <r>   -11.9357     0.0000     2.0000 </r>
       <r>   -11.8376     0.0000     2.0000 </r>
       <r>   -11.7395     0.0000     2.0000 </r>
       <r>   -11.6414     0.0000     2.0000 </r>
       <r>   -11.5433     0.0000     2.0000 </r>
       <r>   -11.4452     0.0000     2.0000 </r>
       <r>   -11.3471     0.0000     2.0000 </r>
       <r>   -11.2490     0.0000     2.0000 </r>
       <r>   -11.1509     0.0000     2.0000 </r>
       <r>   -11.0529     0.0000     2.0000 </r>
       <r>   -10.9548     0.0000     2.0000 </r>
       <r>   -10.8567     0.0000     2.0000 </r>
       <r>   -10.7586     0.0000     2.0000 </r>
       <r>   -10.6605     0.0000     2.0000 </r>
       <r>   -10.5624     0.0000     2.0000 </r>
       <r>   -10.4643     0.0000     2.0000 </r>
       <r>   -10.3662     0.0000     2.0000 </r>
       <r>   -10.2681     0.0000     2.0000 </r>
       <r>   -10.1701     0.0000     2.0000 </r>
       <r>   -10.0720     0.0000     2.0000 </r>
       <r>    -9.9739     0.0000     2.0000 </r>
       <r>    -9.8758     0.0000     2.0000 </r>
       <r>    -9.7777     0.0000     2.0000 </r>
       <r>    -9.6796     0.0000     2.0000 </r>
       <r>    -9.5815     0.0000     2.0000 </r>
       <r>    -9.4834     0.0000     2.0000 </r>
       <r>    -9.3853     0.0000     2.0000 </r>
       <r>    -9.2873     0.0000     2.0000 </r>
       <r>    -9.1892     0.0000     2.0000 </r>
       <r>    -9.0911     0.0000     2.0000 </r>
       <r>    -8.9930     0.0000     2.0000 </r>
       <r>    -8.8949     0.0000     2.0000 </r>
       <r>    -8.7968     0.0000     2.0000 </r>
       <r>    -8.6987     0.0000     2.0000 </r>
       <r>    -8.6006     0.0000     2.0000 </r>
       <r>    -8.5025     0.0000     2.0000 </r>
       <r>    -8.4044     0.0000     2.0000 </r>
       <r>    -8.3064     0.0000     2.0000 </r>
       <r>    -8.2083     0.0000     2.0000 </r>
       <r>    -8.1102     0.0000     2.0000 </r>
       <r>    -8.0121     0.0000     2.0000 </r>
       <r>    -7.9140     0.0000     2.0000 </r>
       <r>    -7.8159     0.0000     2.0000 </r>
       <r>    -7.7178     0.0000     2.0000 </r>
       <r>    -7.6197     0.0000     2.0000 </r>
       <r>    -7.5216     0.0000     2.0000 </r>
       <r>    -7.4236     0.0000     2.0000 </r>
       <r>    -7.3255     0.0000     2.0000 </r>
       <r>    -7.2274     0.0000     2.0000 </r>
       <r>    -7.1293     0.0000     2.0000 </r>
       <r>    -7.0312     0.0000     2.0000 </r>
       <r>    -6.9331     0.0000     2.0000 </r>
       <r>    -6.8350     0.0000     2.0000 </r>
       <r>    -6.7369     0.0000     2.0000 </r>
       <r>    -6.6388     0.2517     2.0247 </r>
       <r>    -6.5408     1.5103     2.1728 </r>
       <r>    -6.4427     0.0000     2.1728 </r>
       <r>    -6.3446     1.5103     2.3210 </r>
       <r>    -6.2465     1.5103     2.4691 </r>
       <r>    -6.1484     0.0000     2.4691 </r>
       <r>    -6.0503     0.0006     2.4692 </r>
       <r>    -5.9522     3.0201     2.7654 </r>
       <r>    -5.8541     0.0418     2.7695 </r>
       <r>    -5.7560     0.0000     2.9136 </r>
       <r>    -5.6580     0.0000     2.9136 </r>
       <r>    -5.5599     1.1835     3.0297 </r>
       <r>    -5.4618     2.9492     3.3510 </r>
       <r>    -5.3637     0.2081     3.3784 </r>
       <r>    -5.2656     1.4975     3.5296 </r>
       <r>    -5.1675     1.5103     3.6790 </r>
       <r>    -5.0694     1.5103     3.8272 </r>
       <r>    -4.9713     1.5929     3.9834 </r>
       <r>    -4.8732     1.0057     4.2716 </r>
       <r>    -4.7751     3.5382     4.6187 </r>
       <r>    -4.6771     0.0000     4.8642 </r>
       <r>    -4.5790     1.5103     5.0123 </r>
       <r>    -4.4809     1.0251     5.1129 </r>
       <r>    -4.3828     0.9949     5.2581 </r>
       <r>    -4.2847     4.0010     5.7011 </r>
       <r>    -4.1866     3.5230     6.0494 </r>
       <r>    -4.0885     1.0865     6.1560 </r>
       <r>    -3.9904     3.0207     6.4938 </r>
       <r>    -3.8923     2.6362     6.7524 </r>
       <r>    -3.7943     0.0001     6.8889 </r>
       <r>    -3.6962     2.7662     7.1602 </r>
       <r>    -3.5981     4.4861     7.6009 </r>
       <r>    -3.5000     4.8733     8.2311 </r>
       <r>    -3.4019     2.0144     8.6914 </r>
       <r>    -3.3038     6.4225     9.3707 </r>
       <r>    -3.2057     4.8201     9.9049 </r>
       <r>    -3.1076     1.7805    10.1008 </r>
       <r>    -3.0095     7.6754    10.9261 </r>
       <r>    -2.9115    17.5162    13.0517 </r>
       <r>    -2.8134     5.6964    13.8427 </r>
       <r>    -2.7153    15.2922    15.5495 </r>
       <r>    -2.6172     7.7515    16.5135 </r>
       <r>    -2.5191    18.1429    18.5455 </r>
       <r>    -2.4210    18.7253    20.6270 </r>
       <r>    -2.3229    12.8278    22.3448 </r>
       <r>    -2.2248    11.7264    23.7682 </r>
       <r>    -2.1267    14.8002    25.3534 </r>
       <r>    -2.0286    27.2400    28.5737 </r>
       <r>    -1.9306    26.5641    31.8409 </r>
       <r>    -1.8325    28.4092    35.7003 </r>
       <r>    -1.7344    20.7806    38.5569 </r>
       <r>    -1.6363    19.8799    41.0617 </r>
       <r>    -1.5382    26.8877    44.3167 </r>
       <r>    -1.4401    26.3389    47.5717 </r>
       <r>    -1.3420    33.1975    51.3063 </r>
       <r>    -1.2439    33.4948    55.2122 </r>
       <r>    -1.1458    30.5439    59.0963 </r>
       <r>    -1.0478    30.2840    62.6249 </r>
       <r>    -0.9497    40.4905    67.4783 </r>
       <r>    -0.8516    42.3966    72.3820 </r>
       <r>    -0.7535    48.9667    78.4823 </r>
       <r>    -0.6554    57.4543    85.3154 </r>
       <r>    -0.5573    61.3008    92.4574 </r>
       <r>    -0.4592    59.2462    99.5903 </r>
       <r>    -0.3611    34.3952   103.9172 </r>
       <r>    -0.2630    25.5853   107.0776 </r>
       <r>    -0.1650    51.4065   113.3390 </r>
       <r>    -0.0669    44.4182   118.7287 </r>
       <r>     0.0312    41.6867   123.5218 </r>
       <r>     0.1293    51.9179   129.5378 </r>
       <r>     0.2274    51.3731   136.0273 </r>
       <r>     0.3255    57.4252   143.0660 </r>
       <r>     0.4236    53.8441   149.2572 </r>
       <r>     0.5217    79.2099   158.2152 </r>
       <r>     0.6198    60.5164   165.8384 </r>
       <r>     0.7178    31.5532   169.9595 </r>
       <r>     0.8159    11.2189   171.3722 </r>
       <r>     0.9140     9.6211   172.6229 </r>
       <r>     1.0121     6.5222   173.6768 </r>
       <r>     1.1102     7.9068   174.6029 </r>
       <r>     1.2083    12.1656   176.0081 </r>
       <r>     1.3064     3.4503   176.4866 </r>
       <r>     1.4045     9.1373   177.4647 </r>
       <r>     1.5026     2.7357   178.1202 </r>
       <r>     1.6007     6.7603   178.9348 </r>
       <r>     1.6987     2.1288   179.2705 </r>
       <r>     1.7968     1.4224   179.5963 </r>
       <r>     1.8949     5.5959   180.3020 </r>
       <r>     1.9930     5.2901   180.8646 </r>
       <r>     2.0911     9.2378   181.8199 </r>
       <r>     2.1892     6.7191   182.5110 </r>
       <r>     2.2873     2.5233   182.7908 </r>
       <r>     2.3854     7.0903   183.5844 </r>
       <r>     2.4835     2.0138   183.8765 </r>
       <r>     2.5815     2.4832   184.1201 </r>
       <r>     2.6796     1.8318   184.3283 </r>
       <r>     2.7777     3.0683   184.6961 </r>
       <r>     2.8758     9.5928   185.7805 </r>
       <r>     2.9739     5.7859   186.4441 </r>
       <r>     3.0720     3.2577   186.7640 </r>
       <r>     3.1701     7.7500   187.5751 </r>
       <r>     3.2682     4.0275   188.0741 </r>
       <r>     3.3663     2.1230   188.2823 </r>
       <r>     3.4643     1.7994   188.4975 </r>
       <r>     3.5624     3.8705   189.0463 </r>
       <r>     3.6605     6.9910   189.8709 </r>
       <r>     3.7586     1.3858   190.2102 </r>
       <r>     3.8567     3.0684   190.5479 </r>
       <r>     3.9548     4.4350   191.0770 </r>
       <r>     4.0529     2.8630   191.4663 </r>
       <r>     4.1510     4.5115   192.1709 </r>
       <r>     4.2491     3.2718   192.5679 </r>
       <r>     4.3471     3.0012   192.8623 </r>
       <r>     4.4452     8.2151   193.7441 </r>
       <r>     4.5433     2.6015   194.0330 </r>
       <r>     4.6414     4.0808   194.5731 </r>
       <r>     4.7395     5.0418   195.1118 </r>
       <r>     4.8376     5.0266   195.6535 </r>
       <r>     4.9357     0.0000   195.6543 </r>
       <r>     5.0338     5.1883   196.1632 </r>
       <r>     5.1319     1.3543   196.4785 </r>
       <r>     5.2300     4.1496   196.9996 </r>
       <r>     5.3280     4.6491   197.4684 </r>
       <r>     5.4261     2.1621   197.8170 </r>
       <r>     5.5242     2.8588   198.2310 </r>
       <r>     5.6223     5.5093   198.8861 </r>
       <r>     5.7204     0.5034   198.9877 </r>
       <r>     5.8185     1.8685   199.1709 </r>
       <r>     5.9166     4.3615   199.6624 </r>
       <r>     6.0147     2.8179   199.9554 </r>
       <r>     6.1128     4.6254   200.4290 </r>
       <r>     6.2108     1.2871   200.6451 </r>
       <r>     6.3089     3.7669   201.0362 </r>
       <r>     6.4070     6.5442   201.7036 </r>
       <r>     6.5051     1.2440   201.8751 </r>
       <r>     6.6032     2.3267   202.1297 </r>
       <r>     6.7013     2.9204   202.4470 </r>
       <r>     6.7994     2.7644   202.7528 </r>
       <r>     6.8975     4.5351   203.1979 </r>
       <r>     6.9956     6.9326   203.9393 </r>
       <r>     7.0936     3.3291   204.4748 </r>
       <r>     7.1917     4.6256   204.9725 </r>
       <r>     7.2898     2.8198   205.3136 </r>
       <r>     7.3879     3.1827   205.6949 </r>
       <r>     7.4860     4.2696   206.1720 </r>
       <r>     7.5841     9.5954   207.1883 </r>
       <r>     7.6822     4.3359   207.9686 </r>
       <r>     7.7803     5.2813   208.5798 </r>
       <r>     7.8784     6.2624   209.3180 </r>
       <r>     7.9764     2.4354   209.6339 </r>
       <r>     8.0745     6.2642   210.3552 </r>
       <r>     8.1726     4.7356   210.8719 </r>
       <r>     8.2707     5.3604   211.6739 </r>
       <r>     8.3688     3.3394   212.0683 </r>
       <r>     8.4669     3.4274   212.7189 </r>
       <r>     8.5650     4.7672   213.3195 </r>
       <r>     8.6631     5.9459   214.0401 </r>
       <r>     8.7612     6.5929   214.8319 </r>
       <r>     8.8593     4.1077   215.2424 </r>
       <r>     8.9573     3.7644   215.8262 </r>
       <r>     9.0554     4.0289   216.4077 </r>
       <r>     9.1535     6.4637   217.1525 </r>
       <r>     9.2516     6.1100   217.8462 </r>
       <r>     9.3497     5.4776   218.6978 </r>
       <r>     9.4478     7.9620   219.6330 </r>
       <r>     9.5459     4.9241   220.2732 </r>
       <r>     9.6440     6.3123   220.9526 </r>
       <r>     9.7421     5.7666   221.7138 </r>
       <r>     9.8401     5.2057   222.3995 </r>
       <r>     9.9382     5.0818   223.1528 </r>
       <r>    10.0363     3.9455   223.6586 </r>
       <r>    10.1344     3.9762   224.1061 </r>
       <r>    10.2325     5.6680   224.6918 </r>
       <r>    10.3306     6.4252   225.3958 </r>
       <r>    10.4287     9.0460   226.4429 </r>
       <r>    10.5268     4.6722   226.9523 </r>
       <r>    10.6249     3.2058   227.3268 </r>
       <r>    10.7229     0.5054   227.4323 </r>
       <r>    10.8210     3.4213   227.7679 </r>
       <r>    10.9191     1.5103   227.9506 </r>
       <r>    11.0172     0.5034   228.0000 </r>
       <r>    11.1153     0.0000   228.0000 </r>
       <r>    11.2134     0.0000   228.0000 </r>
       <r>    11.3115     0.0000   228.0000 </r>
       <r>    11.4096     0.0000   228.0000 </r>
       <r>    11.5077     0.0000   228.0000 </r>
       <r>    11.6058     0.0000   228.0000 </r>
       <r>    11.7038     0.0000   228.0000 </r>
       <r>    11.8019     0.0000   228.0000 </r>
       <r>    11.9000     0.0000   228.0000 </r>
       <r>    11.9981     0.0000   228.0000 </r>
       <r>    12.0962     0.0000   228.0000 </r>
       <r>    12.1943     0.0000   228.0000 </r>
       <r>    12.2924     0.0000   228.0000 </r>
      </set>
     </set>
    </array>
   </total>
  </dos>
 </calculation>
 <structure name="finalpos" >
  <crystal>
   <varray name="basis" >
    <v>       4.42708529      -2.55597888       0.00000000 </v>
    <v>       0.00000000       5.11195776       0.00000000 </v>
    <v>       0.00000000       0.00000000      15.00000000 </v>
   </varray>
   <i name="volume">    339.46609504 </i>
   <varray name="rec_basis" >
    <v>       0.22588225       0.00000000       0.00000000 </v>
    <v>       0.11294113       0.19561977       0.00000000 </v>
    <v>       0.00000000       0.00000000       0.06666667 </v>
   </varray>
  </crystal>
  <varray name="positions" >
   <v>       0.00000000       0.00000000       0.00000000 </v>
   <v>       0.83380750       0.66622163       0.27940760 </v>
   <v>       0.51947096       0.52244277       0.41657534 </v>
   <v>       0.50000000       0.50000000       0.00000000 </v>
   <v>       0.16666667       0.83333333       0.13912987 </v>
   <v>       0.33386495       0.67166621       0.27917635 </v>
   <v>       0.00870615       0.49133693       0.41967759 </v>
   <v>       0.66666667       0.83333333       0.13912987 </v>
   <v>       0.00000000       0.50000000       0.00000000 </v>
   <v>       0.82836231       0.16616293       0.27917568 </v>
   <v>       0.48573716       0.01430996       0.42035679 </v>
   <v>       0.50000000      -0.00000000       0.00000000 </v>
   <v>       0.16666667       0.33333333       0.13912987 </v>
   <v>       0.33075817       0.16927636       0.27617890 </v>
   <v>       0.97757713       0.98054828       0.41656815 </v>
   <v>       0.66666667       0.33333333       0.13912987 </v>
   <v>       0.25476348       0.24523579       0.49783928 </v>
  </varray>
  <varray name="selective"  type="logical" >
   <v type="logical" >  F  F  F </v>
   <v type="logical" >  T  T  T </v>
   <v type="logical" >  T  T  T </v>
   <v type="logical" >  F  F  F </v>
   <v type="logical" >  F  F  F </v>
   <v type="logical" >  T  T  T </v>
   <v type="logical" >  T  T  T </v>
   <v type="logical" >  F  F  F </v>
   <v type="logical" >  F  F  F </v>
   <v type="logical" >  T  T  T </v>
   <v type="logical" >  T  T  T </v>
   <v type="logical" >  F  F  F </v>
   <v type="logical" >  F  F  F </v>
   <v type="logical" >  T  T  T </v>
   <v type="logical" >  T  T  T </v>
   <v type="logical" >  F  F  F </v>
   <v type="logical" >  T  T  T </v>
  </varray>
  <nose>
   <v>      -3.00000000       0.00000000       0.00010000       0.00010000 </v>
  </nose>
 </structure>
</modeling>
type="logical" >  T  T  T </v>
   <v type="logical" >  T  T  T </v>
   <v type="logical" >  F  F  F </v>
   <v type="logical" >  F  F  F </v>
   <v type="logical" >  T  T  T </v>
   <v type="logical" >  T  T  T </v>
   <v type="logical" >  F  F  F </v>
   <v type="logical" >  F  F  F </v>
   <v type="logical" >  T  T  T </v>
   <v type="logical" >  T  T  T </v>
   <v type="logical" >  F  F  F </v>
   <v type="logical" >  T  T  T </v>
  </varray>
  <nose>
   <v>      -3.00000000       0.00000000       0.00010000       0.00010000 </v>
  </nose>
 </structure>
</modeling>
