unknown system                          
           1
    23.028773    0.003603   -0.040913
    -0.001103    8.343626   -0.002547
     0.069669    0.001412    5.537198
    Al    O      H 
    16    25     2
Direct configuration= 14546
  0.3388162438613750  1.0580432278644356  1.8110180983464534
  0.3403868688483879  0.7249344026217190  1.8033827754769918
  0.4269025166538853  1.5693231702920549  1.0904382028657484
  0.4255274409827052  1.2242849383426768  1.0696496032910932
  0.5986848955645617  0.8704958384482971  1.0977531861234657
  0.3714353612107905  0.8918200696036277  1.2944979286801073
  0.4643552130189524  1.3958925621472371  1.5849028826449267
  0.3375014065247334  1.3928584224549985  1.3711652042550340
  0.5905523004704500  0.9001313177596338  1.5945822653349462
  0.4644338266272346  0.8956114162977931  1.8340720202118042
  0.3380509038328623  1.3944032227447525  1.8525827479157932
  0.5542654178075560  1.3930771595899876  1.1283667431315378
  0.5036014683474217  1.0686516721032884  1.3248617735597998
  0.4990735274036422  0.7251205458539617  1.3619098915993659
  0.5836858583273967  1.5615681367056864  1.6353566917485078
  0.5821607226863665  1.2382901896445417  1.6242716050317667
  0.4184654086491070  0.7277789619354360  1.8527587908314753
  0.4170205945220994  1.0693135910931852  1.8369055011583850
  0.4189308689605125  1.3967434276890012  1.8511287634277298
  0.3380559907911037  1.2434004552924549  1.0887229217889414
  0.3337921633526336  1.5587657072443286  1.0776040992390348
  0.3258697186765912  0.8955541542952234  1.0353972397806632
  0.4218772987123199  0.7270374992760089  1.3207991734398019
  0.4258045527997431  1.0531062730891196  1.2948099385857141
  0.4145378216981007  1.3914121240301165  1.3238828107410712
  0.3235362766333648  1.2413676978498680  1.6364193862525436
  0.3242790191277776  1.5452820409116579  1.6088881704976934
  0.3326859909251278  0.8911899858016937  1.5881569058240217
  0.6048908601891146  0.7403278315258027  1.8132978890091613
  0.6102082002877441  1.0582164247806631  1.7884807347980394
  0.5936804649948763  1.3985489064893033  1.8525612097732624
  0.5043537089609010  1.2317019562373108  1.1017778548057091
  0.5053068971626548  1.5618514662691942  1.1460451186492984
  0.5154674666690560  0.8935258319987633  1.1024870768881558
  0.5888069982346580  0.7340733107663171  1.3642588089105541
  0.5862475317941339  1.0474563188350878  1.3385061642007050
  0.5988534553195684  1.3967802477349980  1.4085279027931870
  0.5090396142768134  1.2276726000259208  1.5871964604145430
  0.5059458067533604  1.5729465959327271  1.6000245206747712
  0.5076292306722412  0.9101601287925848  1.5767020534459224
  0.6746773523712573  0.9497917087494585  1.0661396159810379
  0.6531610624471497  1.0167195670454772  1.9008261618130133
  0.7037207094000474  0.8693182087716305  1.0000354561205114

