  17  17   0   0
  0.1996859E+02  0.5111958E-09  0.5111958E-09  0.1500000E-08  0.5000000E-15
  1.000000000000000E-004
  CAR 
 TS                                      
     11.39287649    -17.43404104  301      2.16411988      1.00000000
    -17.434  0.0000E+00  0.0000E+00
    -17.338  0.0000E+00  0.0000E+00
    -17.242  0.0000E+00  0.0000E+00
    -17.146  0.0000E+00  0.0000E+00
    -17.050  0.0000E+00  0.0000E+00
    -16.954  0.0000E+00  0.0000E+00
    -16.858  0.0000E+00  0.0000E+00
    -16.761  0.0000E+00  0.0000E+00
    -16.665  0.0000E+00  0.0000E+00
    -16.569  0.0000E+00  0.0000E+00
    -16.473  0.0000E+00  0.0000E+00
    -16.377  0.0000E+00  0.0000E+00
    -16.281  0.0000E+00  0.0000E+00
    -16.185  0.0000E+00  0.0000E+00
    -16.089  0.3466E-01  0.3331E-02
    -15.993  0.0000E+00  0.3333E-02
    -15.897  0.0000E+00  0.3333E-02
    -15.801  0.0000E+00  0.3333E-02
    -15.704  0.0000E+00  0.3333E-02
    -15.608  0.0000E+00  0.3333E-02
    -15.512  0.0000E+00  0.3333E-02
    -15.416  0.0000E+00  0.3333E-02
    -15.320  0.0000E+00  0.3333E-02
    -15.224  0.0000E+00  0.3333E-02
    -15.128  0.0000E+00  0.3333E-02
    -15.032  0.0000E+00  0.3333E-02
    -14.936  0.0000E+00  0.3333E-02
    -14.840  0.0000E+00  0.3333E-02
    -14.744  0.0000E+00  0.3333E-02
    -14.647  0.0000E+00  0.3333E-02
    -14.551  0.0000E+00  0.3333E-02
    -14.455  0.0000E+00  0.3333E-02
    -14.359  0.0000E+00  0.3333E-02
    -14.263  0.0000E+00  0.3333E-02
    -14.167  0.0000E+00  0.3333E-02
    -14.071  0.0000E+00  0.3333E-02
    -13.975  0.0000E+00  0.3333E-02
    -13.879  0.0000E+00  0.3333E-02
    -13.783  0.0000E+00  0.3333E-02
    -13.687  0.0000E+00  0.3333E-02
    -13.590  0.0000E+00  0.3333E-02
    -13.494  0.0000E+00  0.3333E-02
    -13.398  0.0000E+00  0.3333E-02
    -13.302  0.0000E+00  0.3333E-02
    -13.206  0.0000E+00  0.3333E-02
    -13.110  0.0000E+00  0.3333E-02
    -13.014  0.0000E+00  0.3333E-02
    -12.918  0.0000E+00  0.3333E-02
    -12.822  0.0000E+00  0.3333E-02
    -12.726  0.0000E+00  0.3333E-02
    -12.630  0.0000E+00  0.3333E-02
    -12.533  0.0000E+00  0.3333E-02
    -12.437  0.0000E+00  0.3333E-02
    -12.341  0.0000E+00  0.3333E-02
    -12.245  0.0000E+00  0.3333E-02
    -12.149  0.0000E+00  0.3333E-02
    -12.053  0.0000E+00  0.3333E-02
    -11.957  0.0000E+00  0.3333E-02
    -11.861  0.0000E+00  0.3333E-02
    -11.765  0.0000E+00  0.3333E-02
    -11.669  0.0000E+00  0.3333E-02
    -11.573  0.0000E+00  0.3333E-02
    -11.476  0.0000E+00  0.3333E-02
    -11.380  0.0000E+00  0.3333E-02
    -11.284  0.0000E+00  0.3333E-02
    -11.188  0.0000E+00  0.3333E-02
    -11.092  0.0000E+00  0.3333E-02
    -10.996  0.0000E+00  0.3333E-02
    -10.900  0.0000E+00  0.3333E-02
    -10.804  0.0000E+00  0.3333E-02
    -10.708  0.0000E+00  0.3333E-02
    -10.612  0.0000E+00  0.3333E-02
    -10.516  0.0000E+00  0.3333E-02
    -10.419  0.0000E+00  0.3333E-02
    -10.323  0.0000E+00  0.3333E-02
    -10.227  0.0000E+00  0.3333E-02
    -10.131  0.0000E+00  0.3333E-02
    -10.035  0.0000E+00  0.3333E-02
     -9.939  0.0000E+00  0.3333E-02
     -9.843  0.0000E+00  0.3333E-02
     -9.747  0.0000E+00  0.3333E-02
     -9.651  0.0000E+00  0.3333E-02
     -9.555  0.0000E+00  0.3333E-02
     -9.459  0.0000E+00  0.3333E-02
     -9.363  0.0000E+00  0.3333E-02
     -9.266  0.0000E+00  0.3333E-02
     -9.170  0.0000E+00  0.3333E-02
     -9.074  0.0000E+00  0.3333E-02
     -8.978  0.0000E+00  0.3333E-02
     -8.882  0.0000E+00  0.3333E-02
     -8.786  0.0000E+00  0.3333E-02
     -8.690  0.0000E+00  0.3333E-02
     -8.594  0.0000E+00  0.3333E-02
     -8.498  0.0000E+00  0.3333E-02
     -8.402  0.0000E+00  0.3333E-02
     -8.306  0.0000E+00  0.3333E-02
     -8.209  0.0000E+00  0.3333E-02
     -8.113  0.0000E+00  0.3333E-02
     -8.017  0.0000E+00  0.3333E-02
     -7.921  0.0000E+00  0.3333E-02
     -7.825  0.0000E+00  0.3333E-02
     -7.729  0.0000E+00  0.3333E-02
     -7.633  0.0000E+00  0.3333E-02
     -7.537  0.0000E+00  0.3333E-02
     -7.441  0.0000E+00  0.3333E-02
     -7.345  0.0000E+00  0.3333E-02
     -7.249  0.0000E+00  0.3333E-02
     -7.152  0.0000E+00  0.3333E-02
     -7.056  0.0000E+00  0.3333E-02
     -6.960  0.0000E+00  0.3333E-02
     -6.864  0.0000E+00  0.3333E-02
     -6.768  0.0000E+00  0.3333E-02
     -6.672  0.8796E-04  0.3342E-02
     -6.576  0.4474E-03  0.3417E-02
     -6.480  0.0000E+00  0.3621E-02
     -6.384  0.4498E-03  0.3665E-02
     -6.288  0.5432E-03  0.3921E-02
     -6.192  0.0000E+00  0.4115E-02
     -6.095  0.0000E+00  0.4115E-02
     -5.999  0.2746E-02  0.4379E-02
     -5.903  0.0000E+00  0.4609E-02
     -5.807  0.2290E-02  0.4829E-02
     -5.711  0.0000E+00  0.4856E-02
     -5.615  0.0000E+00  0.4856E-02
     -5.519  0.2569E-02  0.5103E-02
     -5.423  0.5139E-02  0.5597E-02
     -5.327  0.4277E-03  0.5638E-02
     -5.231  0.2570E-02  0.5885E-02
     -5.135  0.2570E-02  0.6132E-02
     -5.038  0.2570E-02  0.6379E-02
     -4.942  0.3792E-02  0.6743E-02
     -4.846  0.3347E-08  0.7119E-02
     -4.750  0.8332E-02  0.7920E-02
     -4.654  0.5111E-11  0.8107E-02
     -4.558  0.2570E-02  0.8354E-02
     -4.462  0.2566E-02  0.8601E-02
     -4.366  0.2569E-02  0.8848E-02
     -4.270  0.6850E-02  0.9506E-02
     -4.174  0.5995E-02  0.1008E-01
     -4.078  0.2570E-02  0.1033E-01
     -3.981  0.5139E-02  0.1082E-01
     -3.885  0.7708E-02  0.1156E-01
     -3.789  0.2728E-10  0.1156E-01
     -3.693  0.3032E-02  0.1186E-01
     -3.597  0.6614E-02  0.1273E-01
     -3.501  0.7978E-02  0.1394E-01
     -3.405  0.5949E-02  0.1473E-01
     -3.309  0.1263E-01  0.1595E-01
     -3.213  0.7460E-02  0.1668E-01
     -3.117  0.8154E-02  0.1757E-01
     -3.021  0.3232E-01  0.2072E-01
     -2.924  0.1818E-01  0.2286E-01
     -2.828  0.1092E-01  0.2414E-01
     -2.732  0.1918E-01  0.2616E-01
     -2.636  0.2345E-01  0.2892E-01
     -2.540  0.1887E-01  0.3103E-01
     -2.444  0.1863E-01  0.3311E-01
     -2.348  0.2058E-01  0.3647E-01
     -2.252  0.2236E-01  0.3935E-01
     -2.156  0.1953E-01  0.4130E-01
     -2.060  0.2123E-01  0.4418E-01
     -1.964  0.5260E-01  0.5012E-01
     -1.868  0.4650E-01  0.5616E-01
     -1.771  0.4653E-01  0.6094E-01
     -1.675  0.4077E-01  0.6647E-01
     -1.579  0.4424E-01  0.7137E-01
     -1.483  0.5464E-01  0.7764E-01
     -1.387  0.4171E-01  0.8281E-01
     -1.291  0.4387E-01  0.8829E-01
     -1.195  0.6171E-01  0.9478E-01
     -1.099  0.5600E-01  0.1010E+00
     -1.003  0.6302E-01  0.1084E+00
     -0.907  0.7436E-01  0.1160E+00
     -0.811  0.7676E-01  0.1250E+00
     -0.714  0.8651E-01  0.1342E+00
     -0.618  0.9557E-01  0.1450E+00
     -0.522  0.9950E-01  0.1561E+00
     -0.426  0.9810E-01  0.1669E+00
     -0.330  0.6035E-01  0.1740E+00
     -0.234  0.7687E-01  0.1818E+00
     -0.138  0.8284E-01  0.1915E+00
     -0.042  0.6118E-01  0.1989E+00
      0.054  0.9292E-01  0.2091E+00
      0.150  0.8285E-01  0.2188E+00
      0.246  0.9898E-01  0.2298E+00
      0.343  0.8203E-01  0.2392E+00
      0.439  0.1040E+00  0.2505E+00
      0.535  0.1096E+00  0.2635E+00
      0.631  0.1167E+00  0.2766E+00
      0.727  0.5636E-01  0.2827E+00
      0.823  0.2412E-01  0.2852E+00
      0.919  0.2504E-01  0.2880E+00
      1.015  0.1340E-01  0.2893E+00
      1.111  0.2488E-01  0.2921E+00
      1.207  0.7364E-02  0.2936E+00
      1.303  0.3749E-03  0.2937E+00
      1.400  0.2220E-01  0.2958E+00
      1.496  0.1030E-01  0.2970E+00
      1.592  0.1537E-01  0.2984E+00
      1.688  0.2570E-02  0.2987E+00
      1.784  0.9292E-02  0.2996E+00
      1.880  0.8565E-03  0.2998E+00
      1.976  0.9344E-02  0.3007E+00
      2.072  0.1028E-01  0.3020E+00
      2.168  0.1461E-01  0.3034E+00
      2.264  0.6589E-02  0.3042E+00
      2.360  0.7703E-02  0.3054E+00
      2.457  0.1028E-01  0.3064E+00
      2.553  0.2997E-02  0.3067E+00
      2.649  0.2570E-02  0.3069E+00
      2.745  0.1746E-02  0.3071E+00
      2.841  0.1371E-01  0.3086E+00
      2.937  0.1796E-01  0.3107E+00
      3.033  0.1968E-03  0.3107E+00
      3.129  0.1151E-01  0.3119E+00
      3.225  0.5583E-02  0.3128E+00
      3.321  0.5134E-02  0.3135E+00
      3.417  0.5138E-02  0.3140E+00
      3.514  0.5139E-02  0.3145E+00
      3.610  0.9579E-02  0.3154E+00
      3.706  0.6338E-02  0.3166E+00
      3.802  0.5157E-02  0.3171E+00
      3.898  0.7829E-02  0.3179E+00
      3.994  0.7884E-02  0.3189E+00
      4.090  0.4807E-03  0.3191E+00
      4.186  0.1362E-01  0.3207E+00
      4.282  0.2570E-02  0.3211E+00
      4.378  0.5869E-03  0.3211E+00
      4.474  0.1330E-01  0.3228E+00
      4.571  0.2531E-02  0.3235E+00
      4.667  0.6003E-02  0.3244E+00
      4.763  0.9935E-02  0.3253E+00
      4.859  0.5155E-02  0.3258E+00
      4.955  0.2553E-02  0.3261E+00
      5.051  0.8488E-02  0.3269E+00
      5.147  0.2570E-02  0.3273E+00
      5.243  0.1065E-01  0.3283E+00
      5.339  0.7708E-02  0.3291E+00
      5.435  0.5076E-02  0.3296E+00
      5.531  0.1341E-02  0.3297E+00
      5.627  0.5606E-02  0.3309E+00
      5.724  0.7706E-02  0.3316E+00
      5.820  0.3448E-12  0.3316E+00
      5.916  0.6009E-02  0.3322E+00
      6.012  0.9852E-02  0.3332E+00
      6.108  0.7191E-02  0.3339E+00
      6.204  0.7636E-02  0.3347E+00
      6.300  0.4407E-02  0.3351E+00
      6.396  0.5913E-02  0.3358E+00
      6.492  0.2779E-02  0.3362E+00
      6.588  0.2722E-02  0.3365E+00
      6.684  0.7228E-02  0.3372E+00
      6.781  0.2784E-02  0.3375E+00
      6.877  0.7335E-02  0.3382E+00
      6.973  0.1457E-02  0.3385E+00
      7.069  0.2052E-01  0.3405E+00
      7.165  0.5565E-02  0.3410E+00
      7.261  0.6353E-02  0.3416E+00
      7.357  0.7128E-02  0.3425E+00
      7.453  0.6580E-02  0.3434E+00
      7.549  0.5048E-02  0.3441E+00
      7.645  0.1541E-01  0.3456E+00
      7.741  0.1102E-01  0.3467E+00
      7.838  0.1290E-01  0.3481E+00
      7.934  0.7474E-02  0.3491E+00
      8.030  0.6619E-02  0.3498E+00
      8.126  0.1130E-01  0.3511E+00
      8.222  0.3917E-02  0.3515E+00
      8.318  0.1128E-01  0.3527E+00
      8.414  0.4226E-02  0.3535E+00
      8.510  0.6597E-02  0.3544E+00
      8.606  0.1134E-01  0.3556E+00
      8.702  0.3405E-02  0.3563E+00
      8.798  0.1195E-01  0.3574E+00
      8.895  0.1307E-01  0.3589E+00
      8.991  0.3867E-02  0.3594E+00
      9.087  0.2996E-02  0.3600E+00
      9.183  0.1432E-01  0.3613E+00
      9.279  0.3517E-02  0.3617E+00
      9.375  0.6132E-02  0.3627E+00
      9.471  0.1196E-01  0.3639E+00
      9.567  0.1039E-01  0.3649E+00
      9.663  0.4175E-02  0.3655E+00
      9.759  0.1978E-05  0.3659E+00
      9.855  0.6422E-02  0.3665E+00
      9.952  0.0000E+00  0.3665E+00
     10.048  0.4994E-09  0.3665E+00
     10.144  0.1285E-02  0.3667E+00
     10.240  0.0000E+00  0.3667E+00
     10.336  0.0000E+00  0.3667E+00
     10.432  0.0000E+00  0.3667E+00
     10.528  0.0000E+00  0.3667E+00
     10.624  0.0000E+00  0.3667E+00
     10.720  0.0000E+00  0.3667E+00
     10.816  0.0000E+00  0.3667E+00
     10.912  0.0000E+00  0.3667E+00
     11.009  0.0000E+00  0.3667E+00
     11.105  0.0000E+00  0.3667E+00
     11.201  0.0000E+00  0.3667E+00
     11.297  0.0000E+00  0.3667E+00
     11.393  0.0000E+00  0.3667E+00
