export LSCRATCH=/lscratch/24704723
 running on   20 total cores
 distrk:  each k-point on   20 cores,    1 groups
 distr:  one band on    4 cores,    5 groups
 using from now: INCAR     
 vasp.5.4.4.18Apr17-6-g9f103f2a35 (build Jun 16 2022 14:25:58) complex          
  
 POSCAR found type information on POSCAR  Cu O 
 POSCAR found :  2 types and      17 ions
 scaLAPACK will be used
 LDA part: xc-table for Pade appr. of Perdew
 POSCAR found type information on POSCAR  Cu O 
 POSCAR found :  2 types and      17 ions
 POSCAR, INCAR and KPOINTS ok, starting setup
 FFT: planning ...
 WAVECAR not read
 entering main loop
       N       E                     dE             d eps       ncg     rms          rms(c)
DAV:   1     0.183456646001E+04    0.18346E+04   -0.76757E+04 18040   0.242E+03
DAV:   2     0.244512823107E+03   -0.15901E+04   -0.15390E+04 18050   0.511E+02
DAV:   3    -0.484247901584E+02   -0.29294E+03   -0.26936E+03 21320   0.249E+02
DAV:   4    -0.774278527125E+02   -0.29003E+02   -0.27056E+02 25830   0.888E+01
DAV:   5    -0.785420596117E+02   -0.11142E+01   -0.11061E+01 22500   0.193E+01    0.320E+01
DAV:   6    -0.706800242898E+02    0.78620E+01   -0.17487E+02 21720   0.142E+02    0.206E+01
DAV:   7    -0.629188825732E+02    0.77611E+01   -0.43714E+01 23340   0.846E+01    0.591E+00
DAV:   8    -0.626952498289E+02    0.22363E+00   -0.87428E+00 24440   0.538E+01    0.424E+00
DAV:   9    -0.625915057127E+02    0.10374E+00   -0.26936E+00 25180   0.301E+01    0.219E+00
DAV:  10    -0.625647779680E+02    0.26728E-01   -0.90226E-01 27680   0.161E+01    0.238E+00
DAV:  11    -0.625419503876E+02    0.22828E-01   -0.44986E-01 24340   0.127E+01    0.185E+00
DAV:  12    -0.625029848686E+02    0.38966E-01   -0.15255E-01 26230   0.346E+00    0.793E-01
DAV:  13    -0.625013208823E+02    0.16640E-02   -0.10366E-01 25900   0.600E+00    0.540E-01
DAV:  14    -0.624980951614E+02    0.32257E-02   -0.25718E-02 21680   0.359E+00    0.251E-01
DAV:  15    -0.624983149743E+02   -0.21981E-03   -0.92442E-03 24270   0.131E+00    0.159E-01
DAV:  16    -0.624980017072E+02    0.31327E-03   -0.32759E-03 25350   0.786E-01    0.675E-02
DAV:  17    -0.624981056118E+02   -0.10390E-03   -0.12114E-03 28650   0.489E-01    0.118E-01
DAV:  18    -0.624980376648E+02    0.67947E-04   -0.62578E-04 25790   0.413E-01    0.105E-01
DAV:  19    -0.624979329428E+02    0.10472E-03   -0.45872E-04 26770   0.178E-01    0.397E-02
DAV:  20    -0.624980392526E+02   -0.10631E-03   -0.37427E-04 25210   0.221E-01    0.224E-02
DAV:  21    -0.624980818977E+02   -0.42645E-04   -0.42945E-05 22630   0.126E-01    0.238E-02
DAV:  22    -0.624981035233E+02   -0.21626E-04   -0.19710E-05 22120   0.830E-02    0.220E-02
DAV:  23    -0.624981271770E+02   -0.23654E-04   -0.21189E-05 21650   0.576E-02    0.130E-02
DAV:  24    -0.624981346922E+02   -0.75152E-05   -0.90278E-06 23770   0.499E-02    0.726E-03
DAV:  25    -0.624981417242E+02   -0.70320E-05   -0.40579E-06 27430   0.268E-02    0.224E-03
DAV:  26    -0.624981440539E+02   -0.23296E-05   -0.28957E-06 22520   0.146E-02    0.241E-03
DAV:  27    -0.624981441960E+02   -0.14215E-06   -0.18363E-07 13700   0.832E-03    0.185E-03
DAV:  28    -0.624981442368E+02   -0.40716E-07   -0.45419E-07 16660   0.646E-03
   1 F= -.62498144E+02 E0= -.62498014E+02  d E =-.624981E+02
 curvature:   0.00 expect dE= 0.000E+00 dE for cont linesearch  0.000E+00
 trial: gam= 0.00000 g(F)=  0.137E-03 g(S)=  0.000E+00 ort = 0.000E+00 (trialstep = 0.100E+01)
 search vector abs. value=  0.137E-03
 bond charge predicted
       N       E                     dE             d eps       ncg     rms          rms(c)
DAV:   1    -0.624981904280E+02   -0.46232E-04   -0.37010E-02 18670   0.632E-01    0.163E-02
DAV:   2    -0.624982643093E+02   -0.73881E-04   -0.76506E-04 27100   0.158E-01    0.149E-02
DAV:   3    -0.624982635685E+02    0.74075E-06   -0.22701E-05 21740   0.906E-02    0.126E-02
DAV:   4    -0.624982623797E+02    0.11888E-05   -0.41954E-06 24730   0.543E-02    0.977E-03
DAV:   5    -0.624982607929E+02    0.15868E-05   -0.44875E-06 34000   0.423E-02    0.467E-03
DAV:   6    -0.624982603960E+02    0.39699E-06   -0.22384E-06 25020   0.482E-02    0.219E-03
DAV:   7    -0.624982603956E+02    0.33469E-09   -0.83003E-07 22660   0.175E-02
   2 F= -.62498260E+02 E0= -.62498130E+02  d E =-.116159E-03
 trial-energy change:   -0.000116  1 .order   -0.000116   -0.000137   -0.000096
 step:   3.3443(harm=  3.3443)  dis= 0.00205  next Energy=   -62.498373 (dE=-0.228E-03)
 bond charge predicted
       N       E                     dE             d eps       ncg     rms          rms(c)
DAV:   1    -0.624979859031E+02    0.27449E-03   -0.20340E-01 18430   0.148E+00    0.389E-02
DAV:   2    -0.624983931391E+02   -0.40724E-03   -0.42194E-03 27100   0.368E-01    0.340E-02
DAV:   3    -0.624983876416E+02    0.54975E-05   -0.10975E-04 22110   0.187E-01    0.285E-02
DAV:   4    -0.624983818506E+02    0.57910E-05   -0.21878E-05 22650   0.128E-01    0.225E-02
DAV:   5    -0.624983740836E+02    0.77670E-05   -0.26244E-05 34830   0.123E-01    0.124E-02
DAV:   6    -0.624983708345E+02    0.32491E-05   -0.15166E-05 26770   0.125E-01    0.479E-03
DAV:   7    -0.624983709490E+02   -0.11453E-06   -0.51034E-06 28030   0.396E-02    0.293E-03
DAV:   8    -0.624983709622E+02   -0.13129E-07   -0.84155E-07 20060   0.177E-02
   3 F= -.62498371E+02 E0= -.62498240E+02  d E =-.226725E-03
 curvature:  -1.67 expect dE=-0.240E-03 dE for cont linesearch -0.362E-07
 trial: gam= 1.03850 g(F)=  0.144E-03 g(S)=  0.000E+00 ort = 0.172E-05 (trialstep = 0.681E+00)
 search vector abs. value=  0.294E-03
 bond charge predicted
       N       E                     dE             d eps       ncg     rms          rms(c)
DAV:   1    -0.624983675219E+02    0.34272E-05   -0.37385E-02 18430   0.633E-01    0.197E-02
DAV:   2    -0.624984472927E+02   -0.79771E-04   -0.81121E-04 27260   0.225E-01    0.218E-02
DAV:   3    -0.624984476379E+02   -0.34519E-06   -0.76099E-05 20870   0.199E-01    0.150E-02
DAV:   4    -0.624984460061E+02    0.16318E-05   -0.15010E-05 21460   0.811E-02    0.978E-03
DAV:   5    -0.624984453172E+02    0.68886E-06   -0.89680E-06 31390   0.551E-02    0.575E-03
DAV:   6    -0.624984450448E+02    0.27239E-06   -0.37796E-06 21950   0.571E-02    0.174E-03
DAV:   7    -0.624984450926E+02   -0.47850E-07   -0.94584E-07 20470   0.155E-02
   4 F= -.62498445E+02 E0= -.62498314E+02  d E =-.741305E-04
 trial-energy change:   -0.000074  1 .order   -0.000075   -0.000099   -0.000050
 step:   1.5386(harm=  1.3905)  dis= 0.00157  next Energy=   -62.498476 (dE=-0.105E-03)
 bond charge predicted
       N       E                     dE             d eps       ncg     rms          rms(c)
DAV:   1    -0.624983591478E+02    0.85897E-04   -0.59171E-02 18420   0.796E-01    0.251E-02
DAV:   2    -0.624984851079E+02   -0.12596E-03   -0.12893E-03 27290   0.283E-01    0.273E-02
DAV:   3    -0.624984857764E+02   -0.66853E-06   -0.12302E-04 20870   0.255E-01    0.192E-02
DAV:   4    -0.624984828870E+02    0.28895E-05   -0.24536E-05 21490   0.104E-01    0.122E-02
DAV:   5    -0.624984815642E+02    0.13227E-05   -0.14516E-05 31330   0.648E-02    0.687E-03
DAV:   6    -0.624984811632E+02    0.40102E-06   -0.59003E-06 22010   0.700E-02    0.230E-03
DAV:   7    -0.624984812053E+02   -0.42117E-07   -0.14822E-06 22040   0.207E-02    0.151E-03
DAV:   8    -0.624984811980E+02    0.73487E-08   -0.45247E-07 16890   0.106E-02
   5 F= -.62498481E+02 E0= -.62498350E+02  d E =-.110236E-03
 curvature:  -1.35 expect dE=-0.112E-03 dE for cont linesearch -0.119E-05
 trial: gam= 0.67396 g(F)=  0.835E-04 g(S)=  0.000E+00 ort =-0.161E-04 (trialstep = 0.853E+00)
 search vector abs. value=  0.195E-03
 bond charge predicted
       N       E                     dE             d eps       ncg     rms          rms(c)
DAV:   1    -0.624984539204E+02    0.27285E-04   -0.38131E-02 18180   0.643E-01    0.244E-02
DAV:   2    -0.624985475928E+02   -0.93672E-04   -0.97155E-04 25590   0.163E-01    0.162E-02
DAV:   3    -0.624985456252E+02    0.19676E-05   -0.16139E-05 21580   0.501E-02    0.113E-02
DAV:   4    -0.624985447765E+02    0.84877E-06   -0.57353E-06 23590   0.572E-02    0.885E-03
DAV:   5    -0.624985443980E+02    0.37846E-06   -0.68998E-06 27210   0.733E-02    0.655E-03
DAV:   6    -0.624985440915E+02    0.30654E-06   -0.44738E-06 33150   0.573E-02    0.172E-03
DAV:   7    -0.624985440443E+02    0.47206E-07   -0.48966E-07 16640   0.202E-02
   6 F= -.62498544E+02 E0= -.62498413E+02  d E =-.628463E-04
 ZBRENT: can't locate minimum, use default step
 trial-energy change:   -0.000063  1 .order   -0.000059   -0.000062   -0.000056
 step:   3.4113(harm=  8.7315)  dis= 0.00078  next Energy=   -62.498798 (dE=-0.317E-03)
 bond charge predicted
       N       E                     dE             d eps       ncg     rms          rms(c)
DAV:   1    -0.624979094593E+02    0.63463E-03   -0.34323E-01 18120   0.193E+00    0.733E-02
DAV:   2    -0.624987468818E+02   -0.83742E-03   -0.87443E-03 25660   0.495E-01    0.490E-02
DAV:   3    -0.624987253160E+02    0.21566E-04   -0.15482E-04 21360   0.168E-01    0.341E-02
DAV:   4    -0.624987166868E+02    0.86292E-05   -0.47642E-05 23560   0.158E-01    0.250E-02
DAV:   5    -0.624987116288E+02    0.50580E-05   -0.41494E-05 33920   0.171E-01    0.118E-02
DAV:   6    -0.624987104298E+02    0.11990E-05   -0.20386E-05 28510   0.128E-01    0.100E-02
DAV:   7    -0.624987095285E+02    0.90132E-06   -0.75891E-06 28840   0.708E-02    0.449E-03
DAV:   8    -0.624987092910E+02    0.23751E-06   -0.19016E-06 27800   0.278E-02    0.284E-03
DAV:   9    -0.624987092207E+02    0.70246E-07   -0.96296E-07 21720   0.200E-02
   7 F= -.62498709E+02 E0= -.62498578E+02  d E =-.228023E-03
 curvature:  -6.39 expect dE=-0.690E-03 dE for cont linesearch -0.609E-04
 ZBRENT: increasing intervall
 opt :   8.5281  next Energy=   -62.498816 (dE=-0.334E-03)
 bond charge predicted
       N       E                     dE             d eps       ncg     rms          rms(c)
DAV:   1    -0.624954597083E+02    0.32496E-02   -0.13732E+00 18100   0.386E+00    0.147E-01
DAV:   2    -0.624988145226E+02   -0.33548E-02   -0.35125E-02 26170   0.104E+00    0.103E-01
DAV:   3    -0.624987330121E+02    0.81510E-04   -0.83125E-04 21130   0.537E-01    0.729E-02
DAV:   4    -0.624987110535E+02    0.21959E-04   -0.26756E-04 23260   0.459E-01    0.617E-02
DAV:   5    -0.624986745615E+02    0.36492E-04   -0.22555E-04 34910   0.355E-01    0.359E-02
DAV:   6    -0.624986581881E+02    0.16373E-04   -0.13967E-04 33350   0.269E-01    0.154E-02
DAV:   7    -0.624986566999E+02    0.14882E-05   -0.36374E-05 27470   0.142E-01    0.101E-02
DAV:   8    -0.624986555834E+02    0.11165E-05   -0.10086E-05 22120   0.578E-02    0.594E-03
DAV:   9    -0.624986552621E+02    0.32124E-06   -0.56711E-06 22850   0.425E-02    0.305E-03
DAV:  10    -0.624986552858E+02   -0.23661E-07   -0.12532E-06 24020   0.198E-02    0.149E-03
DAV:  11    -0.624986552864E+02   -0.66939E-09   -0.18578E-07 11240   0.116E-02
   8 F= -.62498655E+02 E0= -.62498524E+02  d E =-.174088E-03
 curvature: -11.15 expect dE=-0.185E-02 dE for cont linesearch -0.110E-03
 ZBRENT: bracketing found
 ZBRENT: interpolating
 opt :   5.9500  next Energy=   -62.498764 (dE=-0.283E-03)
 bond charge predicted
       N       E                     dE             d eps       ncg     rms          rms(c)
DAV:   1    -0.624979288974E+02    0.72639E-03   -0.34845E-01 18100   0.194E+00    0.732E-02
DAV:   2    -0.624987782011E+02   -0.84930E-03   -0.88913E-03 24590   0.474E-01    0.498E-02
DAV:   3    -0.624987586722E+02    0.19529E-04   -0.14923E-04 24450   0.194E-01    0.383E-02
DAV:   4    -0.624987502689E+02    0.84033E-05   -0.84086E-05 22790   0.253E-01    0.323E-02
DAV:   5    -0.624987324701E+02    0.17799E-04   -0.55537E-05 32730   0.180E-01    0.140E-02
DAV:   6    -0.624987302658E+02    0.22043E-05   -0.27944E-05 25950   0.134E-01    0.585E-03
DAV:   7    -0.624987301730E+02    0.92750E-07   -0.69725E-06 27170   0.585E-02    0.401E-03
DAV:   8    -0.624987299544E+02    0.21859E-06   -0.11671E-06 23730   0.278E-02    0.267E-03
DAV:   9    -0.624987298442E+02    0.11022E-06   -0.84826E-07 22410   0.161E-02    0.117E-03
DAV:  10    -0.624987298223E+02    0.21926E-07   -0.18081E-07 11390   0.800E-03
   9 F= -.62498730E+02 E0= -.62498599E+02  d E =-.248624E-03
 curvature:  -5.58 expect dE=-0.602E-03 dE for cont linesearch -0.164E-04
 ZBRENT: interpolating
 opt :   5.0428  next Energy=   -62.498741 (dE=-0.260E-03)
 bond charge predicted
       N       E                     dE             d eps       ncg     rms          rms(c)
DAV:   1    -0.624986338757E+02    0.95968E-04   -0.43143E-02 18110   0.684E-01    0.259E-02
DAV:   2    -0.624987383901E+02   -0.10451E-03   -0.11004E-03 24850   0.168E-01    0.172E-02
DAV:   3    -0.624987355565E+02    0.28336E-05   -0.16183E-05 24150   0.454E-02    0.126E-02
DAV:   4    -0.624987348621E+02    0.69442E-06   -0.98036E-06 22420   0.838E-02    0.117E-02
DAV:   5    -0.624987324311E+02    0.24310E-05   -0.74154E-06 29400   0.749E-02    0.539E-03
DAV:   6    -0.624987320219E+02    0.40921E-06   -0.43080E-06 29100   0.477E-02    0.205E-03
DAV:   7    -0.624987319650E+02    0.56851E-07   -0.72338E-07 23710   0.193E-02
  10 F= -.62498732E+02 E0= -.62498601E+02  d E =-.250767E-03
 curvature:  -3.69 expect dE=-0.325E-03 dE for cont linesearch -0.395E-07
 trial: gam= 0.40769 g(F)=  0.879E-04 g(S)=  0.000E+00 ort =-0.145E-05 (trialstep = 0.169E+01)
 search vector abs. value=  0.119E-03
 bond charge predicted
       N       E                     dE             d eps       ncg     rms          rms(c)
DAV:   1    -0.624985875014E+02    0.14452E-03   -0.91686E-02 18350   0.976E-01    0.272E-02
DAV:   2    -0.624987623262E+02   -0.17482E-03   -0.17401E-03 28500   0.349E-01    0.425E-02
DAV:   3    -0.624987558321E+02    0.64941E-05   -0.24602E-04 19960   0.330E-01    0.214E-02
DAV:   4    -0.624987539779E+02    0.18542E-05   -0.36063E-05 21870   0.105E-01    0.145E-02
DAV:   5    -0.624987525055E+02    0.14723E-05   -0.13300E-05 24100   0.669E-02    0.104E-02
DAV:   6    -0.624987518051E+02    0.70044E-06   -0.11334E-05 23120   0.916E-02    0.554E-03
DAV:   7    -0.624987516383E+02    0.16676E-06   -0.42336E-06 29560   0.483E-02    0.175E-03
DAV:   8    -0.624987516897E+02   -0.51401E-07   -0.82268E-07 25420   0.149E-02
  11 F= -.62498752E+02 E0= -.62498621E+02  d E =-.197247E-04
 trial-energy change:   -0.000020  1 .order   -0.000019   -0.000148    0.000110
 step:   0.9777(harm=  0.9686)  dis= 0.00105  next Energy=   -62.498775 (dE=-0.429E-04)
 bond charge predicted
       N       E                     dE             d eps       ncg     rms          rms(c)
DAV:   1    -0.624987476628E+02    0.39755E-05   -0.16316E-02 18340   0.412E-01    0.115E-02
DAV:   2    -0.624987793630E+02   -0.31700E-04   -0.31313E-04 29040   0.163E-01    0.193E-02
DAV:   3    -0.624987772225E+02    0.21405E-05   -0.43517E-05 20020   0.143E-01    0.859E-03
DAV:   4    -0.624987769672E+02    0.25527E-06   -0.69187E-06 21480   0.424E-02    0.623E-03
DAV:   5    -0.624987766020E+02    0.36519E-06   -0.25460E-06 21840   0.312E-02    0.468E-03
DAV:   6    -0.624987762732E+02    0.32887E-06   -0.21643E-06 24220   0.364E-02    0.217E-03
DAV:   7    -0.624987761976E+02    0.75535E-07   -0.60662E-07 18560   0.194E-02
  12 F= -.62498776E+02 E0= -.62498645E+02  d E =-.442326E-04
 curvature:  -0.66 expect dE=-0.166E-04 dE for cont linesearch -0.543E-08
 trial: gam= 0.25995 g(F)=  0.252E-04 g(S)=  0.000E+00 ort = 0.989E-06 (trialstep = 0.155E+01)
 search vector abs. value=  0.337E-04
 bond charge predicted
       N       E                     dE             d eps       ncg     rms          rms(c)
DAV:   1    -0.624986974541E+02    0.78819E-04   -0.20815E-02 18040   0.461E-01    0.265E-02
DAV:   2    -0.624987847158E+02   -0.87262E-04   -0.91295E-04 26730   0.159E-01    0.157E-02
DAV:   3    -0.624987838693E+02    0.84649E-06   -0.29733E-05 21390   0.129E-01    0.128E-02
DAV:   4    -0.624987828779E+02    0.99143E-06   -0.64164E-06 23610   0.630E-02    0.786E-03
DAV:   5    -0.624987825231E+02    0.35479E-06   -0.29300E-06 30390   0.286E-02    0.528E-03
DAV:   6    -0.624987824421E+02    0.80938E-07   -0.34542E-06 24740   0.491E-02    0.379E-03
DAV:   7    -0.624987822898E+02    0.15235E-06   -0.13491E-06 25730   0.310E-02    0.923E-04
DAV:   8    -0.624987823018E+02   -0.12002E-07   -0.18694E-07 12030   0.602E-03
  13 F= -.62498782E+02 E0= -.62498652E+02  d E =-.610415E-05
 trial-energy change:   -0.000006  1 .order   -0.000018   -0.000039    0.000003
 step:   0.7727(harm=  1.4533)  dis= 0.00037  next Energy=   -62.498784 (dE=-0.829E-05)
 bond charge predicted
       N       E                     dE             d eps       ncg     rms          rms(c)
DAV:   1    -0.624987609046E+02    0.21385E-04   -0.52171E-03 18040   0.231E-01    0.132E-02
DAV:   2    -0.624987823958E+02   -0.21491E-04   -0.22789E-04 26750   0.770E-02    0.784E-03
DAV:   3    -0.624987820300E+02    0.36586E-06   -0.68336E-06 21540   0.594E-02    0.625E-03
DAV:   4    -0.624987817607E+02    0.26921E-06   -0.16128E-06 23290   0.318E-02    0.397E-03
DAV:   5    -0.624987815447E+02    0.21601E-06   -0.65262E-07 21030   0.195E-02    0.251E-03
DAV:   6    -0.624987814770E+02    0.67743E-07   -0.76480E-07 19740   0.259E-02
  14 F= -.62498781E+02 E0= -.62498651E+02  d E =-.527937E-05
 curvature:  48.62 expect dE= 0.781E-03 dE for cont linesearch  0.721E-05
 trial: gam= 0.52941 g(F)=  0.161E-04 g(S)=  0.000E+00 ort = 0.224E-05 (trialstep = 0.139E+01)
 search vector abs. value=  0.279E-04
 bond charge predicted
       N       E                     dE             d eps       ncg     rms          rms(c)
DAV:   1    -0.624987272739E+02    0.54271E-04   -0.14037E-02 18040   0.380E-01    0.220E-02
DAV:   2    -0.624987874935E+02   -0.60220E-04   -0.63120E-04 26400   0.142E-01    0.133E-02
DAV:   3    -0.624987875004E+02   -0.69085E-08   -0.27348E-05 21040   0.129E-01    0.121E-02
DAV:   4    -0.624987864449E+02    0.10555E-05   -0.55512E-06 22880   0.608E-02    0.701E-03
DAV:   5    -0.624987863536E+02    0.91288E-07   -0.30361E-06 27340   0.401E-02    0.578E-03
DAV:   6    -0.624987859822E+02    0.37142E-06   -0.26784E-06 23280   0.442E-02    0.230E-03
DAV:   7    -0.624987859895E+02   -0.73014E-08   -0.94631E-07 26140   0.165E-02
  15 F= -.62498786E+02 E0= -.62498655E+02  d E =-.451251E-05
 trial-energy change:   -0.000005  1 .order   -0.000009   -0.000024    0.000006
 step:   0.8101(harm=  1.1127)  dis= 0.00021  next Energy=   -62.498788 (dE=-0.611E-05)
 bond charge predicted
       N       E                     dE             d eps       ncg     rms          rms(c)
DAV:   1    -0.624987766969E+02    0.92853E-05   -0.24509E-03 18040   0.159E-01    0.893E-03
DAV:   2    -0.624987869856E+02   -0.10289E-04   -0.10942E-04 26540   0.624E-02    0.590E-03
DAV:   3    -0.624987868785E+02    0.10710E-06   -0.48775E-06 20930   0.581E-02    0.513E-03
DAV:   4    -0.624987866311E+02    0.24739E-06   -0.10319E-06 22190   0.268E-02    0.300E-03
DAV:   5    -0.624987865940E+02    0.37129E-07   -0.44853E-07 16290   0.169E-02
  16 F= -.62498787E+02 E0= -.62498656E+02  d E =-.511696E-05
 curvature:   0.15 expect dE= 0.265E-06 dE for cont linesearch  0.191E-10
 trial: gam= 0.14147 g(F)=  0.179E-05 g(S)=  0.000E+00 ort = 0.599E-07 (trialstep = 0.128E+01)
 search vector abs. value=  0.236E-05
 reached required accuracy - stopping structural energy minimisation
