 vasp.5.4.4.18Apr17-6-g9f103f2a35 (build Jun 16 2022 14:25:58) complex          
  
 executed on             LinuxIFC date 2025.05.07  04:07:52
 running on   20 total cores
 distrk:  each k-point on   20 cores,    1 groups
 distr:  one band on NCORES_PER_BAND=   4 cores,    5 groups


--------------------------------------------------------------------------------------------------------


 INCAR:
 POTCAR:    PAW_PBE Cu 22Jun2005                  
 POTCAR:    PAW_PBE O 08Apr2002                   
 POTCAR:    PAW_PBE Cu 22Jun2005                  
   VRHFIN =Cu: d10 p1                                                           
   LEXCH  = PE                                                                  
   EATOM  =  1390.9808 eV,  102.2342 Ry                                         
                                                                                
   TITEL  = PAW_PBE Cu 22Jun2005                                                
   LULTRA =        F    use ultrasoft PP ?                                      
   IUNSCR =        1    unscreen: 0-lin 1-nonlin 2-no                           
   RPACOR =    2.000    partial core radius                                     
   POMASS =   63.546; ZVAL   =   11.000    mass and valenz                      
   RCORE  =    2.300    outmost cutoff radius                                   
   RWIGS  =    2.200; RWIGS  =    1.164    wigner-seitz radius (au A)           
   ENMAX  =  295.446; ENMIN  =  221.585 eV                                      
   ICORE  =        3    local potential                                         
   LCOR   =        T    correct aug charges                                     
   LPAW   =        T    paw PP                                                  
   EAUG   =  586.980                                                            
   DEXC   =    0.000                                                            
   RMAX   =    2.344    core radius for proj-oper                               
   RAUG   =    1.300    factor for augmentation sphere                          
   RDEP   =    2.302    radius for radial grids                                 
   RDEPT  =    1.771    core radius for aug-charge                              
                                                                                
   Atomic configuration                                                         
    9 entries                                                                   
     n  l   j            E        occ.                                          
     1  0  0.50     -8850.2468   2.0000                                         
     2  0  0.50     -1062.3498   2.0000                                         
     2  1  1.50      -916.8226   6.0000                                         
     3  0  0.50      -114.6929   2.0000                                         
     3  1  1.50       -72.1325   6.0000                                         
     3  2  2.50        -5.0394  10.0000                                         
     4  0  0.50        -4.6097   1.0000                                         
     4  1  0.50        -4.0817   0.0000                                         
     4  3  2.50        -1.3606   0.0000                                         
   Description                                                                  
     l       E           TYP  RCUT    TYP  RCUT                                 
     2     -5.0393973     23  2.200                                             
     2     10.8846608     23  2.200                                             
     0     -4.6097109     23  2.200                                             
     0      8.2520465     23  2.200                                             
     1     -2.7211652     23  2.200                                             
     1     21.7055443     23  2.200                                             
     3      2.7211652     23  2.300                                             
  local pseudopotential read in
  partial core-charges read in
  partial kinetic energy density read in
  atomic valenz-charges read in
  non local Contribution for L=           2  read in
    real space projection operators read in
  non local Contribution for L=           2  read in
    real space projection operators read in
  non local Contribution for L=           0  read in
    real space projection operators read in
  non local Contribution for L=           0  read in
    real space projection operators read in
  non local Contribution for L=           1  read in
    real space projection operators read in
  non local Contribution for L=           1  read in
    real space projection operators read in
    PAW grid and wavefunctions read in
 
   number of l-projection  operators is LMAX  =           6
   number of lm-projection operators is LMMAX =          18
 
 POTCAR:    PAW_PBE O 08Apr2002                   
   VRHFIN =O: s2p4                                                              
   LEXCH  = PE                                                                  
   EATOM  =   432.3788 eV,   31.7789 Ry                                         
                                                                                
   TITEL  = PAW_PBE O 08Apr2002                                                 
   LULTRA =        F    use ultrasoft PP ?                                      
   IUNSCR =        1    unscreen: 0-lin 1-nonlin 2-no                           
   RPACOR =    1.200    partial core radius                                     
   POMASS =   16.000; ZVAL   =    6.000    mass and valenz                      
   RCORE  =    1.520    outmost cutoff radius                                   
   RWIGS  =    1.550; RWIGS  =    0.820    wigner-seitz radius (au A)           
   ENMAX  =  400.000; ENMIN  =  300.000 eV                                      
   ICORE  =        2    local potential                                         
   LCOR   =        T    correct aug charges                                     
   LPAW   =        T    paw PP                                                  
   EAUG   =  605.392                                                            
   DEXC   =    0.000                                                            
   RMAX   =    1.553    core radius for proj-oper                               
   RAUG   =    1.300    factor for augmentation sphere                          
   RDEP   =    1.550    radius for radial grids                                 
   RDEPT  =    1.329    core radius for aug-charge                              
                                                                                
   Atomic configuration                                                         
    4 entries                                                                   
     n  l   j            E        occ.                                          
     1  0  0.50      -514.6923   2.0000                                         
     2  0  0.50       -23.9615   2.0000                                         
     2  1  0.50        -9.0305   4.0000                                         
     3  2  1.50        -9.5241   0.0000                                         
   Description                                                                  
     l       E           TYP  RCUT    TYP  RCUT                                 
     0    -23.9615318     23  1.200                                             
     0     -9.5240782     23  1.200                                             
     1     -9.0304911     23  1.520                                             
     1      8.1634956     23  1.520                                             
     2     -9.5240782      7  1.500                                             
  local pseudopotential read in
  partial core-charges read in
  partial kinetic energy density read in
  kinetic energy density of atom read in
  atomic valenz-charges read in
  non local Contribution for L=           0  read in
    real space projection operators read in
  non local Contribution for L=           0  read in
    real space projection operators read in
  non local Contribution for L=           1  read in
    real space projection operators read in
  non local Contribution for L=           1  read in
    real space projection operators read in
    PAW grid and wavefunctions read in
 
   number of l-projection  operators is LMAX  =           4
   number of lm-projection operators is LMMAX =           8
 
 Optimization of the real space projectors (new method)

 maximal supplied QI-value         = 16.25
 optimisation between [QCUT,QGAM] = [ 11.38, 22.75] = [ 36.24,144.96] Ry 
 Optimized for a Real-space Cutoff    1.52 Angstroem

   l    n(q)    QCUT    max X(q) W(low)/X(q) W(high)/X(q)  e(spline) 
   2      9    11.376     4.610    0.21E-03    0.10E-03    0.26E-06
   2      9    11.376     8.522    0.33E-03    0.16E-03    0.37E-06
   0     10    11.376    51.609    0.62E-04    0.20E-04    0.13E-06
   0     10    11.376    27.747    0.54E-04    0.20E-04    0.13E-06
   1     10    11.376    20.408    0.13E-04    0.99E-04    0.19E-06
   1     10    11.376    13.425    0.12E-04    0.87E-04    0.17E-06
 Optimization of the real space projectors (new method)

 maximal supplied QI-value         = 24.76
 optimisation between [QCUT,QGAM] = [ 11.39, 22.77] = [ 36.31,145.25] Ry 
 Optimized for a Real-space Cutoff    1.00 Angstroem

   l    n(q)    QCUT    max X(q) W(low)/X(q) W(high)/X(q)  e(spline) 
   0      7    11.387    20.381    0.39E-03    0.13E-02    0.15E-06
   0      7    11.387    15.268    0.42E-03    0.14E-02    0.17E-06
   1      6    11.387     5.964    0.41E-03    0.11E-02    0.17E-06
   1      6    11.387     5.382    0.39E-03    0.87E-03    0.15E-06
  PAW_PBE Cu 22Jun2005                  :
 energy of atom  1       EATOM=-1390.9808
 kinetic energy error for atom=    0.0043 (will be added to EATOM!!)
  PAW_PBE O 08Apr2002                   :
 energy of atom  2       EATOM= -432.3788
 kinetic energy error for atom=    0.0224 (will be added to EATOM!!)
 
 
 POSCAR: Cu  O                                   
  positions in direct lattice
  velocities in cartesian coordinates
 exchange correlation table for  LEXCH =        8
   RHO(1)=    0.500       N(1)  =     2000
   RHO(2)=  100.500       N(2)  =     4000

 VTST: version 3.2, (02/03/18)

 CHAIN: initializing optimizer
 
 OPT: Using VASP Conjugate-Gradient optimizer
 CHAIN: Read ICHAIN            0
 
 POSCAR: Cu  O                                   
  positions in direct lattice
  velocities in cartesian coordinates
 


--------------------------------------------------------------------------------------------------------


 ion  position               nearest neighbor table
   1  0.000  0.000  0.000-   5 2.56   8 2.56  13 2.56  12 2.56  12 2.56   9 2.56   9 2.56   4 2.56
                             4 2.56
   2  0.833  0.667  0.283-   3 2.53  15 2.53   7 2.53   6 2.56  10 2.56  14 2.56  14 2.56   6 2.56
                            10 2.56   5 2.61  16 2.61   8 2.61
   3  0.511  0.506  0.422-  17 1.89  15 2.47   7 2.47   2 2.53  11 2.56  11 2.56   6 2.64  14 2.64
                             7 2.64  15 2.64
   4  0.500  0.500  0.000-  16 2.56  13 2.56   8 2.56   9 2.56   9 2.56  12 2.56  12 2.56   1 2.56
                             1 2.56
   5  0.167  0.833  0.139-  14 2.55   6 2.55   1 2.56  12 2.56   9 2.56   8 2.56   8 2.56  13 2.56
                            13 2.56  16 2.56  16 2.56   2 2.61
   6  0.332  0.664  0.277-  11 2.48  13 2.54  14 2.54  10 2.54   8 2.55   5 2.55   2 2.56   2 2.56
                            14 2.57  10 2.57   3 2.64   7 2.64
   7  0.994  0.506  0.422-  17 1.89   3 2.47  15 2.47   2 2.53  11 2.56  11 2.56  10 2.64   6 2.64
                             3 2.64  15 2.64
   8  0.667  0.833  0.139-   6 2.55  10 2.55  12 2.56   1 2.56   4 2.56   5 2.56   5 2.56  16 2.56
                            16 2.56  13 2.56  13 2.56   2 2.61
   9  0.000  0.500  0.000-  13 2.56  16 2.56   5 2.56   4 2.56   4 2.56   1 2.56   1 2.56  12 2.56
                            12 2.56
  10  0.836  0.168  0.277-  11 2.48  13 2.54  14 2.54   6 2.54   8 2.55  16 2.55   2 2.56   2 2.56
                            14 2.57   6 2.57  15 2.64   7 2.64
  11  0.500  0.000  0.410-  14 2.48  10 2.48   6 2.48  15 2.56   3 2.56  15 2.56   3 2.56   7 2.56
                             7 2.56
  12  0.500  0.000  0.000-   8 2.56   5 2.56  16 2.56   1 2.56   1 2.56   4 2.56   4 2.56   9 2.56
                             9 2.56
  13  0.167  0.333  0.139-  10 2.54   6 2.54  14 2.54   9 2.56   4 2.56   1 2.56  16 2.56  16 2.56
                             5 2.56   5 2.56   8 2.56   8 2.56
  14  0.332  0.168  0.277-  11 2.48  13 2.54  10 2.54   6 2.54  16 2.55   5 2.55   2 2.56   2 2.56
                            10 2.57   6 2.57  15 2.64   3 2.64
  15  0.994  0.989  0.422-  17 1.89   3 2.47   7 2.47   2 2.53  11 2.56  11 2.56  10 2.64  14 2.64
                             7 2.64   3 2.64
  16  0.667  0.333  0.139-  14 2.55  10 2.55   4 2.56   9 2.56  12 2.56  13 2.56  13 2.56   8 2.56
                             8 2.56   5 2.56   5 2.56   2 2.61
  17  0.167  0.333  0.496-   3 1.89  15 1.89   7 1.89
 

IMPORTANT INFORMATION: All symmetrisations will be switched off!
NOSYMM: (Re-)initialisation of all symmetry stuff for point group C_1.

 
 
 KPOINTS: K-Spacing Value to Generate K-Mesh: 0.04

Automatic generation of k-mesh.
Space group operators:
 irot       det(A)        alpha          n_x          n_y          n_z        tau_x        tau_y        tau_z
    1     1.000000     0.000000     1.000000     0.000000     0.000000     0.000000     0.000000     0.000000
 
 Subroutine IBZKPT returns following result:
 ===========================================
 
 Found     82 irreducible k-points:
 
 Following reciprocal coordinates:
            Coordinates               Weight
  0.000000  0.000000  0.000000      1.000000
  0.111111  0.000000  0.000000      2.000000
  0.222222  0.000000  0.000000      2.000000
  0.333333  0.000000  0.000000      2.000000
  0.444444  0.000000  0.000000      2.000000
 -0.000000  0.111111  0.000000      2.000000
  0.111111  0.111111  0.000000      2.000000
  0.222222  0.111111  0.000000      2.000000
  0.333333  0.111111  0.000000      2.000000
  0.444444  0.111111  0.000000      2.000000
 -0.444444  0.111111  0.000000      2.000000
 -0.333333  0.111111  0.000000      2.000000
 -0.222222  0.111111  0.000000      2.000000
 -0.111111  0.111111  0.000000      2.000000
  0.000000  0.222222  0.000000      2.000000
  0.111111  0.222222  0.000000      2.000000
  0.222222  0.222222  0.000000      2.000000
  0.333333  0.222222  0.000000      2.000000
  0.444444  0.222222  0.000000      2.000000
 -0.444444  0.222222  0.000000      2.000000
 -0.333333  0.222222  0.000000      2.000000
 -0.222222  0.222222  0.000000      2.000000
 -0.111111  0.222222  0.000000      2.000000
  0.000000  0.333333  0.000000      2.000000
  0.111111  0.333333  0.000000      2.000000
  0.222222  0.333333  0.000000      2.000000
  0.333333  0.333333  0.000000      2.000000
  0.444444  0.333333  0.000000      2.000000
 -0.444444  0.333333  0.000000      2.000000
 -0.333333  0.333333  0.000000      2.000000
 -0.222222  0.333333  0.000000      2.000000
 -0.111111  0.333333  0.000000      2.000000
  0.000000  0.444444  0.000000      2.000000
  0.111111  0.444444  0.000000      2.000000
  0.222222  0.444444  0.000000      2.000000
  0.333333  0.444444  0.000000      2.000000
  0.444444  0.444444  0.000000      2.000000
 -0.444444  0.444444  0.000000      2.000000
 -0.333333  0.444444  0.000000      2.000000
 -0.222222  0.444444  0.000000      2.000000
 -0.111111  0.444444  0.000000      2.000000
  0.000000  0.000000  0.500000      1.000000
  0.111111  0.000000  0.500000      2.000000
  0.222222  0.000000  0.500000      2.000000
  0.333333  0.000000  0.500000      2.000000
  0.444444  0.000000  0.500000      2.000000
 -0.000000  0.111111  0.500000      2.000000
  0.111111  0.111111  0.500000      2.000000
  0.222222  0.111111  0.500000      2.000000
  0.333333  0.111111  0.500000      2.000000
  0.444444  0.111111  0.500000      2.000000
 -0.444444  0.111111  0.500000      2.000000
 -0.333333  0.111111  0.500000      2.000000
 -0.222222  0.111111  0.500000      2.000000
 -0.111111  0.111111  0.500000      2.000000
  0.000000  0.222222  0.500000      2.000000
  0.111111  0.222222  0.500000      2.000000
  0.222222  0.222222  0.500000      2.000000
  0.333333  0.222222  0.500000      2.000000
  0.444444  0.222222  0.500000      2.000000
 -0.444444  0.222222  0.500000      2.000000
 -0.333333  0.222222  0.500000      2.000000
 -0.222222  0.222222  0.500000      2.000000
 -0.111111  0.222222  0.500000      2.000000
  0.000000  0.333333  0.500000      2.000000
  0.111111  0.333333  0.500000      2.000000
  0.222222  0.333333  0.500000      2.000000
  0.333333  0.333333  0.500000      2.000000
  0.444444  0.333333  0.500000      2.000000
 -0.444444  0.333333  0.500000      2.000000
 -0.333333  0.333333  0.500000      2.000000
 -0.222222  0.333333  0.500000      2.000000
 -0.111111  0.333333  0.500000      2.000000
  0.000000  0.444444  0.500000      2.000000
  0.111111  0.444444  0.500000      2.000000
  0.222222  0.444444  0.500000      2.000000
  0.333333  0.444444  0.500000      2.000000
  0.444444  0.444444  0.500000      2.000000
 -0.444444  0.444444  0.500000      2.000000
 -0.333333  0.444444  0.500000      2.000000
 -0.222222  0.444444  0.500000      2.000000
 -0.111111  0.444444  0.500000      2.000000
 
 Following cartesian coordinates:
            Coordinates               Weight
  0.000000  0.000000  0.000000      1.000000
  0.025098  0.000000  0.000000      2.000000
  0.050196  0.000000  0.000000      2.000000
  0.075294  0.000000  0.000000      2.000000
  0.100392  0.000000  0.000000      2.000000
  0.012549  0.021736  0.000000      2.000000
  0.037647  0.021736  0.000000      2.000000
  0.062745  0.021736  0.000000      2.000000
  0.087843  0.021736  0.000000      2.000000
  0.112941  0.021736  0.000000      2.000000
 -0.087843  0.021736  0.000000      2.000000
 -0.062745  0.021736  0.000000      2.000000
 -0.037647  0.021736  0.000000      2.000000
 -0.012549  0.021736  0.000000      2.000000
  0.025098  0.043471  0.000000      2.000000
  0.050196  0.043471  0.000000      2.000000
  0.075294  0.043471  0.000000      2.000000
  0.100392  0.043471  0.000000      2.000000
  0.125490  0.043471  0.000000      2.000000
 -0.075294  0.043471  0.000000      2.000000
 -0.050196  0.043471  0.000000      2.000000
 -0.025098  0.043471  0.000000      2.000000
  0.000000  0.043471  0.000000      2.000000
  0.037647  0.065207  0.000000      2.000000
  0.062745  0.065207  0.000000      2.000000
  0.087843  0.065207  0.000000      2.000000
  0.112941  0.065207  0.000000      2.000000
  0.138039  0.065207  0.000000      2.000000
 -0.062745  0.065207  0.000000      2.000000
 -0.037647  0.065207  0.000000      2.000000
 -0.012549  0.065207  0.000000      2.000000
  0.012549  0.065207  0.000000      2.000000
  0.050196  0.086942  0.000000      2.000000
  0.075294  0.086942  0.000000      2.000000
  0.100392  0.086942  0.000000      2.000000
  0.125490  0.086942  0.000000      2.000000
  0.150588  0.086942  0.000000      2.000000
 -0.050196  0.086942  0.000000      2.000000
 -0.025098  0.086942  0.000000      2.000000
 -0.000000  0.086942  0.000000      2.000000
  0.025098  0.086942  0.000000      2.000000
  0.000000  0.000000  0.033333      1.000000
  0.025098  0.000000  0.033333      2.000000
  0.050196  0.000000  0.033333      2.000000
  0.075294  0.000000  0.033333      2.000000
  0.100392  0.000000  0.033333      2.000000
  0.012549  0.021736  0.033333      2.000000
  0.037647  0.021736  0.033333      2.000000
  0.062745  0.021736  0.033333      2.000000
  0.087843  0.021736  0.033333      2.000000
  0.112941  0.021736  0.033333      2.000000
 -0.087843  0.021736  0.033333      2.000000
 -0.062745  0.021736  0.033333      2.000000
 -0.037647  0.021736  0.033333      2.000000
 -0.012549  0.021736  0.033333      2.000000
  0.025098  0.043471  0.033333      2.000000
  0.050196  0.043471  0.033333      2.000000
  0.075294  0.043471  0.033333      2.000000
  0.100392  0.043471  0.033333      2.000000
  0.125490  0.043471  0.033333      2.000000
 -0.075294  0.043471  0.033333      2.000000
 -0.050196  0.043471  0.033333      2.000000
 -0.025098  0.043471  0.033333      2.000000
  0.000000  0.043471  0.033333      2.000000
  0.037647  0.065207  0.033333      2.000000
  0.062745  0.065207  0.033333      2.000000
  0.087843  0.065207  0.033333      2.000000
  0.112941  0.065207  0.033333      2.000000
  0.138039  0.065207  0.033333      2.000000
 -0.062745  0.065207  0.033333      2.000000
 -0.037647  0.065207  0.033333      2.000000
 -0.012549  0.065207  0.033333      2.000000
  0.012549  0.065207  0.033333      2.000000
  0.050196  0.086942  0.033333      2.000000
  0.075294  0.086942  0.033333      2.000000
  0.100392  0.086942  0.033333      2.000000
  0.125490  0.086942  0.033333      2.000000
  0.150588  0.086942  0.033333      2.000000
 -0.050196  0.086942  0.033333      2.000000
 -0.025098  0.086942  0.033333      2.000000
 -0.000000  0.086942  0.033333      2.000000
  0.025098  0.086942  0.033333      2.000000
 


--------------------------------------------------------------------------------------------------------




 Dimension of arrays:
   k-points           NKPTS =     82   k-points in BZ     NKDIM =     82   number of bands    NBANDS=    110
   number of dos      NEDOS =    301   number of ions     NIONS =     17
   non local maximal  LDIM  =      6   non local SUM 2l+1 LMDIM =     18
   total plane-waves  NPLWV =  65856
   max r-space proj   IRMAX =   2896   max aug-charges    IRDMAX=   5818
   dimension x,y,z NGX =    28 NGY =   28 NGZ =   84
   dimension x,y,z NGXF=    56 NGYF=   56 NGZF=  168
   support grid    NGXF=    56 NGYF=   56 NGZF=  168
   ions per type =              16   1
   NGX,Y,Z   is equivalent  to a cutoff of   9.11,  9.11,  9.31 a.u.
   NGXF,Y,Z  is equivalent  to a cutoff of  18.21, 18.21, 18.62 a.u.

 SYSTEM =  TS                                      
 POSCAR =  Cu  O                                   

 Startparameter for this run:
   NWRITE =      2    write-flag & timer
   PREC   = normal    normal or accurate (medium, high low for compatibility)
   ISTART =      0    job   : 0-new  1-cont  2-samecut
   ICHARG =      2    charge: 1-file 2-atom 10-const
   ISPIN  =      1    spin polarized calculation?
   LNONCOLLINEAR =      F non collinear calculations
   LSORBIT =      F    spin-orbit coupling
   INIWAV =      1    electr: 0-lowe 1-rand  2-diag
   LASPH  =      F    aspherical Exc in radial PAW
   METAGGA=      F    non-selfconsistent MetaGGA calc.

 Electronic Relaxation 1
   ENCUT  =  500.0 eV  36.75 Ry    6.06 a.u.   9.32  9.32 27.35*2*pi/ulx,y,z
   ENINI  =  500.0     initial cutoff
   ENAUG  =  605.4 eV  augmentation charge cutoff
   NELM   =     60;   NELMIN=  2; NELMDL= -5     # of ELM steps 
   EDIFF  = 0.1E-06   stopping-criterion for ELM
   LREAL  =      T    real-space projection
   NLSPLINE    = F    spline interpolate recip. space projectors
   LCOMPAT=      F    compatible to vasp.4.4
   GGA_COMPAT  = T    GGA compatible to vasp.4.4-vasp.4.6
   LMAXPAW     = -100 max onsite density
   LMAXMIX     =    2 max onsite mixed and CHGCAR
   VOSKOWN=      0    Vosko Wilk Nusair interpolation
   ROPT   =   -0.00050  -0.00050
 Ionic relaxation
   EDIFFG = 0.1E-05   stopping-criterion for IOM
   NSW    =    600    number of steps for IOM
   NBLOCK =      1;   KBLOCK =    600    inner block; outer block 
   IBRION =      2    ionic relax: 0-MD 1-quasi-New 2-CG
   NFREE  =      1    steps in history (QN), initial steepest desc. (CG)
   ISIF   =      2    stress and relaxation
   IWAVPR =     11    prediction:  0-non 1-charg 2-wave 3-comb
   ISYM   =      0    0-nonsym 1-usesym 2-fastsym
   LCORR  =      T    Harris-Foulkes like correction to forces

   POTIM  = 0.5000    time-step for ionic-motion
   TEIN   =    0.0    initial temperature
   TEBEG  =    0.0;   TEEND  =   0.0 temperature during run
   SMASS  =  -3.00    Nose mass-parameter (am)
   estimated Nose-frequenzy (Omega)   =  0.10E-29 period in steps =****** mass=  -0.597E-27a.u.
   SCALEE = 1.0000    scale energy and forces
   NPACO  =    256;   APACO  = 16.0  distance and # of slots for P.C.
   PSTRESS=    0.0 pullay stress

  Mass of Ions in am
   POMASS =  63.55 16.00
  Ionic Valenz
   ZVAL   =  11.00  6.00
  Atomic Wigner-Seitz radii
   RWIGS  =  -1.00 -1.00
  virtual crystal weights 
   VCA    =   1.00  1.00
   NELECT =     182.0000    total number of electrons
   NUPDOWN=      -1.0000    fix difference up-down

 DOS related values:
   EMIN   =  10.00;   EMAX   =-10.00  energy-range for DOS
   EFERMI =   0.00
   ISMEAR =     0;   SIGMA  =   0.01  broadening in eV -4-tet -1-fermi 0-gaus

 Electronic relaxation 2 (details)
   IALGO  =     38    algorithm
   LDIAG  =      T    sub-space diagonalisation (order eigenvalues)
   LSUBROT=      F    optimize rotation matrix (better conditioning)
   TURBO    =      0    0=normal 1=particle mesh
   IRESTART =      0    0=no restart 2=restart with 2 vectors
   NREBOOT  =      0    no. of reboots
   NMIN     =      0    reboot dimension
   EREF     =   0.00    reference energy to select bands
   IMIX   =      4    mixing-type and parameters
     AMIX     =   0.40;   BMIX     =  1.00
     AMIX_MAG =   1.60;   BMIX_MAG =  1.00
     AMIN     =   0.10
     WC   =   100.;   INIMIX=   1;  MIXPRE=   1;  MAXMIX= -45

 Intra band minimization:
   WEIMIN = 0.0010     energy-eigenvalue tresh-hold
   EBREAK =  0.23E-09  absolut break condition
   DEPER  =   0.30     relativ break condition  

   TIME   =   0.40     timestep for ELM

  volume/ion in A,a.u.               =      19.97       134.75
  Fermi-wavevector in a.u.,A,eV,Ry     =   1.329943  2.513229 24.065297  1.768749
  Thomas-Fermi vector in A             =   2.459068
 
 Write flags
   LWAVE        =      F    write WAVECAR
   LDOWNSAMPLE  =      F    k-point downsampling of WAVECAR
   LCHARG       =      F    write CHGCAR
   LVTOT        =      F    write LOCPOT, total local potential
   LVHAR        =      F    write LOCPOT, Hartree potential only
   LELF         =      F    write electronic localiz. function (ELF)
   LORBIT       =      0    0 simple, 1 ext, 2 COOP (PROOUT), +10 PAW based schemes


 Dipole corrections
   LMONO  =      F    monopole corrections only (constant potential shift)
   LDIPOL =      F    correct potential (dipole corrections)
   IDIPOL =      0    1-x, 2-y, 3-z, 4-all directions 
   EPSILON=  1.0000000 bulk dielectric constant

 Exchange correlation treatment:
   GGA     =    --    GGA type
   LEXCH   =     8    internal setting for exchange type
   VOSKOWN=      0    Vosko Wilk Nusair interpolation
   LHFCALC =     F    Hartree Fock is set to
   LHFONE  =     F    Hartree Fock one center treatment
   AEXX    =    0.0000 exact exchange contribution

 Linear response parameters
   LEPSILON=     F    determine dielectric tensor
   LRPA    =     F    only Hartree local field effects (RPA)
   LNABLA  =     F    use nabla operator in PAW spheres
   LVEL    =     F    velocity operator in full k-point grid
   LINTERFAST=   F  fast interpolation
   KINTER  =     0    interpolate to denser k-point grid
   CSHIFT  =0.1000    complex shift for real part using Kramers Kronig
   OMEGAMAX=  -1.0    maximum frequency
   DEG_THRESHOLD= 0.2000000E-02 threshold for treating states as degnerate
   RTIME   =   -0.100 relaxation time in fs
  (WPLASMAI=    0.000 imaginary part of plasma frequency in eV, 0.658/RTIME)
   DFIELD  = 0.0000000 0.0000000 0.0000000 field for delta impulse in time
 
 Orbital magnetization related:
   ORBITALMAG=     F  switch on orbital magnetization
   LCHIMAG   =     F  perturbation theory with respect to B field
   DQ        =  0.001000  dq finite difference perturbation B field
   LLRAUG    =     F  two centre corrections for induced B field



--------------------------------------------------------------------------------------------------------


 conjugate gradient relaxation of ions
   using selective dynamics as specified on POSCAR
 charge density and potential will be updated during run
 non-spin polarized calculation
 Variant of blocked Davidson
 Davidson routine will perform the subspace rotation
 perform sub-space diagonalisation
    after iterative eigenvector-optimisation
 modified Broyden-mixing scheme, WC =      100.0
 initial mixing is a Kerker type mixing with AMIX =  0.4000 and BMIX =      1.0000
 Hartree-type preconditioning will be used
 using additional bands           19
 real space projection scheme for non local part
 use partial core corrections
 calculate Harris-corrections to forces 
   (improved forces if not selfconsistent)
 use gradient corrections 
 use of overlap-Matrix (Vanderbilt PP)
 Gauss-broadening in eV      SIGMA  =   0.01


--------------------------------------------------------------------------------------------------------


  energy-cutoff  :      500.00
  volume of cell :      339.47
      direct lattice vectors                 reciprocal lattice vectors
     4.427085287 -2.555978882  0.000000000     0.225882253  0.000000000  0.000000000
     0.000000000  5.111957764  0.000000000     0.112941127  0.195619770  0.000000000
     0.000000000  0.000000000 15.000000000     0.000000000  0.000000000  0.066666667

  length of vectors
     5.111957764  5.111957764 15.000000000     0.225882253  0.225882253  0.066666667


 
 k-points in units of 2pi/SCALE and weight: K-Spacing Value to Generate K-Mesh: 0.04
   0.00000000  0.00000000  0.00000000       0.006
   0.02509803  0.00000000  0.00000000       0.012
   0.05019606  0.00000000  0.00000000       0.012
   0.07529408  0.00000000  0.00000000       0.012
   0.10039211  0.00000000  0.00000000       0.012
   0.01254901  0.02173553  0.00000000       0.012
   0.03764704  0.02173553  0.00000000       0.012
   0.06274507  0.02173553  0.00000000       0.012
   0.08784310  0.02173553  0.00000000       0.012
   0.11294113  0.02173553  0.00000000       0.012
  -0.08784310  0.02173553  0.00000000       0.012
  -0.06274507  0.02173553  0.00000000       0.012
  -0.03764704  0.02173553  0.00000000       0.012
  -0.01254901  0.02173553  0.00000000       0.012
   0.02509803  0.04347106  0.00000000       0.012
   0.05019606  0.04347106  0.00000000       0.012
   0.07529408  0.04347106  0.00000000       0.012
   0.10039211  0.04347106  0.00000000       0.012
   0.12549014  0.04347106  0.00000000       0.012
  -0.07529408  0.04347106  0.00000000       0.012
  -0.05019606  0.04347106  0.00000000       0.012
  -0.02509803  0.04347106  0.00000000       0.012
   0.00000000  0.04347106  0.00000000       0.012
   0.03764704  0.06520659  0.00000000       0.012
   0.06274507  0.06520659  0.00000000       0.012
   0.08784310  0.06520659  0.00000000       0.012
   0.11294113  0.06520659  0.00000000       0.012
   0.13803915  0.06520659  0.00000000       0.012
  -0.06274507  0.06520659  0.00000000       0.012
  -0.03764704  0.06520659  0.00000000       0.012
  -0.01254901  0.06520659  0.00000000       0.012
   0.01254901  0.06520659  0.00000000       0.012
   0.05019606  0.08694212  0.00000000       0.012
   0.07529408  0.08694212  0.00000000       0.012
   0.10039211  0.08694212  0.00000000       0.012
   0.12549014  0.08694212  0.00000000       0.012
   0.15058817  0.08694212  0.00000000       0.012
  -0.05019606  0.08694212  0.00000000       0.012
  -0.02509803  0.08694212  0.00000000       0.012
  -0.00000000  0.08694212  0.00000000       0.012
   0.02509803  0.08694212  0.00000000       0.012
   0.00000000  0.00000000  0.03333333       0.006
   0.02509803  0.00000000  0.03333333       0.012
   0.05019606  0.00000000  0.03333333       0.012
   0.07529408  0.00000000  0.03333333       0.012
   0.10039211  0.00000000  0.03333333       0.012
   0.01254901  0.02173553  0.03333333       0.012
   0.03764704  0.02173553  0.03333333       0.012
   0.06274507  0.02173553  0.03333333       0.012
   0.08784310  0.02173553  0.03333333       0.012
   0.11294113  0.02173553  0.03333333       0.012
  -0.08784310  0.02173553  0.03333333       0.012
  -0.06274507  0.02173553  0.03333333       0.012
  -0.03764704  0.02173553  0.03333333       0.012
  -0.01254901  0.02173553  0.03333333       0.012
   0.02509803  0.04347106  0.03333333       0.012
   0.05019606  0.04347106  0.03333333       0.012
   0.07529408  0.04347106  0.03333333       0.012
   0.10039211  0.04347106  0.03333333       0.012
   0.12549014  0.04347106  0.03333333       0.012
  -0.07529408  0.04347106  0.03333333       0.012
  -0.05019606  0.04347106  0.03333333       0.012
  -0.02509803  0.04347106  0.03333333       0.012
   0.00000000  0.04347106  0.03333333       0.012
   0.03764704  0.06520659  0.03333333       0.012
   0.06274507  0.06520659  0.03333333       0.012
   0.08784310  0.06520659  0.03333333       0.012
   0.11294113  0.06520659  0.03333333       0.012
   0.13803915  0.06520659  0.03333333       0.012
  -0.06274507  0.06520659  0.03333333       0.012
  -0.03764704  0.06520659  0.03333333       0.012
  -0.01254901  0.06520659  0.03333333       0.012
   0.01254901  0.06520659  0.03333333       0.012
   0.05019606  0.08694212  0.03333333       0.012
   0.07529408  0.08694212  0.03333333       0.012
   0.10039211  0.08694212  0.03333333       0.012
   0.12549014  0.08694212  0.03333333       0.012
   0.15058817  0.08694212  0.03333333       0.012
  -0.05019606  0.08694212  0.03333333       0.012
  -0.02509803  0.08694212  0.03333333       0.012
  -0.00000000  0.08694212  0.03333333       0.012
   0.02509803  0.08694212  0.03333333       0.012
 
 k-points in reciprocal lattice and weights: K-Spacing Value to Generate K-Mesh: 0.04
   0.00000000  0.00000000  0.00000000       0.006
   0.11111111  0.00000000  0.00000000       0.012
   0.22222222  0.00000000  0.00000000       0.012
   0.33333333  0.00000000  0.00000000       0.012
   0.44444444  0.00000000  0.00000000       0.012
  -0.00000000  0.11111111  0.00000000       0.012
   0.11111111  0.11111111  0.00000000       0.012
   0.22222222  0.11111111  0.00000000       0.012
   0.33333333  0.11111111  0.00000000       0.012
   0.44444444  0.11111111  0.00000000       0.012
  -0.44444444  0.11111111  0.00000000       0.012
  -0.33333333  0.11111111  0.00000000       0.012
  -0.22222222  0.11111111  0.00000000       0.012
  -0.11111111  0.11111111  0.00000000       0.012
   0.00000000  0.22222222  0.00000000       0.012
   0.11111111  0.22222222  0.00000000       0.012
   0.22222222  0.22222222  0.00000000       0.012
   0.33333333  0.22222222  0.00000000       0.012
   0.44444444  0.22222222  0.00000000       0.012
  -0.44444444  0.22222222  0.00000000       0.012
  -0.33333333  0.22222222  0.00000000       0.012
  -0.22222222  0.22222222  0.00000000       0.012
  -0.11111111  0.22222222  0.00000000       0.012
   0.00000000  0.33333333  0.00000000       0.012
   0.11111111  0.33333333  0.00000000       0.012
   0.22222222  0.33333333  0.00000000       0.012
   0.33333333  0.33333333  0.00000000       0.012
   0.44444444  0.33333333  0.00000000       0.012
  -0.44444444  0.33333333  0.00000000       0.012
  -0.33333333  0.33333333  0.00000000       0.012
  -0.22222222  0.33333333  0.00000000       0.012
  -0.11111111  0.33333333  0.00000000       0.012
   0.00000000  0.44444444  0.00000000       0.012
   0.11111111  0.44444444  0.00000000       0.012
   0.22222222  0.44444444  0.00000000       0.012
   0.33333333  0.44444444  0.00000000       0.012
   0.44444444  0.44444444  0.00000000       0.012
  -0.44444444  0.44444444  0.00000000       0.012
  -0.33333333  0.44444444  0.00000000       0.012
  -0.22222222  0.44444444  0.00000000       0.012
  -0.11111111  0.44444444  0.00000000       0.012
   0.00000000  0.00000000  0.50000000       0.006
   0.11111111  0.00000000  0.50000000       0.012
   0.22222222  0.00000000  0.50000000       0.012
   0.33333333  0.00000000  0.50000000       0.012
   0.44444444  0.00000000  0.50000000       0.012
  -0.00000000  0.11111111  0.50000000       0.012
   0.11111111  0.11111111  0.50000000       0.012
   0.22222222  0.11111111  0.50000000       0.012
   0.33333333  0.11111111  0.50000000       0.012
   0.44444444  0.11111111  0.50000000       0.012
  -0.44444444  0.11111111  0.50000000       0.012
  -0.33333333  0.11111111  0.50000000       0.012
  -0.22222222  0.11111111  0.50000000       0.012
  -0.11111111  0.11111111  0.50000000       0.012
   0.00000000  0.22222222  0.50000000       0.012
   0.11111111  0.22222222  0.50000000       0.012
   0.22222222  0.22222222  0.50000000       0.012
   0.33333333  0.22222222  0.50000000       0.012
   0.44444444  0.22222222  0.50000000       0.012
  -0.44444444  0.22222222  0.50000000       0.012
  -0.33333333  0.22222222  0.50000000       0.012
  -0.22222222  0.22222222  0.50000000       0.012
  -0.11111111  0.22222222  0.50000000       0.012
   0.00000000  0.33333333  0.50000000       0.012
   0.11111111  0.33333333  0.50000000       0.012
   0.22222222  0.33333333  0.50000000       0.012
   0.33333333  0.33333333  0.50000000       0.012
   0.44444444  0.33333333  0.50000000       0.012
  -0.44444444  0.33333333  0.50000000       0.012
  -0.33333333  0.33333333  0.50000000       0.012
  -0.22222222  0.33333333  0.50000000       0.012
  -0.11111111  0.33333333  0.50000000       0.012
   0.00000000  0.44444444  0.50000000       0.012
   0.11111111  0.44444444  0.50000000       0.012
   0.22222222  0.44444444  0.50000000       0.012
   0.33333333  0.44444444  0.50000000       0.012
   0.44444444  0.44444444  0.50000000       0.012
  -0.44444444  0.44444444  0.50000000       0.012
  -0.33333333  0.44444444  0.50000000       0.012
  -0.22222222  0.44444444  0.50000000       0.012
  -0.11111111  0.44444444  0.50000000       0.012
 
 position of ions in fractional coordinates (direct lattice) 
   0.00000000  0.00000000  0.00000000
   0.83333333  0.66666667  0.28301144
   0.51127659  0.50563830  0.42215943
   0.50000000  0.50000000  0.00000000
   0.16666667  0.83333333  0.13912987
   0.33218647  0.66437294  0.27727655
   0.99436170  0.50563830  0.42215944
   0.66666667  0.83333333  0.13912987
   0.00000000  0.50000000  0.00000000
   0.83562706  0.16781353  0.27727655
   0.50000000  0.00000000  0.40955815
   0.50000000  0.00000000  0.00000000
   0.16666667  0.33333333  0.13912987
   0.33218647  0.16781353  0.27727655
   0.99436170  0.98872341  0.42215943
   0.66666667  0.33333333  0.13912987
   0.16666670  0.33333330  0.49622037
 
 position of ions in cartesian coordinates  (Angst):
   0.00000000  0.00000000  0.00000000
   3.68923774  1.27798944  4.24517159
   2.26346508  1.27798947  6.33239150
   2.21354264  1.27798944  0.00000000
   0.73784755  3.83396832  2.08694802
   1.47061784  2.54718482  4.15914819
   4.40212406  0.04323411  6.33239155
   2.95139019  2.55597888  2.08694802
   0.00000000  2.55597888  0.00000000
   3.69939225 -1.27798944  4.15914819
   2.21354263 -1.27798942  6.14337231
   2.21354264 -1.27798944  0.00000000
   0.73784755  1.27798944  2.08694802
   1.47061784  0.00879406  4.15914819
   4.40212405  2.51274480  6.33239150
   2.95139019  0.00000000  2.08694802
   0.73784770  1.27798919  7.44330550
 


--------------------------------------------------------------------------------------------------------


 k-point  1 :   0.0000 0.0000 0.0000  plane waves:    8599
 k-point  2 :   0.1111 0.0000 0.0000  plane waves:    8622
 k-point  3 :   0.2222 0.0000 0.0000  plane waves:    8636
 k-point  4 :   0.3333 0.0000 0.0000  plane waves:    8596
 k-point  5 :   0.4444 0.0000 0.0000  plane waves:    8616
 k-point  6 :  -0.0000 0.1111 0.0000  plane waves:    8622
 k-point  7 :   0.1111 0.1111 0.0000  plane waves:    8641
 k-point  8 :   0.2222 0.1111 0.0000  plane waves:    8628
 k-point  9 :   0.3333 0.1111 0.0000  plane waves:    8622
 k-point 10 :   0.4444 0.1111 0.0000  plane waves:    8636
 k-point 11 :  -0.4444 0.1111 0.0000  plane waves:    8622
 k-point 12 :  -0.3333 0.1111 0.0000  plane waves:    8628
 k-point 13 :  -0.2222 0.1111 0.0000  plane waves:    8641
 k-point 14 :  -0.1111 0.1111 0.0000  plane waves:    8622
 k-point 15 :   0.0000 0.2222 0.0000  plane waves:    8636
 k-point 16 :   0.1111 0.2222 0.0000  plane waves:    8628
 k-point 17 :   0.2222 0.2222 0.0000  plane waves:    8611
 k-point 18 :   0.3333 0.2222 0.0000  plane waves:    8605
 k-point 19 :   0.4444 0.2222 0.0000  plane waves:    8605
 k-point 20 :  -0.4444 0.2222 0.0000  plane waves:    8611
 k-point 21 :  -0.3333 0.2222 0.0000  plane waves:    8628
 k-point 22 :  -0.2222 0.2222 0.0000  plane waves:    8636
 k-point 23 :  -0.1111 0.2222 0.0000  plane waves:    8641
 k-point 24 :   0.0000 0.3333 0.0000  plane waves:    8596
 k-point 25 :   0.1111 0.3333 0.0000  plane waves:    8622
 k-point 26 :   0.2222 0.3333 0.0000  plane waves:    8605
 k-point 27 :   0.3333 0.3333 0.0000  plane waves:    8601
 k-point 28 :   0.4444 0.3333 0.0000  plane waves:    8605
 k-point 29 :  -0.4444 0.3333 0.0000  plane waves:    8622
 k-point 30 :  -0.3333 0.3333 0.0000  plane waves:    8596
 k-point 31 :  -0.2222 0.3333 0.0000  plane waves:    8628
 k-point 32 :  -0.1111 0.3333 0.0000  plane waves:    8628
 k-point 33 :   0.0000 0.4444 0.0000  plane waves:    8616
 k-point 34 :   0.1111 0.4444 0.0000  plane waves:    8636
 k-point 35 :   0.2222 0.4444 0.0000  plane waves:    8605
 k-point 36 :   0.3333 0.4444 0.0000  plane waves:    8605
 k-point 37 :   0.4444 0.4444 0.0000  plane waves:    8636
 k-point 38 :  -0.4444 0.4444 0.0000  plane waves:    8616
 k-point 39 :  -0.3333 0.4444 0.0000  plane waves:    8622
 k-point 40 :  -0.2222 0.4444 0.0000  plane waves:    8611
 k-point 41 :  -0.1111 0.4444 0.0000  plane waves:    8622
 k-point 42 :   0.0000 0.0000 0.5000  plane waves:    8670
 k-point 43 :   0.1111 0.0000 0.5000  plane waves:    8644
 k-point 44 :   0.2222 0.0000 0.5000  plane waves:    8638
 k-point 45 :   0.3333 0.0000 0.5000  plane waves:    8624
 k-point 46 :   0.4444 0.0000 0.5000  plane waves:    8630
 k-point 47 :  -0.0000 0.1111 0.5000  plane waves:    8644
 k-point 48 :   0.1111 0.1111 0.5000  plane waves:    8646
 k-point 49 :   0.2222 0.1111 0.5000  plane waves:    8608
 k-point 50 :   0.3333 0.1111 0.5000  plane waves:    8628
 k-point 51 :   0.4444 0.1111 0.5000  plane waves:    8592
 k-point 52 :  -0.4444 0.1111 0.5000  plane waves:    8628
 k-point 53 :  -0.3333 0.1111 0.5000  plane waves:    8608
 k-point 54 :  -0.2222 0.1111 0.5000  plane waves:    8646
 k-point 55 :  -0.1111 0.1111 0.5000  plane waves:    8644
 k-point 56 :   0.0000 0.2222 0.5000  plane waves:    8638
 k-point 57 :   0.1111 0.2222 0.5000  plane waves:    8608
 k-point 58 :   0.2222 0.2222 0.5000  plane waves:    8614
 k-point 59 :   0.3333 0.2222 0.5000  plane waves:    8586
 k-point 60 :   0.4444 0.2222 0.5000  plane waves:    8586
 k-point 61 :  -0.4444 0.2222 0.5000  plane waves:    8614
 k-point 62 :  -0.3333 0.2222 0.5000  plane waves:    8608
 k-point 63 :  -0.2222 0.2222 0.5000  plane waves:    8638
 k-point 64 :  -0.1111 0.2222 0.5000  plane waves:    8646
 k-point 65 :   0.0000 0.3333 0.5000  plane waves:    8624
 k-point 66 :   0.1111 0.3333 0.5000  plane waves:    8628
 k-point 67 :   0.2222 0.3333 0.5000  plane waves:    8586
 k-point 68 :   0.3333 0.3333 0.5000  plane waves:    8544
 k-point 69 :   0.4444 0.3333 0.5000  plane waves:    8586
 k-point 70 :  -0.4444 0.3333 0.5000  plane waves:    8628
 k-point 71 :  -0.3333 0.3333 0.5000  plane waves:    8624
 k-point 72 :  -0.2222 0.3333 0.5000  plane waves:    8608
 k-point 73 :  -0.1111 0.3333 0.5000  plane waves:    8608
 k-point 74 :   0.0000 0.4444 0.5000  plane waves:    8630
 k-point 75 :   0.1111 0.4444 0.5000  plane waves:    8592
 k-point 76 :   0.2222 0.4444 0.5000  plane waves:    8586
 k-point 77 :   0.3333 0.4444 0.5000  plane waves:    8586
 k-point 78 :   0.4444 0.4444 0.5000  plane waves:    8592
 k-point 79 :  -0.4444 0.4444 0.5000  plane waves:    8630
 k-point 80 :  -0.3333 0.4444 0.5000  plane waves:    8628
 k-point 81 :  -0.2222 0.4444 0.5000  plane waves:    8614
 k-point 82 :  -0.1111 0.4444 0.5000  plane waves:    8628

 maximum and minimum number of plane-waves per node :      2186     2102

 maximum number of plane-waves:      8670
 maximum index in each direction: 
   IXMAX=    9   IYMAX=    9   IZMAX=   27
   IXMIN=   -9   IYMIN=   -9   IZMIN=  -27


 real space projection operators:
  total allocation   :       6264.66 KBytes
  max/ min on nodes  :       1567.31       1564.27


 parallel 3D FFT for wavefunctions:
    minimum data exchange during FFTs selected (reduces bandwidth)
 parallel 3D FFT for charge:
    minimum data exchange during FFTs selected (reduces bandwidth)


 total amount of memory used by VASP MPI-rank0   102063. kBytes
=======================================================================

   base      :      30000. kBytes
   nonlr-proj:       2754. kBytes
   fftplans  :       1456. kBytes
   grid      :       2255. kBytes
   one-center:         77. kBytes
   wavefun   :      65521. kBytes
 
     INWAV:  cpu time    0.0000: real time    0.0000
 Broyden mixing: mesh for mixing (old mesh)
   NGX = 19   NGY = 19   NGZ = 55
  (NGX  = 56   NGY  = 56   NGZ  =168)
  gives a total of  19855 points

 initial charge density was supplied:
 charge density of overlapping atoms calculated
 number of electron     182.0000000 magnetization 
 keeping initial charge density in first step


--------------------------------------------------------------------------------------------------------


 Maximum index for non-local projection operator          709
 Maximum index for augmentation-charges          374 (set IRDMAX)


--------------------------------------------------------------------------------------------------------


 First call to EWALD:  gamma=   0.254
 Maximum number of real-space cells 4x 4x 2
 Maximum number of reciprocal cells 2x 2x 5

    FEWALD:  cpu time    0.0019: real time    0.0019


--------------------------------------- Iteration      1(   1)  ---------------------------------------


    POTLOK:  cpu time    0.0177: real time    0.0197
    SETDIJ:  cpu time    0.0028: real time    0.0029
     EDDAV:  cpu time   11.0979: real time   11.0985
       DOS:  cpu time    0.0043: real time    0.0043
    --------------------------------------------
      LOOP:  cpu time   11.1226: real time   11.1254

 eigenvalue-minimisations  : 18040
 total energy-change (2. order) : 0.1834566E+04  (-0.7675728E+04)
 number of electron     182.0000000 magnetization 
 augmentation part      182.0000000 magnetization 

 Free energy of the ion-electron system (eV)
  ---------------------------------------------------
  alpha Z        PSCENC =       582.73103390
  Ewald energy   TEWEN  =     13957.30554133
  -Hartree energ DENC   =    -36439.46579633
  -exchange      EXHF   =         0.00000000
  -V(xc)+E(xc)   XCENC  =       756.68144829
  PAW double counting   =     19997.85603494   -21693.12362158
  entropy T*S    EENTRO =        -0.00024939
  eigenvalues    EBANDS =      1984.60091025
  atomic energy  EATOM  =     22687.98115858
  Solvation  Ediel_sol  =         0.00000000
  ---------------------------------------------------
  free energy    TOTEN  =      1834.56646001 eV

  energy without entropy =     1834.56670939  energy(sigma->0) =     1834.56658470


--------------------------------------------------------------------------------------------------------




--------------------------------------- Iteration      1(   2)  ---------------------------------------


     EDDAV:  cpu time   11.0273: real time   11.0312
       DOS:  cpu time    0.0038: real time    0.0038
    --------------------------------------------
      LOOP:  cpu time   11.0311: real time   11.0350

 eigenvalue-minimisations  : 18050
 total energy-change (2. order) :-0.1590054E+04  (-0.1538956E+04)
 number of electron     182.0000000 magnetization 
 augmentation part      182.0000000 magnetization 

 Free energy of the ion-electron system (eV)
  ---------------------------------------------------
  alpha Z        PSCENC =       582.73103390
  Ewald energy   TEWEN  =     13957.30554133
  -Hartree energ DENC   =    -36439.46579633
  -exchange      EXHF   =         0.00000000
  -V(xc)+E(xc)   XCENC  =       756.68144829
  PAW double counting   =     19997.85603494   -21693.12362158
  entropy T*S    EENTRO =        -0.00029448
  eigenvalues    EBANDS =       394.54731845
  atomic energy  EATOM  =     22687.98115858
  Solvation  Ediel_sol  =         0.00000000
  ---------------------------------------------------
  free energy    TOTEN  =       244.51282311 eV

  energy without entropy =      244.51311759  energy(sigma->0) =      244.51297035


--------------------------------------------------------------------------------------------------------




--------------------------------------- Iteration      1(   3)  ---------------------------------------


     EDDAV:  cpu time   12.6381: real time   12.6405
       DOS:  cpu time    0.0040: real time    0.0040
    --------------------------------------------
      LOOP:  cpu time   12.6421: real time   12.6445

 eigenvalue-minimisations  : 21320
 total energy-change (2. order) :-0.2929376E+03  (-0.2693604E+03)
 number of electron     182.0000000 magnetization 
 augmentation part      182.0000000 magnetization 

 Free energy of the ion-electron system (eV)
  ---------------------------------------------------
  alpha Z        PSCENC =       582.73103390
  Ewald energy   TEWEN  =     13957.30554133
  -Hartree energ DENC   =    -36439.46579633
  -exchange      EXHF   =         0.00000000
  -V(xc)+E(xc)   XCENC  =       756.68144829
  PAW double counting   =     19997.85603494   -21693.12362158
  entropy T*S    EENTRO =        -0.00036340
  eigenvalues    EBANDS =       101.60977411
  atomic energy  EATOM  =     22687.98115858
  Solvation  Ediel_sol  =         0.00000000
  ---------------------------------------------------
  free energy    TOTEN  =       -48.42479016 eV

  energy without entropy =      -48.42442675  energy(sigma->0) =      -48.42460846


--------------------------------------------------------------------------------------------------------




--------------------------------------- Iteration      1(   4)  ---------------------------------------


     EDDAV:  cpu time   15.4903: real time   15.4911
       DOS:  cpu time    0.0042: real time    0.0042
    --------------------------------------------
      LOOP:  cpu time   15.4945: real time   15.4953

 eigenvalue-minimisations  : 25830
 total energy-change (2. order) :-0.2900306E+02  (-0.2705645E+02)
 number of electron     182.0000000 magnetization 
 augmentation part      182.0000000 magnetization 

 Free energy of the ion-electron system (eV)
  ---------------------------------------------------
  alpha Z        PSCENC =       582.73103390
  Ewald energy   TEWEN  =     13957.30554133
  -Hartree energ DENC   =    -36439.46579633
  -exchange      EXHF   =         0.00000000
  -V(xc)+E(xc)   XCENC  =       756.68144829
  PAW double counting   =     19997.85603494   -21693.12362158
  entropy T*S    EENTRO =        -0.00095025
  eigenvalues    EBANDS =        72.60729839
  atomic energy  EATOM  =     22687.98115858
  Solvation  Ediel_sol  =         0.00000000
  ---------------------------------------------------
  free energy    TOTEN  =       -77.42785271 eV

  energy without entropy =      -77.42690247  energy(sigma->0) =      -77.42737759


--------------------------------------------------------------------------------------------------------




--------------------------------------- Iteration      1(   5)  ---------------------------------------


     EDDAV:  cpu time   13.2501: real time   13.2506
       DOS:  cpu time    0.0043: real time    0.0043
    CHARGE:  cpu time    0.4006: real time    0.4007
    MIXING:  cpu time    0.0007: real time    0.0008
    --------------------------------------------
      LOOP:  cpu time   13.6558: real time   13.6563

 eigenvalue-minimisations  : 22500
 total energy-change (2. order) :-0.1114207E+01  (-0.1106108E+01)
 number of electron     181.9999878 magnetization 
 augmentation part      104.6034542 magnetization 

 Broyden mixing:
  rms(total) = 0.31972E+01    rms(broyden)= 0.31971E+01
  rms(prec ) = 0.36242E+01
  weight for this iteration     100.00

 Free energy of the ion-electron system (eV)
  ---------------------------------------------------
  alpha Z        PSCENC =       582.73103390
  Ewald energy   TEWEN  =     13957.30554133
  -Hartree energ DENC   =    -36439.46579633
  -exchange      EXHF   =         0.00000000
  -V(xc)+E(xc)   XCENC  =       756.68144829
  PAW double counting   =     19997.85603494   -21693.12362158
  entropy T*S    EENTRO =        -0.00108575
  eigenvalues    EBANDS =        71.49322700
  atomic energy  EATOM  =     22687.98115858
  Solvation  Ediel_sol  =         0.00000000
  ---------------------------------------------------
  free energy    TOTEN  =       -78.54205961 eV

  energy without entropy =      -78.54097386  energy(sigma->0) =      -78.54151673


--------------------------------------------------------------------------------------------------------




--------------------------------------- Iteration      1(   6)  ---------------------------------------


    POTLOK:  cpu time    0.0155: real time    0.0177
    SETDIJ:  cpu time    0.0027: real time    0.0027
     EDDAV:  cpu time   12.9251: real time   12.9256
       DOS:  cpu time    0.0040: real time    0.0040
    CHARGE:  cpu time    0.4051: real time    0.4051
    MIXING:  cpu time    0.0007: real time    0.0008
    --------------------------------------------
      LOOP:  cpu time   13.3532: real time   13.3559

 eigenvalue-minimisations  : 21720
 total energy-change (2. order) : 0.7862035E+01  (-0.1748691E+02)
 number of electron     181.9999878 magnetization 
 augmentation part      117.8638562 magnetization 

 Broyden mixing:
  rms(total) = 0.20599E+01    rms(broyden)= 0.20596E+01
  rms(prec ) = 0.24060E+01
  weight for this iteration     100.00

 eigenvalues of (default mixing * dielectric matrix)
  average eigenvalue GAMMA=   0.6128
  0.6128

 Free energy of the ion-electron system (eV)
  ---------------------------------------------------
  alpha Z        PSCENC =       582.73103390
  Ewald energy   TEWEN  =     13957.30554133
  -Hartree energ DENC   =    -35974.46247110
  -exchange      EXHF   =         0.00000000
  -V(xc)+E(xc)   XCENC  =       735.82057402
  PAW double counting   =     20260.36633250   -21864.40048906
  entropy T*S    EENTRO =        -0.00028050
  eigenvalues    EBANDS =      -456.02142396
  atomic energy  EATOM  =     22687.98115858
  Solvation  Ediel_sol  =         0.00000000
  ---------------------------------------------------
  free energy    TOTEN  =       -70.68002429 eV

  energy without entropy =      -70.67974379  energy(sigma->0) =      -70.67988404


--------------------------------------------------------------------------------------------------------




--------------------------------------- Iteration      1(   7)  ---------------------------------------


    POTLOK:  cpu time    0.0155: real time    0.0155
    SETDIJ:  cpu time    0.0027: real time    0.0027
     EDDAV:  cpu time   13.6914: real time   13.6919
       DOS:  cpu time    0.0039: real time    0.0039
    CHARGE:  cpu time    0.4068: real time    0.4068
    MIXING:  cpu time    0.0007: real time    0.0007
    --------------------------------------------
      LOOP:  cpu time   14.1210: real time   14.1215

 eigenvalue-minimisations  : 23340
 total energy-change (2. order) : 0.7761142E+01  (-0.4371407E+01)
 number of electron     181.9999873 magnetization 
 augmentation part      113.9069998 magnetization 

 Broyden mixing:
  rms(total) = 0.59088E+00    rms(broyden)= 0.59051E+00
  rms(prec ) = 0.84259E+00
  weight for this iteration     100.00

 eigenvalues of (default mixing * dielectric matrix)
  average eigenvalue GAMMA=   0.5370
  0.6054  0.4686

 Free energy of the ion-electron system (eV)
  ---------------------------------------------------
  alpha Z        PSCENC =       582.73103390
  Ewald energy   TEWEN  =     13957.30554133
  -Hartree energ DENC   =    -36148.17404942
  -exchange      EXHF   =         0.00000000
  -V(xc)+E(xc)   XCENC  =       741.82290335
  PAW double counting   =     20649.19665631   -22327.71214583
  entropy T*S    EENTRO =        -0.00126232
  eigenvalues    EBANDS =      -206.06871848
  atomic energy  EATOM  =     22687.98115858
  Solvation  Ediel_sol  =         0.00000000
  ---------------------------------------------------
  free energy    TOTEN  =       -62.91888257 eV

  energy without entropy =      -62.91762025  energy(sigma->0) =      -62.91825141


--------------------------------------------------------------------------------------------------------




--------------------------------------- Iteration      1(   8)  ---------------------------------------


    POTLOK:  cpu time    0.0153: real time    0.0153
    SETDIJ:  cpu time    0.0028: real time    0.0028
     EDDAV:  cpu time   14.2613: real time   14.2618
       DOS:  cpu time    0.0041: real time    0.0041
    CHARGE:  cpu time    0.4069: real time    0.4069
    MIXING:  cpu time    0.0007: real time    0.0007
    --------------------------------------------
      LOOP:  cpu time   14.6911: real time   14.6916

 eigenvalue-minimisations  : 24440
 total energy-change (2. order) : 0.2236327E+00  (-0.8742754E+00)
 number of electron     181.9999874 magnetization 
 augmentation part      113.1188810 magnetization 

 Broyden mixing:
  rms(total) = 0.42400E+00    rms(broyden)= 0.42392E+00
  rms(prec ) = 0.53951E+00
  weight for this iteration     100.00

 eigenvalues of (default mixing * dielectric matrix)
  average eigenvalue GAMMA=   0.4869
  0.6733  0.4679  0.3194

 Free energy of the ion-electron system (eV)
  ---------------------------------------------------
  alpha Z        PSCENC =       582.73103390
  Ewald energy   TEWEN  =     13957.30554133
  -Hartree energ DENC   =    -36157.14556923
  -exchange      EXHF   =         0.00000000
  -V(xc)+E(xc)   XCENC  =       742.63958083
  PAW double counting   =     20795.16873297   -22488.03352628
  entropy T*S    EENTRO =        -0.00063476
  eigenvalues    EBANDS =      -183.34156716
  atomic energy  EATOM  =     22687.98115858
  Solvation  Ediel_sol  =         0.00000000
  ---------------------------------------------------
  free energy    TOTEN  =       -62.69524983 eV

  energy without entropy =      -62.69461507  energy(sigma->0) =      -62.69493245


--------------------------------------------------------------------------------------------------------




--------------------------------------- Iteration      1(   9)  ---------------------------------------


    POTLOK:  cpu time    0.0160: real time    0.0176
    SETDIJ:  cpu time    0.0028: real time    0.0028
     EDDAV:  cpu time   14.5336: real time   14.5342
       DOS:  cpu time    0.0041: real time    0.0041
    CHARGE:  cpu time    0.4065: real time    0.4066
    MIXING:  cpu time    0.0007: real time    0.0007
    --------------------------------------------
      LOOP:  cpu time   14.9637: real time   14.9659

 eigenvalue-minimisations  : 25180
 total energy-change (2. order) : 0.1037441E+00  (-0.2693585E+00)
 number of electron     181.9999876 magnetization 
 augmentation part      112.7896040 magnetization 

 Broyden mixing:
  rms(total) = 0.21865E+00    rms(broyden)= 0.21863E+00
  rms(prec ) = 0.27567E+00
  weight for this iteration     100.00

 eigenvalues of (default mixing * dielectric matrix)
  average eigenvalue GAMMA=   0.7288
  1.5758  0.5347  0.5347  0.2700

 Free energy of the ion-electron system (eV)
  ---------------------------------------------------
  alpha Z        PSCENC =       582.73103390
  Ewald energy   TEWEN  =     13957.30554133
  -Hartree energ DENC   =    -36159.78958240
  -exchange      EXHF   =         0.00000000
  -V(xc)+E(xc)   XCENC  =       742.73379969
  PAW double counting   =     20907.11654508   -22608.55816619
  entropy T*S    EENTRO =        -0.00019162
  eigenvalues    EBANDS =      -172.11164408
  atomic energy  EATOM  =     22687.98115858
  Solvation  Ediel_sol  =         0.00000000
  ---------------------------------------------------
  free energy    TOTEN  =       -62.59150571 eV

  energy without entropy =      -62.59131409  energy(sigma->0) =      -62.59140990


--------------------------------------------------------------------------------------------------------




--------------------------------------- Iteration      1(  10)  ---------------------------------------


    POTLOK:  cpu time    0.0158: real time    0.0158
    SETDIJ:  cpu time    0.0028: real time    0.0028
     EDDAV:  cpu time   15.9168: real time   15.9174
       DOS:  cpu time    0.0040: real time    0.0040
    CHARGE:  cpu time    0.4071: real time    0.4071
    MIXING:  cpu time    0.0007: real time    0.0007
    --------------------------------------------
      LOOP:  cpu time   16.3472: real time   16.3478

 eigenvalue-minimisations  : 27680
 total energy-change (2. order) : 0.2672774E-01  (-0.9022603E-01)
 number of electron     181.9999875 magnetization 
 augmentation part      112.6448493 magnetization 

 Broyden mixing:
  rms(total) = 0.23769E+00    rms(broyden)= 0.23764E+00
  rms(prec ) = 0.29513E+00
  weight for this iteration     100.00

 eigenvalues of (default mixing * dielectric matrix)
  average eigenvalue GAMMA=   0.7492
  2.0865  0.5316  0.4446  0.4446  0.2385

 Free energy of the ion-electron system (eV)
  ---------------------------------------------------
  alpha Z        PSCENC =       582.73103390
  Ewald energy   TEWEN  =     13957.30554133
  -Hartree energ DENC   =    -36149.93732292
  -exchange      EXHF   =         0.00000000
  -V(xc)+E(xc)   XCENC  =       742.07439465
  PAW double counting   =     21199.88713687   -22918.80804803
  entropy T*S    EENTRO =        -0.00027050
  eigenvalues    EBANDS =      -163.79840185
  atomic energy  EATOM  =     22687.98115858
  Solvation  Ediel_sol  =         0.00000000
  ---------------------------------------------------
  free energy    TOTEN  =       -62.56477797 eV

  energy without entropy =      -62.56450747  energy(sigma->0) =      -62.56464272


--------------------------------------------------------------------------------------------------------




--------------------------------------- Iteration      1(  11)  ---------------------------------------


    POTLOK:  cpu time    0.0159: real time    0.0178
    SETDIJ:  cpu time    0.0028: real time    0.0028
     EDDAV:  cpu time   14.1023: real time   14.1028
       DOS:  cpu time    0.0040: real time    0.0040
    CHARGE:  cpu time    0.4095: real time    0.4095
    MIXING:  cpu time    0.0008: real time    0.0008
    --------------------------------------------
      LOOP:  cpu time   14.5352: real time   14.5376

 eigenvalue-minimisations  : 24340
 total energy-change (2. order) : 0.2282758E-01  (-0.4498574E-01)
 number of electron     181.9999877 magnetization 
 augmentation part      112.6416631 magnetization 

 Broyden mixing:
  rms(total) = 0.18490E+00    rms(broyden)= 0.18489E+00
  rms(prec ) = 0.21764E+00
  weight for this iteration     100.00

 eigenvalues of (default mixing * dielectric matrix)
  average eigenvalue GAMMA=   0.8289
  2.0872  0.7730  0.7410  0.7410  0.3786  0.2524

 Free energy of the ion-electron system (eV)
  ---------------------------------------------------
  alpha Z        PSCENC =       582.73103390
  Ewald energy   TEWEN  =     13957.30554133
  -Hartree energ DENC   =    -36143.24023013
  -exchange      EXHF   =         0.00000000
  -V(xc)+E(xc)   XCENC  =       741.68224656
  PAW double counting   =     21306.37028537   -23031.27503112
  entropy T*S    EENTRO =        -0.00027089
  eigenvalues    EBANDS =      -164.09668400
  atomic energy  EATOM  =     22687.98115858
  Solvation  Ediel_sol  =         0.00000000
  ---------------------------------------------------
  free energy    TOTEN  =       -62.54195039 eV

  energy without entropy =      -62.54167950  energy(sigma->0) =      -62.54181494


--------------------------------------------------------------------------------------------------------




--------------------------------------- Iteration      1(  12)  ---------------------------------------


    POTLOK:  cpu time    0.0180: real time    0.0180
    SETDIJ:  cpu time    0.0029: real time    0.0029
     EDDAV:  cpu time   15.0864: real time   15.0870
       DOS:  cpu time    0.0040: real time    0.0040
    CHARGE:  cpu time    0.4070: real time    0.4070
    MIXING:  cpu time    0.0008: real time    0.0008
    --------------------------------------------
      LOOP:  cpu time   15.5191: real time   15.5196

 eigenvalue-minimisations  : 26230
 total energy-change (2. order) : 0.3896552E-01  (-0.1525456E-01)
 number of electron     181.9999876 magnetization 
 augmentation part      112.7194385 magnetization 

 Broyden mixing:
  rms(total) = 0.79299E-01    rms(broyden)= 0.79262E-01
  rms(prec ) = 0.91884E-01
  weight for this iteration     100.00

 eigenvalues of (default mixing * dielectric matrix)
  average eigenvalue GAMMA=   0.8161
  2.2965  0.8331  0.8331  0.5584  0.5584  0.2485  0.3846

 Free energy of the ion-electron system (eV)
  ---------------------------------------------------
  alpha Z        PSCENC =       582.73103390
  Ewald energy   TEWEN  =     13957.30554133
  -Hartree energ DENC   =    -36138.23583670
  -exchange      EXHF   =         0.00000000
  -V(xc)+E(xc)   XCENC  =       741.27252479
  PAW double counting   =     21341.35907358   -23067.47342557
  entropy T*S    EENTRO =        -0.00027045
  eigenvalues    EBANDS =      -167.44278433
  atomic energy  EATOM  =     22687.98115858
  Solvation  Ediel_sol  =         0.00000000
  ---------------------------------------------------
  free energy    TOTEN  =       -62.50298487 eV

  energy without entropy =      -62.50271442  energy(sigma->0) =      -62.50284964


--------------------------------------------------------------------------------------------------------




--------------------------------------- Iteration      1(  13)  ---------------------------------------


    POTLOK:  cpu time    0.0158: real time    0.0178
    SETDIJ:  cpu time    0.0027: real time    0.0027
     EDDAV:  cpu time   14.8527: real time   14.8532
       DOS:  cpu time    0.0040: real time    0.0040
    CHARGE:  cpu time    0.4065: real time    0.4066
    MIXING:  cpu time    0.0009: real time    0.0009
    --------------------------------------------
      LOOP:  cpu time   15.2826: real time   15.2852

 eigenvalue-minimisations  : 25900
 total energy-change (2. order) : 0.1663986E-02  (-0.1036566E-01)
 number of electron     181.9999876 magnetization 
 augmentation part      112.8396044 magnetization 

 Broyden mixing:
  rms(total) = 0.54033E-01    rms(broyden)= 0.54021E-01
  rms(prec ) = 0.65615E-01
  weight for this iteration     100.00

 eigenvalues of (default mixing * dielectric matrix)
  average eigenvalue GAMMA=   0.8220
  2.2912  1.2165  0.7314  0.6329  0.6329  0.2495  0.4492  0.3720

 Free energy of the ion-electron system (eV)
  ---------------------------------------------------
  alpha Z        PSCENC =       582.73103390
  Ewald energy   TEWEN  =     13957.30554133
  -Hartree energ DENC   =    -36132.60885359
  -exchange      EXHF   =         0.00000000
  -V(xc)+E(xc)   XCENC  =       740.96255956
  PAW double counting   =     21372.74770211   -23099.40048452
  entropy T*S    EENTRO =        -0.00026453
  eigenvalues    EBANDS =      -172.21971373
  atomic energy  EATOM  =     22687.98115858
  Solvation  Ediel_sol  =         0.00000000
  ---------------------------------------------------
  free energy    TOTEN  =       -62.50132088 eV

  energy without entropy =      -62.50105635  energy(sigma->0) =      -62.50118862


--------------------------------------------------------------------------------------------------------




--------------------------------------- Iteration      1(  14)  ---------------------------------------


    POTLOK:  cpu time    0.0153: real time    0.0153
    SETDIJ:  cpu time    0.0028: real time    0.0028
     EDDAV:  cpu time   12.9510: real time   12.9515
       DOS:  cpu time    0.0041: real time    0.0041
    CHARGE:  cpu time    0.4080: real time    0.4081
    MIXING:  cpu time    0.0009: real time    0.0009
    --------------------------------------------
      LOOP:  cpu time   13.3821: real time   13.3827

 eigenvalue-minimisations  : 21680
 total energy-change (2. order) : 0.3225721E-02  (-0.2571828E-02)
 number of electron     181.9999876 magnetization 
 augmentation part      112.9111689 magnetization 

 Broyden mixing:
  rms(total) = 0.25078E-01    rms(broyden)= 0.25076E-01
  rms(prec ) = 0.29901E-01
  weight for this iteration     100.00

 eigenvalues of (default mixing * dielectric matrix)
  average eigenvalue GAMMA=   0.7931
  2.3099  1.2199  0.7041  0.7041  0.6067  0.6067  0.2495  0.3964  0.3402

 Free energy of the ion-electron system (eV)
  ---------------------------------------------------
  alpha Z        PSCENC =       582.73103390
  Ewald energy   TEWEN  =     13957.30554133
  -Hartree energ DENC   =    -36131.89517291
  -exchange      EXHF   =         0.00000000
  -V(xc)+E(xc)   XCENC  =       740.84420687
  PAW double counting   =     21385.52923937   -23112.23166683
  entropy T*S    EENTRO =        -0.00026180
  eigenvalues    EBANDS =      -172.76217367
  atomic energy  EATOM  =     22687.98115858
  Solvation  Ediel_sol  =         0.00000000
  ---------------------------------------------------
  free energy    TOTEN  =       -62.49809516 eV

  energy without entropy =      -62.49783336  energy(sigma->0) =      -62.49796426


--------------------------------------------------------------------------------------------------------




--------------------------------------- Iteration      1(  15)  ---------------------------------------


    POTLOK:  cpu time    0.0154: real time    0.0154
    SETDIJ:  cpu time    0.0027: real time    0.0027
     EDDAV:  cpu time   14.1306: real time   14.1311
       DOS:  cpu time    0.0041: real time    0.0041
    CHARGE:  cpu time    0.4075: real time    0.4075
    MIXING:  cpu time    0.0009: real time    0.0009
    --------------------------------------------
      LOOP:  cpu time   14.5613: real time   14.5618

 eigenvalue-minimisations  : 24270
 total energy-change (2. order) :-0.2198129E-03  (-0.9244242E-03)
 number of electron     181.9999876 magnetization 
 augmentation part      112.9184254 magnetization 

 Broyden mixing:
  rms(total) = 0.15871E-01    rms(broyden)= 0.15869E-01
  rms(prec ) = 0.20382E-01
  weight for this iteration     100.00

 eigenvalues of (default mixing * dielectric matrix)
  average eigenvalue GAMMA=   0.8849
  2.1599  2.0462  0.9826  0.9826  0.6368  0.6368  0.2495  0.4218  0.3896  0.3431

 Free energy of the ion-electron system (eV)
  ---------------------------------------------------
  alpha Z        PSCENC =       582.73103390
  Ewald energy   TEWEN  =     13957.30554133
  -Hartree energ DENC   =    -36133.64347670
  -exchange      EXHF   =         0.00000000
  -V(xc)+E(xc)   XCENC  =       740.88250841
  PAW double counting   =     21386.37033705   -23113.14853005
  entropy T*S    EENTRO =        -0.00026169
  eigenvalues    EBANDS =      -170.97662580
  atomic energy  EATOM  =     22687.98115858
  Solvation  Ediel_sol  =         0.00000000
  ---------------------------------------------------
  free energy    TOTEN  =       -62.49831497 eV

  energy without entropy =      -62.49805328  energy(sigma->0) =      -62.49818413


--------------------------------------------------------------------------------------------------------




--------------------------------------- Iteration      1(  16)  ---------------------------------------


    POTLOK:  cpu time    0.0157: real time    0.0174
    SETDIJ:  cpu time    0.0027: real time    0.0027
     EDDAV:  cpu time   14.7118: real time   14.7123
       DOS:  cpu time    0.0039: real time    0.0039
    CHARGE:  cpu time    0.4074: real time    0.4074
    MIXING:  cpu time    0.0011: real time    0.0011
    --------------------------------------------
      LOOP:  cpu time   15.1426: real time   15.1448

 eigenvalue-minimisations  : 25350
 total energy-change (2. order) : 0.3132672E-03  (-0.3275868E-03)
 number of electron     181.9999876 magnetization 
 augmentation part      112.8906468 magnetization 

 Broyden mixing:
  rms(total) = 0.67547E-02    rms(broyden)= 0.67505E-02
  rms(prec ) = 0.99243E-02
  weight for this iteration     100.00

 eigenvalues of (default mixing * dielectric matrix)
  average eigenvalue GAMMA=   0.9325
  2.6376  2.2216  0.9404  0.8759  0.8759  0.6343  0.6343  0.2495  0.4578  0.3848
  0.3459

 Free energy of the ion-electron system (eV)
  ---------------------------------------------------
  alpha Z        PSCENC =       582.73103390
  Ewald energy   TEWEN  =     13957.30554133
  -Hartree energ DENC   =    -36137.73511234
  -exchange      EXHF   =         0.00000000
  -V(xc)+E(xc)   XCENC  =       740.96623539
  PAW double counting   =     21387.99074998   -23114.96476760
  entropy T*S    EENTRO =        -0.00026131
  eigenvalues    EBANDS =      -166.77257964
  atomic energy  EATOM  =     22687.98115858
  Solvation  Ediel_sol  =         0.00000000
  ---------------------------------------------------
  free energy    TOTEN  =       -62.49800171 eV

  energy without entropy =      -62.49774040  energy(sigma->0) =      -62.49787105


--------------------------------------------------------------------------------------------------------




--------------------------------------- Iteration      1(  17)  ---------------------------------------


    POTLOK:  cpu time    0.0157: real time    0.0157
    SETDIJ:  cpu time    0.0027: real time    0.0027
     EDDAV:  cpu time   16.3011: real time   16.3017
       DOS:  cpu time    0.0038: real time    0.0038
    CHARGE:  cpu time    0.4074: real time    0.4074
    MIXING:  cpu time    0.0011: real time    0.0011
    --------------------------------------------
      LOOP:  cpu time   16.7318: real time   16.7324

 eigenvalue-minimisations  : 28650
 total energy-change (2. order) :-0.1039047E-03  (-0.1211396E-03)
 number of electron     181.9999876 magnetization 
 augmentation part      112.8934705 magnetization 

 Broyden mixing:
  rms(total) = 0.11802E-01    rms(broyden)= 0.11800E-01
  rms(prec ) = 0.14314E-01
  weight for this iteration     100.00

 eigenvalues of (default mixing * dielectric matrix)
  average eigenvalue GAMMA=   0.9297
  2.7787  2.3084  1.0371  0.9300  0.9300  0.6299  0.6299  0.2495  0.4677  0.4677
  0.3816  0.3454

 Free energy of the ion-electron system (eV)
  ---------------------------------------------------
  alpha Z        PSCENC =       582.73103390
  Ewald energy   TEWEN  =     13957.30554133
  -Hartree energ DENC   =    -36139.22518323
  -exchange      EXHF   =         0.00000000
  -V(xc)+E(xc)   XCENC  =       740.96601026
  PAW double counting   =     21390.78387576   -23117.78271299
  entropy T*S    EENTRO =        -0.00026079
  eigenvalues    EBANDS =      -165.25756843
  atomic energy  EATOM  =     22687.98115858
  Solvation  Ediel_sol  =         0.00000000
  ---------------------------------------------------
  free energy    TOTEN  =       -62.49810561 eV

  energy without entropy =      -62.49784482  energy(sigma->0) =      -62.49797521


--------------------------------------------------------------------------------------------------------




--------------------------------------- Iteration      1(  18)  ---------------------------------------


    POTLOK:  cpu time    0.0158: real time    0.0181
    SETDIJ:  cpu time    0.0027: real time    0.0027
     EDDAV:  cpu time   14.9055: real time   14.9060
       DOS:  cpu time    0.0041: real time    0.0041
    CHARGE:  cpu time    0.4076: real time    0.4076
    MIXING:  cpu time    0.0011: real time    0.0011
    --------------------------------------------
      LOOP:  cpu time   15.3369: real time   15.3397

 eigenvalue-minimisations  : 25790
 total energy-change (2. order) : 0.6794708E-04  (-0.6257757E-04)
 number of electron     181.9999876 magnetization 
 augmentation part      112.9011225 magnetization 

 Broyden mixing:
  rms(total) = 0.10508E-01    rms(broyden)= 0.10508E-01
  rms(prec ) = 0.12711E-01
  weight for this iteration     100.00

 eigenvalues of (default mixing * dielectric matrix)
  average eigenvalue GAMMA=   0.9511
  2.7944  2.4181  1.0815  1.0815  0.9668  0.9668  0.6299  0.6299  0.2495  0.4608
  0.3796  0.3527  0.3527

 Free energy of the ion-electron system (eV)
  ---------------------------------------------------
  alpha Z        PSCENC =       582.73103390
  Ewald energy   TEWEN  =     13957.30554133
  -Hartree energ DENC   =    -36139.60291727
  -exchange      EXHF   =         0.00000000
  -V(xc)+E(xc)   XCENC  =       740.94955914
  PAW double counting   =     21390.11303848   -23116.99548048
  entropy T*S    EENTRO =        -0.00026092
  eigenvalues    EBANDS =      -164.97971041
  atomic energy  EATOM  =     22687.98115858
  Solvation  Ediel_sol  =         0.00000000
  ---------------------------------------------------
  free energy    TOTEN  =       -62.49803766 eV

  energy without entropy =      -62.49777674  energy(sigma->0) =      -62.49790720


--------------------------------------------------------------------------------------------------------




--------------------------------------- Iteration      1(  19)  ---------------------------------------


    POTLOK:  cpu time    0.0153: real time    0.0153
    SETDIJ:  cpu time    0.0027: real time    0.0027
     EDDAV:  cpu time   15.4272: real time   15.4278
       DOS:  cpu time    0.0042: real time    0.0042
    CHARGE:  cpu time    0.4077: real time    0.4077
    MIXING:  cpu time    0.0012: real time    0.0012
    --------------------------------------------
      LOOP:  cpu time   15.8584: real time   15.8589

 eigenvalue-minimisations  : 26770
 total energy-change (2. order) : 0.1047220E-03  (-0.4587155E-04)
 number of electron     181.9999876 magnetization 
 augmentation part      112.9076342 magnetization 

 Broyden mixing:
  rms(total) = 0.39729E-02    rms(broyden)= 0.39702E-02
  rms(prec ) = 0.49505E-02
  weight for this iteration     100.00

 eigenvalues of (default mixing * dielectric matrix)
  average eigenvalue GAMMA=   1.0071
  3.1777  2.2866  1.3781  1.0515  1.0515  1.0337  1.0337  0.6385  0.6385  0.2495
  0.4502  0.3458  0.3854  0.3787

 Free energy of the ion-electron system (eV)
  ---------------------------------------------------
  alpha Z        PSCENC =       582.73103390
  Ewald energy   TEWEN  =     13957.30554133
  -Hartree energ DENC   =    -36139.71461558
  -exchange      EXHF   =         0.00000000
  -V(xc)+E(xc)   XCENC  =       740.93822278
  PAW double counting   =     21388.47835191   -23115.26541597
  entropy T*S    EENTRO =        -0.00026104
  eigenvalues    EBANDS =      -164.95194886
  atomic energy  EATOM  =     22687.98115858
  Solvation  Ediel_sol  =         0.00000000
  ---------------------------------------------------
  free energy    TOTEN  =       -62.49793294 eV

  energy without entropy =      -62.49767190  energy(sigma->0) =      -62.49780242


[...]
     22      -1.5466      2.00000
     23      -1.4286      2.00000
     24      -1.4274      2.00000
     25      -1.3992      2.00000
     26      -1.3755      2.00000
     27      -1.3385      2.00000
     28      -1.2734      2.00000
     29      -1.2029      2.00000
     30      -1.1900      2.00000
     31      -1.1661      2.00000
     32      -1.0980      2.00000
     33      -1.0248      2.00000
     34      -1.0102      2.00000
     35      -0.9831      2.00000
     36      -0.9411      2.00000
     37      -0.8566      2.00000
     38      -0.8479      2.00000
     39      -0.7634      2.00000
     40      -0.7353      2.00000
     41      -0.7216      2.00000
     42      -0.7049      2.00000
     43      -0.6787      2.00000
     44      -0.6375      2.00000
     45      -0.6013      2.00000
     46      -0.5678      2.00000
     47      -0.5313      2.00000
     48      -0.5033      2.00000
     49      -0.5018      2.00000
     50      -0.4470      2.00000
     51      -0.4119      2.00000
     52      -0.3728      2.00000
     53      -0.3424      2.00000
     54      -0.3008      2.00000
     55      -0.2706      2.00000
     56      -0.2526      2.00000
     57      -0.2062      2.00000
     58      -0.1988      2.00000
     59      -0.1664      2.00000
     60      -0.1388      2.00000
     61      -0.0432      2.00000
     62      -0.0242      2.00000
     63      -0.0150      2.00000
     64       0.0044      2.00000
     65       0.0500      2.00000
     66       0.0615      2.00000
     67       0.1551      2.00000
     68       0.1612      2.00000
     69       0.2015      2.00000
     70       0.2103      2.00000
     71       0.2503      2.00000
     72       0.2912      2.00000
     73       0.3405      2.00000
     74       0.3515      2.00000
     75       0.4201      2.00000
     76       0.4262      2.00000
     77       0.4526      2.00000
     78       0.4809      2.00000
     79       0.4954      2.00000
     80       0.5209      2.00000
     81       0.5301      2.00000
     82       0.5608      2.00000
     83       0.6060      2.00000
     84       0.6742      2.00000
     85       0.7202      2.00000
     86       0.8180      2.00000
     87       0.8652      2.00000
     88       0.8995      2.00000
     89       1.0828      2.00000
     90       1.4221      2.00000
     91       1.7761      2.00000
     92       2.5173      0.00000
     93       2.8469      0.00000
     94       3.2495      0.00000
     95       4.1122      0.00000
     96       4.4383      0.00000
     97       4.6325      0.00000
     98       4.6861      0.00000
     99       5.2284      0.00000
    100       5.6490      0.00000
    101       6.1618      0.00000
    102       7.2270      0.00000
    103       7.3759      0.00000
    104       7.5394      0.00000
    105       7.9806      0.00000
    106       8.6299      0.00000
    107       9.2598      0.00000
    108       9.3607      0.00000
    109       9.4535      0.00000
    110       9.6347      0.00000

 k-point    82 :      -0.1111    0.4444    0.5000
  band No.  band energies     occupation 
      1     -16.1112      2.00000
      2      -5.4554      2.00000
      3      -4.3333      2.00000
      4      -4.0161      2.00000
      5      -3.3690      2.00000
      6      -3.0863      2.00000
      7      -2.9593      2.00000
      8      -2.7872      2.00000
      9      -2.6515      2.00000
     10      -2.4420      2.00000
     11      -2.2780      2.00000
     12      -2.1525      2.00000
     13      -2.1024      2.00000
     14      -2.0292      2.00000
     15      -1.9759      2.00000
     16      -1.9184      2.00000
     17      -1.8048      2.00000
     18      -1.7598      2.00000
     19      -1.7311      2.00000
     20      -1.7119      2.00000
     21      -1.5834      2.00000
     22      -1.5179      2.00000
     23      -1.4396      2.00000
     24      -1.4077      2.00000
     25      -1.3848      2.00000
     26      -1.3656      2.00000
     27      -1.3291      2.00000
     28      -1.3137      2.00000
     29      -1.2363      2.00000
     30      -1.1661      2.00000
     31      -1.1466      2.00000
     32      -1.1065      2.00000
     33      -1.0396      2.00000
     34      -1.0250      2.00000
     35      -0.9718      2.00000
     36      -0.9520      2.00000
     37      -0.8958      2.00000
     38      -0.8460      2.00000
     39      -0.8033      2.00000
     40      -0.7375      2.00000
     41      -0.7158      2.00000
     42      -0.6920      2.00000
     43      -0.6472      2.00000
     44      -0.6078      2.00000
     45      -0.5795      2.00000
     46      -0.5561      2.00000
     47      -0.5429      2.00000
     48      -0.5140      2.00000
     49      -0.4880      2.00000
     50      -0.4607      2.00000
     51      -0.4049      2.00000
     52      -0.3660      2.00000
     53      -0.3587      2.00000
     54      -0.3425      2.00000
     55      -0.2924      2.00000
     56      -0.2430      2.00000
     57      -0.2301      2.00000
     58      -0.2107      2.00000
     59      -0.1629      2.00000
     60      -0.1539      2.00000
     61      -0.0504      2.00000
     62      -0.0241      2.00000
     63      -0.0141      2.00000
     64       0.0032      2.00000
     65       0.0258      2.00000
     66       0.0808      2.00000
     67       0.1257      2.00000
     68       0.1512      2.00000
     69       0.1708      2.00000
     70       0.1837      2.00000
     71       0.2166      2.00000
     72       0.2398      2.00000
     73       0.2726      2.00000
     74       0.3011      2.00000
     75       0.3624      2.00000
     76       0.3945      2.00000
     77       0.4098      2.00000
     78       0.4426      2.00000
     79       0.4814      2.00000
     80       0.5146      2.00000
     81       0.5432      2.00000
     82       0.5644      2.00000
     83       0.5901      2.00000
     84       0.6058      2.00000
     85       0.6638      2.00000
     86       0.7568      2.00000
     87       1.0239      2.00000
     88       1.0731      2.00000
     89       1.3314      2.00000
     90       1.5129      2.00000
     91       1.9793      2.00000
     92       2.4050      0.00000
     93       2.9146      0.00000
     94       3.1448      0.00000
     95       3.6278      0.00000
     96       3.9710      0.00000
     97       4.4840      0.00000
     98       4.7547      0.00000
     99       5.6569      0.00000
    100       5.9405      0.00000
    101       6.3793      0.00000
    102       7.0355      0.00000
    103       7.5863      0.00000
    104       7.6818      0.00000
    105       8.3239      0.00000
    106       8.7545      0.00000
    107       8.9975      0.00000
    108       9.1467      0.00000
    109       9.4971      0.00000
    110       9.7900      0.00000


--------------------------------------------------------------------------------------------------------


 soft charge-density along one line, spin component           1
         0         1         2         3         4         5         6         7         8         9
 total charge-density along one line
 
 pseudopotential strength for first ion, spin component:           1
 -6.627  -0.004  -0.004   0.000   0.001  -1.908   0.003   0.003
 -0.004  -6.584  -0.001   0.002  -0.000   0.003  -1.942   0.001
 -0.004  -0.001  -6.579  -0.000   0.002   0.003   0.001  -1.947
  0.000   0.002  -0.000  -6.587   0.005  -0.000  -0.002   0.000
  0.001  -0.000   0.002   0.005  -6.626  -0.001   0.000  -0.002
 -1.908   0.003   0.003  -0.000  -0.001   8.324  -0.002  -0.002
  0.003  -1.942   0.001  -0.002   0.000  -0.002   8.348  -0.001
  0.003   0.001  -1.947   0.000  -0.002  -0.002  -0.001   8.352
 -0.000  -0.002   0.000  -1.940  -0.003   0.000   0.001  -0.000
 -0.001   0.000  -0.002  -0.003  -1.908   0.001  -0.000   0.001
 -0.001   0.000  -0.008   0.000   0.000   0.001  -0.000   0.003
 -0.001   0.001  -0.015   0.000   0.001   0.001  -0.000   0.005
  0.001  -0.009  -0.001   0.000  -0.001  -0.000   0.009   0.000
  0.000   0.001  -0.008   0.001  -0.000  -0.000  -0.001   0.009
  0.001   0.000  -0.000  -0.009   0.000  -0.001  -0.000   0.000
  0.001  -0.010  -0.001   0.000  -0.001  -0.000   0.011   0.000
  0.000   0.001  -0.009   0.001  -0.000  -0.000  -0.001   0.010
  0.001   0.000  -0.000  -0.010   0.000  -0.001  -0.000   0.000
 total augmentation occupancy for first ion, spin component:           1
  1.909  -0.006  -0.003  -0.001   0.002  -0.015   0.005   0.001  -0.000  -0.001   0.000  -0.000   0.007   0.002  -0.001  -0.000
 -0.006   1.926  -0.002  -0.000   0.001   0.005  -0.031   0.001   0.000   0.000  -0.007  -0.001   0.010   0.001   0.002  -0.009
 -0.003  -0.002   1.928  -0.001   0.002   0.001   0.001  -0.028   0.000  -0.000  -0.002   0.013  -0.002   0.052  -0.001  -0.000
 -0.001  -0.000  -0.001   1.926   0.005  -0.000   0.000   0.000  -0.031  -0.005  -0.004  -0.000   0.002   0.001   0.007  -0.000
  0.002   0.001   0.002   0.005   1.911  -0.001   0.000  -0.000  -0.005  -0.015  -0.000   0.000   0.001  -0.001  -0.008  -0.001
 -0.015   0.005   0.001  -0.000  -0.001   0.014   0.000  -0.000  -0.000   0.000  -0.000   0.000   0.003  -0.000   0.000  -0.000
  0.005  -0.031   0.001   0.000   0.000   0.000   0.010  -0.000  -0.000   0.000   0.001   0.000   0.016  -0.000  -0.001  -0.001
  0.001   0.001  -0.028   0.000  -0.000  -0.000  -0.000   0.013  -0.000   0.000  -0.044   0.002   0.001   0.023   0.000  -0.000
 -0.000   0.000   0.000  -0.031  -0.005  -0.000  -0.000  -0.000   0.010  -0.000   0.001   0.000  -0.001  -0.000   0.017   0.000
 -0.001   0.000  -0.000  -0.005  -0.015   0.000   0.000   0.000  -0.000   0.014   0.000  -0.000  -0.000   0.000  -0.002   0.000
  0.000  -0.007  -0.002  -0.004  -0.000  -0.000   0.001  -0.044   0.001   0.000   1.706  -0.136  -0.002   0.131  -0.001   0.000
 -0.000  -0.001   0.013  -0.000   0.000   0.000   0.000   0.002   0.000  -0.000  -0.136   0.017  -0.000  -0.022  -0.000  -0.000
  0.007   0.010  -0.002   0.002   0.001   0.003   0.016   0.001  -0.001  -0.000  -0.002  -0.000   0.207   0.005  -0.001  -0.013
  0.002   0.001   0.052   0.001  -0.001  -0.000  -0.000   0.023  -0.000   0.000   0.131  -0.022   0.005   0.125   0.003  -0.000
 -0.001   0.002  -0.001   0.007  -0.008   0.000  -0.001   0.000   0.017  -0.002  -0.001  -0.000  -0.001   0.003   0.208   0.000
 -0.000  -0.009  -0.000  -0.000  -0.001  -0.000  -0.001  -0.000   0.000   0.000   0.000  -0.000  -0.013  -0.000   0.000   0.001
 -0.000   0.001  -0.014   0.000   0.000   0.000  -0.000  -0.001  -0.000  -0.000  -0.019   0.002  -0.000  -0.008  -0.000   0.000
  0.001  -0.000  -0.000  -0.009   0.001  -0.000   0.000  -0.000  -0.001   0.000   0.000  -0.000   0.000  -0.000  -0.013  -0.000


------------------------ aborting loop because EDIFF is reached ----------------------------------------


    CHARGE:  cpu time    0.4062: real time    0.4062
    FORLOC:  cpu time    0.0030: real time    0.0030
    FORNL :  cpu time    2.4328: real time    2.4329
    STRESS:  cpu time    7.3125: real time    7.3128
    FORCOR:  cpu time    0.0177: real time    0.0177
    FORHAR:  cpu time    0.0058: real time    0.0058
    MIXING:  cpu time    0.0006: real time    0.0006
    OFIELD:  cpu time    0.0000: real time    0.0000

  FORCE on cell =-STRESS in cart. coord.  units (eV):
  Direction    XX          YY          ZZ          XY          YZ          ZX
  --------------------------------------------------------------------------------------
  Alpha Z   582.73103   582.73103   582.73103
  Ewald   26001.25656 26001.24376-37909.42190    -0.01446     0.01203     0.00282
  Hartree 32501.87274 32501.86300-28727.09612    -0.00867     0.00590     0.00117
  E(xc)   -1057.39304 -1057.39315 -1059.33146     0.00008     0.00003     0.00002
  Local  -60745.43107-60745.39572 64383.98615     0.01230    -0.01691    -0.00351
  n-local  -362.75470  -362.75419  -369.92593    -0.00101    -0.00005    -0.00012
  augment  1519.46044  1519.45093  1526.49693     0.00846    -0.00030    -0.00018
  Kinetic  1560.91231  1560.91289  1571.90204    -0.00031    -0.00071    -0.00032
  Fock        0.00000     0.00000     0.00000     0.00000     0.00000     0.00000
  -------------------------------------------------------------------------------------
  Total       0.65428     0.65855    -0.65926    -0.00361     0.00000    -0.00011
  in kB       3.08800     3.10815    -3.11152    -0.01702     0.00001    -0.00053
  external pressure =        1.03 kB  Pullay stress =        0.00 kB


 VOLUME and BASIS-vectors are now :
 -----------------------------------------------------------------------------
  energy-cutoff  :      500.00
  volume of cell :      339.47
      direct lattice vectors                 reciprocal lattice vectors
     4.427085287 -2.555978882  0.000000000     0.225882253  0.000000000  0.000000000
     0.000000000  5.111957764  0.000000000     0.112941127  0.195619770  0.000000000
     0.000000000  0.000000000 15.000000000     0.000000000  0.000000000  0.066666667

  length of vectors
     5.111957764  5.111957764 15.000000000     0.225882253  0.225882253  0.066666667


 FORCES acting on ions
    electron-ion (+dipol)            ewald-force                    non-local-force                 convergence-correction
 -----------------------------------------------------------------------------------------------
   0.205E+00 0.355E+00 0.256E+04   -.303E+00 -.525E+00 -.256E+04   0.785E-01 0.136E+00 -.201E+01   0.320E-04 0.573E-04 0.658E-03
   -.134E-01 -.137E-01 -.738E+03   0.129E-01 0.130E-01 0.739E+03   0.279E-03 0.402E-03 -.113E+01   0.279E-03 0.441E-03 -.618E-02
   -.920E+02 -.156E-01 -.236E+04   0.933E+02 0.161E-01 0.236E+04   -.133E+01 0.327E-04 0.159E-01   -.202E-02 -.295E-03 -.904E-02
   -.410E+00 0.104E-04 0.256E+04   0.606E+00 -.171E-04 -.256E+04   -.157E+00 0.549E-04 -.201E+01   -.987E-04 0.330E-04 0.695E-03
   0.914E+01 -.480E-03 0.928E+03   -.944E+01 0.446E-03 -.928E+03   0.193E+00 0.108E-04 -.610E+00   -.198E-03 0.898E-05 -.866E-02
   0.410E+01 0.709E+01 -.705E+03   -.413E+01 -.715E+01 0.704E+03   0.357E-01 0.618E-01 0.110E+01   -.920E-03 -.152E-02 -.151E-01
   0.460E+02 -.796E+02 -.236E+04   -.466E+02 0.808E+02 0.236E+04   0.664E+00 -.115E+01 0.161E-01   0.794E-03 -.193E-02 -.898E-02
   -.457E+01 0.792E+01 0.928E+03   0.472E+01 -.817E+01 -.928E+03   -.965E-01 0.167E+00 -.610E+00   0.107E-03 -.165E-03 -.865E-02
   0.205E+00 -.355E+00 0.256E+04   -.303E+00 0.525E+00 -.256E+04   0.786E-01 -.136E+00 -.201E+01   0.774E-04 -.701E-04 0.695E-03
   -.819E+01 0.543E-02 -.705E+03   0.826E+01 -.472E-02 0.704E+03   -.713E-01 0.860E-04 0.110E+01   0.188E-02 -.799E-03 -.146E-01
   0.867E-02 0.123E-01 -.236E+04   -.841E-02 -.119E-01 0.236E+04   -.187E-03 -.288E-03 0.538E+01   -.106E-03 -.235E-03 -.633E-02
   -.381E-04 0.623E-05 0.256E+04   0.316E-04 0.232E-04 -.256E+04   0.361E-04 0.472E-05 -.248E+01   -.229E-04 -.418E-04 0.784E-03
   0.105E-02 -.585E-03 0.939E+03   -.108E-02 0.545E-03 -.938E+03   0.335E-04 0.403E-04 -.844E+00   -.195E-05 -.879E-06 -.896E-02
   0.410E+01 -.708E+01 -.705E+03   -.413E+01 0.714E+01 0.704E+03   0.357E-01 -.616E-01 0.110E+01   -.166E-02 0.121E-02 -.146E-01
   0.460E+02 0.797E+02 -.236E+04   -.467E+02 -.808E+02 0.236E+04   0.664E+00 0.115E+01 0.172E-01   0.230E-03 0.356E-03 -.920E-02
   -.457E+01 -.791E+01 0.928E+03   0.472E+01 0.817E+01 -.928E+03   -.965E-01 -.167E+00 -.610E+00   0.926E-04 0.158E-03 -.882E-02
   -.420E-02 -.112E-01 -.165E+04   0.727E-02 0.170E-01 0.168E+04   -.203E-03 -.663E-03 -.261E+02   -.248E-02 -.437E-02 -.697E-02
 -----------------------------------------------------------------------------------------------
   0.374E-02 0.743E-02 0.298E+02   -.346E-13 0.139E-16 -.227E-12   0.877E-03 0.883E-03 -.297E+02   -.402E-02 -.716E-02 -.123E+00
 
 
 POSITION                                       TOTAL-FORCE (eV/Angst)
 -----------------------------------------------------------------------------------
      0.00000      0.00000      0.00000        -0.019537     -0.033688      0.013010
      3.68921      1.27798      4.23714         0.000072      0.000120     -0.002869
      2.26232      1.27797      6.32062         0.002214      0.000194      0.000094
      2.21354      1.27799      0.00000         0.038835      0.000014      0.013013
      0.73785      3.83397      2.08695        -0.102216     -0.000082     -0.018438
      1.47103      2.54793      4.15186        -0.000300     -0.000527      0.000600
      4.40267      0.04225      6.32063        -0.000936      0.001952      0.000099
      2.95139      2.55598      2.08695         0.051071     -0.088580     -0.018478
      0.00000      2.55598      0.00000        -0.019441      0.033549      0.013022
      3.69854     -1.27800      4.15187         0.000511     -0.000074      0.000663
      2.21355     -1.27800      6.13586        -0.000069     -0.000097      0.002533
      2.21354     -1.27799      0.00000        -0.000028     -0.000075      0.084622
      0.73785      1.27799      2.08695        -0.000032     -0.000068     -0.072097
      1.47102      0.00807      4.15187        -0.000314      0.000403      0.000686
      4.40275      2.51381      6.32069        -0.001230     -0.002075     -0.000080
      2.95139      0.00000      2.08695         0.051049      0.088378     -0.018417
      0.73790      1.27807      7.43520         0.000351      0.000656      0.002035
 -----------------------------------------------------------------------------------
    total drift:                                0.000596      0.001146      0.005184


--------------------------------------------------------------------------------------------------------



  FREE ENERGIE OF THE ION-ELECTRON SYSTEM (eV)
  ---------------------------------------------------
  free  energy   TOTEN  =       -62.49878659 eV

  energy  without entropy=      -62.49852525  energy(sigma->0) =      -62.49865592
 
 d Force = 0.1249710E-05[-0.349E-07, 0.253E-05]  d Energy = 0.6044575E-06 0.645E-06
 d Force = 0.8385227E-02[ 0.835E-02, 0.842E-02]  d Ewald  = 0.8385234E-02-0.771E-08


--------------------------------------------------------------------------------------------------------


    POTLOK:  cpu time    0.0179: real time    0.0179


--------------------------------------------------------------------------------------------------------


 stress matrix after NEB project (eV)
      0.65428     -0.00361     -0.00011
     -0.00361      0.65855      0.00000
     -0.00011      0.00000     -0.65926
  FORCES: max atom, RMS     0.002872    0.001475
  FORCE total and by dimension    0.006084    0.002869
  Stress total and by dimension    1.138604    0.659263


--------------------------------------------------------------------------------------------------------


  
 reached required accuracy - stopping structural energy minimisation
     LOOP+:  cpu time   74.6213: real time   74.6397
    4ORBIT:  cpu time    0.0000: real time    0.0000

 total amount of memory used by VASP MPI-rank0   102063. kBytes
=======================================================================

   base      :      30000. kBytes
   nonlr-proj:       2754. kBytes
   fftplans  :       1456. kBytes
   grid      :       2255. kBytes
   one-center:         77. kBytes
   wavefun   :      65521. kBytes
 
  
  
 General timing and accounting informations for this job:
 ========================================================
  
                  Total CPU time used (sec):     2221.395
                            User time (sec):     2167.752
                          System time (sec):       53.643
                         Elapsed time (sec):     2222.960
  
                   Maximum memory used (kb):      226992.
                   Average memory used (kb):           0.
  
                          Minor page faults:        57895
                          Major page faults:           28
                 Voluntary context switches:         3761
