<?xml version="1.0" encoding="ISO-8859-1"?>
<modeling>
 <generator>
  <i name="program" type="string">vasp </i>
  <i name="version" type="string">5.4.4.18Apr17-6-g9f103f2a35  </i>
  <i name="subversion" type="string">(build Jun 16 2022 14:25:58) complex            parallel </i>
  <i name="platform" type="string">LinuxIFC </i>
  <i name="date" type="string">2025 05 07 </i>
  <i name="time" type="string">04:07:52 </i>
 </generator>
 <incar>
  <i type="string" name="SYSTEM"> TS</i>
  <i type="string" name="PREC">normal</i>
  <i type="string" name="ALGO"> Normal</i>
  <i type="int" name="IBRION">     2</i>
  <i name="EDIFF">      0.00000010</i>
  <i type="int" name="NSW">   600</i>
  <i type="int" name="ISIF">     2</i>
  <i type="int" name="ISYM">     0</i>
  <i name="ENCUT">    500.00000000</i>
  <i type="string" name="LREAL"> Auto</i>
  <i type="logical" name="LPLANE"> T  </i>
  <i type="int" name="ISMEAR">     0</i>
  <i name="SIGMA">      0.01000000</i>
  <i type="logical" name="LWAVE"> F  </i>
  <i type="logical" name="LCHARG"> F  </i>
  <v type="int" name="KPOINT_BSE">    -1     0     0     0</v>
 </incar>
 <structure name="primitive_cell" >
  <crystal>
   <varray name="basis" >
    <v>       4.42708529      -2.55597888       0.00000000 </v>
    <v>       0.00000000       5.11195776       0.00000000 </v>
    <v>       0.00000000       0.00000000      15.00000000 </v>
   </varray>
   <i name="volume">    339.46609504 </i>
   <varray name="rec_basis" >
    <v>       0.22588225       0.00000000       0.00000000 </v>
    <v>       0.11294113       0.19561977       0.00000000 </v>
    <v>       0.00000000       0.00000000       0.06666667 </v>
   </varray>
  </crystal>
  <varray name="positions" >
   <v>       0.00000000       0.00000000       0.00000000 </v>
   <v>       0.16666667      -0.16666667       0.13912987 </v>
   <v>      -0.33333333      -0.16666667       0.13912987 </v>
   <v>       0.16666667       0.33333333       0.13912987 </v>
   <v>      -0.50000000       0.00000000       0.00000000 </v>
   <v>       0.00000000      -0.50000000       0.00000000 </v>
   <v>      -0.50000000      -0.50000000       0.00000000 </v>
   <v>      -0.33333333       0.33333333       0.13912987 </v>
   <v>      -0.16437294       0.16781353       0.27727655 </v>
   <v>       0.33218647       0.16781353       0.27727655 </v>
   <v>      -0.16666667      -0.33333333       0.28301144 </v>
   <v>       0.33218647      -0.33562706       0.27727655 </v>
   <v>      -0.00563830      -0.01127659       0.42215943 </v>
   <v>       0.50000000       0.00000000       0.40955815 </v>
   <v>      -0.48872341      -0.49436170       0.42215943 </v>
   <v>      -0.00563830      -0.49436170       0.42215944 </v>
   <v>       0.16666670       0.33333330       0.49622037 </v>
  </varray>
 </structure>
 <varray name="primitive_index" >
  <v type="int" >        1 </v>
  <v type="int" >        5 </v>
  <v type="int" >        8 </v>
  <v type="int" >       13 </v>
  <v type="int" >       12 </v>
  <v type="int" >        9 </v>
  <v type="int" >        4 </v>
  <v type="int" >       16 </v>
  <v type="int" >       10 </v>
  <v type="int" >       14 </v>
  <v type="int" >        2 </v>
  <v type="int" >        6 </v>
  <v type="int" >       15 </v>
  <v type="int" >       11 </v>
  <v type="int" >        3 </v>
  <v type="int" >        7 </v>
  <v type="int" >       17 </v>
 </varray>
 <kpoints>
  <generation param="Gamma">
   <v type="int" name="divisions">       9        9        2 </v>
   <v name="usershift">      0.00000000       0.00000000       0.00000000 </v>
   <v name="genvec1">      0.11111111       0.00000000       0.00000000 </v>
   <v name="genvec2">     -0.00000000       0.11111111       0.00000000 </v>
   <v name="genvec3">      0.00000000       0.00000000       0.50000000 </v>
   <v name="shift">      0.00000000       0.00000000       0.00000000 </v>
  </generation>
  <varray name="kpointlist" >
   <v>       0.00000000       0.00000000       0.00000000 </v>
   <v>       0.11111111       0.00000000       0.00000000 </v>
   <v>       0.22222222       0.00000000       0.00000000 </v>
   <v>       0.33333333       0.00000000       0.00000000 </v>
   <v>       0.44444444       0.00000000       0.00000000 </v>
   <v>      -0.00000000       0.11111111       0.00000000 </v>
   <v>       0.11111111       0.11111111       0.00000000 </v>
   <v>       0.22222222       0.11111111       0.00000000 </v>
   <v>       0.33333333       0.11111111       0.00000000 </v>
   <v>       0.44444444       0.11111111       0.00000000 </v>
   <v>      -0.44444444       0.11111111       0.00000000 </v>
   <v>      -0.33333333       0.11111111       0.00000000 </v>
   <v>      -0.22222222       0.11111111       0.00000000 </v>
   <v>      -0.11111111       0.11111111       0.00000000 </v>
   <v>       0.00000000       0.22222222       0.00000000 </v>
   <v>       0.11111111       0.22222222       0.00000000 </v>
   <v>       0.22222222       0.22222222       0.00000000 </v>
   <v>       0.33333333       0.22222222       0.00000000 </v>
   <v>       0.44444444       0.22222222       0.00000000 </v>
   <v>      -0.44444444       0.22222222       0.00000000 </v>
   <v>      -0.33333333       0.22222222       0.00000000 </v>
   <v>      -0.22222222       0.22222222       0.00000000 </v>
   <v>      -0.11111111       0.22222222       0.00000000 </v>
   <v>       0.00000000       0.33333333       0.00000000 </v>
   <v>       0.11111111       0.33333333       0.00000000 </v>
   <v>       0.22222222       0.33333333       0.00000000 </v>
   <v>       0.33333333       0.33333333       0.00000000 </v>
   <v>       0.44444444       0.33333333       0.00000000 </v>
   <v>      -0.44444444       0.33333333       0.00000000 </v>
   <v>      -0.33333333       0.33333333       0.00000000 </v>
   <v>      -0.22222222       0.33333333       0.00000000 </v>
   <v>      -0.11111111       0.33333333       0.00000000 </v>
   <v>       0.00000000       0.44444444       0.00000000 </v>
   <v>       0.11111111       0.44444444       0.00000000 </v>
   <v>       0.22222222       0.44444444       0.00000000 </v>
   <v>       0.33333333       0.44444444       0.00000000 </v>
   <v>       0.44444444       0.44444444       0.00000000 </v>
   <v>      -0.44444444       0.44444444       0.00000000 </v>
   <v>      -0.33333333       0.44444444       0.00000000 </v>
   <v>      -0.22222222       0.44444444       0.00000000 </v>
   <v>      -0.11111111       0.44444444       0.00000000 </v>
   <v>       0.00000000       0.00000000       0.50000000 </v>
   <v>       0.11111111       0.00000000       0.50000000 </v>
   <v>       0.22222222       0.00000000       0.50000000 </v>
   <v>       0.33333333       0.00000000       0.50000000 </v>
   <v>       0.44444444       0.00000000       0.50000000 </v>
   <v>      -0.00000000       0.11111111       0.50000000 </v>
   <v>       0.11111111       0.11111111       0.50000000 </v>
   <v>       0.22222222       0.11111111       0.50000000 </v>
   <v>       0.33333333       0.11111111       0.50000000 </v>
   <v>       0.44444444       0.11111111       0.50000000 </v>
   <v>      -0.44444444       0.11111111       0.50000000 </v>
   <v>      -0.33333333       0.11111111       0.50000000 </v>
   <v>      -0.22222222       0.11111111       0.50000000 </v>
   <v>      -0.11111111       0.11111111       0.50000000 </v>
   <v>       0.00000000       0.22222222       0.50000000 </v>
   <v>       0.11111111       0.22222222       0.50000000 </v>
   <v>       0.22222222       0.22222222       0.50000000 </v>
   <v>       0.33333333       0.22222222       0.50000000 </v>
   <v>       0.44444444       0.22222222       0.50000000 </v>
   <v>      -0.44444444       0.22222222       0.50000000 </v>
   <v>      -0.33333333       0.22222222       0.50000000 </v>
   <v>      -0.22222222       0.22222222       0.50000000 </v>
   <v>      -0.11111111       0.22222222       0.50000000 </v>
   <v>       0.00000000       0.33333333       0.50000000 </v>
   <v>       0.11111111       0.33333333       0.50000000 </v>
   <v>       0.22222222       0.33333333       0.50000000 </v>
   <v>       0.33333333       0.33333333       0.50000000 </v>
   <v>       0.44444444       0.33333333       0.50000000 </v>
   <v>      -0.44444444       0.33333333       0.50000000 </v>
   <v>      -0.33333333       0.33333333       0.50000000 </v>
   <v>      -0.22222222       0.33333333       0.50000000 </v>
   <v>      -0.11111111       0.33333333       0.50000000 </v>
   <v>       0.00000000       0.44444444       0.50000000 </v>
   <v>       0.11111111       0.44444444       0.50000000 </v>
   <v>       0.22222222       0.44444444       0.50000000 </v>
   <v>       0.33333333       0.44444444       0.50000000 </v>
   <v>       0.44444444       0.44444444       0.50000000 </v>
   <v>      -0.44444444       0.44444444       0.50000000 </v>
   <v>      -0.33333333       0.44444444       0.50000000 </v>
   <v>      -0.22222222       0.44444444       0.50000000 </v>
   <v>      -0.11111111       0.44444444       0.50000000 </v>
  </varray>
  <varray name="weights" >
   <v>       0.00617284 </v>
   <v>       0.01234568 </v>
   <v>       0.01234568 </v>
   <v>       0.01234568 </v>
   <v>       0.01234568 </v>
   <v>       0.01234568 </v>
   <v>       0.01234568 </v>
   <v>       0.01234568 </v>
   <v>       0.01234568 </v>
   <v>       0.01234568 </v>
   <v>       0.01234568 </v>
   <v>       0.01234568 </v>
   <v>       0.01234568 </v>
   <v>       0.01234568 </v>
   <v>       0.01234568 </v>
   <v>       0.01234568 </v>
   <v>       0.01234568 </v>
   <v>       0.01234568 </v>
   <v>       0.01234568 </v>
   <v>       0.01234568 </v>
   <v>       0.01234568 </v>
   <v>       0.01234568 </v>
   <v>       0.01234568 </v>
   <v>       0.01234568 </v>
   <v>       0.01234568 </v>
   <v>       0.01234568 </v>
   <v>       0.01234568 </v>
   <v>       0.01234568 </v>
   <v>       0.01234568 </v>
   <v>       0.01234568 </v>
   <v>       0.01234568 </v>
   <v>       0.01234568 </v>
   <v>       0.01234568 </v>
   <v>       0.01234568 </v>
   <v>       0.01234568 </v>
   <v>       0.01234568 </v>
   <v>       0.01234568 </v>
   <v>       0.01234568 </v>
   <v>       0.01234568 </v>
   <v>       0.01234568 </v>
   <v>       0.01234568 </v>
   <v>       0.00617284 </v>
   <v>       0.01234568 </v>
   <v>       0.01234568 </v>
   <v>       0.01234568 </v>
   <v>       0.01234568 </v>
   <v>       0.01234568 </v>
   <v>       0.01234568 </v>
   <v>       0.01234568 </v>
   <v>       0.01234568 </v>
   <v>       0.01234568 </v>
   <v>       0.01234568 </v>
   <v>       0.01234568 </v>
   <v>       0.01234568 </v>
   <v>       0.01234568 </v>
   <v>       0.01234568 </v>
   <v>       0.01234568 </v>
   <v>       0.01234568 </v>
   <v>       0.01234568 </v>
   <v>       0.01234568 </v>
   <v>       0.01234568 </v>
   <v>       0.01234568 </v>
   <v>       0.01234568 </v>
   <v>       0.01234568 </v>
   <v>       0.01234568 </v>
   <v>       0.01234568 </v>
   <v>       0.01234568 </v>
   <v>       0.01234568 </v>
   <v>       0.01234568 </v>
   <v>       0.01234568 </v>
   <v>       0.01234568 </v>
   <v>       0.01234568 </v>
   <v>       0.01234568 </v>
   <v>       0.01234568 </v>
   <v>       0.01234568 </v>
   <v>       0.01234568 </v>
   <v>       0.01234568 </v>
   <v>       0.01234568 </v>
   <v>       0.01234568 </v>
   <v>       0.01234568 </v>
   <v>       0.01234568 </v>
   <v>       0.01234568 </v>
  </varray>
 </kpoints>
 <parameters>
  <separator name="general" >
   <i type="string" name="SYSTEM">TS</i>
   <i type="logical" name="LCOMPAT"> F  </i>
  </separator>
  <separator name="electronic" >
   <i type="string" name="PREC">normal</i>
   <i name="ENMAX">    500.00000000</i>
   <i name="ENAUG">    605.39200000</i>
   <i name="EDIFF">      0.00000010</i>
   <i type="int" name="IALGO">    38</i>
   <i type="int" name="IWAVPR">    11</i>
   <i type="int" name="NBANDS">   110</i>
   <i name="NELECT">    182.00000000</i>
   <i type="int" name="TURBO">     0</i>
   <i type="int" name="IRESTART">     0</i>
   <i type="int" name="NREBOOT">     0</i>
   <i type="int" name="NMIN">     0</i>
   <i name="EREF">      0.00000000</i>
   <separator name="electronic smearing" >
    <i type="int" name="ISMEAR">     0</i>
    <i name="SIGMA">      0.01000000</i>
    <i name="KSPACING">      0.50000000</i>
    <i type="logical" name="KGAMMA"> T  </i>
   </separator>
   <separator name="electronic projectors" >
    <i type="logical" name="LREAL"> T  </i>
    <v name="ROPT">     -0.00050000     -0.00050000</v>
    <i type="int" name="LMAXPAW">  -100</i>
    <i type="int" name="LMAXMIX">     2</i>
    <i type="logical" name="NLSPLINE"> F  </i>
   </separator>
   <separator name="electronic startup" >
    <i type="int" name="ISTART">     0</i>
    <i type="int" name="ICHARG">     2</i>
    <i type="int" name="INIWAV">     1</i>
   </separator>
   <separator name="electronic spin" >
    <i type="int" name="ISPIN">     1</i>
    <i type="logical" name="LNONCOLLINEAR"> F  </i>
    <v name="MAGMOM">      1.00000000      1.00000000      1.00000000      1.00000000      1.00000000      1.00000000      1.00000000      1.00000000      1.00000000      1.00000000      1.00000000      1.00000000      1.00000000      1.00000000      1.00000000      1.00000000      1.00000000</v>
    <i name="NUPDOWN">     -1.00000000</i>
    <i type="logical" name="LSORBIT"> F  </i>
    <v name="SAXIS">      0.00000000      0.00000000      1.00000000</v>
    <i type="logical" name="LSPIRAL"> F  </i>
    <v name="QSPIRAL">      0.00000000      0.00000000      0.00000000</v>
    <i type="logical" name="LZEROZ"> F  </i>
   </separator>
   <separator name="electronic exchange-correlation" >
    <i type="logical" name="LASPH"> F  </i>
    <i type="logical" name="LMETAGGA"> F  </i>
   </separator>
   <separator name="electronic convergence" >
    <i type="int" name="NELM">    60</i>
    <i type="int" name="NELMDL">    -5</i>
    <i type="int" name="NELMIN">     2</i>
    <i name="ENINI">    500.00000000</i>
    <separator name="electronic convergence detail" >
     <i type="logical" name="LDIAG"> T  </i>
     <i type="logical" name="LSUBROT"> F  </i>
     <i name="WEIMIN">      0.00100000</i>
     <i name="EBREAK">      0.00000000</i>
     <i name="DEPER">      0.30000000</i>
     <i type="int" name="NRMM">     4</i>
     <i name="TIME">      0.40000000</i>
    </separator>
   </separator>
   <separator name="electronic mixer" >
    <i name="AMIX">      0.40000000</i>
    <i name="BMIX">      1.00000000</i>
    <i name="AMIN">      0.10000000</i>
    <i name="AMIX_MAG">      1.60000000</i>
    <i name="BMIX_MAG">      1.00000000</i>
    <separator name="electronic mixer details" >
     <i type="int" name="IMIX">     4</i>
     <i type="logical" name="MIXFIRST"> F  </i>
     <i type="int" name="MAXMIX">   -45</i>
     <i name="WC">    100.00000000</i>
     <i type="int" name="INIMIX">     1</i>
     <i type="int" name="MIXPRE">     1</i>
     <i type="int" name="MREMOVE">     5</i>
    </separator>
   </separator>
   <separator name="electronic dipolcorrection" >
    <i type="logical" name="LDIPOL"> F  </i>
    <i type="logical" name="LMONO"> F  </i>
    <i type="int" name="IDIPOL">     0</i>
    <i name="EPSILON">      1.00000000</i>
    <v name="DIPOL">   -100.00000000   -100.00000000   -100.00000000</v>
    <i name="EFIELD">      0.00000000</i>
   </separator>
  </separator>
  <separator name="grids" >
   <i type="int" name="NGX">    28</i>
   <i type="int" name="NGY">    28</i>
   <i type="int" name="NGZ">    84</i>
   <i type="int" name="NGXF">    56</i>
   <i type="int" name="NGYF">    56</i>
   <i type="int" name="NGZF">   168</i>
   <i type="logical" name="ADDGRID"> F  </i>
  </separator>
  <separator name="ionic" >
   <i type="int" name="NSW">   600</i>
   <i type="int" name="IBRION">     2</i>
   <i type="int" name="MDALGO">     0</i>
   <i type="int" name="ISIF">     2</i>
   <i name="PSTRESS">      0.00000000</i>
   <i name="EDIFFG">      0.00000100</i>
   <i type="int" name="NFREE">     1</i>
   <i name="POTIM">      0.50000000</i>
   <i name="SMASS">     -3.00000000</i>
   <i name="SCALEE">      1.00000000</i>
  </separator>
  <separator name="ionic md" >
   <i name="TEBEG">      0.00010000</i>
   <i name="TEEND">      0.00010000</i>
   <i type="int" name="NBLOCK">     1</i>
   <i type="int" name="KBLOCK">   600</i>
   <i type="int" name="NPACO">   256</i>
   <i name="APACO">     16.00000000</i>
  </separator>
  <separator name="symmetry" >
   <i type="int" name="ISYM">     0</i>
   <i name="SYMPREC">      0.00001000</i>
  </separator>
  <separator name="dos" >
   <i type="int" name="LORBIT">     0</i>
   <v name="RWIGS">     -1.00000000     -1.00000000</v>
   <i type="int" name="NEDOS">   301</i>
   <i name="EMIN">     10.00000000</i>
   <i name="EMAX">    -10.00000000</i>
   <i name="EFERMI">      0.00000000</i>
  </separator>
  <separator name="writing" >
   <i type="int" name="NWRITE">     2</i>
   <i type="logical" name="LWAVE"> F  </i>
   <i type="logical" name="LDOWNSAMPLE"> F  </i>
   <i type="logical" name="LCHARG"> F  </i>
   <i type="logical" name="LPARD"> F  </i>
   <i type="logical" name="LVTOT"> F  </i>
   <i type="logical" name="LVHAR"> F  </i>
   <i type="logical" name="LELF"> F  </i>
   <i type="logical" name="LOPTICS"> F  </i>
   <v name="STM">      0.00000000      0.00000000      0.00000000      0.00000000      0.00000000      0.00000000      0.00000000</v>
  </separator>
  <separator name="performance" >
   <i type="int" name="NPAR">     5</i>
   <i type="int" name="NSIM">     4</i>
   <i type="int" name="NBLK">    -1</i>
   <i type="logical" name="LPLANE"> T  </i>
   <i type="logical" name="LSCALAPACK"> T  </i>
   <i type="logical" name="LSCAAWARE"> F  </i>
   <i type="logical" name="LSCALU"> F  </i>
   <i type="logical" name="LASYNC"> F  </i>
   <i type="logical" name="LORBITALREAL"> F  </i>
  </separator>
  <separator name="miscellaneous" >
   <i type="int" name="IDIOT">     3</i>
   <i type="int" name="ISPECIAL">     0</i>
   <i type="logical" name="LMUSIC"> F  </i>
   <v name="POMASS">     63.54600000     16.00000000</v>
   <v name="DARWINR">      0.00000000      0.00000000</v>
   <v name="DARWINV">      1.00000000      1.00000000</v>
   <i type="logical" name="LCORR"> T  </i>
  </separator>
  <i type="logical" name="GGA_COMPAT"> T  </i>
  <i type="logical" name="LBERRY"> F  </i>
  <i type="int" name="ICORELEVEL">     0</i>
  <i type="logical" name="LDAU"> F  </i>
  <i type="int" name="I_CONSTRAINED_M">     0</i>
  <separator name="electronic exchange-correlation" >
   <i type="string" name="GGA">--</i>
   <i type="int" name="VOSKOWN">     0</i>
   <i type="logical" name="LHFCALC"> F  </i>
   <i type="string" name="PRECFOCK"></i>
   <i type="logical" name="LSYMGRAD"> F  </i>
   <i type="logical" name="LHFONE"> F  </i>
   <i type="logical" name="LRHFCALC"> F  </i>
   <i type="logical" name="LTHOMAS"> F  </i>
   <i type="logical" name="LMODELHF"> F  </i>
   <i name="ENCUT4O">     -1.00000000</i>
   <i type="int" name="EXXOEP">     0</i>
   <i type="int" name="FOURORBIT">     0</i>
   <i name="AEXX">      0.00000000</i>
   <i name="HFALPHA">      0.00000000</i>
   <i name="MCALPHA">      0.00000000</i>
   <i name="ALDAX">      1.00000000</i>
   <i name="AGGAX">      1.00000000</i>
   <i name="ALDAC">      1.00000000</i>
   <i name="AGGAC">      1.00000000</i>
   <i type="int" name="NKREDX">     1</i>
   <i type="int" name="NKREDY">     1</i>
   <i type="int" name="NKREDZ">     1</i>
   <i type="logical" name="SHIFTRED"> F  </i>
   <i type="logical" name="ODDONLY"> F  </i>
   <i type="logical" name="EVENONLY"> F  </i>
   <i type="int" name="LMAXFOCK">     0</i>
   <i type="int" name="NMAXFOCKAE">     0</i>
   <i type="logical" name="LFOCKAEDFT"> F  </i>
   <i name="HFSCREEN">      0.00000000</i>
   <i name="HFSCREENC">      0.00000000</i>
   <i type="int" name="NBANDSGWLOW">     0</i>
  </separator>
  <separator name="vdW DFT" >
   <i type="logical" name="LUSE_VDW"> F  </i>
   <i name="Zab_VDW">     -0.84910000</i>
   <i name="PARAM1">      0.12340000</i>
   <i name="PARAM2">      1.00000000</i>
   <i name="PARAM3">      0.00000000</i>
  </separator>
  <separator name="model GW" >
   <i type="int" name="MODEL_GW">     0</i>
   <i name="MODEL_EPS0">     11.98115630</i>
   <i name="MODEL_ALPHA">      1.00000000</i>
  </separator>
  <separator name="linear response parameters" >
   <i type="logical" name="LEPSILON"> F  </i>
   <i type="logical" name="LRPA"> F  </i>
   <i type="logical" name="LNABLA"> F  </i>
   <i type="logical" name="LVEL"> F  </i>
   <i type="int" name="KINTER">     0</i>
   <i name="CSHIFT">      0.10000000</i>
   <i name="OMEGAMAX">     -1.00000000</i>
   <i name="DEG_THRESHOLD">      0.00200000</i>
   <i name="RTIME">     -0.10000000</i>
   <i name="WPLASMAI">      0.00000000</i>
   <v name="DFIELD">      0.00000000      0.00000000      0.00000000</v>
   <v name="WPLASMA">      0.00000000      0.00000000      0.00000000      0.00000000      0.00000000      0.00000000      0.00000000      0.00000000      0.00000000</v>
  </separator>
  <separator name="orbital magnetization" >
   <i type="logical" name="NUCIND"> F  </i>
   <v name="MAGPOS">      0.00000000      0.00000000      0.00000000</v>
   <i type="logical" name="LNICSALL"> T  </i>
   <i type="logical" name="ORBITALMAG"> F  </i>
   <i type="logical" name="LMAGBLOCH"> F  </i>
   <i type="logical" name="LCHIMAG"> F  </i>
   <i type="logical" name="LGAUGE"> T  </i>
   <i type="int" name="MAGATOM">     0</i>
   <v name="MAGDIPOL">      0.00000000      0.00000000      0.00000000</v>
   <v name="AVECCONST">      0.00000000      0.00000000      0.00000000</v>
  </separator>
  <separator name="response functions" >
   <i type="logical" name="LADDER"> F  </i>
   <i type="logical" name="LRPAFORCE"> F  </i>
   <i type="logical" name="LFXC"> F  </i>
   <i type="logical" name="LHARTREE"> T  </i>
   <i type="int" name="IBSE">     0</i>
   <v type="int" name="KPOINT">    -1     0     0     0</v>
   <i type="logical" name="LTCTE"> F  </i>
   <i type="logical" name="LTETE"> F  </i>
   <i type="logical" name="LTRIPLET"> F  </i>
   <i type="logical" name="LFXCEPS"> F  </i>
   <i type="logical" name="LFXHEG"> F  </i>
   <i type="int" name="NATURALO">     2</i>
   <i type="logical" name="L2ORDER"> F  </i>
   <i type="logical" name="LMP2LT"> F  </i>
   <i type="logical" name="LUSEW"> F  </i>
   <i name="ENCUTGW">     -2.00000000</i>
   <i name="ENCUTGWSOFT">     -2.00000000</i>
   <i name="ENCUTLF">     -1.00000000</i>
   <i type="int" name="LMAXMP2">    -1</i>
   <i name="SCISSOR">      0.00000000</i>
   <i type="int" name="NOMEGA">     0</i>
   <i type="int" name="NOMEGAR">     0</i>
   <i type="int" name="NBANDSGW">    -1</i>
   <i type="int" name="NBANDSO">    -1</i>
   <i type="int" name="NBANDSV">    -1</i>
   <i type="int" name="NELM">     1</i>
   <i type="int" name="NELMHF">     1</i>
   <i type="int" name="DIM">     3</i>
   <i type="int" name="ANTIRES">     0</i>
   <i name="OMEGAMAX">    -30.00000000</i>
   <i name="OMEGAMIN">    -30.00000000</i>
   <i name="OMEGATL">   -200.00000000</i>
   <i type="int" name="OMEGAGRID">   140</i>
   <i name="CSHIFT">     -0.10000000</i>
   <i type="logical" name="SELFENERGY"> F  </i>
   <i type="logical" name="LSPECTRAL"> F  </i>
   <i type="logical" name="LSPECTRALGW"> F  </i>
   <i type="logical" name="LSINGLES"> F  </i>
   <i type="logical" name="LFERMIGW"> F  </i>
   <i type="logical" name="ODDONLYGW"> F  </i>
   <i type="logical" name="EVENONLYGW"> F  </i>
   <i type="int" name="NKREDLFX">     1</i>
   <i type="int" name="NKREDLFY">     1</i>
   <i type="int" name="NKREDLFZ">     1</i>
   <i type="int" name="MAXMEM">  2800</i>
   <i type="int" name="TELESCOPE">     0</i>
   <i type="int" name="TAUPAR">     1</i>
   <i type="int" name="OMEGAPAR">    -1</i>
   <i name="LAMBDA">      1.00000000</i>
  </separator>
  <separator name="External order field" >
   <i name="OFIELD_KAPPA">      0.00000000</i>
   <v name="OFIELD_K">      0.00000000      0.00000000      0.00000000</v>
   <i name="OFIELD_Q6_NEAR">      0.00000000</i>
   <i name="OFIELD_Q6_FAR">      0.00000000</i>
   <i name="OFIELD_A">      0.00000000</i>
  </separator>
  <separator name="solvation model" >
   <i type="logical" name="LSOL"> F  </i>
  </separator>
 </parameters>
 <atominfo>
  <atoms>      17 </atoms>
  <types>       2 </types>
  <array name="atoms" >
   <dimension dim="1">ion</dimension>
   <field type="string">element</field>
   <field type="int">atomtype</field>
   <set>
    <rc><c>Cu</c><c>   1</c></rc>
    <rc><c>Cu</c><c>   1</c></rc>
    <rc><c>Cu</c><c>   1</c></rc>
    <rc><c>Cu</c><c>   1</c></rc>
    <rc><c>Cu</c><c>   1</c></rc>
    <rc><c>Cu</c><c>   1</c></rc>
    <rc><c>Cu</c><c>   1</c></rc>
    <rc><c>Cu</c><c>   1</c></rc>
    <rc><c>Cu</c><c>   1</c></rc>
    <rc><c>Cu</c><c>   1</c></rc>
    <rc><c>Cu</c><c>   1</c></rc>
    <rc><c>Cu</c><c>   1</c></rc>
    <rc><c>Cu</c><c>   1</c></rc>
    <rc><c>Cu</c><c>   1</c></rc>
    <rc><c>Cu</c><c>   1</c></rc>
    <rc><c>Cu</c><c>   1</c></rc>
    <rc><c>O </c><c>   2</c></rc>
   </set>
  </array>
  <array name="atomtypes" >
   <dimension dim="1">type</dimension>
   <field type="int">atomspertype</field>
   <field type="string">element</field>
   <field>mass</field>
   <field>valence</field>
   <field type="string">pseudopotential</field>
   <set>
    <rc><c>  16</c><c>Cu</c><c>     63.54600000</c><c>     11.00000000</c><c>  PAW_PBE Cu 22Jun2005                  </c></rc>
    <rc><c>   1</c><c>O </c><c>     16.00000000</c><c>      6.00000000</c><c>  PAW_PBE O 08Apr2002                   </c></rc>
   </set>
  </array>
 </atominfo>
 <structure name="initialpos" >
  <crystal>
   <varray name="basis" >
    <v>       4.42708529      -2.55597888       0.00000000 </v>
    <v>       0.00000000       5.11195776       0.00000000 </v>
    <v>       0.00000000       0.00000000      15.00000000 </v>
   </varray>
   <i name="volume">    339.46609504 </i>
   <varray name="rec_basis" >
    <v>       0.22588225       0.00000000       0.00000000 </v>
    <v>       0.11294113       0.19561977       0.00000000 </v>
    <v>       0.00000000       0.00000000       0.06666667 </v>
   </varray>
  </crystal>
  <varray name="positions" >
   <v>       0.00000000       0.00000000       0.00000000 </v>
   <v>       0.83333333       0.66666667       0.28301144 </v>
   <v>       0.51127659       0.50563830       0.42215943 </v>
   <v>       0.50000000       0.50000000       0.00000000 </v>
   <v>       0.16666667       0.83333333       0.13912987 </v>
   <v>       0.33218647       0.66437294       0.27727655 </v>
   <v>       0.99436170       0.50563830       0.42215944 </v>
   <v>       0.66666667       0.83333333       0.13912987 </v>
   <v>       0.00000000       0.50000000       0.00000000 </v>
   <v>       0.83562706       0.16781353       0.27727655 </v>
   <v>       0.50000000       0.00000000       0.40955815 </v>
   <v>       0.50000000       0.00000000       0.00000000 </v>
   <v>       0.16666667       0.33333333       0.13912987 </v>
   <v>       0.33218647       0.16781353       0.27727655 </v>
   <v>       0.99436170       0.98872341       0.42215943 </v>
   <v>       0.66666667       0.33333333       0.13912987 </v>
   <v>       0.16666670       0.33333330       0.49622037 </v>
  </varray>
  <varray name="selective"  type="logical" >
   <v type="logical" >  F  F  F </v>
   <v type="logical" >  T  T  T </v>
   <v type="logical" >  T  T  T </v>
   <v type="logical" >  F  F  F </v>
   <v type="logical" >  F  F  F </v>
   <v type="logical" >  T  T  T </v>
   <v type="logical" >  T  T  T </v>
   <v type="logical" >  F  F  F </v>
   <v type="logical" >  F  F  F </v>
   <v type="logical" >  T  T  T </v>
   <v type="logical" >  T  T  T </v>
   <v type="logical" >  F  F  F </v>
   <v type="logical" >  F  F  F </v>
   <v type="logical" >  T  T  T </v>
   <v type="logical" >  T  T  T </v>
   <v type="logical" >  F  F  F </v>
   <v type="logical" >  T  T  T </v>
  </varray>
  <nose>
   <v>      -3.00000000       0.00000000       0.00010000       0.00010000 </v>
  </nose>
 </structure>
 <calculation>
  <scstep>
   <time name="dav">   11.10   11.10</time>
   <time name="total">   11.12   11.13</time>
   <energy>
    <i name="alphaZ">    582.73103390 </i>
    <i name="ewald">  13957.30554133 </i>
    <i name="hartreedc"> -36439.46579633 </i>
    <i name="XCdc">    756.68144829 </i>
    <i name="pawpsdc">  19997.85603494 </i>
    <i name="pawaedc"> -21693.12362158 </i>
    <i name="eentropy">     -0.00024939 </i>
    <i name="bandstr">   1984.60091025 </i>
    <i name="atom">  22687.98115858 </i>
    <i name="e_fr_energy">   1834.56646001 </i>
    <i name="e_wo_entrp">   1834.56670939 </i>
    <i name="e_0_energy">   1834.56658470 </i>
   </energy>
  </scstep>
  <scstep>
   <time name="dav">   11.03   11.03</time>
   <time name="total">   11.03   11.04</time>
   <energy>
    <i name="e_fr_energy">    244.51282311 </i>
    <i name="e_wo_entrp">    244.51311759 </i>
    <i name="e_0_energy">    244.51297035 </i>
   </energy>
  </scstep>
  <scstep>
   <time name="dav">   12.64   12.64</time>
   <time name="total">   12.64   12.64</time>
   <energy>
    <i name="e_fr_energy">    -48.42479016 </i>
    <i name="e_wo_entrp">    -48.42442675 </i>
    <i name="e_0_energy">    -48.42460846 </i>
   </energy>
  </scstep>
  <scstep>
   <time name="dav">   15.49   15.49</time>
   <time name="total">   15.49   15.50</time>
   <energy>
    <i name="e_fr_energy">    -77.42785271 </i>
    <i name="e_wo_entrp">    -77.42690247 </i>
    <i name="e_0_energy">    -77.42737759 </i>
   </energy>
  </scstep>
  <scstep>
   <time name="dav">   13.25   13.25</time>
   <time name="total">   13.66   13.66</time>
   <energy>
    <i name="e_fr_energy">    -78.54205961 </i>
    <i name="e_wo_entrp">    -78.54097386 </i>
    <i name="e_0_energy">    -78.54151673 </i>
   </energy>
  </scstep>
  <scstep>
   <time name="dav">   12.93   12.93</time>
   <time name="total">   13.35   13.36</time>
   <energy>
    <i name="e_fr_energy">    -70.68002429 </i>
    <i name="e_wo_entrp">    -70.67974379 </i>
    <i name="e_0_energy">    -70.67988404 </i>
   </energy>
  </scstep>
  <scstep>
   <time name="dav">   13.69   13.69</time>
   <time name="total">   14.12   14.12</time>
   <energy>
    <i name="e_fr_energy">    -62.91888257 </i>
    <i name="e_wo_entrp">    -62.91762025 </i>
    <i name="e_0_energy">    -62.91825141 </i>
   </energy>
  </scstep>
  <scstep>
   <time name="dav">   14.26   14.26</time>
   <time name="total">   14.69   14.69</time>
   <energy>
    <i name="e_fr_energy">    -62.69524983 </i>
    <i name="e_wo_entrp">    -62.69461507 </i>
    <i name="e_0_energy">    -62.69493245 </i>
   </energy>
  </scstep>
  <scstep>
   <time name="dav">   14.53   14.53</time>
   <time name="total">   14.96   14.97</time>
   <energy>
    <i name="e_fr_energy">    -62.59150571 </i>
    <i name="e_wo_entrp">    -62.59131409 </i>
    <i name="e_0_energy">    -62.59140990 </i>
   </energy>
  </scstep>
  <scstep>
   <time name="dav">   15.92   15.92</time>
   <time name="total">   16.35   16.35</time>
   <energy>
    <i name="e_fr_energy">    -62.56477797 </i>
    <i name="e_wo_entrp">    -62.56450747 </i>
    <i name="e_0_energy">    -62.56464272 </i>
   </energy>
  </scstep>
  <scstep>
   <time name="dav">   14.10   14.10</time>
   <time name="total">   14.54   14.54</time>
   <energy>
    <i name="e_fr_energy">    -62.54195039 </i>
    <i name="e_wo_entrp">    -62.54167950 </i>
    <i name="e_0_energy">    -62.54181494 </i>
   </energy>
  </scstep>
  <scstep>
   <time name="dav">   15.09   15.09</time>
   <time name="total">   15.52   15.52</time>
   <energy>
    <i name="e_fr_energy">    -62.50298487 </i>
    <i name="e_wo_entrp">    -62.50271442 </i>
    <i name="e_0_energy">    -62.50284964 </i>
   </energy>
  </scstep>
  <scstep>
   <time name="dav">   14.85   14.85</time>
   <time name="total">   15.28   15.29</time>
   <energy>
    <i name="e_fr_energy">    -62.50132088 </i>
    <i name="e_wo_entrp">    -62.50105635 </i>
    <i name="e_0_energy">    -62.50118862 </i>
   </energy>
  </scstep>
  <scstep>
   <time name="dav">   12.95   12.95</time>
   <time name="total">   13.38   13.38</time>
   <energy>
    <i name="e_fr_energy">    -62.49809516 </i>
    <i name="e_wo_entrp">    -62.49783336 </i>
    <i name="e_0_energy">    -62.49796426 </i>
   </energy>
  </scstep>
  <scstep>
   <time name="dav">   14.13   14.13</time>
   <time name="total">   14.56   14.56</time>
   <energy>
    <i name="e_fr_energy">    -62.49831497 </i>
    <i name="e_wo_entrp">    -62.49805328 </i>
    <i name="e_0_energy">    -62.49818413 </i>
   </energy>
  </scstep>
  <scstep>
   <time name="dav">   14.71   14.71</time>
   <time name="total">   15.14   15.14</time>
   <energy>
    <i name="e_fr_energy">    -62.49800171 </i>
    <i name="e_wo_entrp">    -62.49774040 </i>
    <i name="e_0_energy">    -62.49787105 </i>
   </energy>
  </scstep>
  <scstep>
   <time name="dav">   16.30   16.30</time>
   <time name="total">   16.73   16.73</time>
   <energy>
    <i name="e_fr_energy">    -62.49810561 </i>
    <i name="e_wo_entrp">    -62.49784482 </i>
    <i name="e_0_energy">    -62.49797521 </i>
   </energy>
  </scstep>
  <scstep>
   <time name="dav">   14.91   14.91</time>
   <time name="total">   15.34   15.34</time>
   <energy>
    <i name="e_fr_energy">    -62.49803766 </i>
    <i name="e_wo_entrp">    -62.49777674 </i>
    <i name="e_0_energy">    -62.49790720 </i>
   </energy>
  </scstep>
  <scstep>
   <time name="dav">   15.43   15.43</time>
   <time name="total">   15.86   15.86</time>
   <energy>
    <i name="e_fr_energy">    -62.49793294 </i>
    <i name="e_wo_entrp">    -62.49767190 </i>
    <i name="e_0_energy">    -62.49780242 </i>
   </energy>
  </scstep>
  <scstep>
   <time name="dav">   14.60   14.60</time>
   <time name="total">   15.03   15.03</time>
   <energy>
    <i name="e_fr_energy">    -62.49803925 </i>
    <i name="e_wo_entrp">    -62.49777819 </i>
    <i name="e_0_energy">    -62.49790872 </i>
   </energy>
  </scstep>
  <scstep>
   <time name="dav">   13.38   13.38</time>
   <time name="total">   13.82   13.82</time>
   <energy>
    <i name="e_fr_energy">    -62.49808190 </i>
    <i name="e_wo_entrp">    -62.49782075 </i>
    <i name="e_0_energy">    -62.49795133 </i>
   </energy>
  </scstep>
  <scstep>
   <time name="dav">   13.17   13.17</time>
   <time name="total">   13.60   13.60</time>
   <energy>
    <i name="e_fr_energy">    -62.49810352 </i>
    <i name="e_wo_entrp">    -62.49784233 </i>
    <i name="e_0_energy">    -62.49797293 </i>
   </energy>
  </scstep>
  <scstep>
   <time name="dav">   12.92   12.92</time>
   <time name="total">   13.35   13.36</time>
   <energy>
    <i name="e_fr_energy">    -62.49812718 </i>
    <i name="e_wo_entrp">    -62.49786596 </i>
    <i name="e_0_energy">    -62.49799657 </i>
   </energy>
  </scstep>
  <scstep>
   <time name="dav">   13.93   13.93</time>
   <time name="total">   14.36   14.36</time>
   <energy>
    <i name="e_fr_energy">    -62.49813469 </i>
    <i name="e_wo_entrp">    -62.49787346 </i>
    <i name="e_0_energy">    -62.49800408 </i>
   </energy>
  </scstep>
  <scstep>
   <time name="dav">   15.72   15.72</time>
   <time name="total">   16.14   16.15</time>
   <energy>
    <i name="e_fr_energy">    -62.49814172 </i>
    <i name="e_wo_entrp">    -62.49788050 </i>
    <i name="e_0_energy">    -62.49801111 </i>
   </energy>
  </scstep>
  <scstep>
   <time name="dav">   13.71   13.71</time>
   <time name="total">   14.28   14.28</time>
   <energy>
    <i name="e_fr_energy">    -62.49814405 </i>
    <i name="e_wo_entrp">    -62.49788282 </i>
    <i name="e_0_energy">    -62.49801344 </i>
   </energy>
  </scstep>
  <scstep>
   <time name="dav">    9.56    9.56</time>
   <time name="total">    9.99    9.99</time>
   <energy>
    <i name="e_fr_energy">    -62.49814420 </i>
    <i name="e_wo_entrp">    -62.49788296 </i>
    <i name="e_0_energy">    -62.49801358 </i>
   </energy>
  </scstep>
  <scstep>
   <time name="dav">   10.67   10.67</time>
   <time name="total">   10.70   10.70</time>
   <energy>
    <i name="alphaZ">    582.73103390 </i>
    <i name="ewald">  13957.30554133 </i>
    <i name="hartreedc"> -36141.66364071 </i>
    <i name="XCdc">    740.95840606 </i>
    <i name="pawpsdc">  21386.13266243 </i>
    <i name="pawaedc"> -23112.96004415 </i>
    <i name="eentropy">     -0.00026124 </i>
    <i name="bandstr">   -162.98300043 </i>
    <i name="atom">  22687.98115858 </i>
    <i name="e_fr_energy">    -62.49814424 </i>
    <i name="e_wo_entrp">    -62.49788299 </i>
    <i name="e_0_energy">    -62.49801361 </i>
   </energy>
  </scstep>
  <structure>
   <crystal>
    <varray name="basis" >
     <v>       4.42708529      -2.55597888       0.00000000 </v>
     <v>       0.00000000       5.11195776       0.00000000 </v>
     <v>       0.00000000       0.00000000      15.00000000 </v>
    </varray>
    <i name="volume">    339.46609504 </i>
    <varray name="rec_basis" >
     <v>       0.22588225       0.00000000       0.00000000 </v>
     <v>       0.11294113       0.19561977       0.00000000 </v>
     <v>       0.00000000       0.00000000       0.06666667 </v>
    </varray>
   </crystal>
   <varray name="positions" >
    <v>       0.00000000       0.00000000       0.00000000 </v>
    <v>       0.83333333       0.66666667       0.28301144 </v>
    <v>       0.51127659       0.50563830       0.42215943 </v>
    <v>       0.50000000       0.50000000       0.00000000 </v>
    <v>       0.16666667       0.83333333       0.13912987 </v>
    <v>       0.33218647       0.66437294       0.27727655 </v>
    <v>       0.99436170       0.50563830       0.42215944 </v>
    <v>       0.66666667       0.83333333       0.13912987 </v>
    <v>       0.00000000       0.50000000       0.00000000 </v>
    <v>       0.83562706       0.16781353       0.27727655 </v>
    <v>       0.50000000       0.00000000       0.40955815 </v>
    <v>       0.50000000       0.00000000       0.00000000 </v>
    <v>       0.16666667       0.33333333       0.13912987 </v>
    <v>       0.33218647       0.16781353       0.27727655 </v>
    <v>       0.99436170       0.98872341       0.42215943 </v>
    <v>       0.66666667       0.33333333       0.13912987 </v>
    <v>       0.16666670       0.33333330       0.49622037 </v>
   </varray>
  </structure>
  <varray name="forces" >
   <v>      -0.01932578      -0.03328595       0.01479596 </v>
   <v>      -0.00006203      -0.00000249      -0.01526901 </v>
   <v>      -0.00188735      -0.00004150      -0.01836969 </v>
   <v>       0.03849792       0.00009747       0.01479779 </v>
   <v>      -0.10008816      -0.00002138       0.01081826 </v>
   <v>       0.00394722       0.00679487      -0.02018776 </v>
   <v>       0.00089824      -0.00155578      -0.01836760 </v>
   <v>       0.05007309      -0.08671909       0.01076568 </v>
   <v>      -0.01920241       0.03326714       0.01480082 </v>
   <v>      -0.00779018      -0.00002188      -0.02014417 </v>
   <v>       0.00003211       0.00001480      -0.00340692 </v>
   <v>       0.00000392       0.00000351       0.08726465 </v>
   <v>       0.00001708      -0.00002106      -0.04248165 </v>
   <v>       0.00385955      -0.00668729      -0.02015583 </v>
   <v>       0.00095832       0.00157064      -0.01837625 </v>
   <v>       0.05007109       0.08667272       0.01081807 </v>
   <v>      -0.00000262      -0.00006473       0.01269764 </v>
  </varray>
  <varray name="stress" >
   <v>       2.79255045      -0.01752851       0.00025710 </v>
   <v>      -0.01752856       2.81282459      -0.00037742 </v>
   <v>       0.00025702      -0.00037748      -4.37978832 </v>
  </varray>
  <energy>
   <i name="e_fr_energy">    -62.49814424 </i>
   <i name="e_wo_entrp">    -62.49801361 </i>
   <i name="e_0_energy">     -0.00026124 </i>
  </energy>
  <time name="totalsc">  406.41  406.45</time>
 </calculation>
 <calculation>
  <scstep>
   <time name="dav">   11.54   11.54</time>
   <time name="total">   11.97   11.97</time>
   <energy>
    <i name="alphaZ">    582.73103390 </i>
    <i name="ewald">  13965.54254699 </i>
    <i name="hartreedc"> -36149.91102293 </i>
    <i name="XCdc">    740.95944219 </i>
    <i name="pawpsdc">  21386.12938901 </i>
    <i name="pawaedc"> -23112.95697730 </i>
    <i name="eentropy">     -0.00026141 </i>
    <i name="bandstr">   -162.97349945 </i>
    <i name="atom">  22687.98115858 </i>
    <i name="e_fr_energy">    -62.49819043 </i>
    <i name="e_wo_entrp">    -62.49792901 </i>
    <i name="e_0_energy">    -62.49805972 </i>
   </energy>
  </scstep>
  <scstep>
   <time name="dav">   15.59   15.59</time>
   <time name="total">   16.02   16.02</time>
   <energy>
    <i name="e_fr_energy">    -62.49826431 </i>
    <i name="e_wo_entrp">    -62.49800287 </i>
    <i name="e_0_energy">    -62.49813359 </i>
   </energy>
  </scstep>
  <scstep>
   <time name="dav">   12.95   12.95</time>
   <time name="total">   13.38   13.38</time>
   <energy>
    <i name="e_fr_energy">    -62.49826357 </i>
    <i name="e_wo_entrp">    -62.49800215 </i>
    <i name="e_0_energy">    -62.49813286 </i>
   </energy>
  </scstep>
  <scstep>
   <time name="dav">   14.34   14.34</time>
   <time name="total">   14.77   14.77</time>
   <energy>
    <i name="e_fr_energy">    -62.49826238 </i>
    <i name="e_wo_entrp">    -62.49800095 </i>
    <i name="e_0_energy">    -62.49813167 </i>
   </energy>
  </scstep>
  <scstep>
   <time name="dav">   18.92   18.92</time>
   <time name="total">   19.35   19.35</time>
   <energy>
    <i name="e_fr_energy">    -62.49826079 </i>
    <i name="e_wo_entrp">    -62.49799937 </i>
    <i name="e_0_energy">    -62.49813008 </i>
   </energy>
  </scstep>
  <scstep>
   <time name="dav">   14.54   14.54</time>
   <time name="total">   14.97   14.97</time>
   <energy>
    <i name="e_fr_energy">    -62.49826040 </i>
    <i name="e_wo_entrp">    -62.49799898 </i>
    <i name="e_0_energy">    -62.49812969 </i>
   </energy>
  </scstep>
  <scstep>
   <time name="dav">   13.34   13.34</time>
   <time name="total">   13.37   13.37</time>
   <energy>
    <i name="alphaZ">    582.73103390 </i>
    <i name="ewald">  13965.54254699 </i>
    <i name="hartreedc"> -36149.83189944 </i>
    <i name="XCdc">    740.95842045 </i>
    <i name="pawpsdc">  21385.98174699 </i>
    <i name="pawaedc"> -23112.80886520 </i>
    <i name="eentropy">     -0.00026142 </i>
    <i name="bandstr">   -163.05214124 </i>
    <i name="atom">  22687.98115858 </i>
    <i name="e_fr_energy">    -62.49826040 </i>
    <i name="e_wo_entrp">    -62.49799898 </i>
    <i name="e_0_energy">    -62.49812969 </i>
   </energy>
  </scstep>
  <structure>
   <crystal>
    <varray name="basis" >
     <v>       4.42708529      -2.55597888       0.00000000 </v>
     <v>       0.00000000       5.11195776       0.00000000 </v>
     <v>       0.00000000       0.00000000      15.00000000 </v>
    </varray>
    <i name="volume">    339.46609504 </i>
    <varray name="rec_basis" >
     <v>       0.22588225       0.00000000       0.00000000 </v>
     <v>       0.11294113       0.19561977       0.00000000 </v>
     <v>       0.00000000       0.00000000       0.06666667 </v>
    </varray>
   </crystal>
   <varray name="positions" >
    <v>       0.00000000       0.00000000       0.00000000 </v>
    <v>       0.83333266       0.66666631       0.28296233 </v>
    <v>       0.51125603       0.50562763       0.42210035 </v>
    <v>       0.50000000       0.50000000       0.00000000 </v>
    <v>       0.16666667       0.83333333       0.13912987 </v>
    <v>       0.33222949       0.66445858       0.27721162 </v>
    <v>       0.99437149       0.50562851       0.42210036 </v>
    <v>       0.66666667       0.83333333       0.13912987 </v>
    <v>       0.00000000       0.50000000       0.00000000 </v>
    <v>       0.83554217       0.16777088       0.27721176 </v>
    <v>       0.50000035       0.00000032       0.40954720 </v>
    <v>       0.50000000       0.00000000       0.00000000 </v>
    <v>       0.16666667       0.33333333       0.13912987 </v>
    <v>       0.33222853       0.16777145       0.27721172 </v>
    <v>       0.99437214       0.98874345       0.42210033 </v>
    <v>       0.66666667       0.33333333       0.13912987 </v>
    <v>       0.16666667       0.33333267       0.49626120 </v>
   </varray>
  </structure>
  <varray name="forces" >
   <v>      -0.01934258      -0.03331568       0.01450964 </v>
   <v>      -0.00004120      -0.00000778      -0.01325049 </v>
   <v>      -0.00815453      -0.00002165      -0.01367392 </v>
   <v>       0.03852943       0.00009600       0.01450785 </v>
   <v>      -0.10060580      -0.00002130       0.00695606 </v>
   <v>       0.00193804       0.00335968      -0.01478810 </v>
   <v>       0.00405940      -0.00702866      -0.01366070 </v>
   <v>       0.05033257      -0.08716691       0.00689968 </v>
   <v>      -0.01922089       0.03329695       0.01451160 </v>
   <v>      -0.00382433      -0.00000472      -0.01476252 </v>
   <v>       0.00002782       0.00000423      -0.00541148 </v>
   <v>       0.00000371       0.00000105       0.08683231 </v>
   <v>       0.00001577      -0.00002044      -0.04571379 </v>
   <v>       0.00188411      -0.00327583      -0.01477744 </v>
   <v>       0.00406946       0.00699758      -0.01368517 </v>
   <v>       0.05032778       0.08711598       0.00695753 </v>
   <v>       0.00000121      -0.00000849      -0.00145105 </v>
  </varray>
  <varray name="stress" >
   <v>       2.66506080      -0.01736059       0.00006399 </v>
   <v>      -0.01736081       2.68510495      -0.00014986 </v>
   <v>       0.00006394      -0.00014998      -4.44505754 </v>
  </varray>
  <energy>
   <i name="e_fr_energy">    -62.49826040 </i>
   <i name="e_wo_entrp">    -62.49812969 </i>
   <i name="e_0_energy">     -0.00026142 </i>
  </energy>
  <time name="totalsc">  115.12  115.14</time>
 </calculation>
 <calculation>
  <scstep>
   <time name="dav">   11.37   11.37</time>
   <time name="total">   11.80   11.80</time>
   <energy>
    <i name="alphaZ">    582.73103390 </i>
    <i name="ewald">  13984.86379403 </i>
    <i name="hartreedc"> -36169.17253031 </i>
    <i name="XCdc">    740.96076530 </i>
    <i name="pawpsdc">  21385.98180349 </i>
    <i name="pawaedc"> -23112.80898695 </i>
    <i name="eentropy">     -0.00026199 </i>
    <i name="bandstr">   -163.03476196 </i>
    <i name="atom">  22687.98115858 </i>
    <i name="e_fr_energy">    -62.49798590 </i>
    <i name="e_wo_entrp">    -62.49772391 </i>
    <i name="e_0_energy">    -62.49785491 </i>
   </energy>
  </scstep>
  <scstep>
   <time name="dav">   15.45   15.46</time>
   <time name="total">   15.89   15.89</time>
   <energy>
    <i name="e_fr_energy">    -62.49839314 </i>
    <i name="e_wo_entrp">    -62.49813112 </i>
    <i name="e_0_energy">    -62.49826213 </i>
   </energy>
  </scstep>
  <scstep>
   <time name="dav">   13.13   13.13</time>
   <time name="total">   13.55   13.56</time>
   <energy>
    <i name="e_fr_energy">    -62.49838764 </i>
    <i name="e_wo_entrp">    -62.49812561 </i>
    <i name="e_0_energy">    -62.49825663 </i>
   </energy>
  </scstep>
  <scstep>
   <time name="dav">   13.39   13.39</time>
   <time name="total">   13.82   13.82</time>
   <energy>
    <i name="e_fr_energy">    -62.49838185 </i>
    <i name="e_wo_entrp">    -62.49811987 </i>
    <i name="e_0_energy">    -62.49825086 </i>
   </energy>
  </scstep>
  <scstep>
   <time name="dav">   19.31   19.31</time>
   <time name="total">   19.74   19.74</time>
   <energy>
    <i name="e_fr_energy">    -62.49837408 </i>
    <i name="e_wo_entrp">    -62.49811201 </i>
    <i name="e_0_energy">    -62.49824305 </i>
   </energy>
  </scstep>
  <scstep>
   <time name="dav">   15.35   15.35</time>
   <time name="total">   15.78   15.78</time>
   <energy>
    <i name="e_fr_energy">    -62.49837083 </i>
    <i name="e_wo_entrp">    -62.49810888 </i>
    <i name="e_0_energy">    -62.49823986 </i>
   </energy>
  </scstep>
  <scstep>
   <time name="dav">   15.92   15.92</time>
   <time name="total">   16.36   16.36</time>
   <energy>
    <i name="e_fr_energy">    -62.49837095 </i>
    <i name="e_wo_entrp">    -62.49810899 </i>
    <i name="e_0_energy">    -62.49823997 </i>
   </energy>
  </scstep>
  <scstep>
   <time name="dav">   12.16   12.16</time>
   <time name="total">   12.18   12.19</time>
   <energy>
    <i name="alphaZ">    582.73103390 </i>
    <i name="ewald">  13984.86379403 </i>
    <i name="hartreedc"> -36168.95764118 </i>
    <i name="XCdc">    740.95759470 </i>
    <i name="pawpsdc">  21385.64781690 </i>
    <i name="pawaedc"> -23112.47076630 </i>
    <i name="eentropy">     -0.00026196 </i>
    <i name="bandstr">   -163.25109963 </i>
    <i name="atom">  22687.98115858 </i>
    <i name="e_fr_energy">    -62.49837096 </i>
    <i name="e_wo_entrp">    -62.49810900 </i>
    <i name="e_0_energy">    -62.49823998 </i>
   </energy>
  </scstep>
  <structure>
   <crystal>
    <varray name="basis" >
     <v>       4.42708529      -2.55597888       0.00000000 </v>
     <v>       0.00000000       5.11195776       0.00000000 </v>
     <v>       0.00000000       0.00000000      15.00000000 </v>
    </varray>
    <i name="volume">    339.46609504 </i>
    <varray name="rec_basis" >
     <v>       0.22588225       0.00000000       0.00000000 </v>
     <v>       0.11294113       0.19561977       0.00000000 </v>
     <v>       0.00000000       0.00000000       0.06666667 </v>
    </varray>
   </crystal>
   <varray name="positions" >
    <v>       0.00000000       0.00000000       0.00000000 </v>
    <v>       0.83333107       0.66666546       0.28284721 </v>
    <v>       0.51120781       0.50560260       0.42196185 </v>
    <v>       0.50000000       0.50000000       0.00000000 </v>
    <v>       0.16666667       0.83333333       0.13912987 </v>
    <v>       0.33233032       0.66465932       0.27705941 </v>
    <v>       0.99439444       0.50560556       0.42196188 </v>
    <v>       0.66666667       0.83333333       0.13912987 </v>
    <v>       0.00000000       0.50000000       0.00000000 </v>
    <v>       0.83534316       0.16767089       0.27705988 </v>
    <v>       0.50000117       0.00000106       0.40952151 </v>
    <v>       0.50000000       0.00000000       0.00000000 </v>
    <v>       0.16666667       0.33333333       0.13912987 </v>
    <v>       0.33232713       0.16767280       0.27705975 </v>
    <v>       0.99439662       0.98879044       0.42196178 </v>
    <v>       0.66666667       0.33333333       0.13912987 </v>
    <v>       0.16666660       0.33333121       0.49635694 </v>
   </varray>
  </structure>
  <varray name="forces" >
   <v>      -0.01938454      -0.03339452       0.01388329 </v>
   <v>       0.00000924      -0.00001637      -0.00863865 </v>
   <v>      -0.02261784       0.00002928      -0.00274879 </v>
   <v>       0.03862116       0.00009391       0.01388376 </v>
   <v>      -0.10185438      -0.00001524      -0.00211926 </v>
   <v>      -0.00256967      -0.00433765      -0.00233676 </v>
   <v>       0.01136229      -0.01966323      -0.00269027 </v>
   <v>       0.05096050      -0.08824084      -0.00219623 </v>
   <v>      -0.01927027       0.03338450       0.01388825 </v>
   <v>       0.00507508       0.00004020      -0.00234975 </v>
   <v>       0.00001776      -0.00001662      -0.01001231 </v>
   <v>       0.00000500       0.00000049       0.08582842 </v>
   <v>       0.00001265      -0.00001330      -0.05327019 </v>
   <v>      -0.00254622       0.00437792      -0.00237105 </v>
   <v>       0.01126860       0.01955740      -0.00276377 </v>
   <v>       0.05095007       0.08819236      -0.00211360 </v>
   <v>      -0.00003943       0.00002170      -0.03387309 </v>
  </varray>
  <varray name="stress" >
   <v>       2.50067412      -0.01713820      -0.00018056 </v>
   <v>      -0.01713840       2.52055542       0.00034048 </v>
   <v>      -0.00018057       0.00034038      -4.47775143 </v>
  </varray>
  <energy>
   <i name="e_fr_energy">    -62.49837096 </i>
   <i name="e_wo_entrp">    -62.49823998 </i>
   <i name="e_0_energy">     -0.00026196 </i>
  </energy>
  <time name="totalsc">  130.41  130.43</time>
 </calculation>
 <calculation>
  <scstep>
   <time name="dav">   11.38   11.38</time>
   <time name="total">   11.81   11.81</time>
   <energy>
    <i name="alphaZ">    582.73103390 </i>
    <i name="ewald">  13994.54260821 </i>
    <i name="hartreedc"> -36178.57155663 </i>
    <i name="XCdc">    740.96250066 </i>
    <i name="pawpsdc">  21385.64619766 </i>
    <i name="pawaedc"> -23112.46848747 </i>
    <i name="eentropy">     -0.00026211 </i>
    <i name="bandstr">   -163.32156033 </i>
    <i name="atom">  22687.98115858 </i>
    <i name="e_fr_energy">    -62.49836752 </i>
    <i name="e_wo_entrp">    -62.49810541 </i>
    <i name="e_0_energy">    -62.49823647 </i>
   </energy>
  </scstep>
  <scstep>
   <time name="dav">   15.55   15.55</time>
   <time name="total">   15.98   15.98</time>
   <energy>
    <i name="e_fr_energy">    -62.49844729 </i>
    <i name="e_wo_entrp">    -62.49818516 </i>
    <i name="e_0_energy">    -62.49831622 </i>
   </energy>
  </scstep>
  <scstep>
   <time name="dav">   12.51   12.51</time>
   <time name="total">   12.94   12.94</time>
   <energy>
    <i name="e_fr_energy">    -62.49844764 </i>
    <i name="e_wo_entrp">    -62.49818557 </i>
    <i name="e_0_energy">    -62.49831660 </i>
   </energy>
  </scstep>
  <scstep>
   <time name="dav">   12.84   12.84</time>
   <time name="total">   13.27   13.27</time>
   <energy>
    <i name="e_fr_energy">    -62.49844601 </i>
    <i name="e_wo_entrp">    -62.49818392 </i>
    <i name="e_0_energy">    -62.49831496 </i>
   </energy>
  </scstep>
  <scstep>
   <time name="dav">   18.30   18.30</time>
   <time name="total">   18.73   18.73</time>
   <energy>
    <i name="e_fr_energy">    -62.49844532 </i>
    <i name="e_wo_entrp">    -62.49818326 </i>
    <i name="e_0_energy">    -62.49831429 </i>
   </energy>
  </scstep>
  <scstep>
   <time name="dav">   13.07   13.07</time>
   <time name="total">   13.50   13.50</time>
   <energy>
    <i name="e_fr_energy">    -62.49844504 </i>
    <i name="e_wo_entrp">    -62.49818296 </i>
    <i name="e_0_energy">    -62.49831400 </i>
   </energy>
  </scstep>
  <scstep>
   <time name="dav">   12.34   12.34</time>
   <time name="total">   12.36   12.37</time>
   <energy>
    <i name="alphaZ">    582.73103390 </i>
    <i name="ewald">  13994.54260821 </i>
    <i name="hartreedc"> -36178.56841855 </i>
    <i name="XCdc">    740.96145560 </i>
    <i name="pawpsdc">  21386.30950212 </i>
    <i name="pawaedc"> -23113.14278046 </i>
    <i name="eentropy">     -0.00026208 </i>
    <i name="bandstr">   -163.31274241 </i>
    <i name="atom">  22687.98115858 </i>
    <i name="e_fr_energy">    -62.49844509 </i>
    <i name="e_wo_entrp">    -62.49818301 </i>
    <i name="e_0_energy">    -62.49831405 </i>
   </energy>
  </scstep>
  <structure>
   <crystal>
    <varray name="basis" >
     <v>       4.42708529      -2.55597888       0.00000000 </v>
     <v>       0.00000000       5.11195776       0.00000000 </v>
     <v>       0.00000000       0.00000000      15.00000000 </v>
    </varray>
    <i name="volume">    339.46609504 </i>
    <varray name="rec_basis" >
     <v>       0.22588225       0.00000000       0.00000000 </v>
     <v>       0.11294113       0.19561977       0.00000000 </v>
     <v>       0.00000000       0.00000000       0.06666667 </v>
    </varray>
   </crystal>
   <varray name="positions" >
    <v>       0.00000000       0.00000000       0.00000000 </v>
    <v>       0.83333066       0.66666513       0.28279353 </v>
    <v>       0.51102532       0.50551127       0.42191402 </v>
    <v>       0.50000000       0.50000000       0.00000000 </v>
    <v>       0.16666667       0.83333333       0.13912987 </v>
    <v>       0.33234168       0.66468248       0.27700835 </v>
    <v>       0.99448573       0.50551438       0.42191418 </v>
    <v>       0.66666667       0.83333333       0.13912987 </v>
    <v>       0.00000000       0.50000000       0.00000000 </v>
    <v>       0.83532077       0.16765981       0.27700888 </v>
    <v>       0.50000155       0.00000124       0.40949181 </v>
    <v>       0.50000000       0.00000000       0.00000000 </v>
    <v>       0.16666667       0.33333333       0.13912987 </v>
    <v>       0.33233798       0.16766172       0.27700869 </v>
    <v>       0.99448768       0.98897222       0.42191390 </v>
    <v>       0.66666667       0.33333333       0.13912987 </v>
    <v>       0.16666629       0.33333076       0.49631161 </v>
   </varray>
  </structure>
  <varray name="forces" >
   <v>      -0.01940061      -0.03342668       0.01409974 </v>
   <v>       0.00001587      -0.00001280      -0.00316326 </v>
   <v>      -0.00609205       0.00002706      -0.00726112 </v>
   <v>       0.03865854       0.00009239       0.01410011 </v>
   <v>      -0.10210205      -0.00001364      -0.00483665 </v>
   <v>      -0.00294999      -0.00499643       0.00116797 </v>
   <v>       0.00309351      -0.00534410      -0.00721067 </v>
   <v>       0.05108542      -0.08845323      -0.00491394 </v>
   <v>      -0.01928831       0.03341710       0.01410324 </v>
   <v>       0.00578952       0.00010201       0.00113272 </v>
   <v>       0.00001192      -0.00001383      -0.01116126 </v>
   <v>       0.00000629      -0.00000086       0.08589090 </v>
   <v>       0.00001208      -0.00000970      -0.05605571 </v>
   <v>      -0.00288024       0.00496242       0.00109928 </v>
   <v>       0.00301195       0.00525581      -0.00727698 </v>
   <v>       0.05107350       0.08840547      -0.00482854 </v>
   <v>      -0.00004533       0.00000900      -0.02488581 </v>
  </varray>
  <varray name="stress" >
   <v>       2.55992884      -0.01716698      -0.00018973 </v>
   <v>      -0.01716722       2.57987876       0.00033313 </v>
   <v>      -0.00018963       0.00033311      -4.31546860 </v>
  </varray>
  <energy>
   <i name="e_fr_energy">    -62.49844509 </i>
   <i name="e_wo_entrp">    -62.49831405 </i>
   <i name="e_0_energy">     -0.00026208 </i>
  </energy>
  <time name="totalsc">  109.87  109.89</time>
 </calculation>
 <calculation>
  <scstep>
   <time name="dav">   11.39   11.39</time>
   <time name="total">   11.82   11.82</time>
   <energy>
    <i name="alphaZ">    582.73103390 </i>
    <i name="ewald">  14006.72546891 </i>
    <i name="hartreedc"> -36190.67793015 </i>
    <i name="XCdc">    740.96778922 </i>
    <i name="pawpsdc">  21386.30955739 </i>
    <i name="pawaedc"> -23113.14195471 </i>
    <i name="eentropy">     -0.00026228 </i>
    <i name="bandstr">   -163.39322001 </i>
    <i name="atom">  22687.98115858 </i>
    <i name="e_fr_energy">    -62.49835915 </i>
    <i name="e_wo_entrp">    -62.49809687 </i>
    <i name="e_0_energy">    -62.49822801 </i>
   </energy>
  </scstep>
  <scstep>
   <time name="dav">   15.52   15.52</time>
   <time name="total">   15.95   15.96</time>
   <energy>
    <i name="e_fr_energy">    -62.49848511 </i>
    <i name="e_wo_entrp">    -62.49822278 </i>
    <i name="e_0_energy">    -62.49835394 </i>
   </energy>
  </scstep>
  <scstep>
   <time name="dav">   12.56   12.56</time>
   <time name="total">   12.99   12.99</time>
   <energy>
    <i name="e_fr_energy">    -62.49848578 </i>
    <i name="e_wo_entrp">    -62.49822355 </i>
    <i name="e_0_energy">    -62.49835466 </i>
   </energy>
  </scstep>
  <scstep>
   <time name="dav">   12.88   12.88</time>
   <time name="total">   13.31   13.31</time>
   <energy>
    <i name="e_fr_energy">    -62.49848289 </i>
    <i name="e_wo_entrp">    -62.49822064 </i>
    <i name="e_0_energy">    -62.49835176 </i>
   </energy>
  </scstep>
  <scstep>
   <time name="dav">   17.55   17.55</time>
   <time name="total">   17.98   17.99</time>
   <energy>
    <i name="e_fr_energy">    -62.49848156 </i>
    <i name="e_wo_entrp">    -62.49821934 </i>
    <i name="e_0_energy">    -62.49835045 </i>
   </energy>
  </scstep>
  <scstep>
   <time name="dav">   13.08   13.08</time>
   <time name="total">   13.51   13.51</time>
   <energy>
    <i name="e_fr_energy">    -62.49848116 </i>
    <i name="e_wo_entrp">    -62.49821892 </i>
    <i name="e_0_energy">    -62.49835004 </i>
   </energy>
  </scstep>
  <scstep>
   <time name="dav">   13.09   13.09</time>
   <time name="total">   13.52   13.52</time>
   <energy>
    <i name="e_fr_energy">    -62.49848121 </i>
    <i name="e_wo_entrp">    -62.49821896 </i>
    <i name="e_0_energy">    -62.49835008 </i>
   </energy>
  </scstep>
  <scstep>
   <time name="dav">   10.72   10.72</time>
   <time name="total">   10.74   10.74</time>
   <energy>
    <i name="alphaZ">    582.73103390 </i>
    <i name="ewald">  14006.72546891 </i>
    <i name="hartreedc"> -36190.69750685 </i>
    <i name="XCdc">    740.96661543 </i>
    <i name="pawpsdc">  21387.15635515 </i>
    <i name="pawaedc"> -23114.00260441 </i>
    <i name="eentropy">     -0.00026224 </i>
    <i name="bandstr">   -163.35873967 </i>
    <i name="atom">  22687.98115858 </i>
    <i name="e_fr_energy">    -62.49848120 </i>
    <i name="e_wo_entrp">    -62.49821896 </i>
    <i name="e_0_energy">    -62.49835008 </i>
   </energy>
  </scstep>
  <structure>
   <crystal>
    <varray name="basis" >
     <v>       4.42708529      -2.55597888       0.00000000 </v>
     <v>       0.00000000       5.11195776       0.00000000 </v>
     <v>       0.00000000       0.00000000      15.00000000 </v>
    </varray>
    <i name="volume">    339.46609504 </i>
    <varray name="rec_basis" >
     <v>       0.22588225       0.00000000       0.00000000 </v>
     <v>       0.11294113       0.19561977       0.00000000 </v>
     <v>       0.00000000       0.00000000       0.06666667 </v>
    </varray>
   </crystal>
   <varray name="positions" >
    <v>       0.00000000       0.00000000       0.00000000 </v>
    <v>       0.83333015       0.66666472       0.28272600 </v>
    <v>       0.51079574       0.50539637       0.42185385 </v>
    <v>       0.50000000       0.50000000       0.00000000 </v>
    <v>       0.16666667       0.83333333       0.13912987 </v>
    <v>       0.33235597       0.66471162       0.27694411 </v>
    <v>       0.99460058       0.50539967       0.42185418 </v>
    <v>       0.66666667       0.83333333       0.13912987 </v>
    <v>       0.00000000       0.50000000       0.00000000 </v>
    <v>       0.83529261       0.16764587       0.27694473 </v>
    <v>       0.50000202       0.00000147       0.40945446 </v>
    <v>       0.50000000       0.00000000       0.00000000 </v>
    <v>       0.16666667       0.33333333       0.13912987 </v>
    <v>       0.33235164       0.16764778       0.27694444 </v>
    <v>       0.99460224       0.98920090       0.42185367 </v>
    <v>       0.66666667       0.33333333       0.13912987 </v>
    <v>       0.16666590       0.33333019       0.49625458 </v>
   </varray>
  </structure>
  <varray name="forces" >
   <v>      -0.01941566      -0.03345974       0.01426097 </v>
   <v>       0.00002383      -0.00000709       0.00411026 </v>
   <v>       0.01473020       0.00002604      -0.01277184 </v>
   <v>       0.03869605       0.00008951       0.01426167 </v>
   <v>      -0.10239496      -0.00001119      -0.00823823 </v>
   <v>      -0.00342734      -0.00582251       0.00546166 </v>
   <v>      -0.00732595       0.01269941      -0.01273841 </v>
   <v>       0.05123348      -0.08870490      -0.00831257 </v>
   <v>      -0.01930710       0.03345085       0.01426407 </v>
   <v>       0.00676109       0.00004674       0.00543034 </v>
   <v>       0.00000458      -0.00001064      -0.01275655 </v>
   <v>       0.00000762      -0.00000216       0.08590147 </v>
   <v>       0.00001137      -0.00000537      -0.05957597 </v>
   <v>      -0.00337488       0.00582663       0.00540798 </v>
   <v>      -0.00739326      -0.01276379      -0.01278771 </v>
   <v>       0.05121894       0.08865757      -0.00822694 </v>
   <v>      -0.00004801      -0.00000934      -0.01369019 </v>
  </varray>
  <varray name="stress" >
   <v>       2.73263021      -0.01718659      -0.00018525 </v>
   <v>      -0.01718687       2.75261728       0.00030679 </v>
   <v>      -0.00018529       0.00030686      -4.01287256 </v>
  </varray>
  <energy>
   <i name="e_fr_energy">    -62.49848120 </i>
   <i name="e_wo_entrp">    -62.49835008 </i>
   <i name="e_0_energy">     -0.00026224 </i>
  </energy>
  <time name="totalsc">  121.13  121.15</time>
 </calculation>
 <calculation>
  <scstep>
   <time name="dav">   11.27   11.27</time>
   <time name="total">   11.71   11.71</time>
   <energy>
    <i name="alphaZ">    582.73103390 </i>
    <i name="ewald">  14020.00584295 </i>
    <i name="hartreedc"> -36203.91313936 </i>
    <i name="XCdc">    740.97293034 </i>
    <i name="pawpsdc">  21387.15867307 </i>
    <i name="pawaedc"> -23114.00509270 </i>
    <i name="eentropy">     -0.00026212 </i>
    <i name="bandstr">   -163.42959858 </i>
    <i name="atom">  22687.98115858 </i>
    <i name="e_fr_energy">    -62.49845392 </i>
    <i name="e_wo_entrp">    -62.49819180 </i>
    <i name="e_0_energy">    -62.49832286 </i>
   </energy>
  </scstep>
  <scstep>
   <time name="dav">   14.75   14.75</time>
   <time name="total">   15.18   15.18</time>
   <energy>
    <i name="e_fr_energy">    -62.49854759 </i>
    <i name="e_wo_entrp">    -62.49828553 </i>
    <i name="e_0_energy">    -62.49841656 </i>
   </energy>
  </scstep>
  <scstep>
   <time name="dav">   12.91   12.91</time>
   <time name="total">   13.34   13.35</time>
   <energy>
    <i name="e_fr_energy">    -62.49854563 </i>
    <i name="e_wo_entrp">    -62.49828352 </i>
    <i name="e_0_energy">    -62.49841457 </i>
   </energy>
  </scstep>
  <scstep>
   <time name="dav">   13.82   13.82</time>
   <time name="total">   14.25   14.26</time>
   <energy>
    <i name="e_fr_energy">    -62.49854478 </i>
    <i name="e_wo_entrp">    -62.49828268 </i>
    <i name="e_0_energy">    -62.49841373 </i>
   </energy>
  </scstep>
  <scstep>
   <time name="dav">   15.54   15.54</time>
   <time name="total">   15.97   15.97</time>
   <energy>
    <i name="e_fr_energy">    -62.49854440 </i>
    <i name="e_wo_entrp">    -62.49828228 </i>
    <i name="e_0_energy">    -62.49841334 </i>
   </energy>
  </scstep>
  <scstep>
   <time name="dav">   19.14   19.14</time>
   <time name="total">   19.57   19.57</time>
   <energy>
    <i name="e_fr_energy">    -62.49854409 </i>
    <i name="e_wo_entrp">    -62.49828200 </i>
    <i name="e_0_energy">    -62.49841304 </i>
   </energy>
  </scstep>
  <scstep>
   <time name="dav">   10.71   10.71</time>
   <time name="total">   10.74   10.74</time>
   <energy>
    <i name="alphaZ">    582.73103390 </i>
    <i name="ewald">  14020.00584295 </i>
    <i name="hartreedc"> -36203.90778793 </i>
    <i name="XCdc">    740.97120141 </i>
    <i name="pawpsdc">  21387.89040792 </i>
    <i name="pawaedc"> -23114.74906652 </i>
    <i name="eentropy">     -0.00026211 </i>
    <i name="bandstr">   -163.42107224 </i>
    <i name="atom">  22687.98115858 </i>
    <i name="e_fr_energy">    -62.49854404 </i>
    <i name="e_wo_entrp">    -62.49828193 </i>
    <i name="e_0_energy">    -62.49841299 </i>
   </energy>
  </scstep>
  <structure>
   <crystal>
    <varray name="basis" >
     <v>       4.42708529      -2.55597888       0.00000000 </v>
     <v>       0.00000000       5.11195776       0.00000000 </v>
     <v>       0.00000000       0.00000000      15.00000000 </v>
    </varray>
    <i name="volume">    339.46609504 </i>
    <varray name="rec_basis" >
     <v>       0.22588225       0.00000000       0.00000000 </v>
     <v>       0.11294113       0.19561977       0.00000000 </v>
     <v>       0.00000000       0.00000000       0.06666667 </v>
    </varray>
   </crystal>
   <varray name="positions" >
    <v>       0.00000000       0.00000000       0.00000000 </v>
    <v>       0.83333002       0.66666450       0.28269199 </v>
    <v>       0.51077869       0.50538798       0.42177848 </v>
    <v>       0.50000000       0.50000000       0.00000000 </v>
    <v>       0.16666667       0.83333333       0.13912987 </v>
    <v>       0.33233369       0.66466837       0.27691601 </v>
    <v>       0.99460950       0.50539092       0.42177901 </v>
    <v>       0.66666667       0.83333333       0.13912987 </v>
    <v>       0.00000000       0.50000000       0.00000000 </v>
    <v>       0.83533656       0.16766831       0.27691661 </v>
    <v>       0.50000239       0.00000155       0.40939442 </v>
    <v>       0.50000000       0.00000000       0.00000000 </v>
    <v>       0.16666667       0.33333333       0.13912987 </v>
    <v>       0.33232943       0.16766965       0.27691620 </v>
    <v>       0.99461034       0.98921716       0.42177821 </v>
    <v>       0.66666667       0.33333333       0.13912987 </v>
    <v>       0.16666519       0.33332952       0.49617879 </v>
   </varray>
  </structure>
  <varray name="forces" >
   <v>      -0.01943176      -0.03349017       0.01458398 </v>
   <v>       0.00001387       0.00000754       0.00357170 </v>
   <v>       0.01597343       0.00001274      -0.01063789 </v>
   <v>       0.03873286       0.00008928       0.01458496 </v>
   <v>      -0.10240943      -0.00000932      -0.00942217 </v>
   <v>      -0.00225717      -0.00384570       0.00561244 </v>
   <v>      -0.00798640       0.01383538      -0.01064733 </v>
   <v>       0.05123998      -0.08871419      -0.00948347 </v>
   <v>      -0.01932467       0.03348338       0.01458732 </v>
   <v>       0.00444900       0.00003154       0.00558207 </v>
   <v>      -0.00000090      -0.00000156      -0.01062415 </v>
   <v>       0.00000893      -0.00000255       0.08616972 </v>
   <v>       0.00001161      -0.00000050      -0.06164759 </v>
   <v>      -0.00221675       0.00384003       0.00556999 </v>
   <v>      -0.00800445      -0.01384046      -0.01065581 </v>
   <v>       0.05122595       0.08867142      -0.00940838 </v>
   <v>      -0.00002409      -0.00006685      -0.01773540 </v>
  </varray>
  <varray name="stress" >
   <v>       2.80895422      -0.01724862      -0.00008253 </v>
   <v>      -0.01724888       2.82912943       0.00025222 </v>
   <v>      -0.00008241       0.00025212      -3.82941355 </v>
  </varray>
  <energy>
   <i name="e_fr_energy">    -62.49854404 </i>
   <i name="e_wo_entrp">    -62.49841299 </i>
   <i name="e_0_energy">     -0.00026211 </i>
  </energy>
  <time name="totalsc">  112.10  112.12</time>
 </calculation>
 <calculation>
  <scstep>
   <time name="dav">   11.25   11.25</time>
   <time name="total">   11.69   11.69</time>
   <energy>
    <i name="alphaZ">    582.73103390 </i>
    <i name="ewald">  14059.86916359 </i>
    <i name="hartreedc"> -36243.57359776 </i>
    <i name="XCdc">    740.99014965 </i>
    <i name="pawpsdc">  21387.89061958 </i>
    <i name="pawaedc"> -23114.74962951 </i>
    <i name="eentropy">     -0.00026184 </i>
    <i name="bandstr">   -163.63654564 </i>
    <i name="atom">  22687.98115858 </i>
    <i name="e_fr_energy">    -62.49790946 </i>
    <i name="e_wo_entrp">    -62.49764762 </i>
    <i name="e_0_energy">    -62.49777854 </i>
   </energy>
  </scstep>
  <scstep>
   <time name="dav">   14.80   14.80</time>
   <time name="total">   15.26   15.26</time>
   <energy>
    <i name="e_fr_energy">    -62.49874688 </i>
    <i name="e_wo_entrp">    -62.49848515 </i>
    <i name="e_0_energy">    -62.49861602 </i>
   </energy>
  </scstep>
  <scstep>
   <time name="dav">   12.82   12.82</time>
   <time name="total">   13.28   13.28</time>
   <energy>
    <i name="e_fr_energy">    -62.49872532 </i>
    <i name="e_wo_entrp">    -62.49846352 </i>
    <i name="e_0_energy">    -62.49859442 </i>
   </energy>
  </scstep>
  <scstep>
   <time name="dav">   13.82   13.82</time>
   <time name="total">   14.25   14.25</time>
   <energy>
    <i name="e_fr_energy">    -62.49871669 </i>
    <i name="e_wo_entrp">    -62.49845484 </i>
    <i name="e_0_energy">    -62.49858576 </i>
   </energy>
  </scstep>
  <scstep>
   <time name="dav">   18.89   18.89</time>
   <time name="total">   19.32   19.32</time>
   <energy>
    <i name="e_fr_energy">    -62.49871163 </i>
    <i name="e_wo_entrp">    -62.49844986 </i>
    <i name="e_0_energy">    -62.49858075 </i>
   </energy>
  </scstep>
  <scstep>
   <time name="dav">   16.27   16.27</time>
   <time name="total">   16.70   16.70</time>
   <energy>
    <i name="e_fr_energy">    -62.49871043 </i>
    <i name="e_wo_entrp">    -62.49844857 </i>
    <i name="e_0_energy">    -62.49857950 </i>
   </energy>
  </scstep>
  <scstep>
   <time name="dav">   16.37   16.37</time>
   <time name="total">   16.80   16.80</time>
   <energy>
    <i name="e_fr_energy">    -62.49870953 </i>
    <i name="e_wo_entrp">    -62.49844770 </i>
    <i name="e_0_energy">    -62.49857861 </i>
   </energy>
  </scstep>
  <scstep>
   <time name="dav">   15.83   15.83</time>
   <time name="total">   16.26   16.26</time>
   <energy>
    <i name="e_fr_energy">    -62.49870929 </i>
    <i name="e_wo_entrp">    -62.49844746 </i>
    <i name="e_0_energy">    -62.49857838 </i>
   </energy>
  </scstep>
  <scstep>
   <time name="dav">   12.99   12.99</time>
   <time name="total">   13.01   13.01</time>
   <energy>
    <i name="alphaZ">    582.73103390 </i>
    <i name="ewald">  14059.86916359 </i>
    <i name="hartreedc"> -36243.56633980 </i>
    <i name="XCdc">    740.98504038 </i>
    <i name="pawpsdc">  21390.07898246 </i>
    <i name="pawaedc"> -23116.97537796 </i>
    <i name="eentropy">     -0.00026182 </i>
    <i name="bandstr">   -163.60210855 </i>
    <i name="atom">  22687.98115858 </i>
    <i name="e_fr_energy">    -62.49870922 </i>
    <i name="e_wo_entrp">    -62.49844740 </i>
    <i name="e_0_energy">    -62.49857831 </i>
   </energy>
  </scstep>
  <structure>
   <crystal>
    <varray name="basis" >
     <v>       4.42708529      -2.55597888       0.00000000 </v>
     <v>       0.00000000       5.11195776       0.00000000 </v>
     <v>       0.00000000       0.00000000      15.00000000 </v>
    </varray>
    <i name="volume">    339.46609504 </i>
    <varray name="rec_basis" >
     <v>       0.22588225       0.00000000       0.00000000 </v>
     <v>       0.11294113       0.19561977       0.00000000 </v>
     <v>       0.00000000       0.00000000       0.06666667 </v>
    </varray>
   </crystal>
   <varray name="positions" >
    <v>       0.00000000       0.00000000       0.00000000 </v>
    <v>       0.83332965       0.66666383       0.28258997 </v>
    <v>       0.51072755       0.50536281       0.42155235 </v>
    <v>       0.50000000       0.50000000       0.00000000 </v>
    <v>       0.16666667       0.83333333       0.13912987 </v>
    <v>       0.33226688       0.66453862       0.27683173 </v>
    <v>       0.99463628       0.50536467       0.42155349 </v>
    <v>       0.66666667       0.83333333       0.13912987 </v>
    <v>       0.00000000       0.50000000       0.00000000 </v>
    <v>       0.83546840       0.16773565       0.27683225 </v>
    <v>       0.50000347       0.00000182       0.40921431 </v>
    <v>       0.50000000       0.00000000       0.00000000 </v>
    <v>       0.16666667       0.33333333       0.13912987 </v>
    <v>       0.33226281       0.16773525       0.27683147 </v>
    <v>       0.99463466       0.98926593       0.42155183 </v>
    <v>       0.66666667       0.33333333       0.13912987 </v>
    <v>       0.16666306       0.33332749       0.49595142 </v>
   </varray>
  </structure>
  <varray name="forces" >
   <v>      -0.01947985      -0.03358586       0.01516867 </v>
   <v>      -0.00000966       0.00004422       0.00320570 </v>
   <v>       0.02020112      -0.00002874      -0.00468075 </v>
   <v>       0.03884726       0.00008652       0.01517077 </v>
   <v>      -0.10239473      -0.00000756      -0.01301548 </v>
   <v>       0.00110817       0.00183878       0.00625477 </v>
   <v>      -0.01019609       0.01763903      -0.00477860 </v>
   <v>       0.05123432      -0.08869770      -0.01303912 </v>
   <v>      -0.01938165       0.03358902       0.01517367 </v>
   <v>      -0.00219624      -0.00001281       0.00622932 </v>
   <v>      -0.00001301       0.00002225      -0.00511149 </v>
   <v>       0.00001432      -0.00000562       0.08664011 </v>
   <v>       0.00001341       0.00001269      -0.06799921 </v>
   <v>       0.00111832      -0.00188054       0.00627121 </v>
   <v>      -0.01008662      -0.01750335      -0.00469974 </v>
   <v>       0.05122194       0.08866114      -0.01299489 </v>
   <v>      -0.00000101      -0.00017147      -0.02779494 </v>
  </varray>
  <varray name="stress" >
   <v>       2.96462981      -0.01729930       0.00022295 </v>
   <v>      -0.01729948       2.98518718       0.00006979 </v>
   <v>       0.00022293       0.00006987      -3.34642163 </v>
  </varray>
  <energy>
   <i name="e_fr_energy">    -62.49870922 </i>
   <i name="e_wo_entrp">    -62.49857831 </i>
   <i name="e_0_energy">     -0.00026182 </i>
  </energy>
  <time name="totalsc">  147.89  147.91</time>
 </calculation>
 <calculation>
  <scstep>
   <time name="dav">   11.28   11.28</time>
   <time name="total">   11.71   11.71</time>
   <energy>
    <i name="alphaZ">    582.73103390 </i>
    <i name="ewald">  14139.69568480 </i>
    <i name="hartreedc"> -36322.99655542 </i>
    <i name="XCdc">    741.02313678 </i>
    <i name="pawpsdc">  21390.08314125 </i>
    <i name="pawaedc"> -23116.97973047 </i>
    <i name="eentropy">     -0.00026161 </i>
    <i name="bandstr">   -164.03306752 </i>
    <i name="atom">  22687.98115858 </i>
    <i name="e_fr_energy">    -62.49545971 </i>
    <i name="e_wo_entrp">    -62.49519810 </i>
    <i name="e_0_energy">    -62.49532891 </i>
   </energy>
  </scstep>
  <scstep>
   <time name="dav">   15.02   15.02</time>
   <time name="total">   15.45   15.46</time>
   <energy>
    <i name="e_fr_energy">    -62.49881452 </i>
    <i name="e_wo_entrp">    -62.49855302 </i>
    <i name="e_0_energy">    -62.49868377 </i>
   </energy>
  </scstep>
  <scstep>
   <time name="dav">   12.69   12.69</time>
   <time name="total">   13.12   13.12</time>
   <energy>
    <i name="e_fr_energy">    -62.49873301 </i>
    <i name="e_wo_entrp">    -62.49847158 </i>
    <i name="e_0_energy">    -62.49860230 </i>
   </energy>
  </scstep>
  <scstep>
   <time name="dav">   13.70   13.70</time>
   <time name="total">   14.13   14.14</time>
   <energy>
    <i name="e_fr_energy">    -62.49871105 </i>
    <i name="e_wo_entrp">    -62.49844914 </i>
    <i name="e_0_energy">    -62.49858010 </i>
   </energy>
  </scstep>
  <scstep>
   <time name="dav">   19.42   19.42</time>
   <time name="total">   19.86   19.86</time>
   <energy>
    <i name="e_fr_energy">    -62.49867456 </i>
    <i name="e_wo_entrp">    -62.49841303 </i>
    <i name="e_0_energy">    -62.49854380 </i>
   </energy>
  </scstep>
  <scstep>
   <time name="dav">   18.64   18.64</time>
   <time name="total">   19.07   19.07</time>
   <energy>
    <i name="e_fr_energy">    -62.49865819 </i>
    <i name="e_wo_entrp">    -62.49839658 </i>
    <i name="e_0_energy">    -62.49852738 </i>
   </energy>
  </scstep>
  <scstep>
   <time name="dav">   15.68   15.68</time>
   <time name="total">   16.11   16.11</time>
   <energy>
    <i name="e_fr_energy">    -62.49865670 </i>
    <i name="e_wo_entrp">    -62.49839506 </i>
    <i name="e_0_energy">    -62.49852588 </i>
   </energy>
  </scstep>
  <scstep>
   <time name="dav">   13.83   13.83</time>
   <time name="total">   14.26   14.27</time>
   <energy>
[...]
       <r>   -0.4607    1.0000 </r>
       <r>   -0.4049    1.0000 </r>
       <r>   -0.3660    1.0000 </r>
       <r>   -0.3587    1.0000 </r>
       <r>   -0.3425    1.0000 </r>
       <r>   -0.2924    1.0000 </r>
       <r>   -0.2430    1.0000 </r>
       <r>   -0.2301    1.0000 </r>
       <r>   -0.2107    1.0000 </r>
       <r>   -0.1629    1.0000 </r>
       <r>   -0.1539    1.0000 </r>
       <r>   -0.0504    1.0000 </r>
       <r>   -0.0241    1.0000 </r>
       <r>   -0.0141    1.0000 </r>
       <r>    0.0032    1.0000 </r>
       <r>    0.0258    1.0000 </r>
       <r>    0.0808    1.0000 </r>
       <r>    0.1257    1.0000 </r>
       <r>    0.1512    1.0000 </r>
       <r>    0.1708    1.0000 </r>
       <r>    0.1837    1.0000 </r>
       <r>    0.2166    1.0000 </r>
       <r>    0.2398    1.0000 </r>
       <r>    0.2726    1.0000 </r>
       <r>    0.3011    1.0000 </r>
       <r>    0.3624    1.0000 </r>
       <r>    0.3945    1.0000 </r>
       <r>    0.4098    1.0000 </r>
       <r>    0.4426    1.0000 </r>
       <r>    0.4814    1.0000 </r>
       <r>    0.5146    1.0000 </r>
       <r>    0.5432    1.0000 </r>
       <r>    0.5644    1.0000 </r>
       <r>    0.5901    1.0000 </r>
       <r>    0.6058    1.0000 </r>
       <r>    0.6638    1.0000 </r>
       <r>    0.7568    1.0000 </r>
       <r>    1.0239    1.0000 </r>
       <r>    1.0731    1.0000 </r>
       <r>    1.3314    1.0000 </r>
       <r>    1.5129    1.0000 </r>
       <r>    1.9793    1.0000 </r>
       <r>    2.4050    0.0000 </r>
       <r>    2.9146    0.0000 </r>
       <r>    3.1448    0.0000 </r>
       <r>    3.6278    0.0000 </r>
       <r>    3.9710    0.0000 </r>
       <r>    4.4840    0.0000 </r>
       <r>    4.7547    0.0000 </r>
       <r>    5.6569    0.0000 </r>
       <r>    5.9405    0.0000 </r>
       <r>    6.3793    0.0000 </r>
       <r>    7.0355    0.0000 </r>
       <r>    7.5863    0.0000 </r>
       <r>    7.6818    0.0000 </r>
       <r>    8.3239    0.0000 </r>
       <r>    8.7545    0.0000 </r>
       <r>    8.9975    0.0000 </r>
       <r>    9.1467    0.0000 </r>
       <r>    9.4971    0.0000 </r>
       <r>    9.7900    0.0000 </r>
      </set>
     </set>
    </set>
   </array>
  </eigenvalues>
  <separator name="orbital magnetization" >
   <v name="MAGDIPOLOUT">      0.00000000      0.00000000      0.00000000</v>
  </separator>
  <dos>
   <i name="efermi">      2.16411988 </i>
   <total>
    <array>
     <dimension dim="1">gridpoints</dimension>
     <dimension dim="2">spin</dimension>
     <field>energy</field>
     <field>total</field>
     <field>integrated</field>
     <set>
      <set comment="spin 1">
       <r>   -17.4340     0.0000     0.0000 </r>
       <r>   -17.3380     0.0000     0.0000 </r>
       <r>   -17.2419     0.0000     0.0000 </r>
       <r>   -17.1458     0.0000     0.0000 </r>
       <r>   -17.0497     0.0000     0.0000 </r>
       <r>   -16.9536     0.0000     0.0000 </r>
       <r>   -16.8575     0.0000     0.0000 </r>
       <r>   -16.7614     0.0000     0.0000 </r>
       <r>   -16.6653     0.0000     0.0000 </r>
       <r>   -16.5692     0.0000     0.0000 </r>
       <r>   -16.4731     0.0000     0.0000 </r>
       <r>   -16.3771     0.0000     0.0000 </r>
       <r>   -16.2810     0.0000     0.0000 </r>
       <r>   -16.1849     0.0000     0.0000 </r>
       <r>   -16.0888    20.7983     1.9985 </r>
       <r>   -15.9927     0.0000     2.0000 </r>
       <r>   -15.8966     0.0000     2.0000 </r>
       <r>   -15.8005     0.0000     2.0000 </r>
       <r>   -15.7044     0.0000     2.0000 </r>
       <r>   -15.6083     0.0000     2.0000 </r>
       <r>   -15.5122     0.0000     2.0000 </r>
       <r>   -15.4162     0.0000     2.0000 </r>
       <r>   -15.3201     0.0000     2.0000 </r>
       <r>   -15.2240     0.0000     2.0000 </r>
       <r>   -15.1279     0.0000     2.0000 </r>
       <r>   -15.0318     0.0000     2.0000 </r>
       <r>   -14.9357     0.0000     2.0000 </r>
       <r>   -14.8396     0.0000     2.0000 </r>
       <r>   -14.7435     0.0000     2.0000 </r>
       <r>   -14.6474     0.0000     2.0000 </r>
       <r>   -14.5513     0.0000     2.0000 </r>
       <r>   -14.4553     0.0000     2.0000 </r>
       <r>   -14.3592     0.0000     2.0000 </r>
       <r>   -14.2631     0.0000     2.0000 </r>
       <r>   -14.1670     0.0000     2.0000 </r>
       <r>   -14.0709     0.0000     2.0000 </r>
       <r>   -13.9748     0.0000     2.0000 </r>
       <r>   -13.8787     0.0000     2.0000 </r>
       <r>   -13.7826     0.0000     2.0000 </r>
       <r>   -13.6865     0.0000     2.0000 </r>
       <r>   -13.5905     0.0000     2.0000 </r>
       <r>   -13.4944     0.0000     2.0000 </r>
       <r>   -13.3983     0.0000     2.0000 </r>
       <r>   -13.3022     0.0000     2.0000 </r>
       <r>   -13.2061     0.0000     2.0000 </r>
       <r>   -13.1100     0.0000     2.0000 </r>
       <r>   -13.0139     0.0000     2.0000 </r>
       <r>   -12.9178     0.0000     2.0000 </r>
       <r>   -12.8217     0.0000     2.0000 </r>
       <r>   -12.7256     0.0000     2.0000 </r>
       <r>   -12.6296     0.0000     2.0000 </r>
       <r>   -12.5335     0.0000     2.0000 </r>
       <r>   -12.4374     0.0000     2.0000 </r>
       <r>   -12.3413     0.0000     2.0000 </r>
       <r>   -12.2452     0.0000     2.0000 </r>
       <r>   -12.1491     0.0000     2.0000 </r>
       <r>   -12.0530     0.0000     2.0000 </r>
       <r>   -11.9569     0.0000     2.0000 </r>
       <r>   -11.8608     0.0000     2.0000 </r>
       <r>   -11.7647     0.0000     2.0000 </r>
       <r>   -11.6687     0.0000     2.0000 </r>
       <r>   -11.5726     0.0000     2.0000 </r>
       <r>   -11.4765     0.0000     2.0000 </r>
       <r>   -11.3804     0.0000     2.0000 </r>
       <r>   -11.2843     0.0000     2.0000 </r>
       <r>   -11.1882     0.0000     2.0000 </r>
       <r>   -11.0921     0.0000     2.0000 </r>
       <r>   -10.9960     0.0000     2.0000 </r>
       <r>   -10.8999     0.0000     2.0000 </r>
       <r>   -10.8039     0.0000     2.0000 </r>
       <r>   -10.7078     0.0000     2.0000 </r>
       <r>   -10.6117     0.0000     2.0000 </r>
       <r>   -10.5156     0.0000     2.0000 </r>
       <r>   -10.4195     0.0000     2.0000 </r>
       <r>   -10.3234     0.0000     2.0000 </r>
       <r>   -10.2273     0.0000     2.0000 </r>
       <r>   -10.1312     0.0000     2.0000 </r>
       <r>   -10.0351     0.0000     2.0000 </r>
       <r>    -9.9390     0.0000     2.0000 </r>
       <r>    -9.8430     0.0000     2.0000 </r>
       <r>    -9.7469     0.0000     2.0000 </r>
       <r>    -9.6508     0.0000     2.0000 </r>
       <r>    -9.5547     0.0000     2.0000 </r>
       <r>    -9.4586     0.0000     2.0000 </r>
       <r>    -9.3625     0.0000     2.0000 </r>
       <r>    -9.2664     0.0000     2.0000 </r>
       <r>    -9.1703     0.0000     2.0000 </r>
       <r>    -9.0742     0.0000     2.0000 </r>
       <r>    -8.9781     0.0000     2.0000 </r>
       <r>    -8.8821     0.0000     2.0000 </r>
       <r>    -8.7860     0.0000     2.0000 </r>
       <r>    -8.6899     0.0000     2.0000 </r>
       <r>    -8.5938     0.0000     2.0000 </r>
       <r>    -8.4977     0.0000     2.0000 </r>
       <r>    -8.4016     0.0000     2.0000 </r>
       <r>    -8.3055     0.0000     2.0000 </r>
       <r>    -8.2094     0.0000     2.0000 </r>
       <r>    -8.1133     0.0000     2.0000 </r>
       <r>    -8.0172     0.0000     2.0000 </r>
       <r>    -7.9212     0.0000     2.0000 </r>
       <r>    -7.8251     0.0000     2.0000 </r>
       <r>    -7.7290     0.0000     2.0000 </r>
       <r>    -7.6329     0.0000     2.0000 </r>
       <r>    -7.5368     0.0000     2.0000 </r>
       <r>    -7.4407     0.0000     2.0000 </r>
       <r>    -7.3446     0.0000     2.0000 </r>
       <r>    -7.2485     0.0000     2.0000 </r>
       <r>    -7.1524     0.0000     2.0000 </r>
       <r>    -7.0564     0.0000     2.0000 </r>
       <r>    -6.9603     0.0000     2.0000 </r>
       <r>    -6.8642     0.0000     2.0000 </r>
       <r>    -6.7681     0.0000     2.0000 </r>
       <r>    -6.6720     0.0528     2.0051 </r>
       <r>    -6.5759     0.2685     2.0505 </r>
       <r>    -6.4798     0.0000     2.1728 </r>
       <r>    -6.3837     0.2699     2.1988 </r>
       <r>    -6.2876     0.3259     2.3523 </r>
       <r>    -6.1915     0.0000     2.4691 </r>
       <r>    -6.0955     0.0000     2.4691 </r>
       <r>    -5.9994     1.6477     2.6275 </r>
       <r>    -5.9033     0.0000     2.7654 </r>
       <r>    -5.8072     1.3740     2.8975 </r>
       <r>    -5.7111     0.0000     2.9136 </r>
       <r>    -5.6150     0.0000     2.9136 </r>
       <r>    -5.5189     1.5413     3.0617 </r>
       <r>    -5.4228     3.0835     3.3580 </r>
       <r>    -5.3267     0.2566     3.3827 </r>
       <r>    -5.2306     1.5418     3.5309 </r>
       <r>    -5.1346     1.5418     3.6790 </r>
       <r>    -5.0385     1.5418     3.8272 </r>
       <r>    -4.9424     2.2753     4.0458 </r>
       <r>    -4.8463     0.0000     4.2716 </r>
       <r>    -4.7502     4.9992     4.7520 </r>
       <r>    -4.6541     0.0000     4.8642 </r>
       <r>    -4.5580     1.5418     5.0123 </r>
       <r>    -4.4619     1.5398     5.1603 </r>
       <r>    -4.3658     1.5417     5.3086 </r>
       <r>    -4.2697     4.1102     5.7038 </r>
       <r>    -4.1737     3.5970     6.0494 </r>
       <r>    -4.0776     1.5418     6.1975 </r>
       <r>    -3.9815     3.0835     6.4938 </r>
       <r>    -3.8854     4.6251     6.9382 </r>
       <r>    -3.7893     0.0000     6.9383 </r>
       <r>    -3.6932     1.8193     7.1131 </r>
       <r>    -3.5971     3.9682     7.6406 </r>
       <r>    -3.5010     4.7871     8.3612 </r>
       <r>    -3.4049     3.5694     8.8374 </r>
       <r>    -3.3089     7.5806     9.5679 </r>
       <r>    -3.2128     4.4759    10.0103 </r>
       <r>    -3.1167     4.8922    10.5442 </r>
       <r>    -3.0206    19.3906    12.4316 </r>
       <r>    -2.9245    10.9051    13.7145 </r>
       <r>    -2.8284     6.5530    14.4819 </r>
       <r>    -2.7323    11.5083    15.6984 </r>
       <r>    -2.6362    14.0716    17.3522 </r>
       <r>    -2.5401    11.3206    18.6188 </r>
       <r>    -2.4440    11.1792    19.8648 </r>
       <r>    -2.3480    12.3496    21.8795 </r>
       <r>    -2.2519    13.4183    23.6104 </r>
       <r>    -2.1558    11.7160    24.7801 </r>
       <r>    -2.0597    12.7364    26.5078 </r>
       <r>    -1.9636    31.5584    30.0695 </r>
       <r>    -1.8675    27.8989    33.6934 </r>
       <r>    -1.7714    27.9161    36.5618 </r>
       <r>    -1.6753    24.4594    39.8812 </r>
       <r>    -1.5792    26.5424    42.8234 </r>
       <r>    -1.4831    32.7846    46.5834 </r>
       <r>    -1.3871    25.0250    49.6887 </r>
       <r>    -1.2910    26.3198    52.9740 </r>
       <r>    -1.1949    37.0284    56.8692 </r>
       <r>    -1.0988    33.6013    60.5885 </r>
       <r>    -1.0027    37.8133    65.0411 </r>
       <r>    -0.9066    44.6181    69.6022 </r>
       <r>    -0.8105    46.0567    74.9961 </r>
       <r>    -0.7144    51.9045    80.5211 </r>
       <r>    -0.6183    57.3392    87.0177 </r>
       <r>    -0.5222    59.6988    93.6636 </r>
       <r>    -0.4262    58.8590   100.1266 </r>
       <r>    -0.3301    36.2115   104.4186 </r>
       <r>    -0.2340    46.1222   109.0510 </r>
       <r>    -0.1379    49.7061   114.9016 </r>
       <r>    -0.0418    36.7062   119.3296 </r>
       <r>     0.0543    55.7529   125.4608 </r>
       <r>     0.1504    49.7076   131.2951 </r>
       <r>     0.2465    59.3905   137.8822 </r>
       <r>     0.3426    49.2205   143.5450 </r>
       <r>     0.4386    62.4252   150.2969 </r>
       <r>     0.5347    65.7715   158.0991 </r>
       <r>     0.6308    70.0085   165.9387 </r>
       <r>     0.7269    33.8167   169.6199 </r>
       <r>     0.8230    14.4712   171.0957 </r>
       <r>     0.9191    15.0217   172.8020 </r>
       <r>     1.0152     8.0401   173.5874 </r>
       <r>     1.1113    14.9304   175.2865 </r>
       <r>     1.2074     4.4186   176.1530 </r>
       <r>     1.3035     0.2250   176.1945 </r>
       <r>     1.3995    13.3190   177.4774 </r>
       <r>     1.4956     6.1777   178.1740 </r>
       <r>     1.5917     9.2215   179.0613 </r>
       <r>     1.6878     1.5418   179.2099 </r>
       <r>     1.7839     5.5754   179.7456 </r>
       <r>     1.8800     0.5139   179.8519 </r>
       <r>     1.9761     5.6066   180.3906 </r>
       <r>     2.0722     6.1667   181.1852 </r>
       <r>     2.1683     8.7654   182.0275 </r>
       <r>     2.2644     3.9536   182.5281 </r>
       <r>     2.3604     4.6216   183.2342 </r>
       <r>     2.4565     6.1671   183.8272 </r>
       <r>     2.5526     1.7983   184.0000 </r>
       <r>     2.6487     1.5418   184.1481 </r>
       <r>     2.7448     1.0473   184.2488 </r>
       <r>     2.8409     8.2273   185.1363 </r>
       <r>     2.9370    10.7735   186.4179 </r>
       <r>     3.0331     0.1181   186.4311 </r>
       <r>     3.1292     6.9078   187.1329 </r>
       <r>     3.2252     3.3496   187.6815 </r>
       <r>     3.3213     3.0807   188.1232 </r>
       <r>     3.4174     3.0825   188.4197 </r>
       <r>     3.5135     3.0833   188.7160 </r>
       <r>     3.6096     5.7473   189.2683 </r>
       <r>     3.7057     3.8031   189.9716 </r>
       <r>     3.8018     3.0940   190.2726 </r>
       <r>     3.8979     4.6973   190.7240 </r>
       <r>     3.9940     4.7302   191.3187 </r>
       <r>     4.0901     0.2884   191.4599 </r>
       <r>     4.1861     8.1733   192.3910 </r>
       <r>     4.2822     1.5418   192.6420 </r>
       <r>     4.3783     0.3521   192.6758 </r>
       <r>     4.4744     7.9816   193.7052 </r>
       <r>     4.5705     1.5184   194.1212 </r>
       <r>     4.6666     3.6021   194.6177 </r>
       <r>     4.7627     5.9613   195.1906 </r>
       <r>     4.8588     3.0932   195.5071 </r>
       <r>     4.9549     1.5320   195.6543 </r>
       <r>     5.0510     5.0929   196.1437 </r>
       <r>     5.1470     1.5418   196.3951 </r>
       <r>     5.2431     6.3883   197.0089 </r>
       <r>     5.3392     4.6247   197.4568 </r>
       <r>     5.4353     3.0454   197.7495 </r>
       <r>     5.5314     0.8044   197.8304 </r>
       <r>     5.6275     3.3634   198.5207 </r>
       <r>     5.7236     4.6235   198.9877 </r>
       <r>     5.8197     0.0000   198.9877 </r>
       <r>     5.9158     3.6055   199.3341 </r>
       <r>     6.0119     5.9112   199.9021 </r>
       <r>     6.1079     4.3149   200.3656 </r>
       <r>     6.2040     4.5815   200.8106 </r>
       <r>     6.3001     2.6441   201.0689 </r>
       <r>     6.3962     3.5476   201.4520 </r>
       <r>     6.4923     1.6671   201.7159 </r>
       <r>     6.5884     1.6334   201.9100 </r>
       <r>     6.6845     4.3369   202.3303 </r>
       <r>     6.7806     1.6702   202.4938 </r>
       <r>     6.8767     4.4012   202.9167 </r>
       <r>     6.9727     0.8741   203.1087 </r>
       <r>     7.0688    12.3093   204.2939 </r>
       <r>     7.1649     3.3393   204.6172 </r>
       <r>     7.2610     3.8119   204.9836 </r>
       <r>     7.3571     4.2770   205.4974 </r>
       <r>     7.4532     3.9482   206.0343 </r>
       <r>     7.5493     3.0287   206.4392 </r>
       <r>     7.6454     9.2476   207.3459 </r>
       <r>     7.7415     6.6137   208.0306 </r>
       <r>     7.8376     7.7418   208.8804 </r>
       <r>     7.9336     4.4841   209.4556 </r>
       <r>     8.0297     3.9714   209.8507 </r>
       <r>     8.1258     6.7771   210.6518 </r>
       <r>     8.2219     2.3502   210.9048 </r>
       <r>     8.3180     6.7668   211.6255 </r>
       <r>     8.4141     2.5355   212.1078 </r>
       <r>     8.5102     3.9584   212.6149 </r>
       <r>     8.6063     6.8014   213.3572 </r>
       <r>     8.7024     2.0431   213.7519 </r>
       <r>     8.7985     7.1682   214.4419 </r>
       <r>     8.8945     7.8423   215.3216 </r>
       <r>     8.9906     2.3203   215.6182 </r>
       <r>     9.0867     1.7978   215.9753 </r>
       <r>     9.1828     8.5934   216.8010 </r>
       <r>     9.2789     2.1105   217.0176 </r>
       <r>     9.3750     3.6790   217.6377 </r>
       <r>     9.4711     7.1782   218.3443 </r>
       <r>     9.5672     6.2338   218.9447 </r>
       <r>     9.6633     2.5052   219.2778 </r>
       <r>     9.7594     0.0012   219.5557 </r>
       <r>     9.8554     3.8532   219.9259 </r>
       <r>     9.9515     0.0000   219.9259 </r>
       <r>    10.0476     0.0000   219.9259 </r>
       <r>    10.1437     0.7709   220.0000 </r>
       <r>    10.2398     0.0000   220.0000 </r>
       <r>    10.3359     0.0000   220.0000 </r>
       <r>    10.4320     0.0000   220.0000 </r>
       <r>    10.5281     0.0000   220.0000 </r>
       <r>    10.6242     0.0000   220.0000 </r>
       <r>    10.7202     0.0000   220.0000 </r>
       <r>    10.8163     0.0000   220.0000 </r>
       <r>    10.9124     0.0000   220.0000 </r>
       <r>    11.0085     0.0000   220.0000 </r>
       <r>    11.1046     0.0000   220.0000 </r>
       <r>    11.2007     0.0000   220.0000 </r>
       <r>    11.2968     0.0000   220.0000 </r>
       <r>    11.3929     0.0000   220.0000 </r>
      </set>
     </set>
    </array>
   </total>
  </dos>
 </calculation>
 <structure name="finalpos" >
  <crystal>
   <varray name="basis" >
    <v>       4.42708529      -2.55597888       0.00000000 </v>
    <v>       0.00000000       5.11195776       0.00000000 </v>
    <v>       0.00000000       0.00000000      15.00000000 </v>
   </varray>
   <i name="volume">    339.46609504 </i>
   <varray name="rec_basis" >
    <v>       0.22588225       0.00000000       0.00000000 </v>
    <v>       0.11294113       0.19561977       0.00000000 </v>
    <v>       0.00000000       0.00000000       0.06666667 </v>
   </varray>
  </crystal>
  <varray name="positions" >
   <v>       0.00000000       0.00000000       0.00000000 </v>
   <v>       0.83332692       0.66666093       0.28247576 </v>
   <v>       0.51101825       0.50550448       0.42137462 </v>
   <v>       0.50000000       0.50000000       0.00000000 </v>
   <v>       0.16666667       0.83333333       0.13912987 </v>
   <v>       0.33228069       0.66456582       0.27679099 </v>
   <v>       0.99448577       0.50550819       0.42137532 </v>
   <v>       0.66666667       0.83333333       0.13912987 </v>
   <v>       0.00000000       0.50000000       0.00000000 </v>
   <v>       0.83543455       0.16771594       0.27679154 </v>
   <v>       0.50000159      -0.00000170       0.40905722 </v>
   <v>       0.50000000       0.00000000       0.00000000 </v>
   <v>       0.16666667       0.33333333       0.13912987 </v>
   <v>       0.33227676       0.16771622       0.27679116 </v>
   <v>       0.99450245       0.98900120       0.42137949 </v>
   <v>       0.66666667       0.33333333       0.13912987 </v>
   <v>       0.16667764       0.33335422       0.49567969 </v>
  </varray>
  <varray name="selective"  type="logical" >
   <v type="logical" >  F  F  F </v>
   <v type="logical" >  T  T  T </v>
   <v type="logical" >  T  T  T </v>
   <v type="logical" >  F  F  F </v>
   <v type="logical" >  F  F  F </v>
   <v type="logical" >  T  T  T </v>
   <v type="logical" >  T  T  T </v>
   <v type="logical" >  F  F  F </v>
   <v type="logical" >  F  F  F </v>
   <v type="logical" >  T  T  T </v>
   <v type="logical" >  T  T  T </v>
   <v type="logical" >  F  F  F </v>
   <v type="logical" >  F  F  F </v>
   <v type="logical" >  T  T  T </v>
   <v type="logical" >  T  T  T </v>
   <v type="logical" >  F  F  F </v>
   <v type="logical" >  T  T  T </v>
  </varray>
  <nose>
   <v>      -3.00000000       0.00000000       0.00010000       0.00010000 </v>
  </nose>
 </structure>
</modeling>
