TS                                      
           1
     4.427085   -2.555979    0.000000
     0.000000    5.111958    0.000000
     0.000000    0.000000   15.000000
   Cu   O 
  16   1
Direct configuration=     1
   0.00000000  0.00000000  0.00000000
   0.83333333  0.66666667  0.28301144
   0.51127659  0.50563830  0.42215943
   0.50000000  0.50000000  0.00000000
   0.16666667  0.83333333  0.13912987
   0.33218647  0.66437294  0.27727655
   0.99436170  0.50563830  0.42215944
   0.66666667  0.83333333  0.13912987
   0.00000000  0.50000000  0.00000000
   0.83562706  0.16781353  0.27727655
   0.50000000  0.00000000  0.40955815
   0.50000000  0.00000000  0.00000000
   0.16666667  0.33333333  0.13912987
   0.33218647  0.16781353  0.27727655
   0.99436170  0.98872341  0.42215943
   0.66666667  0.33333333  0.13912987
   0.16666670  0.33333330  0.49622037
Direct configuration=     2
   0.00000000  0.00000000  0.00000000
   0.83333266  0.66666631  0.28296233
   0.51125603  0.50562763  0.42210035
   0.50000000  0.50000000  0.00000000
   0.16666667  0.83333333  0.13912987
   0.33222949  0.66445858  0.27721162
   0.99437149  0.50562851  0.42210036
   0.66666667  0.83333333  0.13912987
   0.00000000  0.50000000  0.00000000
   0.83554217  0.16777088  0.27721176
   0.50000035  0.00000032  0.40954720
   0.50000000  0.00000000  0.00000000
   0.16666667  0.33333333  0.13912987
   0.33222853  0.16777145  0.27721172
   0.99437214  0.98874345  0.42210033
   0.66666667  0.33333333  0.13912987
   0.16666667  0.33333267  0.49626120
Direct configuration=     3
   0.00000000  0.00000000  0.00000000
   0.83333107  0.66666546  0.28284721
   0.51120781  0.50560260  0.42196185
   0.50000000  0.50000000  0.00000000
   0.16666667  0.83333333  0.13912987
   0.33233032  0.66465932  0.27705941
   0.99439444  0.50560556  0.42196188
   0.66666667  0.83333333  0.13912987
   0.00000000  0.50000000  0.00000000
   0.83534316  0.16767089  0.27705988
   0.50000117  0.00000106  0.40952151
   0.50000000  0.00000000  0.00000000
   0.16666667  0.33333333  0.13912987
   0.33232713  0.16767280  0.27705975
   0.99439662  0.98879044  0.42196178
   0.66666667  0.33333333  0.13912987
   0.16666660  0.33333121  0.49635694
Direct configuration=     4
   0.00000000  0.00000000  0.00000000
   0.83333066  0.66666513  0.28279353
   0.51102532  0.50551127  0.42191402
   0.50000000  0.50000000  0.00000000
   0.16666667  0.83333333  0.13912987
   0.33234168  0.66468248  0.27700835
   0.99448573  0.50551438  0.42191418
   0.66666667  0.83333333  0.13912987
   0.00000000  0.50000000  0.00000000
   0.83532077  0.16765981  0.27700888
   0.50000155  0.00000124  0.40949181
   0.50000000  0.00000000  0.00000000
   0.16666667  0.33333333  0.13912987
   0.33233798  0.16766172  0.27700869
   0.99448768  0.98897222  0.42191390
   0.66666667  0.33333333  0.13912987
   0.16666629  0.33333076  0.49631161
Direct configuration=     5
   0.00000000  0.00000000  0.00000000
   0.83333015  0.66666472  0.28272600
   0.51079574  0.50539637  0.42185385
   0.50000000  0.50000000  0.00000000
   0.16666667  0.83333333  0.13912987
   0.33235597  0.66471162  0.27694411
   0.99460058  0.50539967  0.42185418
   0.66666667  0.83333333  0.13912987
   0.00000000  0.50000000  0.00000000
   0.83529261  0.16764587  0.27694473
   0.50000202  0.00000147  0.40945446
   0.50000000  0.00000000  0.00000000
   0.16666667  0.33333333  0.13912987
   0.33235164  0.16764778  0.27694444
   0.99460224  0.98920090  0.42185367
   0.66666667  0.33333333  0.13912987
   0.16666590  0.33333019  0.49625458
Direct configuration=     6
   0.00000000  0.00000000  0.00000000
   0.83333002  0.66666450  0.28269199
   0.51077869  0.50538798  0.42177848
   0.50000000  0.50000000  0.00000000
   0.16666667  0.83333333  0.13912987
   0.33233369  0.66466837  0.27691601
   0.99460950  0.50539092  0.42177901
   0.66666667  0.83333333  0.13912987
   0.00000000  0.50000000  0.00000000
   0.83533656  0.16766831  0.27691661
   0.50000239  0.00000155  0.40939442
   0.50000000  0.00000000  0.00000000
   0.16666667  0.33333333  0.13912987
   0.33232943  0.16766965  0.27691620
   0.99461034  0.98921716  0.42177821
   0.66666667  0.33333333  0.13912987
   0.16666519  0.33332952  0.49617879
Direct configuration=     7
   0.00000000  0.00000000  0.00000000
   0.83332965  0.66666383  0.28258997
   0.51072755  0.50536281  0.42155235
   0.50000000  0.50000000  0.00000000
   0.16666667  0.83333333  0.13912987
   0.33226688  0.66453862  0.27683173
   0.99463628  0.50536467  0.42155349
   0.66666667  0.83333333  0.13912987
   0.00000000  0.50000000  0.00000000
   0.83546840  0.16773565  0.27683225
   0.50000347  0.00000182  0.40921431
   0.50000000  0.00000000  0.00000000
   0.16666667  0.33333333  0.13912987
   0.33226281  0.16773525  0.27683147
   0.99463466  0.98926593  0.42155183
   0.66666667  0.33333333  0.13912987
   0.16666306  0.33332749  0.49595142
Direct configuration=     8
   0.00000000  0.00000000  0.00000000
   0.83332891  0.66666250  0.28238592
   0.51062527  0.50531248  0.42110009
   0.50000000  0.50000000  0.00000000
   0.16666667  0.83333333  0.13912987
   0.33213325  0.66427913  0.27666317
   0.99468984  0.50531217  0.42110245
   0.66666667  0.83333333  0.13912987
   0.00000000  0.50000000  0.00000000
   0.83573209  0.16787032  0.27666353
   0.50000565  0.00000235  0.40885409
   0.50000000  0.00000000  0.00000000
   0.16666667  0.33333333  0.13912987
   0.33212956  0.16786646  0.27666201
   0.99468328  0.98936347  0.42109907
   0.66666667  0.33333333  0.13912987
   0.16665880  0.33332342  0.49549668
Direct configuration=     9
   0.00000000  0.00000000  0.00000000
   0.83332928  0.66666317  0.28248873
   0.51067680  0.50533784  0.42132796
   0.50000000  0.50000000  0.00000000
   0.16666667  0.83333333  0.13912987
   0.33220058  0.66440987  0.27674810
   0.99466285  0.50533862  0.42132971
   0.66666667  0.83333333  0.13912987
   0.00000000  0.50000000  0.00000000
   0.83559923  0.16780247  0.27674854
   0.50000455  0.00000209  0.40903558
   0.50000000  0.00000000  0.00000000
   0.16666667  0.33333333  0.13912987
   0.33219670  0.16780035  0.27674739
   0.99465878  0.98931432  0.42132719
   0.66666667  0.33333333  0.13912987
   0.16666094  0.33332547  0.49572580
Direct configuration=    10
   0.00000000  0.00000000  0.00000000
   0.83332941  0.66666341  0.28252491
   0.51069494  0.50534676  0.42140815
   0.50000000  0.50000000  0.00000000
   0.16666667  0.83333333  0.13912987
   0.33222427  0.66445588  0.27677798
   0.99465336  0.50534793  0.42140968
   0.66666667  0.83333333  0.13912987
   0.00000000  0.50000000  0.00000000
   0.83555248  0.16777859  0.27677846
   0.50000417  0.00000199  0.40909945
   0.50000000  0.00000000  0.00000000
   0.16666667  0.33333333  0.13912987
   0.33222032  0.16777709  0.27677744
   0.99465016  0.98929703  0.42140747
   0.66666667  0.33333333  0.13912987
   0.16666170  0.33332619  0.49580643
Direct configuration=    11
   0.00000000  0.00000000  0.00000000
   0.83332872  0.66666386  0.28249927
   0.51110661  0.50555163  0.42133060
   0.50000000  0.50000000  0.00000000
   0.16666667  0.83333333  0.13912987
   0.33226681  0.66453932  0.27677799
   0.99444491  0.50555562  0.42133145
   0.66666667  0.83333333  0.13912987
   0.00000000  0.50000000  0.00000000
   0.83546789  0.16773589  0.27677832
   0.50000392  0.00000232  0.40903261
   0.50000000  0.00000000  0.00000000
   0.16666667  0.33333333  0.13912987
   0.33226276  0.16773551  0.27677765
   0.99444645  0.98888849  0.42132968
   0.66666667  0.33333333  0.13912987
   0.16666119  0.33332157  0.49574696
Direct configuration=    12
   0.00000000  0.00000000  0.00000000
   0.83332901  0.66666367  0.28251009
   0.51093298  0.50546522  0.42136331
   0.50000000  0.50000000  0.00000000
   0.16666667  0.83333333  0.13912987
   0.33224887  0.66450413  0.27677799
   0.99453283  0.50546802  0.42136444
   0.66666667  0.83333333  0.13912987
   0.00000000  0.50000000  0.00000000
   0.83550357  0.16775390  0.27677838
   0.50000402  0.00000218  0.40906080
   0.50000000  0.00000000  0.00000000
   0.16666667  0.33333333  0.13912987
   0.33224486  0.16775304  0.27677756
   0.99453237  0.98906080  0.42136249
   0.66666667  0.33333333  0.13912987
   0.16666141  0.33332352  0.49577204
Direct configuration=    13
   0.00000000  0.00000000  0.00000000
   0.83332264  0.66665245  0.28248046
   0.51102713  0.50550304  0.42136984
   0.50000000  0.50000000  0.00000000
   0.16666667  0.83333333  0.13912987
   0.33228001  0.66456445  0.27679031
   0.99447531  0.50550723  0.42137049
   0.66666667  0.83333333  0.13912987
   0.00000000  0.50000000  0.00000000
   0.83542372  0.16770444  0.27679054
   0.49999756 -0.00000980  0.40904955
   0.50000000  0.00000000  0.00000000
   0.16666667  0.33333333  0.13912987
   0.33227607  0.16770475  0.27679013
   0.99447546  0.98894687  0.42136857
   0.66666667  0.33333333  0.13912987
   0.16675896  0.33351636  0.49568086
Direct configuration=    14
   0.00000000  0.00000000  0.00000000
   0.83332583  0.66665807  0.28249530
   0.51097997  0.50548410  0.42136657
   0.50000000  0.50000000  0.00000000
   0.16666667  0.83333333  0.13912987
   0.33226441  0.66453423  0.27678414
   0.99450412  0.50548759  0.42136746
   0.66666667  0.83333333  0.13912987
   0.00000000  0.50000000  0.00000000
   0.83546372  0.16772921  0.27678445
   0.50000080 -0.00000380  0.40905519
   0.50000000  0.00000000  0.00000000
   0.16666667  0.33333333  0.13912987
   0.33226044  0.16772894  0.27678383
   0.99450397  0.98900394  0.42136552
   0.66666667  0.33333333  0.13912987
   0.16671009  0.33341976  0.49572653
Direct configuration=    15
   0.00000000  0.00000000  0.00000000
   0.83332770  0.66666299  0.28246170
   0.51104581  0.50551915  0.42138041
   0.50000000  0.50000000  0.00000000
   0.16666667  0.83333333  0.13912987
   0.33229241  0.66458856  0.27679593
   0.99447256  0.50552302  0.42138098
   0.66666667  0.83333333  0.13912987
   0.00000000  0.50000000  0.00000000
   0.83541356  0.16770639  0.27679665
   0.50000216 -0.00000018  0.40905868
   0.50000000  0.00000000  0.00000000
   0.16666667  0.33333333  0.13912987
   0.33228850  0.16770707  0.27679643
   0.99450135  0.98899923  0.42138954
   0.66666667  0.33333333  0.13912987
   0.16665428  0.33330705  0.49564598
Direct configuration=    16
   0.00000000  0.00000000  0.00000000
   0.83332692  0.66666093  0.28247576
   0.51101825  0.50550448  0.42137462
   0.50000000  0.50000000  0.00000000
   0.16666667  0.83333333  0.13912987
   0.33228069  0.66456582  0.27679099
   0.99448577  0.50550819  0.42137532
   0.66666667  0.83333333  0.13912987
   0.00000000  0.50000000  0.00000000
   0.83543455  0.16771594  0.27679154
   0.50000159 -0.00000170  0.40905722
   0.50000000  0.00000000  0.00000000
   0.16666667  0.33333333  0.13912987
   0.33227676  0.16771622  0.27679116
   0.99450245  0.98900120  0.42137949
   0.66666667  0.33333333  0.13912987
   0.16667764  0.33335422  0.49567969
