 vasp.6.4.2 20Jul23 (build Jun  3 2025 15:36:07) complex                         
 executed on              LinuxNV date 2025.11.12  21:10:38
 running    3 mpi-ranks, with    1 threads/rank, on    3 nodes
 each image running on    1 cores
 distrk:  each k-point on    1 cores,    1 groups
 distr:  one band on NCORE=   1 cores,    1 groups
 OpenACC runtime initialized ...    3 GPUs detected


--------------------------------------------------------------------------------------------------------


 INCAR:
   SYSTEM = Si
   ISTART = 1
   ICHARG = 2
   NELECT = 1080
   ISPIN = 2
   NELM = 20
   ENCUT = 400
   PREC = Accurate
   ISMEAR = 0
   SIGMA = 0.01
   EDIFF = 1E-10
   NUPDOWN = 0
   IBRION = 3
   NSW = 500
   POTIM = 0
   ISIF = 0
   IOPT = 3
   MAXMOVE = 0.2
   TIMESTEP = 0.1
   EDIFFG = -0.010
   ICHAIN = 0
   IMAGES = 3
   SPRING = -5.0
   LCLIMB = .FALSE.
   LSUBROT = .TRUE.
   LHFCALC = .TRUE.
   HFSCREEN = 0.20
   AEXX = 0.25
   PRECFOCK = Fast

 POTCAR:    PAW_PBE Li_sv 10Sep2004               
 POTCAR:    PAW_PBE F 08Apr2002                   
 -----------------------------------------------------------------------------
|                                                                             |
|           W    W    AA    RRRRR   N    N  II  N    N   GGGG   !!!           |
|           W    W   A  A   R    R  NN   N  II  NN   N  G    G  !!!           |
|           W    W  A    A  R    R  N N  N  II  N N  N  G       !!!           |
|           W WW W  AAAAAA  RRRRR   N  N N  II  N  N N  G  GGG   !            |
|           WW  WW  A    A  R   R   N   NN  II  N   NN  G    G                |
|           W    W  A    A  R    R  N    N  II  N    N   GGGG   !!!           |
|                                                                             |
|     You use a magnetic or noncollinear calculation, but did not specify     |
|     the initial magnetic moment with the MAGMOM tag. Note that a            |
|     default of 0 will be used for all atoms. This ferromagnetic setup       |
|     may break the symmetry of the crystal, in particular it may rule        |
|     out finding an antiferromagnetic solution. Thence, we recommend         |
|     setting the initial magnetic moment manually or verifying carefully     |
|     that this magnetic setup is desired.                                    |
|                                                                             |
 -----------------------------------------------------------------------------

 POTCAR:    PAW_PBE Li_sv 10Sep2004               
   SHA256 =  7e51fe1804c037e1dccc81a9c376d94d693a7559600c847f4b41960edb8ab895 Li_sv/POTCAR          
   COPYR  = (c) Copyright 10Sep2004 Georg Kresse                                                    
   COPYR  = This file is part of the software VASP. Any use, copying, and all other rights are regul
   COPYR  = If you do not have a valid VASP license, you may not use, copy or distribute this file. 
   VRHFIN =Li: 1s2s2p                                                                               
   LEXCH  = PE                                                                                      
   EATOM  =   202.7858 eV,   14.9043 Ry                                                             
                                                                                                    
   TITEL  = PAW_PBE Li_sv 10Sep2004                                                                 
   LULTRA =        F    use ultrasoft PP ?                                                          
   IUNSCR =        0    unscreen: 0-lin 1-nonlin 2-no                                               
   RPACOR =    0.000    partial core radius                                                         
   POMASS =    7.010; ZVAL   =    3.000    mass and valenz                                          
   RCORE  =    1.700    outmost cutoff radius                                                       
   RWIGS  =    2.050; RWIGS  =    1.085    wigner-seitz radius (au A)                               
   ENMAX  =  499.034; ENMIN  =  374.276 eV                                                          
   ICORE  =        2    local potential                                                             
   LCOR   =        T    correct aug charges                                                         
   LPAW   =        T    paw PP                                                                      
   EAUG   =  628.945                                                                                
   RMAX   =    1.732    core radius for proj-oper                                                   
   RAUG   =    1.300    factor for augmentation sphere                                              
   RDEP   =    1.728    radius for radial grids                                                     
   RDEPT  =    1.329    core radius for aug-charge                                                  
                                                                                                    
   Atomic configuration                                                                             
    4 entries                                                                                       
     n  l   j            E        occ.                                                              
     1  0  0.50       -51.8549   2.0000                                                             
     2  0  0.50        -2.8742   1.0000                                                             
     2  1  0.50        -1.3606   0.0000                                                             
     3  2  1.50        -1.3606   0.0000                                                             
   Description                                                                                      
     l       E           TYP  RCUT    TYP  RCUT                                                     
     0    -51.8548813     23  1.400                                                                 
     0     -2.8742052     23  1.700                                                                 
     1     -1.3605826     23  1.400                                                                 
     2     -1.3605826     23  1.400                                                                 
  local pseudopotential read in
  atomic valenz-charges read in
  non local Contribution for L=            0  read in
    real space projection operators read in
  non local Contribution for L=            0  read in
    real space projection operators read in
  non local Contribution for L=            1  read in
    real space projection operators read in
    PAW grid and wavefunctions read in
 
   number of l-projection  operators is LMAX  =            3
   number of lm-projection operators is LMMAX =            5
 
 POTCAR:    PAW_PBE F 08Apr2002                   
   SHA256 =  53c630871ac675939349fc2b976745ee17808dedc90b5bdde026bc81f0faf456 F/POTCAR              
   COPYR  = (c) Copyright 08Apr2002 Georg Kresse                                                    
   COPYR  = This file is part of the software VASP. Any use, copying, and all other rights are regul
   COPYR  = If you do not have a valid VASP license, you may not use, copy or distribute this file. 
   VRHFIN =F: s2p5                                                                                  
   LEXCH  = PE                                                                                      
   EATOM  =   659.6475 eV,   48.4827 Ry                                                             
                                                                                                    
   TITEL  = PAW_PBE F 08Apr2002                                                                     
   LULTRA =        F    use ultrasoft PP ?                                                          
   IUNSCR =        1    unscreen: 0-lin 1-nonlin 2-no                                               
   RPACOR =    1.200    partial core radius                                                         
   POMASS =   18.998; ZVAL   =    7.000    mass and valenz                                          
   RCORE  =    1.520    outmost cutoff radius                                                       
   RWIGS  =    1.500; RWIGS  =    0.794    wigner-seitz radius (au A)                               
   ENMAX  =  400.000; ENMIN  =  300.000 eV                                                          
   ICORE  =        2    local potential                                                             
   LCOR   =        T    correct aug charges                                                         
   LPAW   =        T    paw PP                                                                      
   EAUG   =  613.614                                                                                
   RMAX   =    1.555    core radius for proj-oper                                                   
   RAUG   =    1.300    factor for augmentation sphere                                              
   RDEP   =    1.539    radius for radial grids                                                     
   RDEPT  =    1.299    core radius for aug-charge                                                  
                                                                                                    
   Atomic configuration                                                                             
    4 entries                                                                                       
     n  l   j            E        occ.                                                              
     1  0  0.50      -663.3661   2.0000                                                             
     2  0  0.50       -29.8995   2.0000                                                             
     2  1  0.50       -11.1114   5.0000                                                             
     3  2  1.50       -10.8847   0.0000                                                             
   Description                                                                                      
     l       E           TYP  RCUT    TYP  RCUT                                                     
     0    -29.8995018     23  1.200                                                                 
     0     -9.5240782     23  1.200                                                                 
     1    -11.1113914     23  1.520                                                                 
     1      1.3605826     23  1.520                                                                 
     2    -10.8846608      7  1.500                                                                 
  local pseudopotential read in
  partial core-charges read in
  partial kinetic energy density read in
  atomic valenz-charges read in
  non local Contribution for L=            0  read in
    real space projection operators read in
  non local Contribution for L=            0  read in
    real space projection operators read in
  non local Contribution for L=            1  read in
    real space projection operators read in
  non local Contribution for L=            1  read in
    real space projection operators read in
    PAW grid and wavefunctions read in
 
   number of l-projection  operators is LMAX  =            4
   number of lm-projection operators is LMMAX =            8
 
 -----------------------------------------------------------------------------
|                                                                             |
|               ----> ADVICE to this user running VASP <----                  |
|                                                                             |
|     You have a (more or less) 'large supercell' and for larger cells it     |
|     might be more efficient to use real-space projection operators.         |
|     Therefore, try LREAL= Auto in the INCAR file.                           |
|     Mind: For very accurate calculation, you might also keep the            |
|     reciprocal projection scheme (i.e. LREAL=.FALSE.).                      |
|                                                                             |
 -----------------------------------------------------------------------------

  PAW_PBE Li_sv 10Sep2004               :
 energy of atom  1       EATOM= -202.7858
 kinetic energy error for atom=    0.0926 (will be added to EATOM!!)
  PAW_PBE F 08Apr2002                   :
 energy of atom  2       EATOM= -659.6475
 kinetic energy error for atom=    0.1978 (will be added to EATOM!!)
 
 
 POSCAR: Li   F
  positions in direct lattice
  No initial velocities read in
 exchange correlation table for  LEXCH =        8
   RHO(1)=    0.500       N(1)  =     2000
   RHO(2)=  100.500       N(2)  =     4000

 VTST: version 4.1, (05/19/21)

 CHAIN: initializing optimizer
 
 OPT: Using Quick-Min optimizer
 OPT: QM, Init
 OPT: QM, MAXMOVE       0.200000
 OPT: QM, TIMESTEP      0.100000
 
 CHAIN: Read ICHAIN             0
 CHAIN: Running the NEB
 NEB:          SPRING     -5.000000
 NEB:          LCLIMB      F
 NEB:     LTANGENTOLD      F
 NEB:           LDNEB      F
 NEB:        LDNEBORG      F
 NEB:        LNEBCELL      F
 NEB:          EFIRST      0.000000
 NEB:           ELAST      0.000000
 
 POSCAR: Li   F
  positions in direct lattice
  No initial velocities read in
 
 POSCAR: Li   F
  positions in direct lattice
  No initial velocities read in
 
 POSCAR: Li   F
  positions in direct lattice
  No initial velocities read in
 
 POSCAR: Li   F
  positions in direct lattice
  No initial velocities read in
 


--------------------------------------------------------------------------------------------------------


 ion  position               nearest neighbor table
   1  0.000  1.000  1.000- 109 1.98 136 1.99 115 2.03 138 2.03 208 2.03 190 2.03
   2  0.001  0.001  0.326- 116 1.93 136 1.96 110 2.01 209 2.02 191 2.05 137 2.08
   3  0.001  0.000  0.671- 138 1.94 117 1.99 111 2.00 210 2.03 192 2.04 137 2.09
   4  0.001  0.326  0.000- 141 1.92 109 1.97 139 2.01 211 2.02 193 2.05 112 2.08
   5  1.000  0.326  0.326- 110 1.92 139 1.93 212 1.99 194 2.06 140 2.08 113 2.08  32 2.60
   6  0.002  0.327  0.674- 114 1.82 111 1.94 213 2.00 141 2.02 195 2.12 140 2.13
   7  0.000  0.671  1.000- 115 1.94 144 2.01 142 2.01 214 2.02 196 2.04 112 2.09
   8  0.002  0.674  0.327- 143 1.84 142 1.94 215 2.00 116 2.02 197 2.11 113 2.12
   9  0.000  0.673  0.662- 167 1.78 117 1.97 198 2.04 144 2.07 216 2.17
  10  0.329  1.000  1.000- 190 1.94 118 2.02 145 2.02 147 2.03 124 2.03 199 2.06
  11  0.329  0.000  0.328- 191 1.93 145 1.94 125 2.02 119 2.03 200 2.07 146 2.07
  12  0.330  0.000  0.672- 192 1.93 147 1.93 120 2.02 126 2.04 201 2.06 146 2.09
  13  0.329  0.328  0.000- 193 1.93 118 1.94 150 2.02 148 2.03 202 2.07 121 2.07
  14  0.337  0.328  0.328- 148 1.93 119 1.93 203 1.97 194 2.03 149 2.05 122 2.06
  15  0.337  0.329  0.672- 195 1.94 150 1.95 120 1.95 204 1.97 123 2.06 149 2.10
  16  0.329  0.672  0.000- 196 1.93 124 1.93 151 2.01 153 2.03 205 2.07 121 2.09
  17  0.338  0.672  0.329- 125 1.95 197 1.96 151 1.96 206 1.97 152 2.06 122 2.10
  18  0.329  0.670  0.670- 198 1.94 153 1.95 126 1.96 123 2.07 152 2.07 207 2.07
  19  0.671  0.999  1.000- 208 1.95 127 2.01 154 2.02 133 2.03 156 2.03 199 2.06
  20  0.671  0.999  0.328- 154 1.95 209 1.95 128 2.01 134 2.03 200 2.06 155 2.06
  21  0.670  1.000  0.671- 156 1.94 210 1.96 135 1.98 129 2.01 201 2.06 155 2.08
  22  0.672  0.328  0.999- 211 1.95 127 1.96 157 2.00 159 2.03 202 2.06 130 2.07
  23  0.672  0.329  0.328- 212 1.97 128 1.97 157 1.98 131 2.07 158 2.08 203 2.08
  24  0.672  0.329  0.670- 159 1.94 129 1.97 213 1.98 132 2.05 158 2.06 204 2.08
  25  0.671  0.671  0.999- 133 1.94 214 1.95 162 1.99 160 2.00 205 2.07 130 2.08
  26  0.672  0.670  0.329- 134 1.94 160 1.98 215 1.99 161 2.05 131 2.06 206 2.07
  27  0.672  0.671  0.670- 216 1.83 162 1.98 135 2.00 207 2.07 161 2.08 132 2.08
  28  0.000  0.170  0.170- 110 1.95 139 1.95 181 2.03 109 2.04 136 2.04 163 2.04
  29  0.000  0.170  0.500- 140 1.95 137 2.00 182 2.01 111 2.02 110 2.03 164 2.06
  30  0.000  0.161  0.829- 141 1.92 111 1.97 138 1.97 183 2.03 165 2.05 109 2.08
  31  0.000  0.500  0.170- 113 1.96 112 2.01 184 2.01 142 2.02 139 2.03 166 2.06
  32  0.972  0.477  0.477- 167 1.71 140 1.83 113 1.83 185 1.89  77 2.57 104 2.58   5 2.60
  33  0.001  0.500  0.848- 114 1.80 112 1.88 186 2.00 144 2.03 141 2.18 168 2.19
  34  0.000  0.829  0.161- 116 1.93 142 1.97 115 1.97 187 2.03 169 2.05 136 2.08
  35  0.001  0.849  0.499- 143 1.80 137 1.88 188 2.00 117 2.02 116 2.16 170 2.19
  36  0.000  0.828  0.828- 144 1.95 117 1.96 189 2.03 138 2.06 115 2.06 171 2.06
  37  0.329  0.170  0.171- 163 1.93 119 1.95 148 1.95 172 2.06 118 2.06 145 2.07
  38  0.338  0.171  0.500- 173 1.96 149 2.01 146 2.01 164 2.01 120 2.02 119 2.03
  39  0.330  0.170  0.829- 165 1.93 150 1.95 120 1.96 174 2.07 118 2.07 147 2.07
  40  0.338  0.500  0.171- 175 1.96 122 2.00 121 2.01 166 2.01 151 2.02 148 2.03
  41  0.352  0.500  0.500- 176 1.85 152 1.98 123 1.98 149 1.99 122 1.99
  42  0.346  0.500  0.847- 177 1.90 121 1.90 168 1.98 153 2.03 150 2.04 123 2.23
  43  0.330  0.829  0.171- 169 1.93 125 1.95 151 1.96 145 2.06 178 2.06 124 2.07
  44  0.346  0.847  0.500- 179 1.90 146 1.90 170 1.98 126 2.03 125 2.04 152 2.23
  45  0.337  0.829  0.829- 126 1.96 153 1.96 180 1.98 171 2.01 147 2.06 124 2.06
  46  0.671  0.170  0.170- 128 1.94 157 1.94 181 1.95 172 2.07 127 2.07 154 2.07
  47  0.671  0.163  0.500- 158 1.95 182 1.97 155 1.97 129 2.03 128 2.04 173 2.06
  48  0.671  0.171  0.829- 159 1.94 183 1.95 129 1.95 127 2.05 174 2.06 156 2.07
  49  0.671  0.500  0.162- 131 1.94 184 1.97 130 1.98 160 2.02 157 2.04 175 2.06
  50  0.672  0.500  0.500- 185 1.82 176 2.01 132 2.01 161 2.01 158 2.13 131 2.14
  51  0.673  0.500  0.827- 132 1.94 186 1.96 162 2.02 159 2.04 177 2.06 130 2.07
  52  0.671  0.829  0.171- 134 1.94 187 1.95 160 1.95 154 2.05 178 2.06 133 2.07
  53  0.673  0.827  0.500- 161 1.94 188 1.96 135 2.03 134 2.04 179 2.06 155 2.08
  54  0.671  0.828  0.828- 189 1.95 162 1.95 135 1.96 180 2.06 133 2.07 156 2.07
  55  0.171  1.000  0.170- 191 1.94 145 1.96 163 2.03 169 2.03 136 2.06 190 2.07
  56  0.173  0.002  0.500- 170 1.88 164 1.99 146 1.99 192 2.03 191 2.04 137 2.07
  57  0.172  0.999  0.829- 192 1.94 147 1.96 165 2.01 171 2.03 190 2.06 138 2.06
  58  0.172  0.329  0.171- 163 1.94 148 1.96 194 2.01 139 2.04 193 2.04 166 2.05
  59  0.173  0.321  0.501- 164 1.87 149 1.94 195 1.97 194 1.99 140 1.99
  60  0.171  0.328  0.829- 165 1.96 150 1.99 195 2.00 141 2.06 193 2.08 168 2.10
  61  0.172  0.671  0.170- 197 1.93 169 1.94 151 1.97 196 2.05 142 2.06 166 2.08
  62  0.174  0.697  0.499- 170 1.81 143 1.82 152 1.95 198 2.03 197 2.08
  63  0.172  0.671  0.829- 171 1.93 153 1.98 198 2.01 144 2.04 168 2.07 196 2.07
  64  0.500  1.000  0.170- 200 1.94 172 2.02 145 2.02 154 2.02 178 2.03 199 2.07
  65  0.502  0.001  0.500- 146 1.98 173 2.00 155 2.01 201 2.02 200 2.03 179 2.04
  66  0.500  1.000  0.829- 201 1.96 147 2.01 156 2.02 174 2.02 180 2.03 199 2.06
  67  0.501  0.328  0.170- 172 1.95 203 1.95 157 2.01 148 2.01 202 2.06 175 2.07
  68  0.502  0.327  0.500- 173 1.94 158 1.95 204 2.02 203 2.03 149 2.05 176 2.07
  69  0.501  0.328  0.829- 174 1.94 204 1.96 150 2.00 159 2.03 202 2.05 177 2.06
  70  0.501  0.671  0.162- 178 1.93 205 1.98 151 2.00 160 2.03 206 2.05 175 2.08
  71  0.502  0.672  0.500- 179 1.94 207 2.01 206 2.03 152 2.05 161 2.05 176 2.09
  72  0.501  0.671  0.828- 180 1.94 207 1.96 162 1.99 153 2.00 205 2.05 177 2.09
  73  0.829  0.999  0.171- 209 1.94 154 1.95 181 1.99 187 2.03 208 2.07 136 2.08
  74  0.828  0.000  0.499- 155 1.94 188 1.98 182 2.01 210 2.02 209 2.03 137 2.09
  75  0.828  1.000  0.829- 156 1.94 210 1.96 189 1.97 183 1.99 208 2.06 138 2.09
  76  0.829  0.327  0.162- 212 1.94 157 1.95 211 1.96 181 1.97 184 2.08 139 2.11
  77  0.825  0.324  0.500- 185 1.79 182 1.91 158 1.95 213 2.02 212 2.15 140 2.22  32 2.57
  78  0.838  0.328  0.829- 213 1.97 183 1.97 141 1.98 159 2.04 211 2.05 186 2.07
  79  0.829  0.671  0.170- 187 1.94 160 1.95 215 1.95 214 2.07 184 2.08 142 2.09
  80  0.849  0.674  0.501- 167 1.83 188 1.97 215 2.06 161 2.15 143 2.19 216 2.20
  81  0.829  0.672  0.830- 216 1.81 162 1.98 189 1.99 214 2.05 186 2.10 144 2.10
  82  0.171  0.170  1.000- 193 1.94 118 1.96 165 2.03 163 2.04 109 2.06 190 2.07
  83  0.172  0.171  0.329- 163 1.94 119 1.96 194 2.01 110 2.04 191 2.05 164 2.05
  84  0.172  0.170  0.671- 195 1.92 165 1.94 120 1.97 192 2.04 111 2.06 164 2.08
  85  0.173  0.500  0.002- 168 1.88 166 1.99 121 1.99 196 2.03 193 2.04 112 2.07
  86  0.173  0.501  0.321- 166 1.87 122 1.94 197 1.98 113 1.99 194 1.99
  87  0.174  0.499  0.697- 168 1.81 114 1.81 123 1.96 198 2.04 195 2.09
  88  0.172  0.829  0.999- 196 1.95 124 1.96 169 2.01 171 2.04 190 2.05 115 2.06
  89  0.171  0.829  0.328- 169 1.96 125 1.99 197 2.00 116 2.06 191 2.08 170 2.10
  90  0.172  0.830  0.671- 171 1.93 126 1.98 198 2.00 117 2.04 192 2.07 170 2.07
  91  0.500  0.170  1.000- 202 1.94 118 2.02 172 2.02 127 2.03 174 2.03 199 2.07
  92  0.501  0.170  0.328- 172 1.95 203 1.95 119 2.01 128 2.01 173 2.07 200 2.07
  93  0.501  0.170  0.671- 174 1.94 204 1.96 120 1.99 129 2.02 201 2.06 173 2.08
  94  0.502  0.499  0.000- 121 1.98 175 2.00 130 2.01 205 2.02 202 2.03 177 2.03
  95  0.502  0.500  0.327- 131 1.95 175 1.95 206 2.02 203 2.04 122 2.05 176 2.08
  96  0.502  0.500  0.672- 177 1.94 207 2.01 204 2.03 123 2.05 132 2.06 176 2.08
  97  0.500  0.829  1.000- 205 1.96 124 2.01 178 2.01 133 2.01 180 2.03 199 2.05
  98  0.501  0.828  0.327- 178 1.95 206 1.95 125 2.00 134 2.03 200 2.06 179 2.07
  99  0.501  0.829  0.671- 180 1.94 207 1.96 135 1.98 126 2.00 201 2.07 179 2.09
 100  0.829  0.162  1.000- 127 1.95 208 1.98 181 1.99 183 2.03 211 2.03 109 2.08
 101  0.829  0.169  0.327- 212 1.88 128 1.95 181 1.97 209 2.04 182 2.07 110 2.10
 102  0.829  0.170  0.671- 183 1.94 213 1.94 129 1.94 210 2.05 182 2.08 111 2.09
 103  0.829  0.500  1.000- 130 1.94 186 1.99 184 2.00 214 2.02 211 2.05 112 2.09
 104  0.825  0.499  0.324- 185 1.80 184 1.92 131 1.95 215 2.02 212 2.11 113 2.22  32 2.58
 105  0.850  0.500  0.674- 167 1.81 186 1.95 213 2.05 132 2.15 114 2.19
 106  0.828  0.829  1.000- 133 1.95 214 1.96 189 1.98 187 2.00 208 2.04 115 2.09
 107  0.838  0.829  0.328- 187 1.96 215 1.97 116 1.98 134 2.04 188 2.06 209 2.08
 108  0.828  0.838  0.672- 216 1.83 210 1.97 135 1.98 189 1.98 188 2.10 117 2.12
 109  0.001  0.163  0.002-   4 1.97   1 1.98  28 2.04  82 2.06 100 2.08  30 2.08
 110  0.003  0.167  0.331-   5 1.92  28 1.95   2 2.01  29 2.03  83 2.04 101 2.10
 111  0.002  0.166  0.667-   6 1.94  30 1.97   3 2.00  29 2.02  84 2.06 102 2.09
 112  0.001  0.499  0.004-  33 1.88  31 2.01  85 2.07   4 2.08   7 2.09 103 2.09
 113  0.009  0.498  0.332-  32 1.83  31 1.96  86 1.99   5 2.08   8 2.12 104 2.22
 114  0.026  0.472  0.704-  33 1.80  87 1.81   6 1.82 105 2.19
 115  0.002  0.832  0.998-   7 1.94  34 1.97   1 2.03  36 2.06  88 2.06 106 2.09
 116  0.002  0.841  0.321-   2 1.93  34 1.93 107 1.98   8 2.02  89 2.06  35 2.16
 117  0.003  0.836  0.666-  36 1.96   9 1.97   3 1.99  35 2.02  90 2.04 108 2.12
 118  0.333  0.167  1.000-  13 1.94  82 1.96  10 2.02  91 2.02  37 2.06  39 2.07
 119  0.334  0.168  0.332-  14 1.93  37 1.95  83 1.96  92 2.01  38 2.03  11 2.03
 120  0.336  0.167  0.667-  15 1.95  39 1.96  84 1.97  93 1.99  38 2.02  12 2.02
 121  0.338  0.499  0.004-  42 1.90  94 1.98  85 1.99  40 2.01  13 2.07  16 2.09
 122  0.333  0.498  0.337-  86 1.94  41 1.99  40 2.00  95 2.05  14 2.06  17 2.10
 123  0.332  0.499  0.663-  87 1.96  41 1.98  96 2.05  15 2.06  18 2.07  42 2.23
 124  0.334  0.831  0.999-  16 1.93  88 1.96  97 2.01  10 2.03  45 2.06  43 2.07
 125  0.336  0.833  0.332-  43 1.95  17 1.95  89 1.99  98 2.00  11 2.02  44 2.04
 126  0.336  0.832  0.667-  45 1.96  18 1.96  90 1.98  99 2.00  44 2.03  12 2.04
 127  0.668  0.166  0.999- 100 1.95  22 1.96  19 2.01  91 2.03  48 2.05  46 2.07
 128  0.667  0.165  0.331-  46 1.94 101 1.95  23 1.97  20 2.01  92 2.01  47 2.04
 129  0.668  0.166  0.667- 102 1.94  48 1.95  24 1.97  21 2.01  93 2.02  47 2.03
 130  0.668  0.499  0.999- 103 1.94  49 1.98  94 2.01  22 2.07  51 2.07  25 2.08
 131  0.663  0.500  0.323-  49 1.94  95 1.95 104 1.95  26 2.06  23 2.07  50 2.14
 132  0.672  0.499  0.666-  51 1.94  50 2.01  24 2.05  96 2.06  27 2.08 105 2.15
 133  0.667  0.832  1.000-  25 1.94 106 1.95  97 2.01  19 2.03  54 2.07  52 2.07
 134  0.670  0.831  0.331-  52 1.94  26 1.94  20 2.03  98 2.03  53 2.04 107 2.04
 135  0.664  0.836  0.667-  54 1.96  99 1.98  21 1.98 108 1.98  27 2.00  53 2.03
 136  0.001  0.001  0.164-   2 1.96   1 1.99  28 2.04  55 2.06  34 2.08  73 2.08
 137  0.002  0.004  0.499-  35 1.88  29 2.00  56 2.07   2 2.08   3 2.09  74 2.09
 138  0.001  0.998  0.832-   3 1.94  30 1.97   1 2.03  36 2.06  57 2.06  75 2.09
 139  0.003  0.331  0.166-   5 1.93  28 1.95   4 2.01  31 2.03  58 2.04  76 2.11
 140  0.008  0.331  0.498-  32 1.83  29 1.95  59 1.99   5 2.08   6 2.13  77 2.22
 141  0.002  0.320  0.841-  30 1.92   4 1.92  78 1.98   6 2.02  60 2.06  33 2.18
 142  0.002  0.667  0.166-   8 1.94  34 1.97   7 2.01  31 2.02  61 2.06  79 2.09
 143  0.026  0.704  0.475-  35 1.80  62 1.82   8 1.84  80 2.19
 144  0.003  0.667  0.833-  36 1.95   7 2.01  33 2.03  63 2.04   9 2.07  81 2.10
 145  0.333  0.999  0.167-  11 1.94  55 1.96  64 2.02  10 2.02  43 2.06  37 2.07
 146  0.338  0.004  0.499-  44 1.90  65 1.98  56 1.99  38 2.01  11 2.07  12 2.09
 147  0.334  0.999  0.832-  12 1.93  57 1.96  66 2.01  10 2.03  45 2.06  39 2.07
 148  0.334  0.332  0.168-  14 1.93  37 1.95  58 1.96  67 2.01  40 2.03  13 2.03
 149  0.333  0.337  0.498-  59 1.94  41 1.99  38 2.01  68 2.05  14 2.05  15 2.10
 150  0.336  0.332  0.833-  39 1.95  15 1.95  60 1.99  69 2.00  13 2.02  42 2.04
 151  0.336  0.667  0.167-  17 1.96  43 1.96  61 1.97  70 2.00  16 2.01  40 2.02
 152  0.332  0.663  0.499-  62 1.95  41 1.98  71 2.05  17 2.06  18 2.07  44 2.23
 153  0.336  0.667  0.832-  18 1.95  45 1.96  63 1.98  72 2.00  42 2.03  16 2.03
 154  0.668  0.998  0.167-  20 1.95  73 1.95  19 2.02  64 2.02  52 2.05  46 2.07
 155  0.668  0.999  0.499-  74 1.94  47 1.97  65 2.01  20 2.06  53 2.08  21 2.08
 156  0.667  1.000  0.832-  21 1.94  75 1.94  66 2.02  19 2.03  48 2.07  54 2.07
 157  0.667  0.331  0.164-  46 1.94  76 1.95  23 1.98  22 2.00  67 2.01  49 2.04
 158  0.663  0.324  0.500-  47 1.95  68 1.95  77 1.95  24 2.06  23 2.08  50 2.13
 159  0.669  0.331  0.831-  48 1.94  24 1.94  22 2.03  69 2.03  51 2.04  78 2.04
 160  0.668  0.667  0.165-  79 1.95  52 1.95  26 1.98  25 2.00  49 2.02  70 2.03
 161  0.671  0.666  0.498-  53 1.94  50 2.01  26 2.05  71 2.05  27 2.08  80 2.15
 162  0.665  0.667  0.835-  54 1.95  81 1.98  27 1.98  72 1.99  25 1.99  51 2.02
 163  0.169  0.168  0.168-  37 1.93  83 1.94  58 1.94  55 2.03  82 2.04  28 2.04
 164  0.171  0.166  0.499-  59 1.87  56 1.99  38 2.01  83 2.05  29 2.06  84 2.08
 165  0.170  0.166  0.832-  39 1.93  84 1.94  60 1.96  57 2.01  82 2.03  30 2.05
 166  0.171  0.499  0.166-  86 1.87  85 1.99  40 2.01  58 2.05  31 2.06  61 2.08
 167  0.935  0.573  0.575-  32 1.71   9 1.78 105 1.81  80 1.83
 168  0.182  0.500  0.846-  87 1.81  85 1.88  42 1.98  63 2.07  60 2.10  33 2.19
 169  0.170  0.831  0.166-  43 1.93  61 1.94  89 1.96  88 2.01  55 2.03  34 2.05
 170  0.182  0.846  0.500-  62 1.81  56 1.88  44 1.98  90 2.07  89 2.10  35 2.19
 171  0.171  0.831  0.831-  90 1.93  63 1.93  45 2.01  57 2.03  88 2.04  36 2.06
 172  0.500  0.167  0.167-  92 1.95  67 1.95  64 2.02  91 2.02  37 2.06  46 2.07
 173  0.500  0.167  0.499-  68 1.94  38 1.96  65 2.00  47 2.06  92 2.07  93 2.08
 174  0.501  0.167  0.832-  93 1.94  69 1.94  66 2.02  91 2.03  48 2.06  39 2.07
 175  0.500  0.499  0.166-  95 1.95  40 1.96  94 2.00  49 2.06  67 2.07  70 2.08
 176  0.505  0.499  0.499-  41 1.85  50 2.01  68 2.07  95 2.08  96 2.08  71 2.09
 177  0.502  0.498  0.832-  42 1.90  96 1.94  94 2.03  51 2.06  69 2.06  72 2.09
 178  0.501  0.831  0.166-  70 1.93  98 1.95  97 2.01  64 2.03  52 2.06  43 2.06
 179  0.502  0.832  0.499-  44 1.90  71 1.94  65 2.04  53 2.06  98 2.07  99 2.09
 180  0.501  0.832  0.832-  72 1.94  99 1.94  45 1.98  97 2.03  66 2.03  54 2.06
 181  0.832  0.164  0.164-  46 1.95 101 1.97  76 1.97 100 1.99  73 1.99  28 2.03
 182  0.834  0.166  0.499-  77 1.91  47 1.97  74 2.01  29 2.01 101 2.07 102 2.08
 183  0.833  0.164  0.832- 102 1.94  48 1.95  78 1.97  75 1.99  30 2.03 100 2.03
 184  0.834  0.499  0.165- 104 1.92  49 1.97 103 2.00  31 2.01  79 2.08  76 2.08
 185  0.816  0.470  0.469-  77 1.79 104 1.80  50 1.82  32 1.89
 186  0.835  0.499  0.835- 105 1.95  51 1.96 103 1.99  33 2.00  78 2.07  81 2.10
 187  0.833  0.831  0.165-  79 1.94  52 1.95 107 1.96 106 2.00  34 2.03  73 2.03
 188  0.835  0.836  0.498-  53 1.96  80 1.97  74 1.98  35 2.00 107 2.06 108 2.10
 189  0.833  0.837  0.836-  54 1.95  75 1.97 108 1.98 106 1.98  81 1.99  36 2.03
 190  0.169  0.999  0.999-  10 1.94   1 2.03  88 2.05  57 2.06  55 2.07  82 2.07
 191  0.170  0.001  0.331-  11 1.93  55 1.94  56 2.04   2 2.05  83 2.05  89 2.08
 192  0.170  0.001  0.668-  12 1.93  57 1.94  56 2.03   3 2.04  84 2.04  90 2.07
 193  0.170  0.330  0.001-  13 1.93  82 1.94  85 2.04  58 2.04   4 2.05  60 2.08
 194  0.170  0.337  0.337-  86 1.99  59 1.99  83 2.01  58 2.01  14 2.03   5 2.06
 195  0.177  0.329  0.664-  84 1.92  15 1.94  59 1.97  60 2.00  87 2.09   6 2.12
 196  0.169  0.668  0.001-  16 1.93  88 1.95  85 2.03   7 2.04  61 2.05  63 2.07
 197  0.176  0.664  0.330-  61 1.93  17 1.96  86 1.98  89 2.00  62 2.08   8 2.11
 198  0.169  0.664  0.664-  18 1.94  90 2.00  63 2.01  62 2.03   9 2.04  87 2.04
 199  0.500  0.999  0.999-  97 2.05  19 2.06  66 2.06  10 2.06  91 2.07  64 2.07
 200  0.501  0.999  0.331-  64 1.94  65 2.03  98 2.06  20 2.06  92 2.07  11 2.07
 201  0.500  1.000  0.667-  66 1.96  65 2.02  93 2.06  12 2.06  21 2.06  99 2.07
 202  0.501  0.331  0.999-  91 1.94  94 2.03  69 2.05  22 2.06  67 2.06  13 2.07
 203  0.501  0.331  0.331-  67 1.95  92 1.95  14 1.97  68 2.03  95 2.04  23 2.08
 204  0.501  0.332  0.667-  69 1.96  93 1.96  15 1.97  68 2.02  96 2.03  24 2.08
 205  0.500  0.667  0.998-  97 1.96  70 1.98  94 2.02  72 2.05  25 2.07  16 2.07
 206  0.501  0.667  0.332-  98 1.95  17 1.97  95 2.02  71 2.03  70 2.05  26 2.07
 207  0.501  0.666  0.666-  72 1.96  99 1.96  96 2.01  71 2.01  18 2.07  27 2.07
 208  0.832  0.998  1.000-  19 1.95 100 1.98   1 2.03 106 2.04  75 2.06  73 2.07
 209  0.833  0.001  0.331-  73 1.94  20 1.95   2 2.02  74 2.03 101 2.04 107 2.08
 210  0.833  0.001  0.667-  75 1.96  21 1.96 108 1.97  74 2.02   3 2.03 102 2.05
 211  0.833  0.330  0.999-  22 1.95  76 1.96   4 2.02 100 2.03 103 2.05  78 2.05
 212  0.835  0.324  0.322- 101 1.88  76 1.94  23 1.97   5 1.99 104 2.11  77 2.15
 213  0.837  0.331  0.666- 102 1.94  78 1.97  24 1.98   6 2.00  77 2.02 105 2.05
 214  0.833  0.667  0.999-  25 1.95 106 1.96   7 2.02 103 2.02  81 2.05  79 2.07
 215  0.837  0.666  0.331-  79 1.95 107 1.97  26 1.99   8 2.00 104 2.02  80 2.06
 216  0.822  0.687  0.681-  81 1.81  27 1.83 108 1.83   9 2.17  80 2.20
 
  LATTYP: Found a simple cubic cell.
 ALAT       =    12.0789003372
  
  Lattice vectors:
  
 A1 = (  12.0789003372,   0.0000000000,   0.0000000000)
 A2 = (   0.0000000000,  12.0789003372,   0.0000000000)
 A3 = (   0.0000000000,   0.0000000000,  12.0789003372)


Analysis of symmetry for initial positions (statically):
=====================================================================
 Subroutine PRICEL returns:
 Original cell was already a primitive cell.
 

 Routine SETGRP: Setting up the symmetry group for a 
 simple cubic supercell.


 Subroutine GETGRP returns: Found  1 space group operations
 (whereof  1 operations were pure point group operations)
 out of a pool of 48 trial point group operations.


The static configuration has the point symmetry C_1 .


Analysis of symmetry for dynamics (positions and initial velocities):
=====================================================================
 Subroutine PRICEL returns:
 Original cell was already a primitive cell.
 

 Routine SETGRP: Setting up the symmetry group for a 
 simple cubic supercell.


 Subroutine GETGRP returns: Found  1 space group operations
 (whereof  1 operations were pure point group operations)
 out of a pool of 48 trial point group operations.


The dynamic configuration has the point symmetry C_1 .


Analysis of structural, dynamic, and magnetic symmetry:
=====================================================================
 Subroutine PRICEL returns:
 Original cell was already a primitive cell.
 

 Routine SETGRP: Setting up the symmetry group for a 
 simple cubic supercell.


 Subroutine GETGRP returns: Found  1 space group operations
 (whereof  1 operations were pure point group operations)
 out of a pool of 48 trial point group operations.


The overall configuration has the point symmetry C_1 .


 Subroutine INISYM returns: Found  1 space group operations
 (whereof  1 operations are pure point group operations),
 and found     1 'primitive' translations


----------------------------------------------------------------------------------------

                                     Primitive cell                                     

  volume of cell :    1762.3095

  direct lattice vectors                    reciprocal lattice vectors
    12.078900337  0.000000000  0.000000000     0.082788993  0.000000000  0.000000000
     0.000000000 12.078900337  0.000000000     0.000000000  0.082788993  0.000000000
     0.000000000  0.000000000 12.078900337     0.000000000  0.000000000  0.082788993

  length of vectors
    12.078900337 12.078900337 12.078900337     0.082788993  0.082788993  0.082788993

  position of ions in fractional coordinates (direct lattice)
     0.000419206  0.999536117  0.999928964
     0.000564617  0.000540247  0.326493240
     0.000734049  0.000201921  0.671448641
     0.000554014  0.326167826  0.000342511
     0.999883657  0.326374875  0.326119150
     0.001751645  0.326591552  0.673991976
     0.000399088  0.671372250  0.999787648
     0.001796188  0.673922375  0.327138380
     0.000260692  0.672781374  0.661807019
     0.329204511  0.999665227  0.999738956
     0.329386395  0.000193377  0.327748020
     0.329594691  0.000296936  0.671627636
     0.329329480  0.327632191  0.000246710
     0.337476291  0.328399770  0.328454293
     0.337328767  0.328891988  0.671776528
     0.328910736  0.671519530  0.000062563
     0.337888102  0.671673983  0.328640636
     0.329232266  0.670116173  0.670129522
     0.670643067  0.999313709  0.999707738
     0.671480851  0.999060610  0.327947958
     0.670377560  0.999805334  0.671331391
     0.671544272  0.327542695  0.998797502
     0.672347163  0.328669630  0.328189104
     0.672497888  0.329236289  0.670238661
     0.671399378  0.671256454  0.999212336
     0.672174954  0.670070233  0.329008911
     0.672117473  0.671141540  0.670495848
     0.000109024  0.169910875  0.170005117
     0.000369559  0.169954346  0.499650768
     0.000467884  0.161319218  0.829397074
     0.000344265  0.499626963  0.169944071
     0.971939357  0.476966339  0.477144027
     0.000576564  0.499847376  0.848137247
     0.000446936  0.829215021  0.161462337
     0.000544276  0.848845496  0.499316943
     0.000038037  0.827959924  0.828086921
     0.329497252  0.170389901  0.170505060
     0.337598239  0.170697907  0.499842853
     0.329827546  0.170427912  0.828811058
     0.337615236  0.499769533  0.170791424
     0.352124641  0.500312317  0.500347741
     0.345629925  0.499664163  0.846985228
     0.329810457  0.828717296  0.170539923
     0.345713216  0.846972455  0.499689200
     0.337211339  0.828673866  0.828725842
     0.671213279  0.170151053  0.170213906
     0.670943205  0.162547884  0.499601086
     0.671458706  0.170754009  0.828748158
     0.670982026  0.499570090  0.162353621
     0.671678541  0.499800733  0.499797407
     0.673043467  0.499549184  0.827323790
     0.671452992  0.828585730  0.170826603
     0.672995759  0.827324699  0.499543698
     0.671487509  0.828395747  0.828395804
     0.171173997  0.999731653  0.170495340
     0.173171524  0.001600386  0.499636500
     0.172073372  0.999233706  0.828825571
     0.171871043  0.328721269  0.170556931
     0.173003288  0.320913839  0.500709373
     0.171339088  0.327965867  0.829081473
     0.172339024  0.670717717  0.170337565
     0.173975517  0.696583975  0.498940946
     0.171797597  0.671001116  0.829428993
     0.500166000  0.999627407  0.170493909
     0.501504138  0.000559026  0.499684900
     0.500392586  0.999970065  0.828585424
     0.500785930  0.327958484  0.169764085
     0.502289017  0.327295011  0.499670674
     0.501153704  0.327581318  0.829027798
     0.500667058  0.671122947  0.162430152
     0.501549467  0.671606797  0.499817380
     0.501016208  0.671205514  0.828394495
     0.829070335  0.999396468  0.170599714
     0.828485086  0.000137815  0.499195816
     0.828320087  0.999540813  0.829112799
     0.828850284  0.327279181  0.161539825
     0.824871320  0.324320370  0.499546688
     0.838305486  0.327609923  0.829128130
     0.829249846  0.670820926  0.170383046
     0.849260036  0.673671387  0.500864694
     0.828816350  0.672217423  0.829926235
     0.171167713  0.170297166  0.999802637
     0.171873723  0.170555712  0.328854338
     0.172439268  0.170202124  0.670886892
     0.173083142  0.499560354  0.001589761
     0.173024830  0.500606020  0.321033766
     0.173568863  0.499067749  0.696622940
     0.172007380  0.828708683  0.999296583
     0.171483131  0.829153018  0.328009015
     0.172278592  0.829883361  0.671107233
     0.500163698  0.170283531  0.999701519
     0.500786869  0.169880039  0.328023864
     0.500733184  0.170069908  0.671184831
     0.501532775  0.499319406  0.000373905
     0.502311230  0.499954264  0.327072775
     0.501537027  0.499940588  0.671624203
     0.500401430  0.829033203  0.999701787
     0.501192744  0.828457235  0.327377613
     0.500970256  0.828612816  0.671219145
     0.829063188  0.161973501  0.999557451
     0.828880486  0.169326301  0.327300609
     0.829171708  0.170487802  0.671012169
     0.828584301  0.499705199  0.999609672
     0.824851159  0.499107720  0.323980162
     0.849836929  0.500133062  0.673786740
     0.828364170  0.828844916  0.999540957
     0.838181644  0.828744869  0.327967236
     0.827956706  0.837916912  0.671895623
     0.001021174  0.163275067  0.001534019
     0.002931012  0.167128787  0.331334800
     0.002035907  0.166101632  0.666679305
     0.001489708  0.498620337  0.003594527
     0.008796794  0.498411275  0.331641284
     0.026375630  0.471747247  0.704156251
     0.001562616  0.831568141  0.998472090
     0.001865377  0.840732034  0.321010948
     0.003431083  0.835613131  0.666348709
     0.333024814  0.166660579  0.999813587
     0.334185832  0.168305128  0.331827158
     0.335716694  0.167255704  0.666914247
     0.338031828  0.499063128  0.004416110
     0.332915064  0.498302349  0.336615169
     0.331967977  0.499164326  0.662737436
     0.333982544  0.831384817  0.999058009
     0.335745615  0.832971351  0.331614980
     0.335810565  0.831889194  0.666890726
     0.667756669  0.165714293  0.998744771
     0.667439064  0.165283463  0.330584573
     0.668272723  0.165911699  0.667298085
     0.668013839  0.498717194  0.998649916
     0.663347437  0.499552063  0.323148844
     0.671948774  0.498768678  0.666344532
     0.667168368  0.831546749  0.999531593
     0.669526273  0.831036904  0.331046080
     0.664259390  0.836208703  0.666762561
     0.001113804  0.000998215  0.164480820
     0.001547332  0.004080605  0.498719499
     0.001375152  0.998284581  0.831752541
     0.003197862  0.331304293  0.166400148
     0.008453678  0.331322066  0.498130759
     0.001810349  0.319568028  0.841259924
     0.001987510  0.666575665  0.166423452
     0.025688736  0.704137124  0.474905903
     0.002886809  0.667044259  0.833410883
     0.333025030  0.999496499  0.166898150
     0.337989999  0.004374673  0.499068333
     0.333999343  0.998928394  0.831733128
     0.334173327  0.331717872  0.168400163
     0.333015804  0.336633807  0.498294019
     0.335801108  0.331591028  0.833217264
     0.335546074  0.666736389  0.166677617
     0.332093212  0.662600351  0.499153707
     0.335661587  0.666828491  0.831817848
     0.667671472  0.998499631  0.166688313
     0.667977636  0.999135351  0.498756395
     0.667319648  0.999620536  0.831840091
     0.667315271  0.330514616  0.164254719
     0.663403619  0.323501705  0.499703776
     0.669357083  0.330997152  0.831044819
     0.668325820  0.667148152  0.165044534
     0.671373235  0.666385615  0.498390905
     0.665189334  0.666852373  0.834509462
     0.169339372  0.168041120  0.168291023
     0.171158788  0.166023493  0.498546054
     0.170273436  0.165582386  0.831695293
     0.171143523  0.498564931  0.166164470
     0.934748529  0.573191774  0.574573919
     0.181847664  0.500484872  0.846137080
     0.170156989  0.831372837  0.165984266
     0.181698831  0.846058780  0.500372766
     0.170580506  0.830823249  0.830826462
     0.500145267  0.166673825  0.166842070
     0.500191623  0.166529623  0.498984182
     0.500747876  0.166921437  0.831598722
     0.500210216  0.499043505  0.165713466
     0.505217312  0.498874369  0.499132076
     0.502316217  0.498454004  0.832030987
     0.500691251  0.831261466  0.166249191
     0.502251539  0.832062859  0.498556515
     0.501079169  0.831730412  0.831753069
     0.832422380  0.164395743  0.164489512
     0.833643638  0.166088572  0.498690284
     0.832739135  0.164237215  0.831504725
     0.833665242  0.499100869  0.164926268
     0.816164873  0.469525104  0.469386183
     0.835208066  0.498937527  0.834715519
     0.832851070  0.831114598  0.165408323
     0.835312109  0.836056714  0.498059505
     0.832668966  0.836606147  0.835715851
     0.168873309  0.998559864  0.998985949
     0.169839002  0.001179042  0.330744967
     0.169620408  0.001136984  0.667838587
     0.169908301  0.330491858  0.001295382
     0.170195383  0.336523870  0.336586482
     0.176901102  0.328970149  0.663938127
     0.169192423  0.667696943  0.001039742
     0.176155612  0.663990905  0.329797378
     0.168607816  0.664355626  0.663521364
     0.500038632  0.999046652  0.999226788
     0.500803424  0.998860177  0.331482745
     0.499954519  0.999794681  0.666694351
     0.500766564  0.331271360  0.998890466
     0.500521040  0.331473523  0.331260954
     0.500722988  0.332278075  0.667065758
     0.500186797  0.666553615  0.998216326
     0.500793934  0.666849090  0.331801996
     0.500561693  0.666188517  0.666186452
     0.832238964  0.997945344  0.999582851
     0.833074294  0.000562481  0.331110373
     0.832942248  0.000979108  0.666706214
     0.833018047  0.330393725  0.999039296
     0.835181639  0.324479740  0.321854236
     0.836574923  0.330896138  0.666080358
     0.833187392  0.666960355  0.999387692
     0.836750567  0.665752061  0.331308285
     0.822144635  0.686609609  0.680625115

  ion indices of the primitive-cell ions
   primitive index   ion index
                 1           1
                 2           2
                 3           3
                 4           4
                 5           5
                 6           6
                 7           7
                 8           8
                 9           9
                10          10
                11          11
                12          12
                13          13
                14          14
                15          15
                16          16
                17          17
                18          18
                19          19
                20          20
                21          21
                22          22
                23          23
                24          24
                25          25
                26          26
                27          27
                28          28
                29          29
                30          30
                31          31
                32          32
                33          33
                34          34
                35          35
                36          36
                37          37
                38          38
                39          39
                40          40
                41          41
                42          42
                43          43
                44          44
                45          45
                46          46
                47          47
                48          48
                49          49
                50          50
                51          51
                52          52
                53          53
                54          54
                55          55
                56          56
                57          57
                58          58
                59          59
                60          60
                61          61
                62          62
                63          63
                64          64
                65          65
                66          66
                67          67
                68          68
                69          69
                70          70
                71          71
                72          72
                73          73
                74          74
                75          75
                76          76
                77          77
                78          78
                79          79
                80          80
                81          81
                82          82
                83          83
                84          84
                85          85
                86          86
                87          87
                88          88
                89          89
                90          90
                91          91
                92          92
                93          93
                94          94
                95          95
                96          96
                97          97
                98          98
                99          99
               100         100
               101         101
               102         102
               103         103
               104         104
               105         105
               106         106
               107         107
               108         108
               109         109
               110         110
               111         111
               112         112
               113         113
               114         114
               115         115
               116         116
               117         117
               118         118
               119         119
               120         120
               121         121
               122         122
               123         123
               124         124
               125         125
               126         126
               127         127
               128         128
               129         129
               130         130
               131         131
               132         132
               133         133
               134         134
               135         135
               136         136
               137         137
               138         138
               139         139
               140         140
               141         141
               142         142
               143         143
               144         144
               145         145
               146         146
               147         147
               148         148
               149         149
               150         150
               151         151
               152         152
               153         153
               154         154
               155         155
               156         156
               157         157
               158         158
               159         159
               160         160
               161         161
               162         162
               163         163
               164         164
               165         165
               166         166
               167         167
               168         168
               169         169
               170         170
               171         171
               172         172
               173         173
               174         174
               175         175
               176         176
               177         177
               178         178
               179         179
               180         180
               181         181
               182         182
               183         183
               184         184
               185         185
               186         186
               187         187
               188         188
               189         189
               190         190
               191         191
               192         192
               193         193
               194         194
               195         195
               196         196
               197         197
               198         198
               199         199
               200         200
               201         201
               202         202
               203         203
               204         204
               205         205
               206         206
               207         207
               208         208
               209         209
               210         210
               211         211
               212         212
               213         213
               214         214
               215         215
               216         216

----------------------------------------------------------------------------------------

 
 
 KPOINTS: Gamma-point only                        

Automatic generation of k-mesh.
 Grid dimensions read from file:
 generate k-points for:    1    1    1

 Generating k-lattice:

  Cartesian coordinates                     Fractional coordinates (reciprocal lattice)
     0.082788993  0.000000000  0.000000000     1.000000000  0.000000000  0.000000000
     0.000000000  0.082788993  0.000000000     0.000000000  1.000000000  0.000000000
     0.000000000  0.000000000  0.082788993     0.000000000  0.000000000  1.000000000

  Length of vectors
     0.082788993  0.082788993  0.082788993

  Shift w.r.t. Gamma in fractional coordinates (k-lattice)
     0.000000000  0.000000000  0.000000000

 
 Subroutine IBZKPT returns following result:
 ===========================================
 
 Found      1 irreducible k-points:
 
 Following reciprocal coordinates:
            Coordinates               Weight
  0.000000  0.000000  0.000000      1.000000
 
 Following cartesian coordinates:
            Coordinates               Weight
  0.000000  0.000000  0.000000      1.000000
 
 
 Subroutine IBZKPT_HF returns following result:
 ==============================================
 
 Found      1 k-points in 1st BZ
 the following      1 k-points will be used (e.g. in the exchange kernel)
 Following reciprocal coordinates:   # in IRBZ
  0.000000  0.000000  0.000000    1.00000000   1 t-inv F


--------------------------------------------------------------------------------------------------------




 Dimension of arrays:
   k-points           NKPTS =      1   k-points in BZ     NKDIM =      1   number of bands    NBANDS=    649
   number of dos      NEDOS =    301   number of ions     NIONS =    216
   non local maximal  LDIM  =      4   non local SUM 2l+1 LMDIM =      8
   total plane-waves  NPLWV = 512000
   max r-space proj   IRMAX =      1   max aug-charges    IRDMAX=   3893
   dimension x,y,z NGX =    80 NGY =   80 NGZ =   80
   dimension x,y,z NGXF=   160 NGYF=  160 NGZF=  160
   support grid    NGXF=   160 NGYF=  160 NGZF=  160
   ions per type =             108 108
   NGX,Y,Z   is equivalent  to a cutoff of  11.01, 11.01, 11.01 a.u.
   NGXF,Y,Z  is equivalent  to a cutoff of  22.02, 22.02, 22.02 a.u.

 SYSTEM =  Si                                      
 POSCAR =  Li   F                                  

 Startparameter for this run:
   NWRITE =      2    write-flag & timer
   PREC   = accura    normal or accurate (medium, high low for compatibility)
   ISTART =      0    job   : 0-new  1-cont  2-samecut
   ICHARG =      2    charge: 1-file 2-atom 10-const
   ISPIN  =      2    spin polarized calculation?
   LNONCOLLINEAR =      F non collinear calculations
   LSORBIT =      F    spin-orbit coupling
   INIWAV =      1    electr: 0-lowe 1-rand  2-diag
   LASPH  =      F    aspherical Exc in radial PAW
 Electronic Relaxation 1
   ENCUT  =  400.0 eV  29.40 Ry    5.42 a.u.  19.70 19.70 19.70*2*pi/ulx,y,z
   ENINI  =  400.0     initial cutoff
   ENAUG  =  628.9 eV  augmentation charge cutoff
   NELM   =     20;   NELMIN=  2; NELMDL=  0     # of ELM steps 
   EDIFF  = 0.1E-09   stopping-criterion for ELM
   LREAL  =      F    real-space projection
   NLSPLINE    = F    spline interpolate recip. space projectors
   LCOMPAT=      F    compatible to vasp.4.4
   GGA_COMPAT  = T    GGA compatible to vasp.4.4-vasp.4.6
   LMAXPAW     = -100 max onsite density
   LMAXMIX     =    2 max onsite mixed and CHGCAR
   VOSKOWN=      0    Vosko Wilk Nusair interpolation
   ROPT   =    0.00000   0.00000
 Ionic relaxation
   EDIFFG = -.1E-01   stopping-criterion for IOM
   NSW    =    500    number of steps for IOM
   NBLOCK =      1;   KBLOCK =    500    inner block; outer block 
   IBRION =      3    ionic relax: 0-MD 1-quasi-New 2-CG
   NFREE  =      0    steps in history (QN), initial steepest desc. (CG)
   ISIF   =      0    stress and relaxation
   IWAVPR =     11    prediction:  0-non 1-charg 2-wave 3-comb
   ISYM   =      3    0-nonsym 1-usesym 2-fastsym
   LCORR  =      T    Harris-Foulkes like correction to forces

   POTIM  = 0.0000    time-step for ionic-motion
   TEIN   =    0.0    initial temperature
   TEBEG  =    0.0;   TEEND  =   0.0 temperature during run
   SMASS  =  -3.00    Nose mass-parameter (am)
   estimated Nose-frequenzy (Omega)   =  0.10E-29 period in steps = 0.00E+00 mass=  -0.333E-26a.u.
   SCALEE = 1.0000    scale energy and forces
   NPACO  =    256;   APACO  = 10.0  distance and # of slots for P.C.
   PSTRESS=    0.0 pullay stress

  Mass of Ions in am
   POMASS =   7.01 19.00
  Ionic Valenz
   ZVAL   =   3.00  7.00
  Atomic Wigner-Seitz radii
   RWIGS  =  -1.00 -1.00
  virtual crystal weights 
   VCA    =   1.00  1.00
   NELECT =    1080.0000    total number of electrons
   NUPDOWN=       0.0000    fix difference up-down

 DOS related values:
   EMIN   =  10.00;   EMAX   =-10.00  energy-range for DOS
   EFERMI =   0.00;   METHOD = LEGACY      
   ISMEAR =     0;   SIGMA  =   0.01  broadening in eV -4-tet -1-fermi 0-gaus

 Electronic relaxation 2 (details)
   IALGO  =     38    algorithm
   LDIAG  =      T    sub-space diagonalisation (order eigenvalues)
   LSUBROT=      T    optimize rotation matrix (better conditioning)
   TURBO    =      0    0=normal 1=particle mesh
   IRESTART =      0    0=no restart 2=restart with 2 vectors
   NREBOOT  =      0    no. of reboots
   NMIN     =      0    reboot dimension
   EREF     =   0.00    reference energy to select bands
   IMIX   =      1    mixing-type and parameters
     AMIX     =   0.40;   BMIX     =  1.00
     AMIX_MAG =   1.60;   BMIX_MAG =  1.00
     AMIN     =   0.10
     WC   =   100.;   INIMIX=   1;  MIXPRE=   1;  MAXMIX= -45

 Intra band minimization:
   WEIMIN = 0.0010     energy-eigenvalue tresh-hold
   EBREAK =  0.39E-13  absolut break condition
   DEPER  =   0.30     relativ break condition  

   TIME   =   0.40     timestep for ELM

  volume/ion in A,a.u.               =       8.16        55.06
  Fermi-wavevector in a.u.,A,eV,Ry     =   1.390557  2.627771 26.308875  1.933648
  Thomas-Fermi vector in A             =   2.514480
 
 Write flags
   LWAVE        =      T    write WAVECAR
   LDOWNSAMPLE  =      F    k-point downsampling of WAVECAR
   LCHARG       =      T    write CHGCAR
   LVTOT        =      F    write LOCPOT, total local potential
   LVHAR        =      F    write LOCPOT, Hartree potential only
   LELF         =      F    write electronic localiz. function (ELF)
   LORBIT       =      0    0 simple, 1 ext, 2 COOP (PROOUT), +10 PAW based schemes


 Dipole corrections
   LMONO  =      F    monopole corrections only (constant potential shift)
   LDIPOL =      F    correct potential (dipole corrections)
   IDIPOL =      0    1-x, 2-y, 3-z, 4-all directions 
   EPSILON=  1.0000000 bulk dielectric constant

 Exchange correlation treatment:
   GGA     =    --    GGA type
   LEXCH   =     8    internal setting for exchange type
   LIBXC   =     F    Libxc                    
   VOSKOWN =     0    Vosko Wilk Nusair interpolation
   EXXOEP  =     0    0=HF, 1=EXX-LHF (local Hartree Fock) 2=EXX OEP
   LHFCALC =     T    Hartree Fock is set to
   LSYMGRAD=     F    symmetrize gradient (conserves proper symmetry)
   PRECFOCK=fast      Normal, Fast or Accurate (Low or Medium for compatibility)
   LRHFCALC=     F    long range Hartree Fock
   LRSCOR  =     F    long range correlation only (use DFT for short range part)
   LTHOMAS =     F    Thomas Fermi screening in HF
   LMODELHF=     F    short range full HF, long range fraction AEXX
   FOCKCORR=     1    mode to apply convergence corrections
   LFOCKACE=     T    use Adeptively-Compressed-Exchange operator
   ENCUT4O =  -1.0   cutoff for four orbital integrals eV
   LMAXFOCK=     4    L truncation for augmentation on plane wave grid
   LMAXFOCKAE=  -1    L truncation for all-electron charge restoration on plane wave grid
   NMAXFOCKAE=   1    number of basis functions for all-electron charge restoration
   LFOCKAEDFT=     F  apply the AE augmentation even for DFT
   NKREDX  =     1    reduce k-point grid by
   NKREDY  =     1    reduce k-point grid by
   NKREDZ  =     1    reduce k-point grid by
   SHIFTRED=     F    shift reduced grid of Gamma
   HFKIDENT=     F    idential grid for each k-point
   ODDONLY =     F    use only odd q-grid points
   EVENONLY=     F    use only even q-grid points
   HFALPHA =   -1.0000 decay constant for conv. correction
   MCALPHA =    0.0000 extent of test-charge in conv. correction in multipole expansion
   AEXX    =    0.2500 exact exchange contribution
   HFSCREEN=    0.2000 screening length (either q_TF or 0.3 A-1)
   HFSCREENC=   0.2000 screening length for correlation (either q_TF or 0.3 A-1)
   HFRCUT  =    0.0000 spherical cutoff for potential kernel
   ALDAX   =    0.7500 LDA exchange part
   AGGAX   =    0.7500 GGA exchange part
   ALDAC   =    1.0000 LDA correlation
   AGGAC   =    1.0000 GGA correlation
   ENCUTFOCK=  -1.0 apply spherical cutoff to Coloumb kernel
   NBANDSGWLOW=     1    first orbital included in HF term
   NBLOCK_FOCK=    64    blocking factor in FOCK_ACC

 Linear response parameters
   LEPSILON=     F    determine dielectric tensor
   LRPA    =     F    only Hartree local field effects (RPA)
   LNABLA  =     F    use nabla operator in PAW spheres
   LVEL    =     F    velocity operator in full k-point grid
   CSHIFT  =0.1000    complex shift for real part using Kramers Kronig
   OMEGAMAX=  -1.0    maximum frequency
   DEG_THRESHOLD= 0.2000000E-02 threshold for treating states as degnerate
   RTIME   =   -0.100 relaxation time in fs
  (WPLASMAI=    0.000 imaginary part of plasma frequency in eV, 0.658/RTIME)
   DFIELD  = 0.0000000 0.0000000 0.0000000 field for delta impulse in time
 
  Optional k-point grid parameters
   LKPOINTS_OPT  =     F    use optional k-point grid
   KPOINTS_OPT_MODE=     1    mode for optional k-point grid
 
 Orbital magnetization related:
   ORBITALMAG=     F  switch on orbital magnetization
   LCHIMAG   =     F  perturbation theory with respect to B field
   DQ        =  0.001000  dq finite difference perturbation B field
   LLRAUG    =     F  two centre corrections for induced B field
   LBONE     =     F  B-component reconstruction in AE one-centre
   LVGVCALC  =     T  calculate vGv susceptibility
   LVGVAPPL  =     F  apply vGv susceptibility instead of pGv for G=0

 Random number generation:
   RANDOM_GENERATOR = DEFAULT
   PCG_SEED         = not used


--------------------------------------------------------------------------------------------------------


 quickmin algorithm: (dynamic with friction)
 charge density and potential will be updated during run
 spin polarized calculation
 Variant of blocked Davidson
 Davidson routine will perform the subspace rotation
 perform sub-space diagonalisation
    after iterative eigenvector-optimisation
 Kerker-like  mixing scheme
 using additional bands           109
 reciprocal scheme for non local part
 use partial core corrections
 calculate Harris-corrections to forces 
   (improved forces if not selfconsistent)
 use gradient corrections 
 use of overlap-Matrix (Vanderbilt PP)
 Gauss-broadening in eV      SIGMA  =   0.01


--------------------------------------------------------------------------------------------------------


  energy-cutoff  :      400.00
  volume of cell :     1762.31
      direct lattice vectors                 reciprocal lattice vectors
    12.078900337  0.000000000  0.000000000     0.082788993  0.000000000  0.000000000
     0.000000000 12.078900337  0.000000000     0.000000000  0.082788993  0.000000000
     0.000000000  0.000000000 12.078900337     0.000000000  0.000000000  0.082788993

  length of vectors
    12.078900337 12.078900337 12.078900337     0.082788993  0.082788993  0.082788993


 
 k-points in units of 2pi/SCALE and weight: Gamma-point only                        
   0.00000000  0.00000000  0.00000000       1.000
 
 k-points in reciprocal lattice and weights: Gamma-point only                        
   0.00000000  0.00000000  0.00000000       1.000
 
 position of ions in fractional coordinates (direct lattice) 
   0.00041921  0.99953612  0.99992896
   0.00056462  0.00054025  0.32649324
   0.00073405  0.00020192  0.67144864
   0.00055401  0.32616783  0.00034251
   0.99988366  0.32637487  0.32611915
   0.00175164  0.32659155  0.67399198
   0.00039909  0.67137225  0.99978765
   0.00179619  0.67392237  0.32713838
   0.00026069  0.67278137  0.66180702
   0.32920451  0.99966523  0.99973896
   0.32938640  0.00019338  0.32774802
   0.32959469  0.00029694  0.67162764
   0.32932948  0.32763219  0.00024671
   0.33747629  0.32839977  0.32845429
   0.33732877  0.32889199  0.67177653
   0.32891074  0.67151953  0.00006256
   0.33788810  0.67167398  0.32864064
   0.32923227  0.67011617  0.67012952
   0.67064307  0.99931371  0.99970774
   0.67148085  0.99906061  0.32794796
   0.67037756  0.99980533  0.67133139
   0.67154427  0.32754269  0.99879750
   0.67234716  0.32866963  0.32818910
   0.67249789  0.32923629  0.67023866
   0.67139938  0.67125645  0.99921234
   0.67217495  0.67007023  0.32900891
   0.67211747  0.67114154  0.67049585
   0.00010902  0.16991087  0.17000512
   0.00036956  0.16995435  0.49965077
   0.00046788  0.16131922  0.82939707
   0.00034427  0.49962696  0.16994407
   0.97193936  0.47696634  0.47714403
   0.00057656  0.49984738  0.84813725
   0.00044694  0.82921502  0.16146234
   0.00054428  0.84884550  0.49931694
   0.00003804  0.82795992  0.82808692
   0.32949725  0.17038990  0.17050506
   0.33759824  0.17069791  0.49984285
   0.32982755  0.17042791  0.82881106
   0.33761524  0.49976953  0.17079142
   0.35212464  0.50031232  0.50034774
   0.34562992  0.49966416  0.84698523
   0.32981046  0.82871730  0.17053992
   0.34571322  0.84697246  0.49968920
   0.33721134  0.82867387  0.82872584
   0.67121328  0.17015105  0.17021391
   0.67094320  0.16254788  0.49960109
   0.67145871  0.17075401  0.82874816
   0.67098203  0.49957009  0.16235362
   0.67167854  0.49980073  0.49979741
   0.67304347  0.49954918  0.82732379
   0.67145299  0.82858573  0.17082660
   0.67299576  0.82732470  0.49954370
   0.67148751  0.82839575  0.82839580
   0.17117400  0.99973165  0.17049534
   0.17317152  0.00160039  0.49963650
   0.17207337  0.99923371  0.82882557
   0.17187104  0.32872127  0.17055693
   0.17300329  0.32091384  0.50070937
   0.17133909  0.32796587  0.82908147
   0.17233902  0.67071772  0.17033757
   0.17397552  0.69658398  0.49894095
   0.17179760  0.67100112  0.82942899
   0.50016600  0.99962741  0.17049391
   0.50150414  0.00055903  0.49968490
   0.50039259  0.99997007  0.82858542
   0.50078593  0.32795848  0.16976409
   0.50228902  0.32729501  0.49967067
   0.50115370  0.32758132  0.82902780
   0.50066706  0.67112295  0.16243015
   0.50154947  0.67160680  0.49981738
   0.50101621  0.67120551  0.82839449
   0.82907033  0.99939647  0.17059971
   0.82848509  0.00013782  0.49919582
   0.82832009  0.99954081  0.82911280
   0.82885028  0.32727918  0.16153983
   0.82487132  0.32432037  0.49954669
   0.83830549  0.32760992  0.82912813
   0.82924985  0.67082093  0.17038305
   0.84926004  0.67367139  0.50086469
   0.82881635  0.67221742  0.82992624
   0.17116771  0.17029717  0.99980264
   0.17187372  0.17055571  0.32885434
   0.17243927  0.17020212  0.67088689
   0.17308314  0.49956035  0.00158976
   0.17302483  0.50060602  0.32103377
   0.17356886  0.49906775  0.69662294
   0.17200738  0.82870868  0.99929658
   0.17148313  0.82915302  0.32800901
   0.17227859  0.82988336  0.67110723
   0.50016370  0.17028353  0.99970152
   0.50078687  0.16988004  0.32802386
   0.50073318  0.17006991  0.67118483
   0.50153278  0.49931941  0.00037391
   0.50231123  0.49995426  0.32707277
   0.50153703  0.49994059  0.67162420
   0.50040143  0.82903320  0.99970179
   0.50119274  0.82845723  0.32737761
   0.50097026  0.82861282  0.67121914
   0.82906319  0.16197350  0.99955745
   0.82888049  0.16932630  0.32730061
   0.82917171  0.17048780  0.67101217
   0.82858430  0.49970520  0.99960967
   0.82485116  0.49910772  0.32398016
   0.84983693  0.50013306  0.67378674
   0.82836417  0.82884492  0.99954096
   0.83818164  0.82874487  0.32796724
   0.82795671  0.83791691  0.67189562
   0.00102117  0.16327507  0.00153402
   0.00293101  0.16712879  0.33133480
   0.00203591  0.16610163  0.66667930
   0.00148971  0.49862034  0.00359453
   0.00879679  0.49841127  0.33164128
   0.02637563  0.47174725  0.70415625
   0.00156262  0.83156814  0.99847209
   0.00186538  0.84073203  0.32101095
   0.00343108  0.83561313  0.66634871
   0.33302481  0.16666058  0.99981359
   0.33418583  0.16830513  0.33182716
   0.33571669  0.16725570  0.66691425
   0.33803183  0.49906313  0.00441611
   0.33291506  0.49830235  0.33661517
   0.33196798  0.49916433  0.66273744
   0.33398254  0.83138482  0.99905801
   0.33574561  0.83297135  0.33161498
   0.33581056  0.83188919  0.66689073
   0.66775667  0.16571429  0.99874477
   0.66743906  0.16528346  0.33058457
   0.66827272  0.16591170  0.66729809
   0.66801384  0.49871719  0.99864992
   0.66334744  0.49955206  0.32314884
   0.67194877  0.49876868  0.66634453
   0.66716837  0.83154675  0.99953159
   0.66952627  0.83103690  0.33104608
   0.66425939  0.83620870  0.66676256
   0.00111380  0.00099821  0.16448082
   0.00154733  0.00408061  0.49871950
   0.00137515  0.99828458  0.83175254
   0.00319786  0.33130429  0.16640015
   0.00845368  0.33132207  0.49813076
   0.00181035  0.31956803  0.84125992
   0.00198751  0.66657566  0.16642345
   0.02568874  0.70413712  0.47490590
   0.00288681  0.66704426  0.83341088
   0.33302503  0.99949650  0.16689815
   0.33799000  0.00437467  0.49906833
   0.33399934  0.99892839  0.83173313
   0.33417333  0.33171787  0.16840016
   0.33301580  0.33663381  0.49829402
   0.33580111  0.33159103  0.83321726
   0.33554607  0.66673639  0.16667762
   0.33209321  0.66260035  0.49915371
   0.33566159  0.66682849  0.83181785
   0.66767147  0.99849963  0.16668831
   0.66797764  0.99913535  0.49875639
   0.66731965  0.99962054  0.83184009
   0.66731527  0.33051462  0.16425472
   0.66340362  0.32350171  0.49970378
   0.66935708  0.33099715  0.83104482
   0.66832582  0.66714815  0.16504453
   0.67137324  0.66638561  0.49839091
   0.66518933  0.66685237  0.83450946
   0.16933937  0.16804112  0.16829102
   0.17115879  0.16602349  0.49854605
   0.17027344  0.16558239  0.83169529
   0.17114352  0.49856493  0.16616447
   0.93474853  0.57319177  0.57457392
   0.18184766  0.50048487  0.84613708
   0.17015699  0.83137284  0.16598427
   0.18169883  0.84605878  0.50037277
   0.17058051  0.83082325  0.83082646
   0.50014527  0.16667383  0.16684207
   0.50019162  0.16652962  0.49898418
   0.50074788  0.16692144  0.83159872
   0.50021022  0.49904350  0.16571347
   0.50521731  0.49887437  0.49913208
   0.50231622  0.49845400  0.83203099
   0.50069125  0.83126147  0.16624919
   0.50225154  0.83206286  0.49855652
   0.50107917  0.83173041  0.83175307
   0.83242238  0.16439574  0.16448951
   0.83364364  0.16608857  0.49869028
   0.83273913  0.16423721  0.83150473
   0.83366524  0.49910087  0.16492627
   0.81616487  0.46952510  0.46938618
   0.83520807  0.49893753  0.83471552
   0.83285107  0.83111460  0.16540832
   0.83531211  0.83605671  0.49805951
   0.83266897  0.83660615  0.83571585
   0.16887331  0.99855986  0.99898595
   0.16983900  0.00117904  0.33074497
   0.16962041  0.00113698  0.66783859
   0.16990830  0.33049186  0.00129538
   0.17019538  0.33652387  0.33658648
   0.17690110  0.32897015  0.66393813
   0.16919242  0.66769694  0.00103974
   0.17615561  0.66399090  0.32979738
   0.16860782  0.66435563  0.66352136
   0.50003863  0.99904665  0.99922679
   0.50080342  0.99886018  0.33148275
   0.49995452  0.99979468  0.66669435
   0.50076656  0.33127136  0.99889047
   0.50052104  0.33147352  0.33126095
   0.50072299  0.33227807  0.66706576
   0.50018680  0.66655362  0.99821633
   0.50079393  0.66684909  0.33180200
   0.50056169  0.66618852  0.66618645
   0.83223896  0.99794534  0.99958285
   0.83307429  0.00056248  0.33111037
   0.83294225  0.00097911  0.66670621
   0.83301805  0.33039372  0.99903930
   0.83518164  0.32447974  0.32185424
   0.83657492  0.33089614  0.66608036
   0.83318739  0.66696036  0.99938769
   0.83675057  0.66575206  0.33130828
   0.82214464  0.68660961  0.68062511
 
 position of ions in cartesian coordinates  (Angst):
   0.00506355 12.07329714 12.07804230
   0.00681995  0.00652559  3.94367931
   0.00886650  0.00243898  8.11036122
   0.00669188  3.93974866  0.00413716
  12.07749504  3.94224958  3.93916071
   0.02115794  3.94486680  8.14108191
   0.00482055  8.10943849 12.07633536
   0.02169598  8.14024120  3.95147189
   0.00314887  8.12645917  7.99390102
   3.97642848 12.07485665 12.07574721
   3.97862544  0.00233578  3.95883567
   3.98114142  0.00358666  8.11252327
   3.97793797  3.95743658  0.00297998
   4.07634249  3.96670809  3.96736667
   4.07456056  3.97265354  8.11432173
   3.97288000  8.11121748  0.00075570
   4.08131670  8.11308310  3.96961748
   3.97676373  8.09426647  8.09442772
   8.10063076 12.07061070 12.07537013
   8.11075027 12.06755354  3.96125070
   8.09742373 12.07654898  8.10894497
   8.11151633  3.95635557 12.06437548
   8.12121437  3.96996771  3.96416348
   8.12303497  3.97681233  8.09574599
   8.10976618  8.10803981 12.06938623
   8.11913428  8.09371156  3.97406585
   8.11843997  8.10665178  8.09885253
   0.00131689  2.05233652  2.05347487
   0.00446387  2.05286161  6.03523183
   0.00565153  1.94855875 10.01820459
   0.00415835  6.03494429  2.05273750
  11.73995863  5.76122887  5.76337515
   0.00696426  6.03760664 10.24456528
   0.00539849 10.01600560  1.95028748
   0.00657425 10.25312014  6.03119959
   0.00045945 10.00084541 10.00237939
   3.97996447  2.05812263  2.05951363
   4.07781548  2.06184301  6.03755201
   3.98395405  2.05858176 10.01112616
   4.07802079  6.03666638  2.06297259
   4.25327844  6.04322261  6.04365050
   4.17482942  6.03539363 10.23065016
   3.98374764 10.00999363  2.05993473
   4.17583548 10.23049588  6.03569605
   4.07314215 10.00946904 10.01009686
   8.10751831  2.05523761  2.05599681
   8.10425610  1.96339969  6.03463172
   8.11048280  2.06252066 10.01036641
   8.10472502  6.03425733  1.96105320
   8.11313815  6.03704324  6.03700307
   8.12962496  6.03400481  9.99316161
   8.11041377 10.00840445  2.06339751
   8.12904870  9.99317258  6.03393855
   8.11083070 10.00610967 10.00611036
   2.06759365 12.07565899  2.05939622
   2.09172158  0.01933091  6.03505949
   2.07845711 12.06964435 10.01130147
   2.07601320  3.97059145  2.06014017
   2.08968947  3.87628627  6.04801862
   2.06958777  3.96146703 10.01439248
   2.08166589  8.10153246  2.05749048
   2.10143294  8.41396841  6.02665797
   2.07512605  8.10495561 10.01859014
   6.04145527 12.07439982  2.05937893
   6.05761851  0.00675242  6.03564411
   6.04419218 12.07853876 10.00840076
   6.04894334  3.96137784  2.05056346
   6.06709897  3.95336382  6.03547227
   6.05338564  3.95682209 10.01374415
   6.04750750  8.10642719  1.96197762
   6.05816603  8.11227156  6.03724431
   6.05172484  8.10742450 10.00609454
  10.01425794 12.07161034  2.06065694
  10.00718878  0.00166466  6.02973651
  10.00519577 12.07335386 10.01477087
  10.01159998  3.95317261  1.95122345
   9.96353846  3.91743343  6.03397466
  10.12580842  3.95716761 10.01495605
  10.01642625  8.10277911  2.05803983
  10.25812734  8.13720955  6.04989472
  10.01119009  8.11964726 10.02459628
   2.06751775  2.05700249 12.07651641
   2.07604557  2.06012545  3.97219878
   2.08287674  2.05585449  8.10357591
   2.09065402  6.03413972  0.01920257
   2.08994968  6.04677023  3.87773486
   2.09652100  6.02818960  8.41443907
   2.07766000 10.00988959 12.07040384
   2.07132764 10.01525667  3.96198820
   2.08093594 10.02407840  8.10623739
   6.04142746  2.05683780 12.07529502
   6.04895469  2.05196406  3.96216756
   6.04830622  2.05425747  8.10717468
   6.05796441  6.03122934  0.00451636
   6.06736728  6.03889773  3.95067945
   6.05801577  6.03873254  8.11248181
   6.04429900 10.01380943 12.07529825
   6.05385720 10.00685237  3.95436156
   6.05116980 10.00873162  8.10758915
  10.01417162  1.95646177 12.07355483
  10.01196479  2.04527551  3.95343144
  10.01548242  2.05930517  8.10508911
  10.00838720  6.03588930 12.07418561
   9.96329494  6.02867241  3.91332409
  10.26509556  6.04105742  8.13860288
  10.00572826 10.01153514 12.07335560
  10.12431254 10.01032668  3.96148356
  10.00080654 10.12111488  8.11576027
   0.01233465  1.97218326  0.01852926
   0.03540341  2.01873196  4.00216002
   0.02459152  2.00632506  8.05275288
   0.01799403  6.02278535  0.04341793
   0.10625560  6.02026012  4.00586201
   0.31858860  5.69818798  8.50543318
   0.01887469 10.04442870 12.06044486
   0.02253170 10.15511845  3.87745925
   0.04144371 10.09328773  8.04875965
   4.02257353  2.01307653 12.07664867
   4.03659736  2.03294087  4.00810717
   4.05508849  2.02026498  8.05559072
   4.08305276  6.02813378  0.05334175
   4.02124787  6.01894442  4.06594107
   4.00980811  6.02935615  8.00513944
   4.03414186 10.04221434 12.06752212
   4.05543782 10.06137793  4.00554429
   4.05622234 10.04830667  8.05530661
   8.06576625  2.00164643 12.06373855
   8.06192993  1.99644248  3.99309811
   8.07199961  2.00403088  8.06022707
   8.06887259  6.02395529 12.06259281
   8.01250758  6.03403959  3.90328268
   8.11640228  6.02457716  8.04870919
   8.05866023 10.04417031 12.07324250
   8.08714112 10.03801194  3.99867261
   8.02352297 10.10048158  8.05375852
   0.01345353  0.01205734  1.98674744
   0.01869007  0.04928922  6.02398312
   0.01661032 12.05817996 10.04665605
   0.03862665  4.00179154  2.00993081
   0.10211113  4.00200622  6.01687179
   0.02186703  3.86003036 10.16149478
   0.02400693  8.05150102  2.01021230
   0.31029168  8.50520215  5.73634107
   0.03486948  8.05716112 10.06668700
   4.02257615 12.07281860  2.01594612
   4.08254752  0.05284124  6.02819666
   4.03434477 12.06595652 10.04642156
   4.03644631  4.00678712  2.03408879
   4.02246471  4.06616621  6.01884379
   4.05610811  4.00525499 10.06434829
   4.05302758  8.05344239  2.01328233
   4.01132081  8.00348361  6.02922788
   4.05442285  8.05455489 10.04744489
   8.06473717 12.06077753  2.01341152
   8.06843529 12.06845633  6.02442878
   8.06048753 12.07431683 10.04771356
   8.06043465  3.99225310  1.98401638
   8.01318620  3.90754486  6.03587210
   8.08509749  3.99808161 10.03810755
   8.07264097  8.05841603  1.99355648
   8.10945040  8.04920543  6.02001408
   8.03475567  8.05484335 10.07995663
   2.04543339  2.02975194  2.03277050
   2.06740994  2.00538123  6.02188810
   2.05671587  2.00005313 10.04596455
   2.06722555  6.02211612  2.00708407
  11.29073433  6.92352631  6.94022111
   2.19651981  6.04530689 10.22040547
   2.05530931 10.04206965  2.00490741
   2.19472207 10.21945968  6.04395277
   2.06042493 10.03543122 10.03547003
   6.04120484  2.01323652  2.01526874
   6.04176477  2.01149472  6.02718020
   6.04848369  2.01622741 10.04479809
   6.04198935  6.02789676  2.00163644
   6.10246956  6.02585379  6.02896661
   6.06742753  6.02077624 10.05001937
   6.04779973 10.04072440  2.00810740
   6.06664629 10.05040435  6.02201446
   6.05248535 10.04638875 10.04666243
  10.05474696  1.98571980  1.98685243
  10.06949842  2.00616730  6.02363024
  10.05857301  1.98380495 10.04366270
  10.06975938  6.02858965  1.99212795
   9.85837416  5.67134694  5.66966892
  10.08839500  6.02661667 10.08244556
  10.05992507 10.03895040  1.99795065
  10.08965171 10.09864572  6.01601113
  10.05772545 10.10528227 10.09452848
   2.03980387 12.06150508 12.06665172
   2.05146838  0.01424154  3.99503549
   2.04882800  0.01373352  8.06675573
   2.05230544  3.99197821  0.01564680
   2.05577307  4.06483828  4.06559457
   2.13677078  3.97359764  8.01964246
   2.04365841  8.06504483  0.01255895
   2.12776608  8.02027996  3.98358965
   2.03659700  8.02468540  8.01460843
   6.03991681 12.06738494 12.06956079
   6.04915465 12.06513253  4.00394705
   6.03890081 12.07642032  8.05293462
   6.04870942  4.00139374 12.06549839
   6.04574376  4.00383565  4.00126805
   6.04818307  4.01355375  8.05742081
   6.04170647  8.05123469 12.05735552
   6.04904002  8.05480369  4.00780324
   6.04623480  8.04682470  8.04679976
  10.05253151 12.05408235 12.07386164
  10.06262137  0.00679415  3.99944920
  10.06102640  0.01182654  8.05307791
  10.06194196  3.99079287 12.06729609
  10.08807578  3.91935845  3.88764524
  10.10490512  3.99686148  8.04551826
  10.06398747  8.05614766 12.07150432
  10.10702670  8.04155279  4.00183975
   9.93060311  8.29348904  8.22120293
 


--------------------------------------------------------------------------------------------------------


 k-point   1 :   0.0000 0.0000 0.0000  plane waves:   31919

 maximum and minimum number of plane-waves per node :     31919    31919

 maximum number of plane-waves:     31919
 maximum index in each direction: 
   IXMAX=   19   IYMAX=   19   IZMAX=   19
   IXMIN=  -19   IYMIN=  -19   IZMIN=  -19


 serial   3D FFT for wavefunctions
 parallel 3D FFT for charge:
    minimum data exchange during FFTs selected (reduces bandwidth)


 FFT grid for exact exchange (Hartree Fock) 
  NGX = 40; NGY = 40; NGZ = 40

 
 Radii for the augmentation spheres in the non-local exchange
 for species   1 augmentation radius   0.956 (default was   0.708)
       energy cutoff for augmentation   1600.0
 for species   2 augmentation radius   0.968 (default was   0.717)
       energy cutoff for augmentation   1600.0
 Maximum index for augmentation-charges in exchange           146
  SETUP_FOCK is finished

 total amount of memory used by VASP MPI-rank0  1353882. kBytes
=======================================================================

   base      :      30000. kBytes
[...]
      4.00680      6.02222      4.07451        -0.005457     -0.001096      0.000249
      3.99200      6.03020      8.00626         0.001496     -0.000902     -0.000519
      4.02498     10.04224     12.07112         0.001373     -0.000498     -0.000674
      4.06472     10.06300      4.00950        -0.002197     -0.000740     -0.000709
      4.04464     10.04965      8.05682         0.001657     -0.001038     -0.000605
      8.06666      1.99220     12.06675         0.000657      0.003273     -0.000579
      8.06117      2.00765      3.99663         0.000430      0.001333     -0.000329
      8.06948      2.01710      8.06341         0.001244      0.000709     -0.001845
      8.06922      6.02524     12.07996         0.000848     -0.000886      0.001659
      8.00633      6.03720      3.92037         0.001193     -0.001429      0.004051
      8.12632      6.03055      8.05126         0.000661     -0.000566     -0.000547
      8.05672     10.04243     12.07974         0.001629     -0.000203     -0.000915
      8.09539     10.04525      4.00483        -0.000471     -0.001301     -0.000737
      8.01653     10.11860      8.05418         0.001667     -0.001297     -0.000332
      0.01394      0.00329      1.98278         0.001163      0.001887     -0.001668
      0.01957      0.05207      6.02045         0.000709     -0.001419      0.000080
      0.01565     12.04152     10.04684         0.001892      0.000533     -0.000650
      0.04135      3.99972      2.00011         0.000621     -0.000443     -0.000206
      0.09761      4.00049      6.01575         0.001721      0.000922     -0.000012
      0.04390      3.83524     10.15544        -0.001575      0.000427      0.000067
      0.02819      8.05211      2.00713         0.000121     -0.001121     -0.002180
      0.30504      8.49526      5.77572         0.001573      0.001979     -0.012123
      0.03598      8.05683     10.06029         0.001342     -0.000593      0.001434
      4.02062     12.07390      2.01924         0.001379     -0.000926     -0.000955
      4.07080      0.05464      6.03117         0.000397     -0.000471     -0.000965
      4.02462     12.06402     10.04983         0.001242     -0.000563     -0.000968
      4.01389      4.00784      2.03822        -0.001233     -0.000967     -0.001008
      3.98408      4.07483      6.02353        -0.001779     -0.000545     -0.000666
      4.03995      4.00565     10.06656         0.001678     -0.000820     -0.001117
      4.05064      8.05456      2.02970        -0.002709     -0.000864     -0.000393
      4.02739      8.01228      6.03194        -0.004308     -0.001911     -0.000548
      4.04062      8.05360     10.04867         0.002566     -0.000815     -0.000098
      8.06573     12.06174      2.01818         0.000880      0.000462     -0.000770
      8.06733     12.09112      6.02824         0.000779      0.001077     -0.000850
      8.05801     12.07719     10.05002         0.001478     -0.000084     -0.001248
      8.05746      3.99419      1.98239         0.000842      0.000390      0.001840
      8.00571      3.92441      6.04368         0.001865      0.003236     -0.002165
      8.08689      4.00018     10.04228         0.001818      0.000064     -0.000760
      8.07730      8.05966      2.01521         0.000129     -0.001543      0.002289
      8.11502      8.05273      6.02255         0.000542     -0.000378     -0.000476
      8.03915      8.05633     10.07876        -0.000188     -0.000706      0.000731
      2.03964      2.02638      2.03204         0.001175     -0.000908     -0.001343
      2.05151      2.00745      6.02313        -0.000469     -0.000723     -0.000862
      2.05450      1.98646     10.05161         0.000701      0.000315     -0.000926
      2.05491      6.02505      2.01301        -0.000818     -0.001709     -0.001244
     11.23723      6.90266      6.93089         0.013389      0.007167      0.004788
      2.18562      6.04323     10.22014         0.002269     -0.000543     -0.000463
      2.05709     10.04324      2.00017         0.000318     -0.000128     -0.000907
      2.18963     10.21871      6.04057         0.001549     -0.000828      0.000276
      2.05036     10.03384     10.03406         0.001338     -0.000792     -0.000035
      6.03556      2.01651      2.02063         0.000802     -0.000323     -0.000492
      6.01877      2.02387      6.03173        -0.000517      0.000799     -0.000917
      6.04119      2.01733     10.04727         0.001598     -0.000536     -0.001454
      6.02278      6.02993      2.02296        -0.000966     -0.001270      0.002315
      6.09689      6.03108      6.03391        -0.000246     -0.000671     -0.000653
      6.06346      6.02510     10.05434         0.001572     -0.001030     -0.000540
      6.04667     10.04124      2.02130         0.001334     -0.000904      0.000563
      6.06768     10.05495      6.02487         0.000864     -0.000781     -0.000922
      6.03759     10.04637     10.05112         0.001556     -0.000714     -0.000643
     10.05455      1.97265      1.97502         0.001097      0.003913      0.000520
     10.06846      2.01882      6.02166         0.001332      0.000821     -0.000692
     10.06755      1.96505     10.04810         0.000320      0.002954     -0.001619
     10.07055      6.03292      1.99249         0.000828     -0.001372      0.001487
      9.85207      5.64714      5.64519         0.004995      0.006480      0.006977
     10.09700      6.02985     10.08255         0.000667     -0.000222     -0.000467
     10.07349     10.03840      1.99725        -0.002842     -0.000087     -0.002638
     10.10182     10.11537      6.00715        -0.002292     -0.001164      0.001285
     10.05465     10.11777     10.09702         0.001811     -0.000290      0.000610
      2.03759     12.05635     12.06732         0.001282     -0.000130     -0.001287
      2.05064      0.01511      3.99649         0.000178     -0.001391     -0.000687
      2.04618      0.01396      8.06804         0.000969     -0.001016     -0.000653
      2.04844      3.98968      0.01915         0.001014     -0.000237     -0.001801
      2.03838      4.06544      4.06379        -0.000799     -0.002073     -0.001458
      2.10847      3.96586      8.02425         0.000932     -0.000761     -0.000431
      2.04362      8.06411      0.01737         0.001221     -0.000728     -0.001370
      2.13504      8.02452      4.00076        -0.003287     -0.000711     -0.005316
      2.03477      8.02538      8.00183         0.000668     -0.000411      0.003819
      6.03718     12.06724     12.07601         0.001930     -0.000344     -0.000920
      6.04546     12.07204      4.00795         0.000926     -0.001003     -0.000750
      6.02965     12.08354      8.05629         0.001412     -0.000969     -0.000920
      6.04075      4.00167     12.06918         0.000900     -0.000309     -0.000603
      6.02554      4.00742      4.00889        -0.002022     -0.000177     -0.000067
      6.02702      4.02065      8.06028         0.001591     -0.000716     -0.001193
      6.03854      8.05088     12.07600         0.001063     -0.000813      0.002022
      6.06484      8.05921      4.01721        -0.005447     -0.001447      0.000910
      6.04563      8.04800      8.05101         0.001020     -0.000753     -0.001193
     10.05105     12.03295     12.07617         0.001837      0.006338     -0.001243
     10.07611      0.00966      3.99905        -0.002456      0.000827     -0.001211
     10.05892      0.02860      8.05313         0.001871     -0.000930      0.000008
     10.07288      3.98113     12.04934         0.000070      0.001669      0.001180
     10.08947      3.91717      3.85377         0.000583      0.001993      0.004388
     10.11346      3.99415      8.05171         0.000780      0.000447     -0.002103
     10.06540      8.05939     12.07360         0.000744     -0.000954     -0.000554
     10.12248      8.04360      4.00855        -0.002961     -0.001262     -0.001685
      9.93822      8.35014      8.20302         0.000171     -0.004095      0.004436
 -----------------------------------------------------------------------------------
    total drift:                                0.239783      2.908433      1.524037


--------------------------------------------------------------------------------------------------------



  FREE ENERGIE OF THE ION-ELECTRON SYSTEM (eV)
  ---------------------------------------------------
  free  energy   TOTEN  =     -1239.14220167 eV

  energy  without entropy=    -1239.14220167  energy(sigma->0) =    -1239.14220167
 
 d Force = 0.5108675E-04[ 0.497E-04, 0.524E-04]  d Energy = 0.3557459E-04 0.155E-04
 d Force = 0.1741327E-01[ 0.174E-01, 0.174E-01]  d Ewald  = 0.1741302E-01 0.248E-06


--------------------------------------------------------------------------------------------------------


    POTLOK:  cpu time      9.9739: real time     10.0011


--------------------------------------------------------------------------------------------------------


 NEB: the previous image is higher in energy:  T
 NEB: the next image is higher in energy    :  T
 NEB: image is at an extrema
 NEB: diff energy (min, max):     0.012639    0.033666

 NEB: Tangent
 ----------------------------------------------
     -0.01072      0.01235     -0.00193
     -0.01149     -0.01542     -0.00705
      0.00221     -0.00593     -0.00415
      0.01659      0.00569     -0.00102
      0.00377     -0.00089      0.00078
      0.00396     -0.00652     -0.00188
      0.00219      0.00082      0.00653
     -0.02249      0.02215     -0.02710
     -0.02150     -0.03827      0.49030
      0.00901     -0.00286     -0.00430
      0.00251     -0.00403     -0.00489
      0.00880     -0.00382     -0.00544
      0.00902     -0.00259     -0.00365
     -0.13845     -0.00513     -0.00491
      0.00970     -0.00449     -0.00479
      0.01933     -0.00377      0.00228
     -0.35211     -0.00443      0.00221
      0.00271     -0.00706     -0.00384
      0.03996      0.01332     -0.00424
     -0.00965      0.01607     -0.00003
      0.01844     -0.00041     -0.01164
     -0.01780      0.01982      0.00446
     -0.00623     -0.00557     -0.00107
      0.00447      0.00553      0.00045
     -0.00912     -0.01148      0.00822
     -0.00664     -0.02269      0.01138
     -0.00105     -0.00763     -0.00401
      0.00338     -0.00885     -0.00739
      0.00109     -0.00325     -0.00304
      0.00335      0.00288     -0.00304
     -0.00035     -0.00262     -0.00162
      0.02290      0.02561      0.01583
     -0.00061     -0.01687      0.01627
     -0.01005      0.00466      0.02094
     -0.01287     -0.01698     -0.00871
      0.00538      0.02333      0.01677
      0.00746     -0.00572     -0.00669
     -0.12603     -0.00338     -0.00470
      0.00929     -0.00483     -0.00574
     -0.12884     -0.00364     -0.00346
     -0.00302     -0.00349     -0.00386
      0.01390     -0.00332     -0.00167
      0.00476     -0.00380     -0.00531
      0.00207     -0.00185     -0.00348
      0.01234     -0.00272     -0.00453
      0.00309     -0.00191     -0.00392
      0.00314      0.12517     -0.00348
      0.00407     -0.00341     -0.00764
     -0.00087     -0.00218      0.13075
      0.00171      0.00005     -0.00103
      0.00233     -0.00179     -0.00163
     -0.01409     -0.00421     -0.02763
     -0.00666     -0.00298      0.01109
      0.00399     -0.00109     -0.00157
      0.00297     -0.00288     -0.00879
     -0.00107     -0.01029     -0.00297
      0.00629     -0.00157     -0.00419
     -0.00554     -0.01329     -0.01624
     -0.00683      0.00277      0.00163
      0.00777     -0.00186     -0.00754
     -0.01563      0.00724     -0.03548
     -0.03549     -0.00433      0.02022
      0.03407     -0.00483      0.01345
      0.00474     -0.00209     -0.00594
      0.00526      0.00743     -0.00375
      0.00767     -0.00301     -0.00457
     -0.00683      0.00437      0.01010
     -0.01079     -0.00254     -0.00982
      0.00498     -0.00274     -0.00513
     -0.01362     -0.01592      0.16922
     -0.00852     -0.00589     -0.01403
      0.00496     -0.00419      0.00002
      0.00841      0.01052     -0.02737
     -0.00261      0.00086     -0.00232
      0.00646      0.00927      0.01716
      0.00504      0.01569      0.03787
      0.01307      0.02013     -0.00913
     -0.00193      0.01023     -0.02752
      0.00379     -0.00203     -0.00397
      0.05423     -0.01294      0.01247
     -0.02486     -0.00575      0.02707
      0.00685     -0.00368     -0.00506
     -0.00771     -0.01826     -0.01477
      0.00144     -0.00733      0.00262
      0.00469     -0.00390     -0.00888
     -0.02519     -0.00852     -0.00227
      0.00727     -0.00229     -0.00367
      0.00526      0.00121     -0.00225
     -0.03354      0.01313     -0.00398
      0.00484     -0.00818     -0.00605
      0.00586     -0.00232     -0.00301
     -0.00704      0.00889      0.00236
      0.00171     -0.00533     -0.01428
      0.00500      0.00457      0.01315
     -0.02336     -0.00245      0.00305
      0.00327     -0.00278     -0.00484
      0.00584     -0.01476      0.00236
     -0.01770     -0.01858      0.00242
      0.00519     -0.00425     -0.00415
      0.00877      0.37065     -0.00760
      0.00320      0.00124      0.00073
      0.00772     -0.00104     -0.00768
     -0.00590      0.00115      0.00554
      0.01310     -0.00120      0.02356
      0.01394      0.01509     -0.02857
      0.00384      0.00632     -0.00111
     -0.36229     -0.00085     -0.00168
      0.00495     -0.02614     -0.00515
      0.01674      0.03518     -0.00540
     -0.00030     -0.00487     -0.00507
      0.01346     -0.00353     -0.00868
      0.00919     -0.00850     -0.00239
     -0.00910     -0.02585     -0.00904
      0.02013     -0.03777      0.06125
      0.00258     -0.00226     -0.00247
     -0.08431      0.02865     -0.06048
     -0.00095     -0.03631      0.02502
      0.01441     -0.00678     -0.01446
     -0.02202     -0.01151     -0.01150
     -0.00022     -0.01000     -0.01070
      0.00046     -0.01037     -0.00194
     -0.07642     -0.01045      0.00375
      0.01226     -0.00995     -0.00477
      0.01114     -0.00493     -0.00928
     -0.03571     -0.00850     -0.00813
      0.01364     -0.01035     -0.00753
      0.00934      0.04147     -0.00610
      0.00139      0.01927     -0.00261
      0.01408      0.01408     -0.01896
      0.00881     -0.00934      0.02372
      0.01014     -0.01698      0.05106
      0.00267     -0.00698     -0.00459
      0.01369     -0.00511     -0.01096
     -0.01956     -0.01249     -0.00780
      0.01793     -0.01874     -0.00476
      0.00690      0.02225     -0.01962
      0.00191     -0.01234      0.00082
      0.01764      0.00139     -0.00816
     -0.00206     -0.00577     -0.00193
      0.01523      0.00939     -0.00079
     -0.00397     -0.01328      0.00953
     -0.00537     -0.01201     -0.02729
      0.00642      0.03405     -0.14626
      0.00887     -0.00581      0.01937
      0.01059     -0.00853     -0.01163
     -0.00159     -0.00369     -0.01076
      0.01420     -0.00839     -0.01170
     -0.02198     -0.01003     -0.01022
     -0.02723     -0.00526     -0.00959
      0.01666     -0.00875     -0.01141
     -0.04330     -0.00877     -0.00158
     -0.06016     -0.02247     -0.00812
      0.02520     -0.00579     -0.00153
      0.00492      0.00481     -0.00631
      0.00414      0.01651     -0.00950
      0.01575      0.00003     -0.01585
      0.01035      0.00590      0.02227
      0.02014      0.04403     -0.02344
      0.01962      0.00273     -0.00490
     -0.00251     -0.01606      0.03146
     -0.00838     -0.00286     -0.00691
      0.00002     -0.00958      0.00360
      0.00761     -0.00955     -0.01511
     -0.00953     -0.00735     -0.01155
      0.01268     -0.00299     -0.00980
     -0.01725     -0.01759     -0.01319
      0.20026      0.07729      0.07066
      0.02759      0.00041     -0.00260
     -0.00074      0.00031     -0.01391
      0.01215     -0.00705      0.00407
      0.00963     -0.00892     -0.00222
      0.00653     -0.00202     -0.00564
     -0.01168      0.01239     -0.00993
      0.01773     -0.00503     -0.01528
     -0.02051     -0.01347      0.03016
     -0.00881     -0.00775     -0.00679
      0.01530     -0.00902     -0.00432
      0.00650     -0.00886      0.00732
      0.00229     -0.00672     -0.00968
      0.01708     -0.00839     -0.00832
      0.00754      0.04990      0.00784
      0.01049      0.01459     -0.00486
      0.00736      0.03666     -0.01715
      0.00497     -0.01564      0.02026
      0.05434      0.09310      0.09440
      0.01029     -0.00369     -0.00446
     -0.04135     -0.00159     -0.02679
     -0.03726     -0.01177      0.01201
      0.01628     -0.01324     -0.00310
      0.01142     -0.00184     -0.01567
     -0.00210     -0.01095     -0.00854
      0.00794     -0.01096     -0.00821
      0.01113     -0.00193     -0.01392
     -0.01681     -0.02333     -0.01783
      0.01093     -0.01176     -0.00827
      0.00758     -0.00624     -0.01637
     -0.05596     -0.00823     -0.06169
      0.00113     -0.00358      0.04780
      0.02022     -0.00299     -0.01045
      0.00313     -0.00922     -0.00874
      0.01507     -0.01045     -0.01041
      0.00826     -0.00246     -0.00414
     -0.03082     -0.00015     -0.00040
      0.01490     -0.00621     -0.01267
      0.00809     -0.00851      0.02595
     -0.06856     -0.01554      0.00930
      0.00425     -0.00817     -0.01370
      0.01550      0.06870     -0.01612
     -0.03622      0.00988     -0.01259
      0.01685     -0.01032     -0.00039
      0.00519      0.02448      0.01143
      0.00185      0.02962      0.06164
      0.01249      0.00626     -0.01927
      0.00487     -0.01112     -0.00639
     -0.04262     -0.01266     -0.01686
      0.00418     -0.06226      0.03274

 NEB: forces: par spring, perp REAL, dneb     0.004498    0.008633    0.000000
 NEB: distance to prev, next image, angle between     0.454542    0.455441   90.031152
 NEB: projections on to tangent (spring, REAL)     0.004498    0.072377

 stress matrix after NEB project (eV)
      0.00000      0.00000      0.00000
      0.00000      0.00000      0.00000
      0.00000      0.00000      0.00000
  FORCES: max atom, RMS     0.002494    0.000662
  FORCE total and by dimension    0.009734    0.002214
  Stress total and by dimension    0.000000    0.000000
 OPT: skip step - force has converged


--------------------------------------------------------------------------------------------------------


  
 reached required accuracy - stopping structural energy minimisation
 writing wavefunctions
     LOOP+:  cpu time   1156.4280: real time   1160.6409
    4ORBIT:  cpu time      0.0000: real time      0.0000

 total amount of memory used by VASP MPI-rank0  1632688. kBytes
=======================================================================

   base      :      30000. kBytes
   nonl-proj :     114397. kBytes
   fftplans  :     141100. kBytes
   grid      :     372121. kBytes
   one-center:       1327. kBytes
   HF        :          9. kBytes
   nonlr-proj:      82364. kBytes
   wavefun   :     692052. kBytes
   fock_wrk  :     199318. kBytes
 
  
  
 General timing and accounting informations for this job:
 ========================================================
  
                  Total CPU time used (sec):    55478.930
                            User time (sec):    55073.368
                          System time (sec):      405.561
                         Elapsed time (sec):    55689.556
  
                   Maximum memory used (kb):     3919248.
                   Average memory used (kb):          N/A
  
                          Minor page faults:       857166
                          Major page faults:            0
                 Voluntary context switches:      2514379
