  65  65   0   0
  0.2920240E+02  0.9294800E-09  0.9294800E-09  0.2197110E-08  0.0000000E+00
  1.000000000000000E-004
  CAR 
 PBE-grap                                
      8.92235786    -63.90133985  301      1.13063606      1.00000000
    -63.901  0.0000E+00  0.0000E+00
    -63.659  0.0000E+00  0.0000E+00
    -63.416  0.0000E+00  0.0000E+00
    -63.173  0.0000E+00  0.0000E+00
    -62.930  0.0000E+00  0.0000E+00
    -62.688  0.0000E+00  0.0000E+00
    -62.445  0.0000E+00  0.0000E+00
    -62.202  0.0000E+00  0.0000E+00
    -61.959  0.0000E+00  0.0000E+00
    -61.717  0.0000E+00  0.0000E+00
    -61.474  0.0000E+00  0.0000E+00
    -61.231  0.0000E+00  0.0000E+00
    -60.988  0.0000E+00  0.0000E+00
    -60.746  0.1085E-05  0.2634E-06
    -60.503  0.6314E+00  0.1533E+00
    -60.260  0.1360E+01  0.4835E+00
    -60.017  0.2484E+01  0.1086E+01
    -59.775  0.7976E+00  0.1280E+01
    -59.532  0.0000E+00  0.1280E+01
    -59.289  0.0000E+00  0.1280E+01
    -59.046  0.0000E+00  0.1280E+01
    -58.804  0.0000E+00  0.1280E+01
    -58.561  0.0000E+00  0.1280E+01
    -58.318  0.0000E+00  0.1280E+01
    -58.075  0.0000E+00  0.1280E+01
    -57.833  0.0000E+00  0.1280E+01
    -57.590  0.0000E+00  0.1280E+01
    -57.347  0.0000E+00  0.1280E+01
    -57.104  0.0000E+00  0.1280E+01
    -56.862  0.0000E+00  0.1280E+01
    -56.619  0.0000E+00  0.1280E+01
    -56.376  0.0000E+00  0.1280E+01
    -56.133  0.0000E+00  0.1280E+01
    -55.891  0.0000E+00  0.1280E+01
    -55.648  0.0000E+00  0.1280E+01
    -55.405  0.0000E+00  0.1280E+01
    -55.162  0.0000E+00  0.1280E+01
    -54.920  0.0000E+00  0.1280E+01
    -54.677  0.0000E+00  0.1280E+01
    -54.434  0.0000E+00  0.1280E+01
    -54.192  0.0000E+00  0.1280E+01
    -53.949  0.0000E+00  0.1280E+01
    -53.706  0.0000E+00  0.1280E+01
    -53.463  0.0000E+00  0.1280E+01
    -53.221  0.0000E+00  0.1280E+01
    -52.978  0.0000E+00  0.1280E+01
    -52.735  0.0000E+00  0.1280E+01
    -52.492  0.0000E+00  0.1280E+01
    -52.250  0.0000E+00  0.1280E+01
    -52.007  0.0000E+00  0.1280E+01
    -51.764  0.0000E+00  0.1280E+01
    -51.521  0.0000E+00  0.1280E+01
    -51.279  0.0000E+00  0.1280E+01
    -51.036  0.0000E+00  0.1280E+01
    -50.793  0.0000E+00  0.1280E+01
    -50.550  0.0000E+00  0.1280E+01
    -50.308  0.0000E+00  0.1280E+01
    -50.065  0.0000E+00  0.1280E+01
    -49.822  0.0000E+00  0.1280E+01
    -49.579  0.0000E+00  0.1280E+01
    -49.337  0.0000E+00  0.1280E+01
    -49.094  0.0000E+00  0.1280E+01
    -48.851  0.0000E+00  0.1280E+01
    -48.608  0.0000E+00  0.1280E+01
    -48.366  0.0000E+00  0.1280E+01
    -48.123  0.0000E+00  0.1280E+01
    -47.880  0.0000E+00  0.1280E+01
    -47.637  0.0000E+00  0.1280E+01
    -47.395  0.0000E+00  0.1280E+01
    -47.152  0.0000E+00  0.1280E+01
    -46.909  0.0000E+00  0.1280E+01
    -46.666  0.0000E+00  0.1280E+01
    -46.424  0.0000E+00  0.1280E+01
    -46.181  0.0000E+00  0.1280E+01
    -45.938  0.0000E+00  0.1280E+01
    -45.695  0.0000E+00  0.1280E+01
    -45.453  0.0000E+00  0.1280E+01
    -45.210  0.0000E+00  0.1280E+01
    -44.967  0.0000E+00  0.1280E+01
    -44.724  0.0000E+00  0.1280E+01
    -44.482  0.0000E+00  0.1280E+01
    -44.239  0.0000E+00  0.1280E+01
    -43.996  0.0000E+00  0.1280E+01
    -43.753  0.0000E+00  0.1280E+01
    -43.511  0.0000E+00  0.1280E+01
    -43.268  0.0000E+00  0.1280E+01
    -43.025  0.0000E+00  0.1280E+01
    -42.782  0.0000E+00  0.1280E+01
    -42.540  0.0000E+00  0.1280E+01
    -42.297  0.0000E+00  0.1280E+01
    -42.054  0.0000E+00  0.1280E+01
    -41.811  0.0000E+00  0.1280E+01
    -41.569  0.0000E+00  0.1280E+01
    -41.326  0.0000E+00  0.1280E+01
    -41.083  0.0000E+00  0.1280E+01
    -40.841  0.0000E+00  0.1280E+01
    -40.598  0.0000E+00  0.1280E+01
    -40.355  0.0000E+00  0.1280E+01
    -40.112  0.0000E+00  0.1280E+01
    -39.870  0.0000E+00  0.1280E+01
    -39.627  0.0000E+00  0.1280E+01
    -39.384  0.0000E+00  0.1280E+01
    -39.141  0.0000E+00  0.1280E+01
    -38.899  0.0000E+00  0.1280E+01
    -38.656  0.0000E+00  0.1280E+01
    -38.413  0.0000E+00  0.1280E+01
    -38.170  0.0000E+00  0.1280E+01
    -37.928  0.0000E+00  0.1280E+01
    -37.685  0.0000E+00  0.1280E+01
    -37.442  0.0000E+00  0.1280E+01
    -37.199  0.0000E+00  0.1280E+01
    -36.957  0.0000E+00  0.1280E+01
    -36.714  0.0000E+00  0.1280E+01
    -36.471  0.0000E+00  0.1280E+01
    -36.228  0.0000E+00  0.1280E+01
    -35.986  0.0000E+00  0.1280E+01
    -35.743  0.0000E+00  0.1280E+01
    -35.500  0.0000E+00  0.1280E+01
    -35.257  0.0000E+00  0.1280E+01
    -35.015  0.0000E+00  0.1280E+01
    -34.772  0.0000E+00  0.1280E+01
    -34.529  0.0000E+00  0.1280E+01
    -34.286  0.0000E+00  0.1280E+01
    -34.044  0.0000E+00  0.1280E+01
    -33.801  0.0000E+00  0.1280E+01
    -33.558  0.0000E+00  0.1280E+01
    -33.315  0.0000E+00  0.1280E+01
    -33.073  0.0000E+00  0.1280E+01
    -32.830  0.0000E+00  0.1280E+01
    -32.587  0.0000E+00  0.1280E+01
    -32.344  0.0000E+00  0.1280E+01
    -32.102  0.0000E+00  0.1280E+01
    -31.859  0.0000E+00  0.1280E+01
    -31.616  0.0000E+00  0.1280E+01
    -31.373  0.0000E+00  0.1280E+01
    -31.131  0.0000E+00  0.1280E+01
    -30.888  0.0000E+00  0.1280E+01
    -30.645  0.0000E+00  0.1280E+01
    -30.402  0.0000E+00  0.1280E+01
    -30.160  0.0000E+00  0.1280E+01
    -29.917  0.0000E+00  0.1280E+01
    -29.674  0.1238E-10  0.1280E+01
    -29.431  0.2735E+00  0.1346E+01
    -29.189  0.2418E+01  0.1933E+01
    -28.946  0.3792E+01  0.2854E+01
    -28.703  0.4846E+01  0.4030E+01
    -28.460  0.4483E+01  0.5118E+01
    -28.218  0.6609E-02  0.5120E+01
    -27.975  0.0000E+00  0.5120E+01
    -27.732  0.0000E+00  0.5120E+01
    -27.489  0.0000E+00  0.5120E+01
    -27.247  0.0000E+00  0.5120E+01
    -27.004  0.0000E+00  0.5120E+01
    -26.761  0.0000E+00  0.5120E+01
    -26.519  0.0000E+00  0.5120E+01
    -26.276  0.0000E+00  0.5120E+01
    -26.033  0.0000E+00  0.5120E+01
    -25.790  0.0000E+00  0.5120E+01
    -25.548  0.0000E+00  0.5120E+01
    -25.305  0.0000E+00  0.5120E+01
    -25.062  0.0000E+00  0.5120E+01
    -24.819  0.0000E+00  0.5120E+01
    -24.577  0.0000E+00  0.5120E+01
    -24.334  0.0000E+00  0.5120E+01
    -24.091  0.0000E+00  0.5120E+01
    -23.848  0.0000E+00  0.5120E+01
    -23.606  0.0000E+00  0.5120E+01
    -23.363  0.0000E+00  0.5120E+01
    -23.120  0.0000E+00  0.5120E+01
    -22.877  0.1258E-14  0.5120E+01
    -22.635  0.3400E-01  0.5128E+01
    -22.392  0.1308E+00  0.5160E+01
    -22.149  0.0000E+00  0.5160E+01
    -21.906  0.0000E+00  0.5160E+01
    -21.664  0.0000E+00  0.5160E+01
    -21.421  0.0000E+00  0.5160E+01
    -21.178  0.0000E+00  0.5160E+01
    -20.935  0.0000E+00  0.5160E+01
    -20.693  0.0000E+00  0.5160E+01
    -20.450  0.0000E+00  0.5160E+01
    -20.207  0.0000E+00  0.5160E+01
    -19.964  0.0000E+00  0.5160E+01
    -19.722  0.0000E+00  0.5160E+01
    -19.479  0.0000E+00  0.5160E+01
    -19.236  0.0000E+00  0.5160E+01
    -18.993  0.0000E+00  0.5160E+01
    -18.751  0.0000E+00  0.5160E+01
    -18.508  0.0000E+00  0.5160E+01
    -18.265  0.0000E+00  0.5160E+01
    -18.022  0.0000E+00  0.5160E+01
    -17.780  0.0000E+00  0.5160E+01
    -17.537  0.0000E+00  0.5160E+01
    -17.294  0.0000E+00  0.5160E+01
    -17.051  0.0000E+00  0.5160E+01
    -16.809  0.0000E+00  0.5160E+01
    -16.566  0.0000E+00  0.5160E+01
    -16.323  0.0000E+00  0.5160E+01
    -16.080  0.0000E+00  0.5160E+01
    -15.838  0.0000E+00  0.5160E+01
    -15.595  0.0000E+00  0.5160E+01
    -15.352  0.0000E+00  0.5160E+01
    -15.109  0.0000E+00  0.5160E+01
    -14.867  0.0000E+00  0.5160E+01
    -14.624  0.0000E+00  0.5160E+01
    -14.381  0.0000E+00  0.5160E+01
    -14.138  0.0000E+00  0.5160E+01
    -13.896  0.0000E+00  0.5160E+01
    -13.653  0.0000E+00  0.5160E+01
    -13.410  0.0000E+00  0.5160E+01
    -13.167  0.0000E+00  0.5160E+01
    -12.925  0.0000E+00  0.5160E+01
    -12.682  0.0000E+00  0.5160E+01
    -12.439  0.0000E+00  0.5160E+01
    -12.197  0.0000E+00  0.5160E+01
    -11.954  0.0000E+00  0.5160E+01
    -11.711  0.0000E+00  0.5160E+01
    -11.468  0.0000E+00  0.5160E+01
    -11.226  0.0000E+00  0.5160E+01
    -10.983  0.3053E-09  0.5160E+01
    -10.740  0.1667E-01  0.5164E+01
    -10.497  0.7298E-01  0.5182E+01
    -10.255  0.7485E-01  0.5200E+01
    -10.012  0.1695E-01  0.5204E+01
     -9.769  0.1613E+00  0.5243E+01
     -9.526  0.1329E+00  0.5275E+01
     -9.284  0.1406E+00  0.5310E+01
     -9.041  0.3541E+00  0.5396E+01
     -8.798  0.7117E+00  0.5568E+01
     -8.555  0.5988E+00  0.5714E+01
     -8.313  0.8426E+00  0.5918E+01
     -8.070  0.6844E+00  0.6084E+01
     -7.827  0.6604E+00  0.6245E+01
     -7.584  0.4925E+00  0.6364E+01
     -7.342  0.2342E+00  0.6421E+01
     -7.099  0.7809E-01  0.6440E+01
     -6.856  0.3362E-05  0.6440E+01
     -6.613  0.0000E+00  0.6440E+01
     -6.371  0.0000E+00  0.6440E+01
     -6.128  0.1452E-14  0.6440E+01
     -5.885  0.3539E-01  0.6449E+01
     -5.642  0.2942E+00  0.6520E+01
     -5.400  0.1574E-05  0.6520E+01
     -5.157  0.5726E-09  0.6520E+01
     -4.914  0.1325E+00  0.6552E+01
     -4.671  0.3226E-01  0.6560E+01
     -4.429  0.6084E-01  0.6575E+01
     -4.186  0.1129E+00  0.6602E+01
     -3.943  0.2872E+00  0.6672E+01
     -3.700  0.9357E-01  0.6695E+01
     -3.458  0.3668E+00  0.6784E+01
     -3.215  0.5142E+00  0.6908E+01
     -2.972  0.6400E+00  0.7064E+01
     -2.729  0.3084E+00  0.7139E+01
     -2.487  0.6303E+00  0.7292E+01
     -2.244  0.6013E+00  0.7438E+01
     -2.001  0.3484E+00  0.7522E+01
     -1.758  0.4427E+00  0.7630E+01
     -1.516  0.1272E+01  0.7938E+01
     -1.273  0.1884E+01  0.8396E+01
     -1.030  0.1273E+01  0.8705E+01
     -0.787  0.1870E+01  0.9159E+01
     -0.545  0.1344E+01  0.9485E+01
     -0.302  0.7314E+00  0.9662E+01
     -0.059  0.9501E+00  0.9893E+01
      0.184  0.7177E+00  0.1007E+02
      0.426  0.3803E+00  0.1016E+02
      0.669  0.2484E+00  0.1022E+02
      0.912  0.3234E+00  0.1030E+02
      1.154  0.2931E+00  0.1037E+02
      1.397  0.1614E+00  0.1041E+02
      1.640  0.1996E+00  0.1046E+02
      1.883  0.3886E+00  0.1055E+02
      2.125  0.3237E+00  0.1063E+02
      2.368  0.2446E+00  0.1069E+02
      2.611  0.2319E+00  0.1075E+02
      2.854  0.3771E+00  0.1084E+02
      3.096  0.5696E+00  0.1098E+02
      3.339  0.9652E+00  0.1121E+02
      3.582  0.6527E+00  0.1137E+02
      3.825  0.6774E+00  0.1153E+02
      4.067  0.3807E+00  0.1163E+02
      4.310  0.4801E+00  0.1174E+02
      4.553  0.7794E+00  0.1193E+02
      4.796  0.5078E+00  0.1205E+02
      5.038  0.1007E+01  0.1230E+02
      5.281  0.1114E+01  0.1257E+02
      5.524  0.9024E+00  0.1279E+02
      5.767  0.4887E-01  0.1280E+02
      6.009  0.1142E-06  0.1280E+02
      6.252  0.0000E+00  0.1280E+02
      6.495  0.0000E+00  0.1280E+02
      6.738  0.0000E+00  0.1280E+02
      6.980  0.0000E+00  0.1280E+02
      7.223  0.0000E+00  0.1280E+02
      7.466  0.0000E+00  0.1280E+02
      7.709  0.0000E+00  0.1280E+02
      7.951  0.0000E+00  0.1280E+02
      8.194  0.0000E+00  0.1280E+02
      8.437  0.0000E+00  0.1280E+02
      8.680  0.0000E+00  0.1280E+02
      8.922  0.0000E+00  0.1280E+02
