       N       E                     dE             d eps       ncg     rms          rms(c)
DAV:   1     0.477398610159E+04    0.47740E+04   -0.29375E+05  3792   0.144E+03
DAV:   2    -0.533165278174E+03   -0.53072E+04   -0.51645E+04  3888   0.443E+02
DAV:   3    -0.898739960518E+03   -0.36557E+03   -0.35954E+03  3728   0.106E+02
DAV:   4    -0.913102740114E+03   -0.14363E+02   -0.14312E+02  4128   0.183E+01
DAV:   5    -0.913356290438E+03   -0.25355E+00   -0.25332E+00  3936   0.229E+00    0.598E+01
DAV:   6    -0.760942980288E+03    0.15241E+03   -0.93822E+02  3616   0.372E+01    0.244E+01
DAV:   7    -0.756403761704E+03    0.45392E+01   -0.98610E+01  4464   0.187E+01    0.157E+01
DAV:   8    -0.751177209801E+03    0.52266E+01   -0.48508E+01  4016   0.108E+01    0.104E+01
DAV:   9    -0.749585761535E+03    0.15914E+01   -0.10408E+01  4032   0.595E+00    0.432E+00
DAV:  10    -0.749039345757E+03    0.54642E+00   -0.30219E+00  3792   0.309E+00    0.233E+00
DAV:  11    -0.748985377331E+03    0.53968E-01   -0.81078E-01  4032   0.152E+00    0.163E+00
DAV:  12    -0.748954707511E+03    0.30670E-01   -0.35965E-01  3936   0.845E-01    0.964E-01
DAV:  13    -0.748932516707E+03    0.22191E-01   -0.93602E-02  3760   0.415E-01    0.372E-01
DAV:  14    -0.748930335342E+03    0.21814E-02   -0.41719E-02  3776   0.294E-01    0.278E-01
DAV:  15    -0.748932118085E+03   -0.17827E-02   -0.22651E-02  3712   0.186E-01    0.250E-01
DAV:  16    -0.748934799519E+03   -0.26814E-02   -0.93376E-03  3792   0.114E-01    0.964E-02
DAV:  17    -0.748937238061E+03   -0.24385E-02   -0.25103E-03  3664   0.731E-02    0.658E-02
DAV:  18    -0.748938910805E+03   -0.16727E-02   -0.89340E-04  3360   0.449E-02    0.387E-02
DAV:  19    -0.748939825837E+03   -0.91503E-03   -0.70499E-04  3200   0.329E-02    0.262E-02
DAV:  20    -0.748941091778E+03   -0.12659E-02   -0.32797E-04  3088   0.199E-02    0.237E-02
DAV:  21    -0.748942619108E+03   -0.15273E-02   -0.18112E-04  3024   0.140E-02    0.131E-02
DAV:  22    -0.748944337838E+03   -0.17187E-02   -0.16644E-04  3008   0.115E-02    0.698E-03
DAV:  23    -0.748944982323E+03   -0.64449E-03   -0.60999E-05  2976   0.660E-03    0.379E-03
DAV:  24    -0.748945342548E+03   -0.36022E-03   -0.34307E-05  2784   0.411E-03    0.168E-03
DAV:  25    -0.748945456596E+03   -0.11405E-03   -0.12459E-05  2704   0.224E-03    0.867E-04
DAV:  26    -0.748945485456E+03   -0.28860E-04   -0.19105E-06  2496   0.110E-03    0.416E-04
DAV:  27    -0.748945495988E+03   -0.10532E-04   -0.98296E-07  2384   0.681E-04    0.244E-04
DAV:  28    -0.748945500226E+03   -0.42378E-05   -0.47875E-07  2400   0.477E-04
   1 F= -.74894550E+03 E0= -.74893415E+03  d E =-.748946E+03
       N       E                     dE             d eps       ncg     rms          rms(c)
DAV:   1    -0.748949414941E+03   -0.39190E-02   -0.18745E-03  3584   0.654E-02    0.161E-02
DAV:   2    -0.748949463948E+03   -0.49008E-04   -0.42910E-04  3536   0.241E-02    0.543E-02
DAV:   3    -0.748949413367E+03    0.50581E-04   -0.22622E-04  2976   0.185E-02    0.703E-03
DAV:   4    -0.748949415304E+03   -0.19371E-05   -0.90302E-06  2464   0.416E-03
   2 F= -.74894942E+03 E0= -.74893807E+03  d E =-.391508E-02
       N       E                     dE             d eps       ncg     rms          rms(c)
DAV:   1    -0.748957209529E+03   -0.77962E-02   -0.74833E-03  3440   0.131E-01    0.319E-02
DAV:   2    -0.748957403775E+03   -0.19425E-03   -0.17296E-03  3744   0.493E-02    0.109E-01
DAV:   3    -0.748957201373E+03    0.20240E-03   -0.89804E-04  3328   0.367E-02    0.143E-02
DAV:   4    -0.748957208525E+03   -0.71520E-05   -0.34444E-05  2768   0.820E-03
   3 F= -.74895721E+03 E0= -.74894587E+03  d E =-.779322E-02
       N       E                     dE             d eps       ncg     rms          rms(c)
DAV:   1    -0.748968823839E+03   -0.11622E-01   -0.16795E-02  3440   0.196E-01    0.479E-02
DAV:   2    -0.748969265445E+03   -0.44161E-03   -0.39555E-03  3904   0.748E-02    0.164E-01
DAV:   3    -0.748968803463E+03    0.46198E-03   -0.20280E-03  3424   0.547E-02    0.218E-02
DAV:   4    -0.748968820072E+03   -0.16609E-04   -0.80036E-05  2976   0.121E-02    0.924E-03
DAV:   5    -0.748968818859E+03    0.12138E-05   -0.89047E-06  2592   0.911E-03
   4 F= -.74896882E+03 E0= -.74895749E+03  d E =-.116103E-01
       N       E                     dE             d eps       ncg     rms          rms(c)
DAV:   1    -0.748984158407E+03   -0.15338E-01   -0.29662E-02  3440   0.260E-01    0.627E-02
DAV:   2    -0.748984890624E+03   -0.73222E-03   -0.65899E-03  4032   0.937E-02    0.211E-01
DAV:   3    -0.748984129328E+03    0.76130E-03   -0.33806E-03  3520   0.701E-02    0.282E-02
DAV:   4    -0.748984157685E+03   -0.28357E-04   -0.13117E-04  3056   0.159E-02    0.128E-02
DAV:   5    -0.748984155075E+03    0.26103E-05   -0.15034E-05  2640   0.114E-02
   5 F= -.74898416E+03 E0= -.74897284E+03  d E =-.153362E-01
       N       E                     dE             d eps       ncg     rms          rms(c)
DAV:   1    -0.749003082310E+03   -0.18925E-01   -0.46098E-02  3408   0.323E-01    0.787E-02
DAV:   2    -0.749004233462E+03   -0.11512E-02   -0.10405E-02  4064   0.117E-01    0.265E-01
DAV:   3    -0.749003036287E+03    0.11972E-02   -0.52966E-03  3648   0.876E-02    0.351E-02
DAV:   4    -0.749003079494E+03   -0.43207E-04   -0.20536E-04  3072   0.197E-02    0.158E-02
DAV:   5    -0.749003075798E+03    0.36962E-05   -0.25013E-05  2976   0.142E-02
   6 F= -.74900308E+03 E0= -.74899178E+03  d E =-.189207E-01
       N       E                     dE             d eps       ncg     rms          rms(c)
DAV:   1    -0.749025415716E+03   -0.22336E-01   -0.65923E-02  3408   0.386E-01    0.947E-02
DAV:   2    -0.749027075000E+03   -0.16593E-02   -0.15082E-02  4144   0.141E-01    0.318E-01
DAV:   3    -0.749025349251E+03    0.17257E-02   -0.76063E-03  3808   0.104E-01    0.421E-02
DAV:   4    -0.749025408950E+03   -0.59699E-04   -0.29670E-04  3072   0.234E-02    0.188E-02
DAV:   5    -0.749025403944E+03    0.50058E-05   -0.37322E-05  3200   0.170E-02
   7 F= -.74902540E+03 E0= -.74901413E+03  d E =-.223281E-01
       N       E                     dE             d eps       ncg     rms          rms(c)
DAV:   1    -0.749050941366E+03   -0.25532E-01   -0.89015E-02  3408   0.448E-01    0.111E-01
DAV:   2    -0.749053203975E+03   -0.22626E-02   -0.20702E-02  4320   0.164E-01    0.371E-01
DAV:   3    -0.749050848583E+03    0.23554E-02   -0.10345E-02  3936   0.122E-01    0.491E-02
DAV:   4    -0.749050927009E+03   -0.78427E-04   -0.40896E-04  3184   0.273E-02    0.217E-02
DAV:   5    -0.749050920588E+03    0.64213E-05   -0.50366E-05  3264   0.197E-02
   8 F= -.74905092E+03 E0= -.74903968E+03  d E =-.255166E-01
       N       E                     dE             d eps       ncg     rms          rms(c)
DAV:   1    -0.749079381745E+03   -0.28455E-01   -0.11512E-01  3360   0.507E-01    0.127E-01
DAV:   2    -0.749082336028E+03   -0.29543E-02   -0.27242E-02  4384   0.186E-01    0.424E-01
DAV:   3    -0.749079257546E+03    0.30785E-02   -0.13489E-02  4032   0.139E-01    0.559E-02
DAV:   4    -0.749079356349E+03   -0.98803E-04   -0.53627E-04  3184   0.311E-02    0.246E-02
DAV:   5    -0.749079348438E+03    0.79108E-05   -0.66811E-05  3280   0.226E-02
   9 F= -.74907935E+03 E0= -.74906815E+03  d E =-.284279E-01
       N       E                     dE             d eps       ncg     rms          rms(c)
DAV:   1    -0.749110439532E+03   -0.31083E-01   -0.14398E-01  3392   0.565E-01    0.144E-01
DAV:   2    -0.749114177151E+03   -0.37376E-02   -0.34778E-02  4352   0.209E-01    0.476E-01
DAV:   3    -0.749110277564E+03    0.38996E-02   -0.17067E-02  4112   0.156E-01    0.628E-02
DAV:   4    -0.749110399015E+03   -0.12145E-03   -0.68596E-04  3248   0.350E-02    0.277E-02
DAV:   5    -0.749110389181E+03    0.98345E-05   -0.85518E-05  3280   0.253E-02
  10 F= -.74911039E+03 E0= -.74909924E+03  d E =-.310407E-01
       N       E                     dE             d eps       ncg     rms          rms(c)
DAV:   1    -0.749143705610E+03   -0.33307E-01   -0.17530E-01  3392   0.622E-01    0.160E-01
DAV:   2    -0.749148305997E+03   -0.46004E-02   -0.43250E-02  4352   0.231E-01    0.527E-01
DAV:   3    -0.749143506428E+03    0.47996E-02   -0.21068E-02  4224   0.173E-01    0.692E-02
DAV:   4    -0.749143648675E+03   -0.14225E-03   -0.81180E-04  3280   0.386E-02    0.311E-02
DAV:   5    -0.749143635816E+03    0.12859E-04   -0.10544E-04  3296   0.277E-02    0.152E-02
DAV:   6    -0.749143639600E+03   -0.37835E-05   -0.34588E-05  2800   0.131E-02
  11 F= -.74914364E+03 E0= -.74913255E+03  d E =-.332504E-01
       N       E                     dE             d eps       ncg     rms          rms(c)
DAV:   1    -0.749178727806E+03   -0.35092E-01   -0.20934E-01  3424   0.677E-01    0.181E-01
DAV:   2    -0.749184598995E+03   -0.58712E-02   -0.55539E-02  4352   0.259E-01    0.595E-01
DAV:   3    -0.749178460197E+03    0.61388E-02   -0.26940E-02  4240   0.195E-01    0.736E-02
DAV:   4    -0.749178650632E+03   -0.19044E-03   -0.97943E-04  3296   0.427E-02    0.344E-02
DAV:   5    -0.749178636215E+03    0.14417E-04   -0.11910E-04  3248   0.282E-02    0.167E-02
DAV:   6    -0.749178639456E+03   -0.32412E-05   -0.39753E-05  2816   0.138E-02
  12 F= -.74917864E+03 E0= -.74916763E+03  d E =-.349999E-01
       N       E                     dE             d eps       ncg     rms          rms(c)
DAV:   1    -0.749214948688E+03   -0.36312E-01   -0.24429E-01  3408   0.730E-01    0.195E-01
DAV:   2    -0.749221663620E+03   -0.67149E-02   -0.64554E-02  4384   0.278E-01    0.636E-01
DAV:   3    -0.749214619279E+03    0.70443E-02   -0.31067E-02  4256   0.209E-01    0.791E-02
DAV:   4    -0.749214828160E+03   -0.20888E-03   -0.11213E-03  3296   0.462E-02    0.368E-02
DAV:   5    -0.749214809404E+03    0.18756E-04   -0.14274E-04  3296   0.311E-02    0.170E-02
DAV:   6    -0.749214812814E+03   -0.34108E-05   -0.46906E-05  2928   0.150E-02
  13 F= -.74921481E+03 E0= -.74920391E+03  d E =-.361734E-01
       N       E                     dE             d eps       ncg     rms          rms(c)
DAV:   1    -0.749251727895E+03   -0.36918E-01   -0.28036E-01  3456   0.781E-01    0.210E-01
DAV:   2    -0.749259296205E+03   -0.75683E-02   -0.74097E-02  4368   0.296E-01    0.674E-01
DAV:   3    -0.749251334559E+03    0.79616E-02   -0.35500E-02  4304   0.222E-01    0.834E-02
DAV:   4    -0.749251559951E+03   -0.22539E-03   -0.12095E-03  3408   0.493E-02    0.395E-02
DAV:   5    -0.749251536132E+03    0.23818E-04   -0.16362E-04  3328   0.327E-02    0.173E-02
DAV:   6    -0.749251540402E+03   -0.42692E-05   -0.53413E-05  2992   0.158E-02
  14 F= -.74925154E+03 E0= -.74924076E+03  d E =-.367276E-01
       N       E                     dE             d eps       ncg     rms          rms(c)
DAV:   1    -0.749288331525E+03   -0.36795E-01   -0.31681E-01  3520   0.829E-01    0.222E-01
DAV:   2    -0.749296618241E+03   -0.82867E-02   -0.82932E-02  4352   0.311E-01    0.706E-01
DAV:   3    -0.749287878267E+03    0.87400E-02   -0.39362E-02  4304   0.232E-01    0.873E-02
DAV:   4    -0.749288117453E+03   -0.23919E-03   -0.12958E-03  3408   0.520E-02    0.416E-02
DAV:   5    -0.749288089288E+03    0.28165E-04   -0.18541E-04  3312   0.347E-02    0.174E-02
DAV:   6    -0.749288094679E+03   -0.53906E-05   -0.60142E-05  3024   0.165E-02
  15 F= -.74928809E+03 E0= -.74927747E+03  d E =-.365543E-01
       N       E                     dE             d eps       ncg     rms          rms(c)
DAV:   1    -0.749324070505E+03   -0.35981E-01   -0.35279E-01  3488   0.871E-01    0.232E-01
DAV:   2    -0.749332822903E+03   -0.87524E-02   -0.90002E-02  4352   0.320E-01    0.726E-01
DAV:   3    -0.749323555676E+03    0.92672E-02   -0.42281E-02  4272   0.239E-01    0.898E-02
DAV:   4    -0.749323799096E+03   -0.24342E-03   -0.13768E-03  3408   0.544E-02    0.424E-02
DAV:   5    -0.749323768798E+03    0.30298E-04   -0.20572E-04  3296   0.367E-02    0.173E-02
DAV:   6    -0.749323775397E+03   -0.65995E-05   -0.66212E-05  3024   0.173E-02
  16 F= -.74932378E+03 E0= -.74931333E+03  d E =-.356807E-01
       N       E                     dE             d eps       ncg     rms          rms(c)
DAV:   1    -0.749358049095E+03   -0.34280E-01   -0.38752E-01  3456   0.910E-01    0.238E-01
DAV:   2    -0.749366959712E+03   -0.89106E-02   -0.94665E-02  4320   0.325E-01    0.731E-01
DAV:   3    -0.749357488991E+03    0.94707E-02   -0.44143E-02  4224   0.242E-01    0.913E-02
DAV:   4    -0.749357725068E+03   -0.23608E-03   -0.14227E-03  3488   0.562E-02    0.431E-02
DAV:   5    -0.749357693109E+03    0.31959E-04   -0.22107E-04  3296   0.381E-02    0.171E-02
DAV:   6    -0.749357700845E+03   -0.77361E-05   -0.70148E-05  3040   0.179E-02
  17 F= -.74935770E+03 E0= -.74934746E+03  d E =-.339254E-01
       N       E                     dE             d eps       ncg     rms          rms(c)
DAV:   1    -0.749389474823E+03   -0.31782E-01   -0.42066E-01  3488   0.946E-01    0.242E-01
DAV:   2    -0.749398225741E+03   -0.87509E-02   -0.96567E-02  4256   0.326E-01    0.723E-01
DAV:   3    -0.749388901339E+03    0.93244E-02   -0.44787E-02  4240   0.241E-01    0.922E-02
DAV:   4    -0.749389121465E+03   -0.22013E-03   -0.14359E-03  3456   0.575E-02    0.441E-02
DAV:   5    -0.749389087578E+03    0.33887E-04   -0.22883E-04  3296   0.392E-02    0.170E-02
DAV:   6    -0.749389096264E+03   -0.86861E-05   -0.70870E-05  3040   0.181E-02
  18 F= -.74938910E+03 E0= -.74937909E+03  d E =-.313954E-01
       N       E                     dE             d eps       ncg     rms          rms(c)
DAV:   1    -0.749417587888E+03   -0.28500E-01   -0.45222E-01  3488   0.978E-01    0.243E-01
DAV:   2    -0.749425804510E+03   -0.82166E-02   -0.94790E-02  4240   0.322E-01    0.696E-01
DAV:   3    -0.749417029511E+03    0.87750E-02   -0.43930E-02  4224   0.238E-01    0.921E-02
DAV:   4    -0.749417222915E+03   -0.19340E-03   -0.14116E-03  3392   0.585E-02    0.448E-02
DAV:   5    -0.749417188732E+03    0.34183E-04   -0.24141E-04  3296   0.399E-02    0.168E-02
DAV:   6    -0.749417198316E+03   -0.95846E-05   -0.71703E-05  3040   0.181E-02
  19 F= -.74941720E+03 E0= -.74940744E+03  d E =-.281021E-01
       N       E                     dE             d eps       ncg     rms          rms(c)
DAV:   1    -0.749441626058E+03   -0.24437E-01   -0.48203E-01  3504   0.101E+00    0.240E-01
DAV:   2    -0.749449026017E+03   -0.74000E-02   -0.89670E-02  4240   0.314E-01    0.655E-01
DAV:   3    -0.749441136283E+03    0.78897E-02   -0.41617E-02  4192   0.230E-01    0.916E-02
DAV:   4    -0.749441295636E+03   -0.15935E-03   -0.13481E-03  3376   0.590E-02    0.460E-02
DAV:   5    -0.749441262619E+03    0.33017E-04   -0.24547E-04  3296   0.397E-02    0.166E-02
DAV:   6    -0.749441272844E+03   -0.10225E-04   -0.69977E-05  3024   0.179E-02    0.923E-03
DAV:   7    -0.749441282260E+03   -0.94155E-05   -0.82394E-06  2512   0.561E-03
  20 F= -.74944128E+03 E0= -.74943178E+03  d E =-.240839E-01
       N       E                     dE             d eps       ncg     rms          rms(c)
DAV:   1    -0.749461284174E+03   -0.20011E-01   -0.51198E-01  3424   0.104E+00    0.236E-01
DAV:   2    -0.749467801080E+03   -0.65169E-02   -0.83174E-02  4176   0.305E-01    0.606E-01
DAV:   3    -0.749460903813E+03    0.68973E-02   -0.38690E-02  4192   0.220E-01    0.905E-02
DAV:   4    -0.749461027169E+03   -0.12336E-03   -0.12633E-03  3312   0.585E-02    0.474E-02
DAV:   5    -0.749460996569E+03    0.30600E-04   -0.23934E-04  3264   0.383E-02    0.163E-02
DAV:   6    -0.749461004874E+03   -0.83052E-05   -0.65564E-05  3008   0.174E-02
  21 F= -.74946100E+03 E0= -.74945177E+03  d E =-.197226E-01
       N       E                     dE             d eps       ncg     rms          rms(c)
DAV:   1    -0.749476407768E+03   -0.15411E-01   -0.54236E-01  3440   0.107E+00    0.227E-01
DAV:   2    -0.749481840780E+03   -0.54330E-02   -0.72887E-02  4064   0.290E-01    0.542E-01
DAV:   3    -0.749476220306E+03    0.56205E-02   -0.33806E-02  4176   0.205E-01    0.893E-02
DAV:   4    -0.749476305573E+03   -0.85267E-04   -0.11331E-03  3296   0.569E-02    0.493E-02
DAV:   5    -0.749476281364E+03    0.24209E-04   -0.22530E-04  3280   0.364E-02    0.164E-02
DAV:   6    -0.749476290192E+03   -0.88286E-05   -0.59602E-05  2992   0.168E-02
  22 F= -.74947629E+03 E0= -.74946731E+03  d E =-.152853E-01
       N       E                     dE             d eps       ncg     rms          rms(c)
DAV:   1    -0.749487211815E+03   -0.10930E-01   -0.57636E-01  3456   0.110E+00    0.220E-01
DAV:   2    -0.749491776854E+03   -0.45650E-02   -0.63868E-02  4000   0.274E-01    0.484E-01
DAV:   3    -0.749487225239E+03    0.45516E-02   -0.29335E-02  4192   0.190E-01    0.882E-02
DAV:   4    -0.749487279503E+03   -0.54264E-04   -0.10090E-03  3184   0.549E-02    0.511E-02
DAV:   5    -0.749487266029E+03    0.13474E-04   -0.21029E-04  3312   0.341E-02    0.165E-02
DAV:   6    -0.749487274945E+03   -0.89158E-05   -0.54958E-05  3008   0.164E-02
  23 F= -.74948727E+03 E0= -.74947852E+03  d E =-.109848E-01
       N       E                     dE             d eps       ncg     rms          rms(c)
DAV:   1    -0.749494053241E+03   -0.67872E-02   -0.61575E-01  3456   0.112E+00    0.213E-01
DAV:   2    -0.749497920532E+03   -0.38673E-02   -0.55671E-02  3968   0.261E-01    0.428E-01
DAV:   3    -0.749494291445E+03    0.36291E-02   -0.25011E-02  4096   0.177E-01    0.873E-02
DAV:   4    -0.749494323899E+03   -0.32455E-04   -0.95228E-04  3152   0.532E-02    0.527E-02
DAV:   5    -0.749494323806E+03    0.93263E-07   -0.19310E-04  3280   0.322E-02    0.169E-02
DAV:   6    -0.749494332111E+03   -0.83051E-05   -0.50166E-05  2960   0.164E-02
  24 F= -.74949433E+03 E0= -.74948577E+03  d E =-.705717E-02
       N       E                     dE             d eps       ncg     rms          rms(c)
DAV:   1    -0.749497489264E+03   -0.31655E-02   -0.65959E-01  3520   0.115E+00    0.209E-01
DAV:   2    -0.749500851064E+03   -0.33618E-02   -0.49087E-02  3888   0.248E-01    0.382E-01
DAV:   3    -0.749497939038E+03    0.29120E-02   -0.21263E-02  4064   0.163E-01    0.867E-02
DAV:   4    -0.749497951082E+03   -0.12044E-04   -0.87313E-04  3136   0.519E-02    0.535E-02
DAV:   5    -0.749497962351E+03   -0.11269E-04   -0.18039E-04  3200   0.308E-02    0.171E-02
DAV:   6    -0.749497970091E+03   -0.77399E-05   -0.49468E-05  2976   0.166E-02
  25 F= -.74949797E+03 E0= -.74948956E+03  d E =-.363798E-02
       N       E                     dE             d eps       ncg     rms          rms(c)
DAV:   1    -0.749498106457E+03   -0.14411E-03   -0.71022E-01  3488   0.117E+00    0.205E-01
DAV:   2    -0.749501132095E+03   -0.30256E-02   -0.44187E-02  3824   0.238E-01    0.344E-01
DAV:   3    -0.749498761951E+03    0.23701E-02   -0.18224E-02  3984   0.151E-01    0.866E-02
DAV:   4    -0.749498760229E+03    0.17215E-05   -0.82695E-04  3168   0.513E-02    0.542E-02
DAV:   5    -0.749498778874E+03   -0.18645E-04   -0.17067E-04  3120   0.301E-02    0.175E-02
DAV:   6    -0.749498786070E+03   -0.71963E-05   -0.49677E-05  2992   0.170E-02
  26 F= -.74949879E+03 E0= -.74949051E+03  d E =-.815980E-03
       N       E                     dE             d eps       ncg     rms          rms(c)
DAV:   1    -0.749496400796E+03    0.23781E-02   -0.76488E-01  3520   0.119E+00    0.205E-01
DAV:   2    -0.749499210665E+03   -0.28099E-02   -0.40778E-02  3744   0.230E-01    0.315E-01
DAV:   3    -0.749497230850E+03    0.19798E-02   -0.16040E-02  3952   0.142E-01    0.876E-02
DAV:   4    -0.749497216682E+03    0.14167E-04   -0.81257E-04  3168   0.516E-02    0.550E-02
DAV:   5    -0.749497240157E+03   -0.23475E-04   -0.16893E-04  3088   0.300E-02    0.178E-02
DAV:   6    -0.749497246948E+03   -0.67904E-05   -0.51158E-05  3024   0.174E-02
  27 F= -.74949725E+03 E0= -.74948908E+03  d E =0.153912E-02
       N       E                     dE             d eps       ncg     rms          rms(c)
DAV:   1    -0.749492593519E+03    0.46466E-02   -0.82550E-01  3456   0.120E+00    0.206E-01
DAV:   2    -0.749495299399E+03   -0.27059E-02   -0.38645E-02  3744   0.225E-01    0.294E-01
DAV:   3    -0.749493601260E+03    0.16981E-02   -0.14291E-02  3888   0.135E-01    0.893E-02
DAV:   4    -0.749493574858E+03    0.26403E-04   -0.82427E-04  3136   0.522E-02    0.560E-02
DAV:   5    -0.749493602946E+03   -0.28088E-04   -0.17397E-04  3008   0.303E-02    0.181E-02
DAV:   6    -0.749493610236E+03   -0.72900E-05   -0.55606E-05  3056   0.180E-02
  28 F= -.74949361E+03 E0= -.74948552E+03  d E =0.363671E-02
       N       E                     dE             d eps       ncg     rms          rms(c)
DAV:   1    -0.749486988987E+03    0.66140E-02   -0.88688E-01  3488   0.122E+00    0.209E-01
DAV:   2    -0.749489654647E+03   -0.26657E-02   -0.37558E-02  3744   0.220E-01    0.280E-01
DAV:   3    -0.749488139985E+03    0.15147E-02   -0.13112E-02  3760   0.130E-01    0.917E-02
DAV:   4    -0.749488103641E+03    0.36344E-04   -0.85919E-04  3008   0.536E-02    0.572E-02
DAV:   5    -0.749488134945E+03   -0.31304E-04   -0.18068E-04  2960   0.311E-02    0.184E-02
DAV:   6    -0.749488141572E+03   -0.66266E-05   -0.58656E-05  3056   0.188E-02
  29 F= -.74948814E+03 E0= -.74948012E+03  d E =0.546866E-02
       N       E                     dE             d eps       ncg     rms          rms(c)
DAV:   1    -0.749479546902E+03    0.85880E-02   -0.95261E-01  3488   0.123E+00    0.213E-01
DAV:   2    -0.749482204052E+03   -0.26571E-02   -0.36907E-02  3744   0.216E-01    0.269E-01
DAV:   3    -0.749480835493E+03    0.13686E-02   -0.12195E-02  3744   0.126E-01    0.943E-02
DAV:   4    -0.749480790451E+03    0.45042E-04   -0.90362E-04  3008   0.549E-02    0.584E-02
DAV:   5    -0.749480821262E+03   -0.30811E-04   -0.18861E-04  2912   0.320E-02    0.186E-02
DAV:   6    -0.749480827455E+03   -0.61935E-05   -0.61418E-05  3024   0.193E-02
  30 F= -.74948083E+03 E0= -.74947287E+03  d E =0.731412E-02
       N       E                     dE             d eps       ncg     rms          rms(c)
DAV:   1    -0.749470576151E+03    0.10245E-01   -0.10210E+00  3520   0.124E+00    0.218E-01
DAV:   2    -0.749473263898E+03   -0.26877E-02   -0.36836E-02  3728   0.214E-01    0.262E-01
DAV:   3    -0.749471988239E+03    0.12757E-02   -0.11567E-02  3712   0.124E-01    0.973E-02
DAV:   4    -0.749471939235E+03    0.49004E-04   -0.95574E-04  3040   0.563E-02    0.598E-02
DAV:   5    -0.749471965728E+03   -0.26493E-04   -0.19978E-04  2976   0.331E-02    0.187E-02
DAV:   6    -0.749471972001E+03   -0.62731E-05   -0.64547E-05  3008   0.198E-02
  31 F= -.74947197E+03 E0= -.74946406E+03  d E =0.885545E-02
       N       E                     dE             d eps       ncg     rms          rms(c)
DAV:   1    -0.749460120737E+03    0.11845E-01   -0.10953E+00  3520   0.125E+00    0.223E-01
DAV:   2    -0.749462858719E+03   -0.27380E-02   -0.36982E-02  3728   0.211E-01    0.257E-01
DAV:   3    -0.749461661579E+03    0.11971E-02   -0.11013E-02  3616   0.122E-01    0.100E-01
DAV:   4    -0.749461606812E+03    0.54767E-04   -0.10183E-03  3040   0.580E-02    0.611E-02
DAV:   5    -0.749461631288E+03   -0.24476E-04   -0.21179E-04  2960   0.342E-02    0.190E-02
DAV:   6    -0.749461638086E+03   -0.67984E-05   -0.66925E-05  3008   0.204E-02
  32 F= -.74946164E+03 E0= -.74945377E+03  d E =0.103339E-01
       N       E                     dE             d eps       ncg     rms          rms(c)
DAV:   1    -0.749448203383E+03    0.13428E-01   -0.11700E+00  3488   0.126E+00    0.229E-01
DAV:   2    -0.749451014483E+03   -0.28111E-02   -0.37587E-02  3760   0.210E-01    0.255E-01
DAV:   3    -0.749449857166E+03    0.11573E-02   -0.10707E-02  3568   0.121E-01    0.104E-01
DAV:   4    -0.749449795936E+03    0.61229E-04   -0.10781E-03  3040   0.597E-02    0.626E-02
DAV:   5    -0.749449818248E+03   -0.22312E-04   -0.22527E-04  2960   0.354E-02    0.191E-02
DAV:   6    -0.749449824557E+03   -0.63093E-05   -0.69947E-05  2976   0.210E-02
  33 F= -.74944982E+03 E0= -.74944198E+03  d E =0.118135E-01
       N       E                     dE             d eps       ncg     rms          rms(c)
DAV:   1    -0.749434895628E+03    0.14923E-01   -0.12516E+00  3488   0.127E+00    0.236E-01
DAV:   2    -0.749437790612E+03   -0.28950E-02   -0.38332E-02  3776   0.209E-01    0.253E-01
DAV:   3    -0.749436671866E+03    0.11187E-02   -0.10429E-02  3552   0.120E-01    0.107E-01
DAV:   4    -0.749436605484E+03    0.66382E-04   -0.11383E-03  3040   0.613E-02    0.641E-02
DAV:   5    -0.749436625201E+03   -0.19717E-04   -0.24065E-04  2960   0.367E-02    0.193E-02
DAV:   6    -0.749436630402E+03   -0.52016E-05   -0.73081E-05  3008   0.215E-02
  34 F= -.74943663E+03 E0= -.74942881E+03  d E =0.131942E-01
       N       E                     dE             d eps       ncg     rms          rms(c)
DAV:   1    -0.749420376122E+03    0.16249E-01   -0.13405E+00  3488   0.128E+00    0.242E-01
DAV:   2    -0.749423373938E+03   -0.29978E-02   -0.39282E-02  3792   0.208E-01    0.253E-01
DAV:   3    -0.749422286468E+03    0.10875E-02   -0.10232E-02  3584   0.120E-01    0.111E-01
DAV:   4    -0.749422210755E+03    0.75713E-04   -0.11988E-03  3024   0.630E-02    0.657E-02
DAV:   5    -0.749422229465E+03   -0.18710E-04   -0.25814E-04  2976   0.382E-02    0.196E-02
DAV:   6    -0.749422232971E+03   -0.35057E-05   -0.76094E-05  2944   0.220E-02
  35 F= -.74942223E+03 E0= -.74941443E+03  d E =0.143974E-01
       N       E                     dE             d eps       ncg     rms          rms(c)
DAV:   1    -0.749404702541E+03    0.17527E-01   -0.14326E+00  3520   0.129E+00    0.250E-01
DAV:   2    -0.749407827540E+03   -0.31250E-02   -0.40657E-02  3808   0.209E-01    0.256E-01
DAV:   3    -0.749406727932E+03    0.10996E-02   -0.10262E-02  3568   0.121E-01    0.115E-01
DAV:   4    -0.749406651446E+03    0.76486E-04   -0.12625E-03  3008   0.649E-02    0.675E-02
DAV:   5    -0.749406669399E+03   -0.17953E-04   -0.27658E-04  2976   0.397E-02    0.199E-02
DAV:   6    -0.749406672111E+03   -0.27119E-05   -0.79876E-05  3008   0.225E-02
  36 F= -.74940667E+03 E0= -.74939886E+03  d E =0.155609E-01
       N       E                     dE             d eps       ncg     rms          rms(c)
DAV:   1    -0.749387793542E+03    0.18876E-01   -0.15327E+00  3520   0.131E+00    0.258E-01
DAV:   2    -0.749391073811E+03   -0.32803E-02   -0.42205E-02  3840   0.210E-01    0.260E-01
DAV:   3    -0.749389947650E+03    0.11262E-02   -0.10404E-02  3552   0.122E-01    0.119E-01
DAV:   4    -0.749389871125E+03    0.76525E-04   -0.13322E-03  2992   0.670E-02    0.694E-02
DAV:   5    -0.749389884609E+03   -0.13484E-04   -0.29768E-04  2960   0.413E-02    0.203E-02
DAV:   6    -0.749389888679E+03   -0.40691E-05   -0.83918E-05  2976   0.231E-02
  37 F= -.74938989E+03 E0= -.74938204E+03  d E =0.167834E-01
       N       E                     dE             d eps       ncg     rms          rms(c)
DAV:   1    -0.749369755603E+03    0.20129E-01   -0.16391E+00  3520   0.132E+00    0.267E-01
DAV:   2    -0.749373247378E+03   -0.34918E-02   -0.44339E-02  3872   0.212E-01    0.269E-01
DAV:   3    -0.749372034729E+03    0.12126E-02   -0.10917E-02  3664   0.126E-01    0.124E-01
DAV:   4    -0.749371952497E+03    0.82232E-04   -0.13979E-03  3024   0.691E-02    0.718E-02
DAV:   5    -0.749371967347E+03   -0.14850E-04   -0.31975E-04  3008   0.429E-02    0.209E-02
DAV:   6    -0.749371971380E+03   -0.40327E-05   -0.88835E-05  3024   0.237E-02
  38 F= -.74937197E+03 E0= -.74936404E+03  d E =0.179173E-01
       N       E                     dE             d eps       ncg     rms          rms(c)
DAV:   1    -0.749350771118E+03    0.21196E-01   -0.17537E+00  3520   0.134E+00    0.277E-01
DAV:   2    -0.749354546907E+03   -0.37758E-02   -0.47180E-02  3952   0.217E-01    0.283E-01
DAV:   3    -0.749353179941E+03    0.13670E-02   -0.11896E-02  3728   0.133E-01    0.129E-01
DAV:   4    -0.749353087166E+03    0.92775E-04   -0.14711E-03  3024   0.716E-02    0.746E-02
DAV:   5    -0.749353108527E+03   -0.21361E-04   -0.34403E-04  3008   0.447E-02    0.219E-02
DAV:   6    -0.749353111165E+03   -0.26388E-05   -0.95050E-05  3024   0.244E-02
  39 F= -.74935311E+03 E0= -.74934504E+03  d E =0.188602E-01
       N       E                     dE             d eps       ncg     rms          rms(c)
DAV:   1    -0.749330824089E+03    0.22284E-01   -0.18735E+00  3520   0.136E+00    0.290E-01
DAV:   2    -0.749334985784E+03   -0.41617E-02   -0.50967E-02  3984   0.225E-01    0.305E-01
DAV:   3    -0.749333348617E+03    0.16372E-02   -0.13553E-02  3856   0.144E-01    0.135E-01
DAV:   4    -0.749333243434E+03    0.10518E-03   -0.15471E-03  3008   0.745E-02    0.779E-02
DAV:   5    -0.749333271410E+03   -0.27975E-04   -0.36957E-04  2992   0.463E-02    0.232E-02
DAV:   6    -0.749333273384E+03   -0.19740E-05   -0.10282E-04  2992   0.254E-02    0.959E-03
DAV:   7    -0.749333272963E+03    0.42084E-06   -0.12862E-05  2432   0.812E-03
  40 F= -.74933327E+03 E0= -.74932498E+03  d E =0.198382E-01
       N       E                     dE             d eps       ncg     rms          rms(c)
DAV:   1    -0.749309830723E+03    0.23443E-01   -0.20014E+00  3520   0.138E+00    0.302E-01
DAV:   2    -0.749314484773E+03   -0.46540E-02   -0.55526E-02  4000   0.235E-01    0.333E-01
DAV:   3    -0.749312434353E+03    0.20504E-02   -0.15841E-02  4080   0.158E-01    0.142E-01
DAV:   4    -0.749312317397E+03    0.11696E-03   -0.16037E-03  3104   0.770E-02    0.817E-02
DAV:   5    -0.749312349979E+03   -0.32582E-04   -0.40163E-04  3056   0.483E-02    0.245E-02
DAV:   6    -0.749312350942E+03   -0.96251E-06   -0.11340E-04  2944   0.264E-02    0.101E-02
DAV:   7    -0.749312350335E+03    0.60670E-06   -0.13736E-05  2464   0.850E-03
  41 F= -.74931235E+03 E0= -.74930375E+03  d E =0.209226E-01
       N       E                     dE             d eps       ncg     rms          rms(c)
DAV:   1    -0.749287900879E+03    0.24450E-01   -0.21367E+00  3520   0.140E+00    0.318E-01
DAV:   2    -0.749293236754E+03   -0.53359E-02   -0.61403E-02  4096   0.248E-01    0.370E-01
DAV:   3    -0.749290593264E+03    0.26435E-02   -0.18981E-02  4112   0.174E-01    0.150E-01
DAV:   4    -0.749290479575E+03    0.11369E-03   -0.16942E-03  3120   0.806E-02    0.857E-02
DAV:   5    -0.749290517874E+03   -0.38299E-04   -0.43748E-04  3120   0.504E-02    0.264E-02
DAV:   6    -0.749290519303E+03   -0.14295E-05   -0.12462E-04  2976   0.278E-02    0.106E-02
DAV:   7    -0.749290518543E+03    0.75962E-06   -0.14704E-05  2480   0.887E-03
  42 F= -.74929052E+03 E0= -.74928153E+03  d E =0.218318E-01
       N       E                     dE             d eps       ncg     rms          rms(c)
DAV:   1    -0.749265111744E+03    0.25408E-01   -0.22798E+00  3520   0.142E+00    0.334E-01
DAV:   2    -0.749271261781E+03   -0.61500E-02   -0.67983E-02  4048   0.263E-01    0.410E-01
DAV:   3    -0.749267887405E+03    0.33744E-02   -0.22752E-02  4128   0.192E-01    0.157E-01
DAV:   4    -0.749267781546E+03    0.10586E-03   -0.18024E-03  3136   0.844E-02    0.896E-02
DAV:   5    -0.749267826247E+03   -0.44702E-04   -0.47573E-04  3152   0.524E-02    0.284E-02
DAV:   6    -0.749267826417E+03   -0.17018E-06   -0.13462E-04  2928   0.292E-02    0.110E-02
DAV:   7    -0.749267825619E+03    0.79809E-06   -0.16000E-05  2496   0.922E-03
  43 F= -.74926783E+03 E0= -.74925838E+03  d E =0.226929E-01
       N       E                     dE             d eps       ncg     rms          rms(c)
DAV:   1    -0.749241867936E+03    0.25958E-01   -0.24293E+00  3520   0.144E+00    0.351E-01
DAV:   2    -0.749248976636E+03   -0.71087E-02   -0.75366E-02  4112   0.279E-01    0.454E-01
DAV:   3    -0.749244733443E+03    0.42432E-02   -0.27295E-02  4144   0.211E-01    0.165E-01
DAV:   4    -0.749244626723E+03    0.10672E-03   -0.19023E-03  3088   0.881E-02    0.934E-02
DAV:   5    -0.749244668905E+03   -0.42182E-04   -0.51666E-04  3136   0.546E-02    0.302E-02
DAV:   6    -0.749244669171E+03   -0.26565E-06   -0.14483E-04  2896   0.306E-02    0.114E-02
DAV:   7    -0.749244668351E+03    0.81975E-06   -0.17540E-05  2576   0.960E-03
  44 F= -.74924467E+03 E0= -.74923471E+03  d E =0.231573E-01
       N       E                     dE             d eps       ncg     rms          rms(c)
DAV:   1    -0.749218146466E+03    0.26523E-01   -0.25903E+00  3520   0.146E+00    0.367E-01
DAV:   2    -0.749226193957E+03   -0.80475E-02   -0.82231E-02  4144   0.294E-01    0.494E-01
DAV:   3    -0.749221105707E+03    0.50883E-02   -0.32066E-02  4160   0.227E-01    0.173E-01
DAV:   4    -0.749220993272E+03    0.11244E-03   -0.20418E-03  3088   0.922E-02    0.969E-02
DAV:   5    -0.749221026785E+03   -0.33513E-04   -0.55136E-04  3200   0.565E-02    0.318E-02
DAV:   6    -0.749221025702E+03    0.10822E-05   -0.15232E-04  2896   0.318E-02    0.117E-02
DAV:   7    -0.749221024925E+03    0.77770E-06   -0.18962E-05  2624   0.999E-03
  45 F= -.74922102E+03 E0= -.74921053E+03  d E =0.236434E-01
       N       E                     dE             d eps       ncg     rms          rms(c)
DAV:   1    -0.749193845560E+03    0.27180E-01   -0.27567E+00  3520   0.148E+00    0.384E-01
DAV:   2    -0.749202986833E+03   -0.91413E-02   -0.90830E-02  4144   0.308E-01    0.540E-01
DAV:   3    -0.749196917069E+03    0.60698E-02   -0.37530E-02  4144   0.244E-01    0.182E-01
DAV:   4    -0.749196797973E+03    0.11910E-03   -0.22053E-03  3088   0.962E-02    0.101E-01
DAV:   5    -0.749196825297E+03   -0.27325E-04   -0.58949E-04  3280   0.588E-02    0.334E-02
DAV:   6    -0.749196821357E+03    0.39401E-05   -0.16397E-04  2896   0.331E-02    0.122E-02
DAV:   7    -0.749196820528E+03    0.82944E-06   -0.20478E-05  2640   0.105E-02
  46 F= -.74919682E+03 E0= -.74918578E+03  d E =0.242044E-01
       N       E                     dE             d eps       ncg     rms          rms(c)
DAV:   1    -0.749168858861E+03    0.27962E-01   -0.29321E+00  3520   0.150E+00    0.399E-01
DAV:   2    -0.749178982367E+03   -0.10124E-01   -0.99106E-02  4112   0.318E-01    0.579E-01
DAV:   3    -0.749172077240E+03    0.69051E-02   -0.42888E-02  4160   0.256E-01    0.191E-01
DAV:   4    -0.749171931997E+03    0.14524E-03   -0.23106E-03  3104   0.100E-01    0.105E-01
DAV:   5    -0.749171961438E+03   -0.29441E-04   -0.62129E-04  3296   0.607E-02    0.343E-02
DAV:   6    -0.749171957900E+03    0.35379E-05   -0.17333E-04  2880   0.345E-02    0.126E-02
DAV:   7    -0.749171957048E+03    0.85273E-06   -0.22246E-05  2672   0.109E-02
  47 F= -.74917196E+03 E0= -.74916039E+03  d E =0.248635E-01
       N       E                     dE             d eps       ncg     rms          rms(c)
DAV:   1    -0.749143441257E+03    0.28517E-01   -0.31248E+00  3520   0.152E+00    0.412E-01
DAV:   2    -0.749154335547E+03   -0.10894E-01   -0.10602E-01  4112   0.326E-01    0.608E-01
DAV:   3    -0.749146861268E+03    0.74743E-02   -0.47302E-02  4144   0.264E-01    0.201E-01
DAV:   4    -0.749146683589E+03    0.17768E-03   -0.24372E-03  3104   0.104E-01    0.110E-01
DAV:   5    -0.749146714524E+03   -0.30935E-04   -0.64767E-04  3360   0.624E-02    0.349E-02
DAV:   6    -0.749146714265E+03    0.25925E-06   -0.18118E-04  2880   0.358E-02    0.130E-02
DAV:   7    -0.749146712909E+03    0.13560E-05   -0.23793E-05  2720   0.114E-02
  48 F= -.74914671E+03 E0= -.74913467E+03  d E =0.252441E-01
       N       E                     dE             d eps       ncg     rms          rms(c)
DAV:   1    -0.749117935541E+03    0.28779E-01   -0.33220E+00  3520   0.155E+00    0.425E-01
DAV:   2    -0.749129484772E+03   -0.11549E-01   -0.11228E-01  4112   0.333E-01    0.632E-01
DAV:   3    -0.749121560382E+03    0.79244E-02   -0.51246E-02  4112   0.271E-01    0.211E-01
DAV:   4    -0.749121342618E+03    0.21776E-03   -0.26013E-03  3104   0.109E-01    0.114E-01
DAV:   5    -0.749121375667E+03   -0.33049E-04   -0.66997E-04  3424   0.647E-02    0.355E-02
DAV:   6    -0.749121374651E+03    0.10156E-05   -0.18998E-04  2880   0.369E-02    0.135E-02
DAV:   7    -0.749121372952E+03    0.16996E-05   -0.25499E-05  2752   0.118E-02
  49 F= -.74912137E+03 E0= -.74910890E+03  d E =0.253400E-01
       N       E                     dE             d eps       ncg     rms          rms(c)
DAV:   1    -0.749091983604E+03    0.29391E-01   -0.35203E+00  3488   0.158E+00    0.438E-01
DAV:   2    -0.749104015442E+03   -0.12032E-01   -0.11727E-01  4128   0.339E-01    0.650E-01
DAV:   3    -0.749095820073E+03    0.81954E-02   -0.54109E-02  4112   0.279E-01    0.221E-01
DAV:   4    -0.749095544030E+03    0.27604E-03   -0.27443E-03  3104   0.114E-01    0.118E-01
DAV:   5    -0.749095575951E+03   -0.31922E-04   -0.68734E-04  3488   0.670E-02    0.358E-02
DAV:   6    -0.749095576177E+03   -0.22582E-06   -0.19589E-04  2880   0.379E-02    0.139E-02
DAV:   7    -0.749095574216E+03    0.19613E-05   -0.27181E-05  2800   0.122E-02
  50 F= -.74909557E+03 E0= -.74908274E+03  d E =0.257987E-01
