 vasp.5.4.4.18Apr17-6-g9f103f2a35 (build Aug 09 2024 17:42:55) complex          
  
 executed on             LinuxIFC date 2025.12.26  00:41:42
 running on   64 total cores
 each image running on   16 cores
 distrk:  each k-point on   16 cores,    1 groups
 distr:  one band on NCORES_PER_BAND=   1 cores,   16 groups


--------------------------------------------------------------------------------------------------------


 INCAR:
 POTCAR:    PAW_PBE Hf_sv 10Jan2008 GW suitable   
 POTCAR:    PAW_PBE C 08Apr2002                   
 POTCAR:    PAW_PBE O 08Apr2002                   

 ----------------------------------------------------------------------------- 
|                                                                             |
|           W    W    AA    RRRRR   N    N  II  N    N   GGGG   !!!           |
|           W    W   A  A   R    R  NN   N  II  NN   N  G    G  !!!           |
|           W    W  A    A  R    R  N N  N  II  N N  N  G       !!!           |
|           W WW W  AAAAAA  RRRRR   N  N N  II  N  N N  G  GGG   !            |
|           WW  WW  A    A  R   R   N   NN  II  N   NN  G    G                |
|           W    W  A    A  R    R  N    N  II  N    N   GGGG   !!!           |
|                                                                             |
|      For optimal performance we recommend to set                            |
|        NCORE= 4 - approx SQRT( number of cores)                             |
|      NCORE specifies how many cores store one orbital (NPAR=cpu/NCORE).     |
|      This setting can  greatly improve the performance of VASP for DFT.     |
|      The default,   NCORE=1            might be grossly inefficient         |
|      on modern multi-core architectures or massively parallel machines.     |
|      Do your own testing !!!!                                               |
|      Unfortunately you need to use the default for GW and RPA calculations. |
|      (for HF NCORE is supported but not extensively tested yet)             |
|                                                                             |
 ----------------------------------------------------------------------------- 

 POTCAR:    PAW_PBE Hf_sv 10Jan2008 GW suitable   
  local pseudopotential read in
  partial core-charges read in
  partial kinetic energy density read in
  atomic valenz-charges read in
  non local Contribution for L=           0  read in
    real space projection operators read in
  non local Contribution for L=           0  read in
    real space projection operators read in
  non local Contribution for L=           1  read in
    real space projection operators read in
  non local Contribution for L=           1  read in
    real space projection operators read in
  non local Contribution for L=           2  read in
    real space projection operators read in
  non local Contribution for L=           2  read in
    real space projection operators read in
    PAW grid and wavefunctions read in
 
   number of l-projection  operators is LMAX  =           6
   number of lm-projection operators is LMMAX =          18
 
 POTCAR:    PAW_PBE C 08Apr2002                   
  local pseudopotential read in
  partial core-charges read in
  partial kinetic energy density read in
  atomic valenz-charges read in
  non local Contribution for L=           0  read in
    real space projection operators read in
  non local Contribution for L=           0  read in
    real space projection operators read in
  non local Contribution for L=           1  read in
    real space projection operators read in
  non local Contribution for L=           1  read in
    real space projection operators read in
    PAW grid and wavefunctions read in
 
   number of l-projection  operators is LMAX  =           4
   number of lm-projection operators is LMMAX =           8
 
 POTCAR:    PAW_PBE O 08Apr2002                   
  local pseudopotential read in
  partial core-charges read in
  partial kinetic energy density read in
  kinetic energy density of atom read in
  atomic valenz-charges read in
  non local Contribution for L=           0  read in
    real space projection operators read in
  non local Contribution for L=           0  read in
    real space projection operators read in
  non local Contribution for L=           1  read in
    real space projection operators read in
  non local Contribution for L=           1  read in
    real space projection operators read in
    PAW grid and wavefunctions read in
 
   number of l-projection  operators is LMAX  =           4
   number of lm-projection operators is LMMAX =           8
 
 Optimization of the real space projectors (new method)

 maximal supplied QI-value         = 15.68
 optimisation between [QCUT,QGAM] = [ 11.61, 23.21] = [ 37.72,150.90] Ry 
 Optimized for a Real-space Cutoff    1.36 Angstroem

   l    n(q)    QCUT    max X(q) W(low)/X(q) W(high)/X(q)  e(spline) 
   0      9    11.607     5.470    0.13E-04    0.45E-05    0.57E-08
   0      9    11.607     5.281    0.11E-03    0.46E-04    0.81E-07
   1      9    11.607     3.359    0.52E-04    0.11E-03    0.11E-06
   1      9    11.607     5.307    0.35E-03    0.51E-03    0.48E-06
   2      8    11.607     9.057    0.26E-03    0.45E-04    0.27E-06
   2      8    11.607     6.147    0.23E-03    0.33E-04    0.24E-06
 Optimization of the real space projectors (new method)

 maximal supplied QI-value         = 25.13
 optimisation between [QCUT,QGAM] = [ 11.56, 23.12] = [ 37.43,149.72] Ry 
 Optimized for a Real-space Cutoff    1.04 Angstroem

   l    n(q)    QCUT    max X(q) W(low)/X(q) W(high)/X(q)  e(spline) 
   0      7    11.561   115.676    0.20E-03    0.60E-03    0.21E-06
   0      7    11.561    87.132    0.20E-03    0.59E-03    0.21E-06
   1      7    11.561     4.429    0.23E-03    0.35E-03    0.15E-06
   1      7    11.561     2.733    0.18E-03    0.25E-03    0.12E-06
 Optimization of the real space projectors (new method)

 maximal supplied QI-value         = 24.76
 optimisation between [QCUT,QGAM] = [ 11.64, 23.27] = [ 37.91,151.63] Ry 
 Optimized for a Real-space Cutoff    1.04 Angstroem

   l    n(q)    QCUT    max X(q) W(low)/X(q) W(high)/X(q)  e(spline) 
   0      7    11.635    20.381    0.14E-03    0.49E-03    0.18E-06
   0      7    11.635    15.268    0.16E-03    0.52E-03    0.19E-06
   1      7    11.635     5.964    0.30E-03    0.44E-03    0.22E-06
   1      7    11.635     5.382    0.27E-03    0.34E-03    0.19E-06
  PAW_PBE Hf_sv 10Jan2008 GW suitable   :
 energy of atom  1       EATOM=-1349.7602
 kinetic energy error for atom=    0.0057 (will be added to EATOM!!)
  PAW_PBE C 08Apr2002                   :
 energy of atom  2       EATOM= -147.1560
 kinetic energy error for atom=    0.0071 (will be added to EATOM!!)
  PAW_PBE O 08Apr2002                   :
 energy of atom  3       EATOM= -432.3788
 kinetic energy error for atom=    0.0208 (will be added to EATOM!!)
 
 
 POSCAR: 00                                      
  positions in direct lattice
  No initial velocities read in
 exchange correlation table for  LEXCH =        8
   RHO(1)=    0.500       N(1)  =     2000
   RHO(2)=  100.500       N(2)  =     4000

 VTST: version 3.2, (02/03/18)

 CHAIN: initializing optimizer
 
 OPT: Using Quick-Min optimizer
 OPT: QM, Init
 OPT: QM, MAXMOVE       0.200000
 OPT: QM, TIMESTEP      0.010000
 
 CHAIN: Read ICHAIN            0
 CHAIN: Running the NEB
 NEB:          SPRING     -5.000000
 NEB:          LCLIMB      F
 NEB:     LTANGENTOLD      F
 NEB:           LDNEB      F
 NEB:        LDNEBORG      F
 NEB:        LNEBCELL      F
 NEB:          EFIRST      0.000000
 NEB:           ELAST      0.000000
 
 POSCAR: Hf   C    O                             
  positions in direct lattice
  No initial velocities read in
 
 POSCAR: Hf   C    O                             
  positions in direct lattice
  No initial velocities read in
 


--------------------------------------------------------------------------------------------------------


 ion  position               nearest neighbor table
   1  0.001  0.999  0.313-  38 2.22  35 2.31  52 2.31  36 2.33  43 2.33  23 3.23   8 3.23  10 3.24
                             7 3.24  16 3.25  18 3.27  26 3.28   2 3.28
   2  0.251  0.249  0.313-  37 2.22  35 2.31  44 2.31  36 2.33  51 2.33  15 3.23   8 3.23   7 3.24
                            17 3.24  24 3.25   9 3.27  25 3.28   1 3.28
   3  0.000  0.250  0.000-  40 2.32  34 2.32  33 2.32  41 2.32  50 2.32   6 3.29  14 3.29  21 3.29
                             5 3.29  20 3.29  12 3.29  28 3.29   4 3.29
   4  0.250  0.000  0.000-  39 2.32  34 2.32  33 2.32  42 2.32  49 2.32   6 3.29  13 3.29  22 3.29
                             5 3.29  19 3.29  11 3.29  27 3.29   3 3.29
   5  0.000  0.000  0.106-  38 2.32  34 2.32  39 2.32  40 2.32  47 2.32  56 2.32   8 3.26  16 3.26
                             7 3.26  23 3.26  19 3.29   4 3.29  12 3.29   3 3.29   6 3.29  30 3.29
   6  0.250  0.250  0.106-  37 2.32  33 2.32  39 2.32  40 2.32  48 2.32  55 2.32   8 3.25  24 3.26
                             7 3.26  15 3.26  20 3.29   4 3.29  11 3.29   3 3.29   5 3.29  29 3.29
   7  0.000  0.250  0.210-  40 2.29  45 2.32  54 2.32  37 2.32  38 2.33  36 2.34  10 3.23  17 3.23
                             2 3.24   1 3.24   6 3.26   5 3.26  21 3.26  14 3.27   8 3.28  24 3.30
   8  0.250  0.000  0.210-  39 2.28  37 2.32  38 2.32  46 2.33  53 2.33  35 2.35   9 3.23  18 3.23
                             1 3.23   2 3.23   6 3.25   5 3.26  13 3.26  22 3.26   7 3.28  15 3.28
   9  0.499  1.000  0.312-  46 2.23  60 2.26  35 2.32  44 2.33  43 2.34  31 3.23   8 3.23  15 3.23
                            16 3.25  10 3.25   2 3.27  18 3.27  26 3.28
  10  0.751  0.242  0.312-  45 2.20  43 2.26  36 2.32  44 2.34  59 2.64  16 3.19   7 3.23  15 3.24
                             1 3.24   9 3.25  32 3.28  25 3.36  17 3.38
  11  0.500  0.250  0.000-  48 2.32  41 2.32  42 2.32  33 2.32  58 2.32  13 3.29  14 3.29  29 3.29
                             6 3.29  20 3.29  28 3.29   4 3.29  12 3.29
  12  0.750  0.000  0.000-  47 2.32  41 2.32  42 2.32  34 2.32  57 2.32  13 3.29  14 3.29  30 3.29
                             5 3.29  19 3.29  27 3.29   3 3.29  11 3.29
  13  0.500  0.000  0.106-  46 2.31  42 2.32  39 2.32  47 2.32  48 2.32  64 2.32   8 3.26  16 3.26
                            15 3.26  31 3.27  27 3.29  12 3.29   4 3.29  11 3.29  30 3.29  14 3.29
  14  0.750  0.250  0.106-  41 2.32  40 2.32  47 2.32  48 2.32  63 2.32  45 2.34  15 3.26   7 3.27
                            16 3.27  11 3.29  28 3.29  12 3.29   3 3.29   5 3.29  29 3.29  13 3.29
  15  0.500  0.250  0.210-  48 2.29  46 2.32  37 2.32  62 2.32  45 2.33  44 2.34   2 3.23   9 3.23
                            10 3.24  14 3.26  13 3.26  29 3.26   6 3.26  25 3.27  24 3.28   8 3.28
  16  0.750  0.999  0.210-  47 2.28  61 2.31  46 2.32  38 2.32  45 2.34  43 2.36  10 3.19   9 3.25
                            30 3.25   1 3.25  26 3.25   5 3.26  13 3.26  14 3.27  31 3.28  23 3.28
  17  0.008  0.499  0.312-  54 2.20  51 2.26  36 2.32  52 2.34  59 2.63  24 3.19   7 3.23  23 3.24
                             2 3.24  18 3.25  32 3.28  26 3.36  10 3.38
  18  0.250  0.751  0.312-  53 2.23  60 2.26  35 2.32  52 2.33  51 2.34  31 3.23  23 3.23   8 3.23
                            24 3.25  17 3.25   1 3.27   9 3.27  25 3.28
  19  0.000  0.750  0.000-  56 2.32  49 2.32  50 2.32  34 2.32  57 2.32  21 3.29  22 3.29  30 3.29
                             5 3.29  12 3.29  28 3.29  20 3.29   4 3.29
  20  0.250  0.500  0.000-  55 2.32  49 2.32  50 2.32  33 2.32  58 2.32  21 3.29  22 3.29  29 3.29
                             6 3.29  11 3.29  27 3.29  19 3.29   3 3.29
  21  0.000  0.500  0.106-  50 2.32  40 2.32  55 2.32  56 2.32  63 2.32  54 2.34  23 3.26   7 3.26
                            24 3.27  19 3.29  28 3.29  20 3.29   3 3.29  22 3.29  30 3.29   6 3.29
  22  0.250  0.750  0.106-  53 2.31  49 2.32  39 2.32  55 2.32  56 2.32  64 2.32  24 3.26   8 3.26
                            23 3.26  31 3.27  27 3.29  20 3.29   4 3.29  19 3.29  29 3.29   5 3.29
  23  0.000  0.750  0.210-  56 2.29  53 2.32  38 2.32  61 2.32  54 2.33  52 2.34   1 3.23  18 3.23
                            17 3.24  22 3.26   5 3.26  21 3.26  30 3.27  26 3.27  16 3.28   8 3.29
  24  0.252  0.500  0.210-  55 2.28  62 2.31  53 2.32  37 2.32  54 2.34  51 2.36  17 3.19  18 3.25
                            29 3.25   2 3.25  25 3.25   6 3.26  22 3.26  21 3.27  31 3.28  15 3.28
  25  0.499  0.500  0.314-  62 2.27  51 2.30  44 2.32  60 2.38  59 2.57  65 2.83  32 3.25  24 3.25
                            31 3.26  15 3.27   2 3.28  18 3.28  26 3.31  10 3.36
  26  0.750  0.751  0.315-  61 2.27  43 2.30  52 2.32  60 2.39  59 2.56  65 2.82  32 3.25  16 3.25
                            31 3.26  23 3.27   1 3.28   9 3.28  25 3.31  17 3.36
  27  0.500  0.750  0.000-  64 2.32  49 2.32  57 2.32  58 2.32  42 2.32  22 3.29  29 3.29  30 3.29
                            13 3.29  28 3.29   4 3.29  20 3.29  12 3.29
  28  0.750  0.500  0.000-  63 2.32  50 2.32  57 2.32  58 2.32  41 2.32  21 3.29  29 3.29  30 3.29
                            14 3.29  27 3.29   3 3.29  19 3.29  11 3.29
  29  0.500  0.500  0.106-  62 2.31  58 2.32  48 2.32  55 2.32  63 2.32  64 2.32  24 3.25  15 3.26
                            31 3.27  32 3.27  20 3.29  11 3.29  27 3.29  28 3.29   6 3.29  14 3.29
  30  0.750  0.750  0.106-  61 2.32  57 2.32  47 2.32  56 2.32  63 2.32  64 2.32  16 3.25  23 3.27
                            31 3.27  32 3.27  19 3.29  12 3.29  27 3.29  28 3.29   5 3.29  13 3.29
  31  0.501  0.750  0.210-  60 2.28  64 2.30  62 2.32  61 2.32  46 2.33  53 2.33   9 3.23  18 3.23
                            25 3.26  26 3.26  32 3.26  30 3.27  29 3.27  13 3.27  22 3.27  16 3.28
  32  0.748  0.502  0.211-  62 2.31  61 2.31  63 2.32  54 2.34  45 2.34  25 3.25  26 3.25  31 3.26
                            30 3.27  29 3.27  17 3.28  10 3.28  15 3.29  23 3.29  21 3.29  14 3.29
  33  0.250  0.250  0.000-   6 2.32   4 2.32   3 2.32  11 2.32  20 2.32
  34  0.000  0.000  0.000-   5 2.32   4 2.32   3 2.32  12 2.32  19 2.32
  35  0.250  0.001  0.316-   1 2.31   2 2.31   9 2.32  18 2.32   8 2.35
  36  0.001  0.250  0.317-  10 2.32  17 2.32   2 2.33   1 2.33   7 2.34
  37  0.251  0.250  0.211-   2 2.22  15 2.32   6 2.32   8 2.32  24 2.32   7 2.32
  38  0.000  1.000  0.211-   1 2.22  23 2.32   5 2.32   8 2.32  16 2.32   7 2.33
  39  0.250  0.000  0.106-   8 2.28   4 2.32   6 2.32   5 2.32  13 2.32  22 2.32
  40  0.000  0.250  0.106-   7 2.29   3 2.32   6 2.32   5 2.32  14 2.32  21 2.32
  41  0.750  0.250  0.000-  14 2.32  11 2.32  12 2.32   3 2.32  28 2.32
  42  0.500  0.000  0.000-  13 2.32  11 2.32  12 2.32   4 2.32  27 2.32
  43  0.751  0.999  0.317-  10 2.26  26 2.30   1 2.33   9 2.34  16 2.36
  44  0.499  0.251  0.317-   2 2.31  25 2.32   9 2.33  10 2.34  15 2.34
  45  0.750  0.250  0.212-  10 2.20   7 2.32  15 2.33  14 2.34  32 2.34  16 2.34
  46  0.500  0.000  0.211-   9 2.23  13 2.31  15 2.32  16 2.32   8 2.33  31 2.33
  47  0.750  0.000  0.106-  16 2.28  12 2.32  13 2.32  14 2.32   5 2.32  30 2.32
  48  0.500  0.250  0.106-  15 2.29  11 2.32  13 2.32  14 2.32   6 2.32  29 2.32
  49  0.250  0.750  0.000-  22 2.32  19 2.32  20 2.32   4 2.32  27 2.32
  50  0.000  0.500  0.000-  21 2.32  19 2.32  20 2.32   3 2.32  28 2.32
  51  0.252  0.500  0.317-  17 2.26  25 2.30   2 2.33  18 2.34  24 2.36
  52  0.999  0.751  0.317-   1 2.31  26 2.32  18 2.33  17 2.34  23 2.34
  53  0.250  0.750  0.211-  18 2.23  22 2.31  23 2.32  24 2.32   8 2.33  31 2.33
  54  1.000  0.500  0.212-  17 2.20   7 2.32  23 2.33  21 2.34  32 2.34  24 2.34
  55  0.250  0.500  0.106-  24 2.28  20 2.32  21 2.32  22 2.32   6 2.32  29 2.32
  56  0.000  0.750  0.106-  23 2.29  19 2.32  21 2.32  22 2.32   5 2.32  30 2.32
  57  0.750  0.750  0.000-  30 2.32  19 2.32  27 2.32  28 2.32  12 2.32
  58  0.500  0.500  0.000-  29 2.32  20 2.32  27 2.32  28 2.32  11 2.32
  59  0.751  0.500  0.362-  65 1.43  26 2.56  25 2.57  17 2.63  10 2.64
  60  0.494  0.756  0.314-  18 2.26   9 2.26  31 2.28  25 2.38  26 2.39
  61  0.751  0.750  0.211-  26 2.27  16 2.31  32 2.31  30 2.32  23 2.32  31 2.32
  62  0.500  0.500  0.211-  25 2.27  24 2.31  32 2.31  29 2.31  15 2.32  31 2.32
  63  0.750  0.500  0.106-  32 2.32  28 2.32  14 2.32  29 2.32  30 2.32  21 2.32
  64  0.500  0.750  0.106-  31 2.30  27 2.32  13 2.32  29 2.32  30 2.32  22 2.32
  65  0.684  0.568  0.413-  59 1.43  26 2.82  25 2.83
 

IMPORTANT INFORMATION: All symmetrisations will be switched off!
NOSYMM: (Re-)initialisation of all symmetry stuff for point group C_1.

 
 
 KPOINTS: Automatic mesh                          

Automatic generation of k-mesh.
Space group operators:
 irot       det(A)        alpha          n_x          n_y          n_z        tau_x        tau_y        tau_z
    1     1.000000     0.000000     1.000000     0.000000     0.000000     0.000000     0.000000     0.000000
 
 Subroutine IBZKPT returns following result:
 ===========================================
 
 Found      5 irreducible k-points:
 
 Following reciprocal coordinates:
            Coordinates               Weight
  0.000000  0.000000  0.000000      1.000000
  0.333333  0.000000  0.000000      2.000000
  0.000000  0.333333  0.000000      2.000000
  0.333333  0.333333  0.000000      2.000000
 -0.333333  0.333333  0.000000      2.000000
 
 Following cartesian coordinates:
            Coordinates               Weight
  0.000000  0.000000  0.000000      1.000000
  0.035862  0.000000  0.000000      2.000000
  0.000000  0.035862  0.000000      2.000000
  0.035862  0.035862  0.000000      2.000000
 -0.035862  0.035862  0.000000      2.000000
 


--------------------------------------------------------------------------------------------------------




 Dimension of arrays:
   k-points           NKPTS =      5   k-points in BZ     NKDIM =      5   number of bands    NBANDS=    320
   number of dos      NEDOS =    301   number of ions     NIONS =     65
   non local maximal  LDIM  =      6   non local SUM 2l+1 LMDIM =     18
   total plane-waves  NPLWV = 367416
   max r-space proj   IRMAX =   2102   max aug-charges    IRDMAX=   7505
   dimension x,y,z NGX =    54 NGY =   54 NGZ =  126
   dimension x,y,z NGXF=   108 NGYF=  108 NGZF=  252
   support grid    NGXF=   108 NGYF=  108 NGZF=  252
   ions per type =              32  32   1
   NGX,Y,Z   is equivalent  to a cutoff of   9.66,  9.66,  9.53 a.u.
   NGXF,Y,Z  is equivalent  to a cutoff of  19.32, 19.32, 19.07 a.u.

 SYSTEM =  PBE-grap                                
 POSCAR =  00                                      

 Startparameter for this run:
   NWRITE =      0    write-flag & timer
   PREC   = normal    normal or accurate (medium, high low for compatibility)
   ISTART =      0    job   : 0-new  1-cont  2-samecut
   ICHARG =      2    charge: 1-file 2-atom 10-const
   ISPIN  =      1    spin polarized calculation?
   LNONCOLLINEAR =      F non collinear calculations
   LSORBIT =      F    spin-orbit coupling
   INIWAV =      1    electr: 0-lowe 1-rand  2-diag
   LASPH  =      F    aspherical Exc in radial PAW
   METAGGA=      F    non-selfconsistent MetaGGA calc.

 Electronic Relaxation 1
   ENCUT  =  520.0 eV  38.22 Ry    6.18 a.u.  17.28 17.28 40.85*2*pi/ulx,y,z
   ENINI  =  520.0     initial cutoff
   ENAUG  =  644.9 eV  augmentation charge cutoff
   NELM   =    150;   NELMIN=  4; NELMDL= -5     # of ELM steps 
   EDIFF  = 0.1E-04   stopping-criterion for ELM
   LREAL  =      T    real-space projection
   NLSPLINE    = F    spline interpolate recip. space projectors
   LCOMPAT=      F    compatible to vasp.4.4
   GGA_COMPAT  = T    GGA compatible to vasp.4.4-vasp.4.6
   LMAXPAW     = -100 max onsite density
   LMAXMIX     =    2 max onsite mixed and CHGCAR
   VOSKOWN=      0    Vosko Wilk Nusair interpolation
   ROPT   =   -0.00050  -0.00050  -0.00050
 Ionic relaxation
   EDIFFG = -.1E-01   stopping-criterion for IOM
   NSW    =     50    number of steps for IOM
   NBLOCK =      1;   KBLOCK =     50    inner block; outer block 
   IBRION =      3    ionic relax: 0-MD 1-quasi-New 2-CG
   NFREE  =      0    steps in history (QN), initial steepest desc. (CG)
   ISIF   =      2    stress and relaxation
   IWAVPR =     11    prediction:  0-non 1-charg 2-wave 3-comb
   ISYM   =      0    0-nonsym 1-usesym 2-fastsym
   LCORR  =      T    Harris-Foulkes like correction to forces

   POTIM  = 0.0000    time-step for ionic-motion
   TEIN   =    0.0    initial temperature
   TEBEG  =    0.0;   TEEND  =   0.0 temperature during run
   SMASS  =  -3.00    Nose mass-parameter (am)
   estimated Nose-frequenzy (Omega)   =  0.10E-29 period in steps =  0.00 mass=  -0.197E-26a.u.
   SCALEE = 1.0000    scale energy and forces
   NPACO  =    256;   APACO  = 16.0  distance and # of slots for P.C.
   PSTRESS=    0.0 pullay stress

  Mass of Ions in am
   POMASS = 178.49 12.01 16.00
  Ionic Valenz
   ZVAL   =  12.00  4.00  6.00
  Atomic Wigner-Seitz radii
   RWIGS  =  -1.00 -1.00 -1.00
  virtual crystal weights 
   VCA    =   1.00  1.00  1.00
   NELECT =     518.0000    total number of electrons
   NUPDOWN=      -1.0000    fix difference up-down

 DOS related values:
   EMIN   =  10.00;   EMAX   =-10.00  energy-range for DOS
   EFERMI =   0.00
   ISMEAR =     0;   SIGMA  =   0.05  broadening in eV -4-tet -1-fermi 0-gaus

 Electronic relaxation 2 (details)
   IALGO  =     38    algorithm
   LDIAG  =      T    sub-space diagonalisation (order eigenvalues)
   LSUBROT=      F    optimize rotation matrix (better conditioning)
   TURBO    =      0    0=normal 1=particle mesh
   IRESTART =      0    0=no restart 2=restart with 2 vectors
   NREBOOT  =      0    no. of reboots
   NMIN     =      0    reboot dimension
   EREF     =   0.00    reference energy to select bands
   IMIX   =      4    mixing-type and parameters
     AMIX     =   0.40;   BMIX     =  1.00
     AMIX_MAG =   1.60;   BMIX_MAG =  1.00
     AMIN     =   0.10
     WC   =   100.;   INIMIX=   1;  MIXPRE=   1;  MAXMIX= -45

 Intra band minimization:
   WEIMIN = 0.0010     energy-eigenvalue tresh-hold
   EBREAK =  0.78E-08  absolut break condition
   DEPER  =   0.30     relativ break condition  

   TIME   =   0.40     timestep for ELM

  volume/ion in A,a.u.               =      29.20       197.07
  Fermi-wavevector in a.u.,A,eV,Ry     =   1.061877  2.006656 15.341689  1.127582
  Thomas-Fermi vector in A             =   2.197308
 
 Write flags
   LWAVE        =      F    write WAVECAR
   LDOWNSAMPLE  =      F    k-point downsampling of WAVECAR
   LCHARG       =      F    write CHGCAR
   LVTOT        =      F    write LOCPOT, total local potential
   LVHAR        =      F    write LOCPOT, Hartree potential only
   LELF         =      F    write electronic localiz. function (ELF)
   LORBIT       =      0    0 simple, 1 ext, 2 COOP (PROOUT), +10 PAW based schemes


 Dipole corrections
   LMONO  =      F    monopole corrections only (constant potential shift)
   LDIPOL =      F    correct potential (dipole corrections)
   IDIPOL =      0    1-x, 2-y, 3-z, 4-all directions 
   EPSILON=  1.0000000 bulk dielectric constant

 Exchange correlation treatment:
   GGA     =    PE    GGA type
   LEXCH   =     8    internal setting for exchange type
   VOSKOWN=      0    Vosko Wilk Nusair interpolation
   LHFCALC =     F    Hartree Fock is set to
   LHFONE  =     F    Hartree Fock one center treatment
   AEXX    =    0.0000 exact exchange contribution

 Linear response parameters
   LEPSILON=     F    determine dielectric tensor
   LRPA    =     F    only Hartree local field effects (RPA)
   LNABLA  =     F    use nabla operator in PAW spheres
   LVEL    =     F    velocity operator in full k-point grid
   LINTERFAST=   F  fast interpolation
   KINTER  =     0    interpolate to denser k-point grid
   CSHIFT  =0.1000    complex shift for real part using Kramers Kronig
   OMEGAMAX=  -1.0    maximum frequency
   DEG_THRESHOLD= 0.2000000E-02 threshold for treating states as degnerate
   RTIME   =   -0.100 relaxation time in fs
  (WPLASMAI=    0.000 imaginary part of plasma frequency in eV, 0.658/RTIME)
   DFIELD  = 0.0000000 0.0000000 0.0000000 field for delta impulse in time
 
 Orbital magnetization related:
   ORBITALMAG=     F  switch on orbital magnetization
   LCHIMAG   =     F  perturbation theory with respect to B field
   DQ        =  0.001000  dq finite difference perturbation B field
   LLRAUG    =     F  two centre corrections for induced B field



--------------------------------------------------------------------------------------------------------


 quickmin algorithm: (dynamic with friction)
   using selective dynamics as specified on POSCAR
 charge density and potential will be updated during run
 non-spin polarized calculation
 Variant of blocked Davidson
 Davidson routine will perform the subspace rotation
 perform sub-space diagonalisation
    after iterative eigenvector-optimisation
 modified Broyden-mixing scheme, WC =      100.0
 initial mixing is a Kerker type mixing with AMIX =  0.4000 and BMIX =      1.0000
 Hartree-type preconditioning will be used
 using additional bands           61
 real space projection scheme for non local part
 use partial core corrections
 calculate Harris-corrections to forces 
   (improved forces if not selfconsistent)
 use gradient corrections 
 use of overlap-Matrix (Vanderbilt PP)
 Gauss-broadening in eV      SIGMA  =   0.05


--------------------------------------------------------------------------------------------------------


  energy-cutoff  :      520.00
  volume of cell :     1898.16
      direct lattice vectors                 reciprocal lattice vectors
     9.294799805  0.000000000  0.000000000     0.107587040  0.000000000  0.000000000
     0.000000000  9.294799805  0.000000000     0.000000000  0.107587040  0.000000000
     0.000000000  0.000000000 21.971099854     0.000000000  0.000000000  0.045514335

  length of vectors
     9.294799805  9.294799805 21.971099854     0.107587040  0.107587040  0.045514335


 
 k-points in units of 2pi/SCALE and weight: Automatic mesh                          
   0.00000000  0.00000000  0.00000000       0.111
   0.03586235  0.00000000  0.00000000       0.222
   0.00000000  0.03586235  0.00000000       0.222
   0.03586235  0.03586235  0.00000000       0.222
  -0.03586235  0.03586235  0.00000000       0.222
 
 k-points in reciprocal lattice and weights: Automatic mesh                          
   0.00000000  0.00000000  0.00000000       0.111
   0.33333333  0.00000000  0.00000000       0.222
   0.00000000  0.33333333  0.00000000       0.222
   0.33333333  0.33333333  0.00000000       0.222
  -0.33333333  0.33333333  0.00000000       0.222
 
 position of ions in fractional coordinates (direct lattice) 
   0.00136000  0.99913000  0.31262000
   0.25099000  0.24891000  0.31260000
   0.00000000  0.25000000  0.00000000
   0.25000000  0.00000000  0.00000000
   0.00000000  0.00000000  0.10576000
   0.25000000  0.25000000  0.10576000
   0.00048000  0.24969000  0.21001000
   0.24992000  0.00029000  0.20961000
   0.49883000  0.99980000  0.31222000
   0.75100000  0.24176000  0.31226000
   0.50000000  0.25000000  0.00000000
   0.75000000  0.00000000  0.00000000
   0.50000000  0.00000000  0.10576000
   0.75000000  0.25000000  0.10576000
   0.50015000  0.24987000  0.21005000
   0.75009000  0.99866000  0.20967000
   0.00826000  0.49921000  0.31225000
   0.25031000  0.75123000  0.31222000
   0.00000000  0.75000000  0.00000000
   0.25000000  0.50000000  0.00000000
   0.00000000  0.50000000  0.10576000
   0.25000000  0.75000000  0.10576000
   0.00030000  0.75007000  0.21006000
   0.25154000  0.50000000  0.20965000
   0.49852000  0.50005000  0.31445000
   0.75012000  0.75147000  0.31453000
   0.50000000  0.75000000  0.00000000
   0.75000000  0.50000000  0.00000000
   0.50000000  0.50000000  0.10576000
   0.75000000  0.75000000  0.10576000
   0.50056000  0.74959000  0.21046000
   0.74850000  0.50165000  0.21118000
   0.25000000  0.25000000  0.00000000
   0.00000000  0.00000000  0.00000000
   0.24954000  0.00059000  0.31645000
   0.00062000  0.24952000  0.31653000
   0.25059000  0.24994000  0.21136000
   0.00017000  0.99955000  0.21137000
   0.25000000  0.00000000  0.10576000
   0.00000000  0.25000000  0.10576000
   0.75000000  0.25000000  0.00000000
   0.50000000  0.00000000  0.00000000
   0.75052000  0.99862000  0.31701000
   0.49948000  0.25078000  0.31665000
   0.75042000  0.25019000  0.21206000
   0.50013000  0.00038000  0.21091000
   0.75000000  0.00000000  0.10576000
   0.50000000  0.25000000  0.10576000
   0.25000000  0.75000000  0.00000000
   0.00000000  0.50000000  0.00000000
   0.25151000  0.49967000  0.31697000
   0.99940000  0.75067000  0.31666000
   0.24969000  0.74999000  0.21093000
   0.99995000  0.49977000  0.21206000
   0.25000000  0.50000000  0.10576000
   0.00000000  0.75000000  0.10576000
   0.75000000  0.75000000  0.00000000
   0.50000000  0.50000000  0.00000000
   0.75140000  0.50000000  0.36195000
   0.49354000  0.75647000  0.31398000
   0.75058000  0.75039000  0.21117000
   0.49977000  0.49959000  0.21109000
   0.75000000  0.50000000  0.10576000
   0.50000000  0.75000000  0.10576000
   0.68352000  0.56789000  0.41292000
 
 position of ions in cartesian coordinates  (Angst):
   0.01264093  9.28671333  6.86860524
   2.33290180  2.31356862  6.86816581
   0.00000000  2.32369995  0.00000000
   2.32369995  0.00000000  0.00000000
   0.00000000  0.00000000  2.32366352
   2.32369995  2.32369995  2.32366352
   0.00446150  2.32081856  4.61415068
   2.32295637  0.00269549  4.60536224
   4.63652499  9.29294084  6.85981680
   6.98039465  2.24711080  6.86069564
   4.64739990  2.32369995  0.00000000
   6.97109985  0.00000000  0.00000000
   4.64739990  0.00000000  2.32366352
   6.97109985  2.32369995  2.32366352
   4.64879412  2.32249163  4.61502952
   6.97193639  9.28234477  4.60668051
   0.07677505  4.64005701  6.86047593
   2.32658134  6.98253246  6.85981680
   0.00000000  6.97109985  0.00000000
   2.32369995  4.64739990  0.00000000
   0.00000000  4.64739990  2.32366352
   2.32369995  6.97109985  2.32366352
   0.00278844  6.97175049  4.61524924
   2.33801394  4.64739990  4.60624108
   4.63364360  4.64786464  6.90881235
   6.97221523  6.98476321  6.91057004
   4.64739990  6.97109985  0.00000000
   6.97109985  4.64739990  0.00000000
   4.64739990  4.64739990  2.32366352
   6.97109985  6.97109985  2.32366352
   4.65260499  6.96728899  4.62403768
   6.95715765  4.66273632  4.63985687
   2.32369995  2.32369995  0.00000000
   0.00000000  0.00000000  0.00000000
   2.31942434  0.00548393  6.95275455
   0.00576278  2.31923845  6.95451224
   2.32918388  2.32314226  4.64381167
   0.00158012  9.29061714  4.64403138
   2.32369995  0.00000000  2.32366352
   0.00000000  2.32369995  2.32366352
   6.97109985  2.32369995  0.00000000
   4.64739990  0.00000000  0.00000000
   6.97593315  9.28197298  6.96505836
   4.64256661  2.33094990  6.95714877
   6.97500367  2.32546596  4.65919143
   4.64860823  0.00353202  4.63392467
   6.97109985  0.00000000  2.32366352
   4.64739990  2.32369995  2.32366352
   2.32369995  6.97109985  0.00000000
   0.00000000  4.64739990  0.00000000
   2.33773510  4.64433262  6.96417952
   9.28922292  6.97732737  6.95736848
   2.32081856  6.97100691  4.63436409
   9.29433506  4.64526210  4.65919143
   2.32369995  4.64739990  2.32366352
   0.00000000  6.97109985  2.32366352
   6.97109985  6.97109985  0.00000000
   4.64739990  4.64739990  0.00000000
   6.98411257  4.64739990  7.95243959
   4.58735550  7.03123721  6.89848593
   6.97649084  6.97472483  4.63963716
   4.64526210  4.64358903  4.63787947
   6.97109985  4.64739990  2.32366352
   4.64739990  6.97109985  2.32366352
   6.35318156  5.27842386  9.07230655
 


--------------------------------------------------------------------------------------------------------


 k-point  1 :   0.0000 0.0000 0.0000  plane waves:   51165
 k-point  2 :   0.3333 0.0000 0.0000  plane waves:   51094
 k-point  3 :   0.0000 0.3333 0.0000  plane waves:   51094
 k-point  4 :   0.3333 0.3333 0.0000  plane waves:   51048
 k-point  5 :  -0.3333 0.3333 0.0000  plane waves:   51048

 maximum and minimum number of plane-waves per node :     51165    51048

 maximum number of plane-waves:     51165
 maximum index in each direction: 
   IXMAX=   17   IYMAX=   17   IZMAX=   40
   IXMIN=  -17   IYMIN=  -17   IZMIN=  -40


 serial   3D FFT for wavefunctions
 parallel 3D FFT for charge:
    minimum data exchange during FFTs selected (reduces bandwidth)


 total amount of memory used by VASP MPI-rank0   163582. kBytes
=======================================================================

   base      :      30000. kBytes
   nonlr-proj:      14444. kBytes
   fftplans  :       7895. kBytes
   grid      :      27008. kBytes
   one-center:       1010. kBytes
   wavefun   :      83225. kBytes
 
     INWAV:  cpu time    0.0001: real time    0.0001
 Broyden mixing: mesh for mixing (old mesh)
   NGX = 35   NGY = 35   NGZ = 81
  (NGX  =108   NGY  =108   NGZ  =252)
  gives a total of  99225 points

 initial charge density was supplied:
 charge density of overlapping atoms calculated
 number of electron     518.0000000 magnetization 
 keeping initial charge density in first step


--------------------------------------------------------------------------------------------------------


 Maximum index for non-local projection operator         2005
 Maximum index for augmentation-charges          474 (set IRDMAX)


--------------------------------------------------------------------------------------------------------


 First call to EWALD:  gamma=   0.143
 Maximum number of real-space cells 3x 3x 2
 Maximum number of reciprocal cells 2x 2x 4

    FEWALD:  cpu time    0.0131: real time    0.0131


--------------------------------------- Iteration      1(   1)  ---------------------------------------


    POTLOK:  cpu time    0.5339: real time    1.8881
    SETDIJ:  cpu time    0.0542: real time    0.0543
     EDDAV:  cpu time   30.9287: real time   30.9955
       DOS:  cpu time    0.0134: real time    0.0134
    --------------------------------------------
      LOOP:  cpu time   31.5303: real time   32.9513

 eigenvalue-minimisations  :  3792
 total energy-change (2. order) : 0.4773986E+04  (-0.2937493E+05)
 number of electron     518.0000000 magnetization 
 augmentation part      518.0000000 magnetization 

 Free energy of the ion-electron system (eV)
  ---------------------------------------------------
  alpha Z        PSCENC =      1649.05367391
  Ewald energy   TEWEN  =    134349.42860197
  -Hartree energ DENC   =   -176084.20370585
  -exchange      EXHF   =         0.00000000
  -V(xc)+E(xc)   XCENC  =      1406.62616833
  PAW double counting   =     36999.11784765   -36263.23664038
  entropy T*S    EENTRO =        -0.02476946
  eigenvalues    EBANDS =     -5616.04265036
  atomic energy  EATOM  =     48333.26757577
  Solvation  Ediel_sol  =         0.00000000
  ---------------------------------------------------
  free energy    TOTEN  =      4773.98610159 eV

  energy without entropy =     4774.01087104  energy(sigma->0) =     4773.99848632


--------------------------------------------------------------------------------------------------------




--------------------------------------- Iteration      1(   2)  ---------------------------------------


     EDDAV:  cpu time   32.9639: real time   32.9697
       DOS:  cpu time    0.0035: real time    0.0035
    --------------------------------------------
      LOOP:  cpu time   32.9675: real time   32.9732

 eigenvalue-minimisations  :  3888
 total energy-change (2. order) :-0.5307151E+04  (-0.5164486E+04)
 number of electron     518.0000000 magnetization 
 augmentation part      518.0000000 magnetization 

 Free energy of the ion-electron system (eV)
  ---------------------------------------------------
  alpha Z        PSCENC =      1649.05367391
  Ewald energy   TEWEN  =    134349.42860197
  -Hartree energ DENC   =   -176084.20370585
  -exchange      EXHF   =         0.00000000
  -V(xc)+E(xc)   XCENC  =      1406.62616833
  PAW double counting   =     36999.11784765   -36263.23664038
  entropy T*S    EENTRO =        -0.01125753
  eigenvalues    EBANDS =    -10923.20754205
  atomic energy  EATOM  =     48333.26757577
  Solvation  Ediel_sol  =         0.00000000
  ---------------------------------------------------
  free energy    TOTEN  =      -533.16527817 eV

  energy without entropy =     -533.15402064  energy(sigma->0) =     -533.15964941


--------------------------------------------------------------------------------------------------------




--------------------------------------- Iteration      1(   3)  ---------------------------------------


     EDDAV:  cpu time   32.4317: real time   32.4337
       DOS:  cpu time    0.0035: real time    0.0035
    --------------------------------------------
      LOOP:  cpu time   32.4352: real time   32.4372

 eigenvalue-minimisations  :  3728
 total energy-change (2. order) :-0.3655747E+03  (-0.3595432E+03)
 number of electron     518.0000000 magnetization 
 augmentation part      518.0000000 magnetization 

 Free energy of the ion-electron system (eV)
  ---------------------------------------------------
  alpha Z        PSCENC =      1649.05367391
  Ewald energy   TEWEN  =    134349.42860197
  -Hartree energ DENC   =   -176084.20370585
  -exchange      EXHF   =         0.00000000
  -V(xc)+E(xc)   XCENC  =      1406.62616833
  PAW double counting   =     36999.11784765   -36263.23664038
  entropy T*S    EENTRO =        -0.02134665
  eigenvalues    EBANDS =    -11288.77213527
  atomic energy  EATOM  =     48333.26757577
  Solvation  Ediel_sol  =         0.00000000
  ---------------------------------------------------
  free energy    TOTEN  =      -898.73996052 eV

  energy without entropy =     -898.71861387  energy(sigma->0) =     -898.72928719


--------------------------------------------------------------------------------------------------------




--------------------------------------- Iteration      1(   4)  ---------------------------------------


     EDDAV:  cpu time   35.2430: real time   35.2453
       DOS:  cpu time    0.0037: real time    0.0037
    --------------------------------------------
      LOOP:  cpu time   35.2467: real time   35.2490

 eigenvalue-minimisations  :  4128
 total energy-change (2. order) :-0.1436278E+02  (-0.1431204E+02)
 number of electron     518.0000000 magnetization 
 augmentation part      518.0000000 magnetization 

 Free energy of the ion-electron system (eV)
  ---------------------------------------------------
  alpha Z        PSCENC =      1649.05367391
  Ewald energy   TEWEN  =    134349.42860197
  -Hartree energ DENC   =   -176084.20370585
  -exchange      EXHF   =         0.00000000
  -V(xc)+E(xc)   XCENC  =      1406.62616833
  PAW double counting   =     36999.11784765   -36263.23664038
  entropy T*S    EENTRO =        -0.02160114
  eigenvalues    EBANDS =    -11303.13466038
  atomic energy  EATOM  =     48333.26757577
  Solvation  Ediel_sol  =         0.00000000
  ---------------------------------------------------
  free energy    TOTEN  =      -913.10274011 eV

  energy without entropy =     -913.08113898  energy(sigma->0) =     -913.09193954


--------------------------------------------------------------------------------------------------------




--------------------------------------- Iteration      1(   5)  ---------------------------------------


     EDDAV:  cpu time   34.0678: real time   34.0702
       DOS:  cpu time    0.0039: real time    0.0039
    CHARGE:  cpu time    1.6225: real time    1.6227
    MIXING:  cpu time    0.0160: real time    0.0161
    --------------------------------------------
      LOOP:  cpu time   35.7103: real time   35.7129

 eigenvalue-minimisations  :  3936
 total energy-change (2. order) :-0.2535503E+00  (-0.2533222E+00)
 number of electron     518.0000132 magnetization 
 augmentation part       15.0097533 magnetization 

 Broyden mixing:
  rms(total) = 0.59761E+01    rms(broyden)= 0.59754E+01
  rms(prec ) = 0.68401E+01
  weight for this iteration     100.00

 Free energy of the ion-electron system (eV)
  ---------------------------------------------------
  alpha Z        PSCENC =      1649.05367391
  Ewald energy   TEWEN  =    134349.42860197
  -Hartree energ DENC   =   -176084.20370585
  -exchange      EXHF   =         0.00000000
  -V(xc)+E(xc)   XCENC  =      1406.62616833
  PAW double counting   =     36999.11784765   -36263.23664038
  entropy T*S    EENTRO =        -0.02160577
  eigenvalues    EBANDS =    -11303.38820607
  atomic energy  EATOM  =     48333.26757577
  Solvation  Ediel_sol  =         0.00000000
  ---------------------------------------------------
  free energy    TOTEN  =      -913.35629044 eV

  energy without entropy =     -913.33468467  energy(sigma->0) =     -913.34548755


--------------------------------------------------------------------------------------------------------




--------------------------------------- Iteration      1(   6)  ---------------------------------------


    POTLOK:  cpu time    0.4361: real time    0.4361
    SETDIJ:  cpu time    0.0666: real time    0.0666
     EDDAV:  cpu time   32.1414: real time   32.1492
       DOS:  cpu time    0.0024: real time    0.0025
    CHARGE:  cpu time    1.5909: real time    1.5910
    MIXING:  cpu time    0.0177: real time    0.0177
    --------------------------------------------
      LOOP:  cpu time   34.2552: real time   34.2631

 eigenvalue-minimisations  :  3616
 total energy-change (2. order) : 0.1524133E+03  (-0.9382174E+02)
 number of electron     518.0000025 magnetization 
 augmentation part       16.3037463 magnetization 

 Broyden mixing:
  rms(total) = 0.24406E+01    rms(broyden)= 0.24396E+01
  rms(prec ) = 0.29407E+01
  weight for this iteration     100.00

 eigenvalues of (default mixing * dielectric matrix)
  average eigenvalue GAMMA=   0.7981
  0.7981

 Free energy of the ion-electron system (eV)
  ---------------------------------------------------
  alpha Z        PSCENC =      1649.05367391
  Ewald energy   TEWEN  =    134349.42860197
  -Hartree energ DENC   =   -176253.19542170
  -exchange      EXHF   =         0.00000000
  -V(xc)+E(xc)   XCENC  =      1411.74408995
  PAW double counting   =     36842.71069661   -36147.27619375
  entropy T*S    EENTRO =        -0.02594048
  eigenvalues    EBANDS =    -10946.65006257
  atomic energy  EATOM  =     48333.26757577
  Solvation  Ediel_sol  =         0.00000000
  ---------------------------------------------------
  free energy    TOTEN  =      -760.94298029 eV

  energy without entropy =     -760.91703981  energy(sigma->0) =     -760.93001005


--------------------------------------------------------------------------------------------------------




--------------------------------------- Iteration      1(   7)  ---------------------------------------


    POTLOK:  cpu time    0.4327: real time    0.4328
    SETDIJ:  cpu time    0.0664: real time    0.0664
     EDDAV:  cpu time   37.8522: real time   37.8549
       DOS:  cpu time    0.0023: real time    0.0023
    CHARGE:  cpu time    1.5984: real time    1.5984
    MIXING:  cpu time    0.0178: real time    0.0178
    --------------------------------------------
      LOOP:  cpu time   39.9698: real time   39.9727

 eigenvalue-minimisations  :  4464
 total energy-change (2. order) : 0.4539219E+01  (-0.9860966E+01)
 number of electron     518.0000029 magnetization 
 augmentation part       16.4803440 magnetization 

 Broyden mixing:
  rms(total) = 0.15699E+01    rms(broyden)= 0.15695E+01
  rms(prec ) = 0.21801E+01
  weight for this iteration     100.00

 eigenvalues of (default mixing * dielectric matrix)
  average eigenvalue GAMMA=   0.7776
  0.7776  0.7776

 Free energy of the ion-electron system (eV)
  ---------------------------------------------------
  alpha Z        PSCENC =      1649.05367391
  Ewald energy   TEWEN  =    134349.42860197
  -Hartree energ DENC   =   -176315.24387042
  -exchange      EXHF   =         0.00000000
  -V(xc)+E(xc)   XCENC  =      1406.26488768
  PAW double counting   =     37975.56048753   -37276.85132588
  entropy T*S    EENTRO =        -0.03280417
  eigenvalues    EBANDS =    -10877.85098810
  atomic energy  EATOM  =     48333.26757577
  Solvation  Ediel_sol  =         0.00000000
  ---------------------------------------------------
  free energy    TOTEN  =      -756.40376170 eV

  energy without entropy =     -756.37095754  energy(sigma->0) =     -756.38735962


--------------------------------------------------------------------------------------------------------




--------------------------------------- Iteration      1(   8)  ---------------------------------------


    POTLOK:  cpu time    0.4305: real time    0.4306
    SETDIJ:  cpu time    0.0669: real time    0.0669
     EDDAV:  cpu time   34.8908: real time   34.8929
       DOS:  cpu time    0.0024: real time    0.0024
    CHARGE:  cpu time    1.5933: real time    1.5934
    MIXING:  cpu time    0.0182: real time    0.0182
    --------------------------------------------
      LOOP:  cpu time   37.0022: real time   37.0045

 eigenvalue-minimisations  :  4016
 total energy-change (2. order) : 0.5226552E+01  (-0.4850836E+01)
 number of electron     518.0000031 magnetization 
 augmentation part       16.7871994 magnetization 

 Broyden mixing:
  rms(total) = 0.10418E+01    rms(broyden)= 0.10416E+01
  rms(prec ) = 0.12098E+01
  weight for this iteration     100.00

 eigenvalues of (default mixing * dielectric matrix)
  average eigenvalue GAMMA=   1.0153
  1.6706  0.9665  0.4087

 Free energy of the ion-electron system (eV)
  ---------------------------------------------------
  alpha Z        PSCENC =      1649.05367391
  Ewald energy   TEWEN  =    134349.42860197
  -Hartree energ DENC   =   -176380.63157503
  -exchange      EXHF   =         0.00000000
  -V(xc)+E(xc)   XCENC  =      1403.98507091
  PAW double counting   =     38516.11295408   -37814.60009015
  entropy T*S    EENTRO =        -0.01976489
  eigenvalues    EBANDS =    -10807.77365637
  atomic energy  EATOM  =     48333.26757577
  Solvation  Ediel_sol  =         0.00000000
  ---------------------------------------------------
  free energy    TOTEN  =      -751.17720980 eV

  energy without entropy =     -751.15744491  energy(sigma->0) =     -751.16732735


--------------------------------------------------------------------------------------------------------




--------------------------------------- Iteration      1(   9)  ---------------------------------------


    POTLOK:  cpu time    0.4390: real time    0.4390
    SETDIJ:  cpu time    0.0674: real time    0.0674
     EDDAV:  cpu time   35.0344: real time   35.0367
       DOS:  cpu time    0.0024: real time    0.0024
    CHARGE:  cpu time    1.5965: real time    1.5965
    MIXING:  cpu time    0.0194: real time    0.0194
    --------------------------------------------
      LOOP:  cpu time   37.1590: real time   37.1614

 eigenvalue-minimisations  :  4032
 total energy-change (2. order) : 0.1591448E+01  (-0.1040795E+01)
 number of electron     518.0000033 magnetization 
 augmentation part       16.8285387 magnetization 

 Broyden mixing:
  rms(total) = 0.43222E+00    rms(broyden)= 0.43207E+00
  rms(prec ) = 0.54779E+00
  weight for this iteration     100.00

 eigenvalues of (default mixing * dielectric matrix)
  average eigenvalue GAMMA=   1.0492
  2.1346  0.8399  0.8399  0.3826

 Free energy of the ion-electron system (eV)
  ---------------------------------------------------
  alpha Z        PSCENC =      1649.05367391
  Ewald energy   TEWEN  =    134349.42860197
  -Hartree energ DENC   =   -176459.02684551
  -exchange      EXHF   =         0.00000000
  -V(xc)+E(xc)   XCENC  =      1402.23290433
  PAW double counting   =     39573.38058443   -38866.79376216
  entropy T*S    EENTRO =        -0.01559109
  eigenvalues    EBANDS =    -10731.11290320
  atomic energy  EATOM  =     48333.26757577
  Solvation  Ediel_sol  =         0.00000000
  ---------------------------------------------------
  free energy    TOTEN  =      -749.58576154 eV

  energy without entropy =     -749.57017045  energy(sigma->0) =     -749.57796599


--------------------------------------------------------------------------------------------------------




--------------------------------------- Iteration      1(  10)  ---------------------------------------


    POTLOK:  cpu time    0.4357: real time    0.4358
    SETDIJ:  cpu time    0.0690: real time    0.0690
     EDDAV:  cpu time   33.4024: real time   33.4046
       DOS:  cpu time    0.0023: real time    0.0024
    CHARGE:  cpu time    1.5957: real time    1.5960
    MIXING:  cpu time    0.0201: real time    0.0201
    --------------------------------------------
      LOOP:  cpu time   35.5254: real time   35.5279

 eigenvalue-minimisations  :  3792
 total energy-change (2. order) : 0.5464158E+00  (-0.3021908E+00)
 number of electron     518.0000034 magnetization 
 augmentation part       16.9123450 magnetization 

 Broyden mixing:
  rms(total) = 0.23339E+00    rms(broyden)= 0.23327E+00
  rms(prec ) = 0.27358E+00
  weight for this iteration     100.00

 eigenvalues of (default mixing * dielectric matrix)
  average eigenvalue GAMMA=   1.0167
  2.1840  0.8713  0.8222  0.8222  0.3842

 Free energy of the ion-electron system (eV)
  ---------------------------------------------------
  alpha Z        PSCENC =      1649.05367391
  Ewald energy   TEWEN  =    134349.42860197
  -Hartree energ DENC   =   -176586.68551093
  -exchange      EXHF   =         0.00000000
  -V(xc)+E(xc)   XCENC  =      1401.86801232
  PAW double counting   =     39907.88504026   -39198.91243421
  entropy T*S    EENTRO =        -0.01964495
  eigenvalues    EBANDS =    -10604.92465990
  atomic energy  EATOM  =     48333.26757577
  Solvation  Ediel_sol  =         0.00000000
  ---------------------------------------------------
  free energy    TOTEN  =      -749.03934576 eV

  energy without entropy =     -749.01970081  energy(sigma->0) =     -749.02952328


--------------------------------------------------------------------------------------------------------




--------------------------------------- Iteration      1(  11)  ---------------------------------------


    POTLOK:  cpu time    0.4373: real time    0.4373
    SETDIJ:  cpu time    0.0676: real time    0.0676
     EDDAV:  cpu time   35.0248: real time   35.0271
       DOS:  cpu time    0.0023: real time    0.0023
    CHARGE:  cpu time    1.5945: real time    1.5946
    MIXING:  cpu time    0.0213: real time    0.0213
    --------------------------------------------
      LOOP:  cpu time   37.1477: real time   37.1502

 eigenvalue-minimisations  :  4032
 total energy-change (2. order) : 0.5396843E-01  (-0.8107752E-01)
 number of electron     518.0000033 magnetization 
 augmentation part       16.8943612 magnetization 

 Broyden mixing:
  rms(total) = 0.16342E+00    rms(broyden)= 0.16335E+00
  rms(prec ) = 0.19991E+00
  weight for this iteration     100.00

 eigenvalues of (default mixing * dielectric matrix)
  average eigenvalue GAMMA=   1.0371
  1.8912  1.6931  0.8266  0.8266  0.3813  0.6038

 Free energy of the ion-electron system (eV)
  ---------------------------------------------------
  alpha Z        PSCENC =      1649.05367391
  Ewald energy   TEWEN  =    134349.42860197
  -Hartree energ DENC   =   -176625.57849533
  -exchange      EXHF   =         0.00000000
  -V(xc)+E(xc)   XCENC  =      1402.28442114
  PAW double counting   =     39883.46407842   -39173.82966174
  entropy T*S    EENTRO =        -0.01851794
  eigenvalues    EBANDS =    -10567.05705354
  atomic energy  EATOM  =     48333.26757577
  Solvation  Ediel_sol  =         0.00000000
  ---------------------------------------------------
  free energy    TOTEN  =      -748.98537733 eV

  energy without entropy =     -748.96685939  energy(sigma->0) =     -748.97611836


--------------------------------------------------------------------------------------------------------




--------------------------------------- Iteration      1(  12)  ---------------------------------------


    POTLOK:  cpu time    0.4383: real time    0.4383
    SETDIJ:  cpu time    0.0674: real time    0.0674
     EDDAV:  cpu time   34.4266: real time   34.4288
       DOS:  cpu time    0.0028: real time    0.0028
    CHARGE:  cpu time    1.6023: real time    1.6024
    MIXING:  cpu time    0.0217: real time    0.0217
    --------------------------------------------
      LOOP:  cpu time   36.5590: real time   36.5614

 eigenvalue-minimisations  :  3936
 total energy-change (2. order) : 0.3066982E-01  (-0.3596473E-01)
 number of electron     518.0000033 magnetization 
 augmentation part       16.9074820 magnetization 

 Broyden mixing:
  rms(total) = 0.96408E-01    rms(broyden)= 0.96334E-01
  rms(prec ) = 0.12417E+00
  weight for this iteration     100.00

 eigenvalues of (default mixing * dielectric matrix)
  average eigenvalue GAMMA=   1.1189
  2.2023  2.2023  0.8499  0.8499  0.8458  0.3776  0.5042

 Free energy of the ion-electron system (eV)
  ---------------------------------------------------
  alpha Z        PSCENC =      1649.05367391
  Ewald energy   TEWEN  =    134349.42860197
  -Hartree energ DENC   =   -176683.09370069
  -exchange      EXHF   =         0.00000000
  -V(xc)+E(xc)   XCENC  =      1402.80338826
  PAW double counting   =     39729.17720433   -39018.86477858
  entropy T*S    EENTRO =        -0.02183011
  eigenvalues    EBANDS =    -10510.70484238
  atomic energy  EATOM  =     48333.26757577
  Solvation  Ediel_sol  =         0.00000000
  ---------------------------------------------------
  free energy    TOTEN  =      -748.95470751 eV

  energy without entropy =     -748.93287740  energy(sigma->0) =     -748.94379246


--------------------------------------------------------------------------------------------------------




--------------------------------------- Iteration      1(  13)  ---------------------------------------


    POTLOK:  cpu time    0.4382: real time    0.4382
    SETDIJ:  cpu time    0.0677: real time    0.0677
     EDDAV:  cpu time   33.1596: real time   33.1618
       DOS:  cpu time    0.0028: real time    0.0028
    CHARGE:  cpu time    1.6159: real time    1.6160
    MIXING:  cpu time    0.0226: real time    0.0226
    --------------------------------------------
      LOOP:  cpu time   35.3067: real time   35.3091

 eigenvalue-minimisations  :  3760
 total energy-change (2. order) : 0.2219080E-01  (-0.9360184E-02)
 number of electron     518.0000033 magnetization 
 augmentation part       16.8786707 magnetization 

 Broyden mixing:
  rms(total) = 0.37191E-01    rms(broyden)= 0.37160E-01
  rms(prec ) = 0.61928E-01
  weight for this iteration     100.00

 eigenvalues of (default mixing * dielectric matrix)
  average eigenvalue GAMMA=   1.1360
  2.3390  2.3390  0.9644  0.9644  0.8036  0.8036  0.3774  0.4965

 Free energy of the ion-electron system (eV)
  ---------------------------------------------------
  alpha Z        PSCENC =      1649.05367391
  Ewald energy   TEWEN  =    134349.42860197
  -Hartree energ DENC   =   -176735.67647656
  -exchange      EXHF   =         0.00000000
  -V(xc)+E(xc)   XCENC  =      1403.19359131
  PAW double counting   =     39648.93426614   -38938.00547529
  entropy T*S    EENTRO =        -0.02229662
  eigenvalues    EBANDS =    -10459.10597734
  atomic energy  EATOM  =     48333.26757577
  Solvation  Ediel_sol  =         0.00000000
  ---------------------------------------------------
  free energy    TOTEN  =      -748.93251671 eV

  energy without entropy =     -748.91022009  energy(sigma->0) =     -748.92136840


--------------------------------------------------------------------------------------------------------




--------------------------------------- Iteration      1(  14)  ---------------------------------------


    POTLOK:  cpu time    0.4462: real time    0.4462
    SETDIJ:  cpu time    0.0680: real time    0.0680
     EDDAV:  cpu time   33.2681: real time   33.2713
       DOS:  cpu time    0.0023: real time    0.0023
    CHARGE:  cpu time    1.5971: real time    1.5972
    MIXING:  cpu time    0.0239: real time    0.0239
    --------------------------------------------
      LOOP:  cpu time   35.4056: real time   35.4089

 eigenvalue-minimisations  :  3776
 total energy-change (2. order) : 0.2181365E-02  (-0.4171913E-02)
 number of electron     518.0000033 magnetization 
 augmentation part       16.8744331 magnetization 

 Broyden mixing:
  rms(total) = 0.27829E-01    rms(broyden)= 0.27819E-01
  rms(prec ) = 0.46763E-01
  weight for this iteration     100.00

 eigenvalues of (default mixing * dielectric matrix)
  average eigenvalue GAMMA=   1.1351
  2.5265  2.2647  1.1862  0.9573  0.8176  0.8176  0.7744  0.3770  0.4949

 Free energy of the ion-electron system (eV)
  ---------------------------------------------------
  alpha Z        PSCENC =      1649.05367391
  Ewald energy   TEWEN  =    134349.42860197
  -Hartree energ DENC   =   -176775.82056698
  -exchange      EXHF   =         0.00000000
  -V(xc)+E(xc)   XCENC  =      1403.31086653
  PAW double counting   =     39615.54506115   -38904.46488800
  entropy T*S    EENTRO =        -0.02275427
  eigenvalues    EBANDS =    -10419.22790541
  atomic energy  EATOM  =     48333.26757577
  Solvation  Ediel_sol  =         0.00000000
  ---------------------------------------------------
  free energy    TOTEN  =      -748.93033534 eV

  energy without entropy =     -748.90758107  energy(sigma->0) =     -748.91895820


--------------------------------------------------------------------------------------------------------




--------------------------------------- Iteration      1(  15)  ---------------------------------------


    POTLOK:  cpu time    0.4451: real time    0.4451
    SETDIJ:  cpu time    0.0726: real time    0.0726
     EDDAV:  cpu time   32.7800: real time   32.7824
       DOS:  cpu time    0.0024: real time    0.0024
    CHARGE:  cpu time    1.5975: real time    1.5977
    MIXING:  cpu time    0.0258: real time    0.0258
    --------------------------------------------
      LOOP:  cpu time   34.9235: real time   34.9260

 eigenvalue-minimisations  :  3712
 total energy-change (2. order) :-0.1782742E-02  (-0.2265094E-02)
 number of electron     518.0000033 magnetization 
 augmentation part       16.8681178 magnetization 

 Broyden mixing:
  rms(total) = 0.24991E-01    rms(broyden)= 0.24968E-01
  rms(prec ) = 0.38202E-01
  weight for this iteration     100.00

 eigenvalues of (default mixing * dielectric matrix)
  average eigenvalue GAMMA=   1.1862
  2.8786  2.3079  1.6255  0.9759  0.9759  0.7936  0.7936  0.3768  0.4910  0.6433

 Free energy of the ion-electron system (eV)
  ---------------------------------------------------
  alpha Z        PSCENC =      1649.05367391
  Ewald energy   TEWEN  =    134349.42860197
  -Hartree energ DENC   =   -176799.48934832
  -exchange      EXHF   =         0.00000000
  -V(xc)+E(xc)   XCENC  =      1403.35631415
  PAW double counting   =     39600.20812393   -38889.20991737
  entropy T*S    EENTRO =        -0.02223138
  eigenvalues    EBANDS =    -10395.52491075
  atomic energy  EATOM  =     48333.26757577
  Solvation  Ediel_sol  =         0.00000000
  ---------------------------------------------------
  free energy    TOTEN  =      -748.93211808 eV

  energy without entropy =     -748.90988671  energy(sigma->0) =     -748.92100240


--------------------------------------------------------------------------------------------------------




--------------------------------------- Iteration      1(  16)  ---------------------------------------


    POTLOK:  cpu time    0.4568: real time    0.4568
    SETDIJ:  cpu time    0.0540: real time    0.0540
     EDDAV:  cpu time   33.3273: real time   33.3313
       DOS:  cpu time    0.0022: real time    0.0022
    CHARGE:  cpu time    1.5952: real time    1.5953
    MIXING:  cpu time    0.0250: real time    0.0250
    --------------------------------------------
      LOOP:  cpu time   35.4604: real time   35.4646

 eigenvalue-minimisations  :  3792
 total energy-change (2. order) :-0.2681435E-02  (-0.9337628E-03)
 number of electron     518.0000033 magnetization 
 augmentation part       16.8711963 magnetization 

 Broyden mixing:
  rms(total) = 0.96379E-02    rms(broyden)= 0.96286E-02
  rms(prec ) = 0.17559E-01
  weight for this iteration     100.00

 eigenvalues of (default mixing * dielectric matrix)
  average eigenvalue GAMMA=   1.2638
  3.4521  2.4623  1.8974  1.0054  1.0054  0.9002  0.9002  0.3768  0.4916  0.7051
  0.7051

 Free energy of the ion-electron system (eV)
  ---------------------------------------------------
  alpha Z        PSCENC =      1649.05367391
  Ewald energy   TEWEN  =    134349.42860197
  -Hartree energ DENC   =   -176826.43953753
  -exchange      EXHF   =         0.00000000
  -V(xc)+E(xc)   XCENC  =      1403.41030892
  PAW double counting   =     39578.69092643   -38867.86774883
  entropy T*S    EENTRO =        -0.02272029
  eigenvalues    EBANDS =    -10368.45587988
  atomic energy  EATOM  =     48333.26757577
  Solvation  Ediel_sol  =         0.00000000
  ---------------------------------------------------
  free energy    TOTEN  =      -748.93479952 eV

  energy without entropy =     -748.91207923  energy(sigma->0) =     -748.92343938


--------------------------------------------------------------------------------------------------------




--------------------------------------- Iteration      1(  17)  ---------------------------------------


    POTLOK:  cpu time    0.4621: real time    0.4621
    SETDIJ:  cpu time    0.0540: real time    0.0540
     EDDAV:  cpu time   32.4416: real time   32.4439
       DOS:  cpu time    0.0022: real time    0.0022
    CHARGE:  cpu time    1.5989: real time    1.5989
    MIXING:  cpu time    0.0262: real time    0.0262
    --------------------------------------------
      LOOP:  cpu time   34.5849: real time   34.5873

 eigenvalue-minimisations  :  3664
 total energy-change (2. order) :-0.2438541E-02  (-0.2510317E-03)
 number of electron     518.0000033 magnetization 
 augmentation part       16.8724658 magnetization 

 Broyden mixing:
  rms(total) = 0.65821E-02    rms(broyden)= 0.65811E-02
  rms(prec ) = 0.11336E-01
  weight for this iteration     100.00

 eigenvalues of (default mixing * dielectric matrix)
  average eigenvalue GAMMA=   1.3416
  4.1130  2.4900  2.2513  1.1582  1.0639  1.0639  0.3768  0.8367  0.8367  0.4918
  0.7083  0.7083

 Free energy of the ion-electron system (eV)
  ---------------------------------------------------
  alpha Z        PSCENC =      1649.05367391
  Ewald energy   TEWEN  =    134349.42860197
  -Hartree energ DENC   =   -176846.98555262
  -exchange      EXHF   =         0.00000000
  -V(xc)+E(xc)   XCENC  =      1403.43978292
  PAW double counting   =     39571.30566697   -38860.60073508
  entropy T*S    EENTRO =        -0.02272851
  eigenvalues    EBANDS =    -10347.82352339
  atomic energy  EATOM  =     48333.26757577
  Solvation  Ediel_sol  =         0.00000000
  ---------------------------------------------------
  free energy    TOTEN  =      -748.93723806 eV

  energy without entropy =     -748.91450955  energy(sigma->0) =     -748.92587381


--------------------------------------------------------------------------------------------------------




--------------------------------------- Iteration      1(  18)  ---------------------------------------


    POTLOK:  cpu time    0.4587: real time    0.4587
    SETDIJ:  cpu time    0.0540: real time    0.0540
     EDDAV:  cpu time   30.4152: real time   30.4172
       DOS:  cpu time    0.0020: real time    0.0020
    CHARGE:  cpu time    1.5977: real time    1.5977
    MIXING:  cpu time    0.0274: real time    0.0274
    --------------------------------------------
      LOOP:  cpu time   32.5549: real time   32.5570

 eigenvalue-minimisations  :  3360
 total energy-change (2. order) :-0.1672744E-02  (-0.8933973E-04)
 number of electron     518.0000033 magnetization 
 augmentation part       16.8717383 magnetization 

 Broyden mixing:
  rms(total) = 0.38700E-02    rms(broyden)= 0.38696E-02
  rms(prec ) = 0.74453E-02
  weight for this iteration     100.00

 eigenvalues of (default mixing * dielectric matrix)
  average eigenvalue GAMMA=   1.4294
  4.8820  2.7409  2.1830  1.7100  1.0254  1.0254  0.3768  0.9603  0.9117  0.8063
  0.8063  0.4917  0.6626

 Free energy of the ion-electron system (eV)
  ---------------------------------------------------
  alpha Z        PSCENC =      1649.05367391
  Ewald energy   TEWEN  =    134349.42860197
  -Hartree energ DENC   =   -176857.98869433
  -exchange      EXHF   =         0.00000000
  -V(xc)+E(xc)   XCENC  =      1403.44571576
  PAW double counting   =     39575.51327580   -38864.80364170
  entropy T*S    EENTRO =        -0.02271648
  eigenvalues    EBANDS =    -10336.83270152
  atomic energy  EATOM  =     48333.26757577
  Solvation  Ediel_sol  =         0.00000000
  ---------------------------------------------------
  free energy    TOTEN  =      -748.93891080 eV

  energy without entropy =     -748.91619433  energy(sigma->0) =     -748.92755257


--------------------------------------------------------------------------------------------------------




--------------------------------------- Iteration      1(  19)  ---------------------------------------


    POTLOK:  cpu time    0.4548: real time    0.4548
    SETDIJ:  cpu time    0.0542: real time    0.0542
     EDDAV:  cpu time   29.3824: real time   29.3843
       DOS:  cpu time    0.0022: real time    0.0022
    CHARGE:  cpu time    1.5938: real time    1.5939
    MIXING:  cpu time    0.0294: real time    0.0294
    --------------------------------------------
      LOOP:  cpu time   31.5169: real time   31.5189

 eigenvalue-minimisations  :  3200
 total energy-change (2. order) :-0.9150325E-03  (-0.7049892E-04)
 number of electron     518.0000033 magnetization 
 augmentation part       16.8708097 magnetization 

 Broyden mixing:
  rms(total) = 0.26186E-02    rms(broyden)= 0.26182E-02
  rms(prec ) = 0.48529E-02
  weight for this iteration     100.00

 eigenvalues of (default mixing * dielectric matrix)
  average eigenvalue GAMMA=   1.4880
  5.2882  3.1025  2.1887  2.1887  1.0449  1.0449  0.3768  0.9990  0.9043  0.9043
  0.8193  0.8193  0.4917  0.6598

 Free energy of the ion-electron system (eV)
  ---------------------------------------------------
  alpha Z        PSCENC =      1649.05367391
  Ewald energy   TEWEN  =    134349.42860197
  -Hartree energ DENC   =   -176865.81633337
  -exchange      EXHF   =         0.00000000
  -V(xc)+E(xc)   XCENC  =      1403.45799544
  PAW double counting   =     39577.70581516   -38866.95619716
  entropy T*S    EENTRO =        -0.02270631
  eigenvalues    EBANDS =    -10329.05825126
  atomic energy  EATOM  =     48333.26757577
  Solvation  Ediel_sol  =         0.00000000
  ---------------------------------------------------
  free energy    TOTEN  =      -748.93982584 eV

  energy without entropy =     -748.91711953  energy(sigma->0) =     -748.92847268


--------------------------------------------------------------------------------------------------------




--------------------------------------- Iteration      1(  20)  ---------------------------------------


    POTLOK:  cpu time    0.4514: real time    0.4514
    SETDIJ:  cpu time    0.0541: real time    0.0541
     EDDAV:  cpu time   28.6603: real time   28.6651
       DOS:  cpu time    0.0020: real time    0.0020
    CHARGE:  cpu time    1.5929: real time    1.5929
    MIXING:  cpu time    0.0309: real time    0.0309
    --------------------------------------------
      LOOP:  cpu time   30.7916: real time   30.7964

 eigenvalue-minimisations  :  3088
 total energy-change (2. order) :-0.1265941E-02  (-0.3279739E-04)
 number of electron     518.0000033 magnetization 
 augmentation part       16.8701082 magnetization 

 Broyden mixing:
  rms(total) = 0.23734E-02    rms(broyden)= 0.23720E-02
  rms(prec ) = 0.37804E-02
  weight for this iteration     100.00

 eigenvalues of (default mixing * dielectric matrix)
  average eigenvalue GAMMA=   1.5344
  5.7767  3.3034  2.3303  2.2045  1.3536  1.0495  1.0495  0.3768  1.0339  0.8284
  0.8284  0.8631  0.8631  0.4918  0.6625

 Free energy of the ion-electron system (eV)
  ---------------------------------------------------
  alpha Z        PSCENC =      1649.05367391
  Ewald energy   TEWEN  =    134349.42860197
  -Hartree energ DENC   =   -176870.23338802
  -exchange      EXHF   =         0.00000000
  -V(xc)+E(xc)   XCENC  =      1403.46499745
  PAW double counting   =     39579.17870025   -38868.40769610
  entropy T*S    EENTRO =        -0.02267369
  eigenvalues    EBANDS =    -10324.67088332
  atomic energy  EATOM  =     48333.26757577
  Solvation  Ediel_sol  =         0.00000000
  ---------------------------------------------------
  free energy    TOTEN  =      -748.94109178 eV

  energy without entropy =     -748.91841809  energy(sigma->0) =     -748.92975493


--------------------------------------------------------------------------------------------------------




--------------------------------------- Iteration      1(  21)  ---------------------------------------


    POTLOK:  cpu time    0.4478: real time    0.4479
    SETDIJ:  cpu time    0.0542: real time    0.0542
     EDDAV:  cpu time   28.2697: real time   28.2718
       DOS:  cpu time    0.0020: real time    0.0021
    CHARGE:  cpu time    1.5940: real time    1.5941
    MIXING:  cpu time    0.0319: real time    0.0319
    --------------------------------------------
      LOOP:  cpu time   30.3997: real time   30.4020

 eigenvalue-minimisations  :  3024
 total energy-change (2. order) :-0.1527330E-02  (-0.1811213E-04)
 number of electron     518.0000033 magnetization 
 augmentation part       16.8704950 magnetization 

 Broyden mixing:
  rms(total) = 0.13115E-02    rms(broyden)= 0.13106E-02
  rms(prec ) = 0.20220E-02
  weight for this iteration     100.00

 eigenvalues of (default mixing * dielectric matrix)
  average eigenvalue GAMMA=   1.6614
  6.3970  4.2347  2.6286  2.3240  1.9628  1.0614  1.0614  0.3768  1.0183  0.9237
  0.9237  0.8224  0.8224  0.8682  0.4918  0.6647

 Free energy of the ion-electron system (eV)
  ---------------------------------------------------
  alpha Z        PSCENC =      1649.05367391
  Ewald energy   TEWEN  =    134349.42860197
  -Hartree energ DENC   =   -176872.71043325
  -exchange      EXHF   =         0.00000000
  -V(xc)+E(xc)   XCENC  =      1403.46228530
  PAW double counting   =     39578.89988631   -38868.13544939
  entropy T*S    EENTRO =        -0.02270590
  eigenvalues    EBANDS =    -10322.18605384
  atomic energy  EATOM  =     48333.26757577
  Solvation  Ediel_sol  =         0.00000000
  ---------------------------------------------------
  free energy    TOTEN  =      -748.94261911 eV

  energy without entropy =     -748.91991321  energy(sigma->0) =     -748.93126616


--------------------------------------------------------------------------------------------------------




--------------------------------------- Iteration      1(  22)  ---------------------------------------


    POTLOK:  cpu time    0.4417: real time    0.4417
    SETDIJ:  cpu time    0.0541: real time    0.0541
     EDDAV:  cpu time   28.1716: real time   28.1735
       DOS:  cpu time    0.0022: real time    0.0022
    CHARGE:  cpu time    1.5934: real time    1.5935
    MIXING:  cpu time    0.0335: real time    0.0335
    --------------------------------------------
      LOOP:  cpu time   30.2965: real time   30.2985

 eigenvalue-minimisations  :  3008
 total energy-change (2. order) :-0.1718730E-02  (-0.1664424E-04)
 number of electron     518.0000033 magnetization 
 augmentation part       16.8708330 magnetization 

 Broyden mixing:
  rms(total) = 0.69844E-03    rms(broyden)= 0.69828E-03
  rms(prec ) = 0.97318E-03
  weight for this iteration     100.00

 eigenvalues of (default mixing * dielectric matrix)
  average eigenvalue GAMMA=   1.7287
  7.2192  4.7617  2.7324  2.3728  1.9423  1.3321  0.3768  1.0707  1.0707  0.4918
  0.9748  0.9748  0.8388  0.8388  0.8632  0.8632  0.6644

 Free energy of the ion-electron system (eV)
  ---------------------------------------------------
  alpha Z        PSCENC =      1649.05367391
  Ewald energy   TEWEN  =    134349.42860197
  -Hartree energ DENC   =   -176874.16778904
  -exchange      EXHF   =         0.00000000
  -V(xc)+E(xc)   XCENC  =      1403.45724979
  PAW double counting   =     39578.13767696   -38867.38387143
  entropy T*S    EENTRO =        -0.02270165
  eigenvalues    EBANDS =    -10320.71475412
  atomic energy  EATOM  =     48333.26757577
  Solvation  Ediel_sol  =         0.00000000
  ---------------------------------------------------
  free energy    TOTEN  =      -748.94433784 eV

  energy without entropy =     -748.92163619  energy(sigma->0) =     -748.93298701


--------------------------------------------------------------------------------------------------------




--------------------------------------- Iteration      1(  23)  ---------------------------------------


    POTLOK:  cpu time    0.4416: real time    0.4416
    SETDIJ:  cpu time    0.0541: real time    0.0542
     EDDAV:  cpu time   27.9961: real time   27.9989
       DOS:  cpu time    0.0022: real time    0.0022
    CHARGE:  cpu time    1.5958: real time    1.5959
    MIXING:  cpu time    0.0344: real time    0.0344
    --------------------------------------------
      LOOP:  cpu time   30.1242: real time   30.1272

 eigenvalue-minimisations  :  2976
 total energy-change (2. order) :-0.6444851E-03  (-0.6099862E-05)
 number of electron     518.0000033 magnetization 
 augmentation part       16.8706301 magnetization 

 Broyden mixing:
  rms(total) = 0.37908E-03    rms(broyden)= 0.37882E-03
  rms(prec ) = 0.50947E-03
  weight for this iteration     100.00

 eigenvalues of (default mixing * dielectric matrix)
  average eigenvalue GAMMA=   1.8145
  8.1059  5.3897  2.8999  2.4406  2.0761  1.7001  0.3768  1.0721  1.0721  1.1087
  0.9698  0.9698  0.4918  0.8241  0.8241  0.8379  0.8379  0.6642

 Free energy of the ion-electron system (eV)
  ---------------------------------------------------
  alpha Z        PSCENC =      1649.05367391
  Ewald energy   TEWEN  =    134349.42860197
  -Hartree energ DENC   =   -176874.45183095
  -exchange      EXHF   =         0.00000000
  -V(xc)+E(xc)   XCENC  =      1403.45641682
  PAW double counting   =     39577.99122308   -38867.23575984
  entropy T*S    EENTRO =        -0.02269390
  eigenvalues    EBANDS =    -10320.43218919
  atomic energy  EATOM  =     48333.26757577
  Solvation  Ediel_sol  =         0.00000000
  ---------------------------------------------------
  free energy    TOTEN  =      -748.94498232 eV

  energy without entropy =     -748.92228842  energy(sigma->0) =     -748.93363537


--------------------------------------------------------------------------------------------------------




--------------------------------------- Iteration      1(  24)  ---------------------------------------


    POTLOK:  cpu time    0.4459: real time    0.4459
    SETDIJ:  cpu time    0.0540: real time    0.0540
     EDDAV:  cpu time   26.6980: real time   26.6998
       DOS:  cpu time    0.0022: real time    0.0022
    CHARGE:  cpu time    1.5960: real time    1.5961
    MIXING:  cpu time    0.0367: real time    0.0367
    --------------------------------------------
      LOOP:  cpu time   28.8328: real time   28.8348

 eigenvalue-minimisations  :  2784
 total energy-change (2. order) :-0.3602249E-03  (-0.3430665E-05)
 number of electron     518.0000033 magnetization 
 augmentation part       16.8706917 magnetization 

 Broyden mixing:
  rms(total) = 0.16777E-03    rms(broyden)= 0.16775E-03
  rms(prec ) = 0.21738E-03
  weight for this iteration     100.00

 eigenvalues of (default mixing * dielectric matrix)
  average eigenvalue GAMMA=   1.8648
  8.9150  5.4860  3.1537  2.5884  2.1783  1.9775  0.3768  0.4918  1.0903  1.0903
  1.0717  1.0717  0.9818  0.9818  0.6643  0.8254  0.8254  0.8306  0.8306

 Free energy of the ion-electron system (eV)
  ---------------------------------------------------
  alpha Z        PSCENC =      1649.05367391
  Ewald energy   TEWEN  =    134349.42860197
  -Hartree energ DENC   =   -176874.54533476
  -exchange      EXHF   =         0.00000000
  -V(xc)+E(xc)   XCENC  =      1403.45595452
  PAW double counting   =     39577.78627572   -38867.03198797
  entropy T*S    EENTRO =        -0.02269656
  eigenvalues    EBANDS =    -10320.33740513
  atomic energy  EATOM  =     48333.26757577
  Solvation  Ediel_sol  =         0.00000000
  ---------------------------------------------------
  free energy    TOTEN  =      -748.94534255 eV

  energy without entropy =     -748.92264598  energy(sigma->0) =     -748.93399427


--------------------------------------------------------------------------------------------------------




--------------------------------------- Iteration      1(  25)  ---------------------------------------


    POTLOK:  cpu time    0.4489: real time    0.4489
    SETDIJ:  cpu time    0.0541: real time    0.0541
     EDDAV:  cpu time   26.1904: real time   26.1922
       DOS:  cpu time    0.0022: real time    0.0022
    CHARGE:  cpu time    1.6024: real time    1.6025
    MIXING:  cpu time    0.0382: real time    0.0382
    --------------------------------------------
      LOOP:  cpu time   28.3364: real time   28.3384

 eigenvalue-minimisations  :  2704
 total energy-change (2. order) :-0.1140474E-03  (-0.1245874E-05)
 number of electron     518.0000033 magnetization 
 augmentation part       16.8706496 magnetization 

 Broyden mixing:
  rms(total) = 0.86696E-04    rms(broyden)= 0.86672E-04
  rms(prec ) = 0.11498E-03
  weight for this iteration     100.00

 eigenvalues of (default mixing * dielectric matrix)
  average eigenvalue GAMMA=   1.8789
  9.0388  5.7727  3.2232  2.6725  2.3258  1.7466  1.7466  0.3768  1.1030  1.1030
  0.4918  1.0089  1.0089  0.9880  0.9880  0.6644  0.8248  0.8248  0.8355  0.8355

 Free energy of the ion-electron system (eV)
  ---------------------------------------------------
  alpha Z        PSCENC =      1649.05367391
  Ewald energy   TEWEN  =    134349.42860197
  -Hartree energ DENC   =   -176874.59349180
  -exchange      EXHF   =         0.00000000
  -V(xc)+E(xc)   XCENC  =      1403.45627455
  PAW double counting   =     39577.67034245   -38866.91542426
  entropy T*S    EENTRO =        -0.02269724
  eigenvalues    EBANDS =    -10320.29031194
  atomic energy  EATOM  =     48333.26757577
  Solvation  Ediel_sol  =         0.00000000
  ---------------------------------------------------
  free energy    TOTEN  =      -748.94545660 eV

  energy without entropy =     -748.92275935  energy(sigma->0) =     -748.93410797


--------------------------------------------------------------------------------------------------------




--------------------------------------- Iteration      1(  26)  ---------------------------------------


    POTLOK:  cpu time    0.4467: real time    0.4467
    SETDIJ:  cpu time    0.0538: real time    0.0539
     EDDAV:  cpu time   24.8303: real time   24.8319
       DOS:  cpu time    0.0021: real time    0.0021
    CHARGE:  cpu time    1.5941: real time    1.5942
    MIXING:  cpu time    0.0398: real time    0.0397
    --------------------------------------------
      LOOP:  cpu time   26.9666: real time   26.9684

 eigenvalue-minimisations  :  2496
 total energy-change (2. order) :-0.2886022E-04  (-0.1910505E-06)
[...]
 -----------------------------------------------------------------------------------------------
   -.485E+01 -.821E+01 -.272E+04   0.534E+01 0.821E+01 0.271E+04   -.419E+00 0.446E-01 0.371E+01   0.271E-03 0.577E-03 -.278E-03
   0.747E+01 0.465E+01 -.272E+04   -.748E+01 -.511E+01 0.271E+04   -.515E-01 0.416E+00 0.373E+01   -.925E-03 -.110E-03 -.111E-02
   0.369E+00 -.432E+00 0.278E+04   -.374E+00 0.428E+00 -.278E+04   -.102E-02 0.549E-02 -.383E+01   -.296E-03 0.136E-03 -.176E-02
   0.178E+00 -.172E+00 0.278E+04   -.177E+00 0.167E+00 -.278E+04   0.605E-02 -.209E-02 -.387E+01   -.600E-04 0.133E-03 -.172E-02
   0.170E+01 -.965E+00 0.961E+03   -.169E+01 0.968E+00 -.962E+03   -.227E-01 0.492E-02 0.141E+00   -.307E-03 0.158E-03 -.444E-02
   0.968E+00 -.201E+01 0.961E+03   -.978E+00 0.200E+01 -.961E+03   -.609E-02 0.218E-01 0.223E+00   -.968E-04 0.148E-03 -.443E-02
   0.155E+02 -.166E+02 -.898E+03   -.156E+02 0.167E+02 0.898E+03   0.428E-01 -.576E-01 -.114E-01   0.194E-02 -.185E-02 -.930E-02
   0.188E+01 -.183E+01 -.874E+03   -.189E+01 0.183E+01 0.874E+03   0.111E-01 -.601E-02 -.404E-01   0.964E-04 0.961E-04 -.661E-02
   0.598E+01 -.137E+02 -.271E+04   -.642E+01 0.135E+02 0.271E+04   0.386E+00 0.155E+00 0.372E+01   0.166E-02 0.227E-02 0.135E-03
   -.572E+01 -.764E+02 -.268E+04   0.547E+01 0.732E+02 0.268E+04   0.217E+00 0.307E+01 0.430E+01   -.255E-05 -.120E-01 -.846E-02
   -.393E+00 -.362E+00 0.278E+04   0.375E+00 0.353E+00 -.278E+04   0.236E-01 0.122E-01 -.384E+01   0.253E-03 0.291E-03 -.187E-02
   -.168E+00 -.250E+00 0.278E+04   0.176E+00 0.251E+00 -.278E+04   0.674E-02 0.401E-02 -.387E+01   -.233E-06 0.443E-04 -.147E-02
   -.168E+01 -.864E+00 0.963E+03   0.167E+01 0.858E+00 -.963E+03   0.233E-01 0.670E-04 0.112E+00   0.179E-03 0.349E-04 -.467E-02
   -.832E+00 -.153E+01 0.952E+03   0.826E+00 0.123E+01 -.953E+03   -.319E-02 0.883E-01 0.379E+00   0.222E-03 -.161E-02 -.684E-02
   -.176E+02 -.145E+02 -.896E+03   0.177E+02 0.146E+02 0.896E+03   -.680E-02 -.310E-01 -.469E-02   -.103E-02 -.180E-02 -.991E-02
   -.211E+01 -.592E+01 -.871E+03   0.211E+01 0.593E+01 0.871E+03   -.383E-02 0.577E-01 0.161E+00   0.259E-04 0.330E-03 -.633E-02
   0.720E+02 0.694E+01 -.268E+04   -.688E+02 -.676E+01 0.268E+04   -.321E+01 -.165E+00 0.430E+01   0.127E-01 -.917E-03 -.832E-02
   0.132E+02 -.563E+01 -.271E+04   -.131E+02 0.605E+01 0.271E+04   -.154E+00 -.385E+00 0.374E+01   -.223E-02 -.749E-03 -.497E-03
   0.295E+00 0.448E+00 0.278E+04   -.294E+00 -.429E+00 -.278E+04   -.830E-02 -.219E-01 -.383E+01   -.425E-03 -.263E-03 -.187E-02
   0.246E+00 0.163E+00 0.278E+04   -.252E+00 -.170E+00 -.278E+04   -.154E-02 -.575E-02 -.387E+01   0.289E-05 -.423E-04 -.161E-02
   0.127E+01 0.821E+00 0.952E+03   -.982E+00 -.815E+00 -.953E+03   -.798E-01 -.797E-03 0.307E+00   0.108E-02 -.200E-03 -.636E-02
   0.861E+00 0.190E+01 0.962E+03   -.859E+00 -.188E+01 -.963E+03   -.110E-03 -.227E-01 0.198E+00   0.695E-04 -.563E-04 -.468E-02
   0.134E+02 0.185E+02 -.896E+03   -.135E+02 -.186E+02 0.896E+03   0.107E-01 0.225E-01 0.970E-02   0.185E-02 0.778E-03 -.976E-02
   0.623E+01 0.229E+01 -.872E+03   -.625E+01 -.229E+01 0.872E+03   -.709E-01 0.311E-03 0.156E+00   0.263E-03 -.404E-04 -.654E-02
   -.641E+02 0.136E+02 -.264E+04   0.608E+02 -.138E+02 0.264E+04   0.286E+01 0.205E+00 0.474E+01   -.373E-02 0.307E-02 -.479E-02
   -.118E+02 0.619E+02 -.264E+04   0.119E+02 -.587E+02 0.264E+04   -.166E+00 -.283E+01 0.465E+01   -.358E-02 0.470E-02 -.408E-02
   -.305E+00 0.365E+00 0.278E+04   0.292E+00 -.352E+00 -.278E+04   0.183E-01 -.163E-01 -.384E+01   0.325E-03 -.204E-03 -.201E-02
   -.243E+00 0.247E+00 0.278E+04   0.259E+00 -.255E+00 -.278E+04   -.626E-02 0.271E-02 -.379E+01   0.136E-03 0.570E-04 -.214E-02
   -.111E+01 0.850E+00 0.955E+03   0.772E+00 -.849E+00 -.956E+03   0.867E-01 -.471E-02 0.277E+00   -.148E-02 0.117E-03 -.635E-02
   -.853E+00 0.141E+01 0.956E+03   0.854E+00 -.109E+01 -.956E+03   0.139E-02 -.909E-01 0.362E+00   -.575E-04 0.137E-02 -.682E-02
   -.147E+02 0.154E+02 -.888E+03   0.147E+02 -.154E+02 0.888E+03   0.108E-01 0.983E-03 -.197E+00   -.116E-02 0.105E-02 -.109E-01
   -.561E+01 0.584E+01 -.953E+03   0.561E+01 -.583E+01 0.952E+03   0.295E-01 -.515E-01 0.151E+01   0.114E-02 -.453E-03 -.684E-02
   0.717E-01 -.146E+00 0.949E+03   -.706E-01 0.142E+00 -.951E+03   0.444E-02 0.127E-01 0.105E+01   -.133E-04 0.543E-04 -.565E-03
   0.129E+00 -.688E-01 0.949E+03   -.123E+00 0.690E-01 -.951E+03   -.137E-01 -.118E-02 0.104E+01   -.948E-04 0.558E-04 -.563E-03
   0.494E+00 -.746E+00 -.953E+03   -.522E+00 0.772E+00 0.955E+03   0.342E-01 -.373E-01 -.188E+01   -.381E-04 -.940E-04 -.514E-03
   0.323E+01 -.339E+01 -.943E+03   -.296E+01 0.306E+01 0.945E+03   -.350E+00 0.377E+00 -.159E+01   0.550E-03 -.870E-03 -.664E-04
   0.152E+01 -.185E+01 -.294E+03   -.152E+01 0.188E+01 0.294E+03   -.230E-01 -.130E-01 0.190E+00   -.321E-03 -.930E-05 -.276E-02
   0.158E+01 -.152E+01 -.294E+03   -.161E+01 0.153E+01 0.294E+03   0.999E-02 0.138E-01 0.189E+00   0.456E-04 0.336E-03 -.287E-02
   0.206E+00 -.161E+00 0.324E+03   -.211E+00 0.163E+00 -.324E+03   0.646E-02 0.551E-03 -.582E+00   -.427E-04 0.659E-04 -.139E-02
   0.825E+00 -.900E+00 0.321E+03   -.791E+00 0.871E+00 -.321E+03   -.437E-01 0.449E-01 -.476E+00   0.113E-03 -.140E-03 -.184E-02
   -.745E-01 -.112E+00 0.949E+03   0.702E-01 0.891E-01 -.951E+03   0.375E-02 0.479E-01 0.112E+01   0.443E-04 -.353E-04 -.590E-03
   -.139E+00 -.698E-01 0.949E+03   0.123E+00 0.673E-01 -.951E+03   0.808E-02 0.539E-02 0.104E+01   0.137E-03 -.206E-04 -.615E-03
   -.174E+01 -.688E+01 -.943E+03   0.167E+01 0.683E+01 0.945E+03   0.383E-01 0.169E+00 -.166E+01   -.609E-03 0.165E-02 -.104E-02
   -.485E+01 0.777E+00 -.941E+03   0.464E+01 -.106E+01 0.943E+03   0.307E+00 0.312E+00 -.160E+01   0.105E-03 -.146E-02 0.311E-03
   -.359E+00 -.138E+02 -.313E+03   0.374E+00 0.138E+02 0.313E+03   -.317E-01 -.112E-01 0.353E+00   0.801E-05 -.143E-02 -.207E-02
   -.136E+01 -.144E+01 -.292E+03   0.135E+01 0.143E+01 0.291E+03   0.166E-02 0.892E-02 0.202E+00   -.737E-04 0.731E-04 -.263E-02
   -.226E+00 -.500E+00 0.323E+03   0.220E+00 0.499E+00 -.323E+03   0.154E-01 -.266E-02 -.461E+00   0.598E-04 0.665E-04 -.173E-02
   -.837E+00 -.733E+00 0.321E+03   0.829E+00 0.696E+00 -.321E+03   0.565E-01 0.625E-01 -.502E+00   -.167E-03 -.146E-03 -.188E-02
   0.727E-01 0.160E+00 0.949E+03   -.689E-01 -.141E+00 -.951E+03   -.443E-02 -.125E-01 0.105E+01   0.321E-04 -.130E-03 -.642E-03
   0.950E-01 0.740E-01 0.949E+03   -.706E-01 -.685E-01 -.951E+03   -.486E-01 -.269E-02 0.111E+01   -.381E-04 -.356E-04 -.643E-03
   0.780E+01 0.188E+01 -.942E+03   -.771E+01 -.182E+01 0.944E+03   -.210E+00 -.335E-01 -.161E+01   -.161E-02 0.300E-03 -.137E-02
   -.139E+01 0.520E+01 -.941E+03   0.168E+01 -.481E+01 0.943E+03   -.338E+00 -.410E+00 -.161E+01   0.124E-02 0.910E-03 0.333E-03
   0.139E+01 0.149E+01 -.292E+03   -.137E+01 -.148E+01 0.291E+03   -.190E-01 -.716E-02 0.213E+00   -.104E-03 -.374E-04 -.251E-02
   0.133E+02 0.524E+00 -.314E+03   -.133E+02 -.530E+00 0.314E+03   -.497E-01 0.191E-01 0.383E+00   0.116E-02 0.337E-04 -.248E-02
   0.484E+00 0.237E+00 0.323E+03   -.481E+00 -.230E+00 -.323E+03   0.103E-01 -.102E-01 -.461E+00   0.229E-04 -.815E-04 -.160E-02
   0.641E+00 0.945E+00 0.321E+03   -.597E+00 -.930E+00 -.321E+03   -.641E-01 -.520E-01 -.498E+00   0.843E-04 0.171E-03 -.191E-02
   -.783E-01 0.109E+00 0.949E+03   0.696E-01 -.877E-01 -.951E+03   -.323E-03 -.529E-01 0.111E+01   0.946E-05 0.217E-04 -.653E-03
   -.866E-01 0.775E-01 0.949E+03   0.685E-01 -.679E-01 -.951E+03   0.560E-01 0.874E-03 0.111E+01   0.113E-05 -.250E-04 -.693E-03
   -.104E+03 0.901E+02 -.865E+03   0.115E+03 -.986E+02 0.852E+03   -.106E+02 0.838E+01 0.118E+02   0.583E-02 -.266E-02 0.822E-02
   -.159E+01 0.166E+01 -.930E+03   0.148E+01 -.153E+01 0.932E+03   0.350E+00 -.340E+00 -.167E+01   0.147E-02 -.108E-02 0.161E-02
   -.947E+00 0.137E+02 -.310E+03   0.945E+00 -.137E+02 0.310E+03   -.101E-01 0.390E-01 0.332E+00   -.302E-04 0.143E-02 -.245E-02
   -.133E+02 0.118E+01 -.310E+03   0.134E+02 -.117E+01 0.310E+03   -.395E-01 -.173E-02 0.343E+00   -.152E-02 0.911E-04 -.275E-02
   -.602E+00 0.596E+00 0.325E+03   0.605E+00 -.598E+00 -.325E+03   -.299E-02 0.836E-02 -.770E-01   0.848E-04 0.263E-04 -.334E-02
   -.605E+00 0.726E+00 0.321E+03   0.608E+00 -.725E+00 -.322E+03   0.260E-01 -.213E-01 -.514E+00   -.941E-04 0.114E-03 -.175E-02
   0.774E+02 -.613E+02 -.154E+04   -.102E+03 0.817E+02 0.158E+04   0.250E+02 -.207E+02 -.423E+02   0.125E-01 -.144E-01 0.355E-01
 -----------------------------------------------------------------------------------------------
   -.137E+02 0.118E+02 0.293E+02   -.853E-13 0.256E-12 0.591E-11   0.136E+02 -.118E+02 -.291E+02   0.256E-01 -.222E-01 -.151E+00
 
 
 POSITION                                       TOTAL-FORCE (eV/Angst)
 -----------------------------------------------------------------------------------
      0.02430      9.29053      6.86030         0.072000      0.042255     -0.026345
      2.32845      2.30154      6.86027        -0.066066     -0.043482     -0.036944
      0.00000      2.32370      0.00000        -0.005355      0.001956      1.324016
      2.32370      0.00000      0.00000         0.007454     -0.006302      1.271015
      0.00000      0.00000      2.32366        -0.011293      0.008611     -0.176497
      2.32370      2.32370      2.32366        -0.015548      0.013951     -0.101695
     -0.00558      2.32958      4.61826        -0.064290      0.049843      0.037508
      2.32267      0.00226      4.60523         0.001108     -0.005898     -0.011894
      4.62787      9.29374      6.85440        -0.048455      0.012199     -0.004271
      6.97729      2.23471      6.90929        -0.025831     -0.138866      0.166856
      4.64740      2.32370      0.00000         0.006866      0.004186      1.315584
      6.97110      0.00000      0.00000         0.016397      0.005227      1.302470
      4.64740      0.00000      2.32366         0.006866     -0.005472     -0.199073
      6.97110      2.32370      2.32366        -0.008653     -0.209467     -0.185526
      4.65298      2.32904      4.61863         0.025344      0.045704      0.026616
      6.97155      9.29209      4.60359        -0.003863      0.067560     -0.009739
      0.08299      4.64157      6.91727        -0.014842      0.016013      0.361563
      2.32500      6.99105      6.85469        -0.014133      0.030956     -0.005956
      0.00000      6.97110      0.00000        -0.006974     -0.003603      1.321719
      2.32370      4.64740      0.00000        -0.007081     -0.012025      1.302356
      0.00000      4.64740      2.32366         0.207306      0.005250     -0.240759
      2.32370      6.97110      2.32366         0.002033     -0.007641     -0.110610
     -0.00540      6.96665      4.61885        -0.061070     -0.039265      0.021097
      2.32574      4.64780      4.60407        -0.087518     -0.000444      0.015375
      4.55029      4.64720      6.90951        -0.386043      0.043384     -0.073966
      6.97351      7.06755      6.90902        -0.013094      0.357327     -0.114989
      4.64740      6.97110      0.00000         0.006604     -0.002331      1.300443
      6.97110      4.64740      0.00000         0.010004     -0.004727      1.197766
      4.64740      4.64740      2.32366        -0.247582     -0.003364     -0.286276
      6.97110      6.97110      2.32366         0.003107      0.234003     -0.214176
      4.65209      6.96772      4.62008         0.000299     -0.007498      0.004132
      6.96489      4.65365      4.54987         0.023631     -0.041914     -0.215523
      2.32370      2.32370      0.00000         0.006315      0.009672     -0.630716
      0.00000      0.00000      0.00000        -0.007205     -0.000651     -0.643135
      2.32024      0.00449      6.95782         0.007372     -0.010785      0.022888
     -0.00881      2.33264      6.97152        -0.073684      0.041813      0.150612
      2.32703      2.32504      4.64602        -0.022605      0.012702      0.015789
     -0.00040      9.29258      4.64597        -0.017090      0.021700      0.010921
      2.32370      0.00000      2.32366         0.002513      0.003533     -0.593697
      0.00000      2.32370      2.32366        -0.008974      0.016858     -0.535111
      6.97110      2.32370      0.00000         0.000278      0.024984     -0.595530
      4.64740      0.00000      0.00000        -0.006894      0.003159     -0.634529
      6.97075      9.28849      6.96085        -0.035398      0.124100     -0.007618
      4.65905      2.34166      6.97863         0.094915      0.027616      0.182097
      6.97383      2.33386      4.67058        -0.015663      0.020764      0.098937
      4.64874      0.00202      4.64088        -0.002815     -0.003022      0.039977
      6.97110      0.00000      2.32366         0.009858     -0.003440     -0.531152
      4.64740      2.32370      2.32366         0.049406      0.025109     -0.533785
      2.32370      6.97110      0.00000         0.000143      0.006560     -0.628349
      0.00000      4.64740      0.00000        -0.023439      0.003054     -0.604196
      2.33165      4.64890      6.96072        -0.119807      0.026968     -0.002418
      9.27826      6.96380      6.97831        -0.046117     -0.016530      0.169065
      2.32212      6.97041      4.64212        -0.002531     -0.002750      0.049416
      9.28400      4.64624      4.67049        -0.066740      0.013531      0.087355
      2.32370      4.64740      2.32366         0.014226     -0.003144     -0.532740
      0.00000      6.97110      2.32366        -0.018348     -0.037108     -0.536647
      6.97110      6.97110      0.00000        -0.008207     -0.031491     -0.594386
      4.64740      4.64740      0.00000         0.038708      0.010787     -0.596383
      6.98830      4.70101      8.50323         0.418808     -0.151611     -0.568373
      4.63696      6.98313      6.95003         0.239867     -0.208244      0.278873
      6.97296      6.96371      4.66732        -0.011733     -0.001336      0.104279
      4.65573      4.64708      4.66617         0.014324      0.009115      0.089029
      6.97110      4.64740      2.32366         0.000122      0.006046     -0.145682
      4.64740      6.97110      2.32366         0.029170     -0.020223     -0.560028
      6.38492      5.19350      9.42564         0.259897     -0.323860     -0.779039
 -----------------------------------------------------------------------------------
    total drift:                               -0.052064     -0.019145      0.063500


--------------------------------------------------------------------------------------------------------



  FREE ENERGIE OF THE ION-ELECTRON SYSTEM (eV)
  ---------------------------------------------------
  free  energy   TOTEN  =      -749.09557422 eV

  energy  without entropy=     -749.06991055  energy(sigma->0) =     -749.08274238
 
 d Force =-0.2597968E-01[-0.258E-01,-0.262E-01]  d Energy =-0.2579874E-01-0.181E-03
 d Force = 0.5558347E+02[ 0.555E+02, 0.557E+02]  d Ewald  = 0.5558361E+02-0.146E-03


--------------------------------------------------------------------------------------------------------


    POTLOK:  cpu time    0.5061: real time    0.5061


--------------------------------------------------------------------------------------------------------


 NEB: the previous image is higher in energy: F
 NEB: the next image is higher in energy    : T
 NEB: only next energy greater

 NEB: Tangent
 ----------------------------------------------
      0.00050      0.00097      0.00010
     -0.00105     -0.00127      0.00024
      0.00000      0.00000      0.00000
      0.00000      0.00000      0.00000
      0.00000      0.00000      0.00000
      0.00000      0.00000      0.00000
      0.00167     -0.00172     -0.00042
      0.00043     -0.00068      0.00050
     -0.00142      0.00025      0.00155
     -0.00156     -0.00830     -0.01106
      0.00000      0.00000      0.00000
      0.00000      0.00000      0.00000
      0.00000      0.00000      0.00000
      0.00000      0.00000      0.00000
     -0.00093     -0.00157     -0.00115
      0.00017      0.00051     -0.00288
      0.01013      0.00164     -0.01250
     -0.00038      0.00182      0.00170
      0.00000      0.00000      0.00000
      0.00000      0.00000      0.00000
      0.00000      0.00000      0.00000
      0.00000      0.00000      0.00000
      0.00141      0.00069     -0.00064
     -0.00075     -0.00029     -0.00297
     -0.00437      0.00010     -0.01197
     -0.00059      0.00406     -0.01046
      0.00000      0.00000      0.00000
      0.00000      0.00000      0.00000
      0.00000      0.00000      0.00000
      0.00000      0.00000      0.00000
     -0.00094      0.00075     -0.00179
      0.00248     -0.00254      0.00984
      0.00000      0.00000      0.00000
      0.00000      0.00000      0.00000
      0.00094     -0.00153     -0.00052
     -0.00211      0.00173      0.00983
     -0.00084     -0.00126      0.00013
      0.00109      0.00052      0.00033
      0.00000      0.00000      0.00000
      0.00000      0.00000      0.00000
      0.00000      0.00000      0.00000
      0.00000      0.00000      0.00000
     -0.00023      0.00146     -0.00709
      0.00125     -0.00054      0.00737
     -0.00043     -0.00285     -0.00155
     -0.00094     -0.00072      0.00167
      0.00000      0.00000      0.00000
      0.00000      0.00000      0.00000
      0.00000      0.00000      0.00000
      0.00000      0.00000      0.00000
     -0.00275     -0.00061     -0.00700
      0.00026     -0.00282      0.00709
      0.00056      0.00081      0.00124
      0.00290      0.00011     -0.00123
      0.00000      0.00000      0.00000
      0.00000      0.00000      0.00000
      0.00000      0.00000      0.00000
      0.00000      0.00000      0.00000
     -0.02196      0.10068      0.69502
      0.00798     -0.00903      0.01609
     -0.00039      0.00104     -0.00031
     -0.00175      0.00001     -0.00051
      0.00000      0.00000      0.00000
      0.00000      0.00000      0.00000
     -0.03760     -0.04957      0.70766

 NEB: forces: par spring, perp REAL, dneb     9.732336    1.152380    0.000000
 NEB: distance to prev, next image, angle between     0.826953    2.773420  171.904568
 NEB: projections on to tangent (spring, REAL)     9.732336   -0.953823

 stress matrix after NEB project (eV)
    -34.88339      0.07700      1.87600
      0.07700    -34.28204     -1.50366
      1.87600     -1.50366    -15.88259
  FORCES: max atom, RMS     6.923131    1.215581
  FORCE total and by dimension    9.800324    6.858685
  Stress total and by dimension   51.535795   34.883385
 
 OPT: Flag T
 OPT: QM Step


--------------------------------------------------------------------------------------------------------


     LOOP+:  cpu time  259.2650: real time  261.4449
    4ORBIT:  cpu time    0.0000: real time    0.0000

 total amount of memory used by VASP MPI-rank0   163582. kBytes
=======================================================================

   base      :      30000. kBytes
   nonlr-proj:      14444. kBytes
   fftplans  :       7895. kBytes
   grid      :      27008. kBytes
   one-center:       1010. kBytes
   wavefun   :      83225. kBytes
 
  
  
 General timing and accounting informations for this job:
 ========================================================
  
                  Total CPU time used (sec):    13477.160
                            User time (sec):    13377.190
                          System time (sec):       99.971
                         Elapsed time (sec):    13597.835
  
                   Maximum memory used (kb):      892624.
                   Average memory used (kb):           0.
  
                          Minor page faults:     10457898
                          Major page faults:            0
                 Voluntary context switches:       126863
