PBE-grap                                
           1
     9.294800    0.000000    0.000000
     0.000000    9.294800    0.000000
     0.000000    0.000000   21.971100
   Hf   C    O 
  32  32   1
Direct configuration=     1
   0.00136117  0.99912954  0.31261973
   0.25099039  0.24890868  0.31259980
   0.00000000  0.25000000  0.00000000
   0.25000000  0.00000000  0.00000000
   0.00000000  0.00000000  0.10576000
   0.25000000  0.25000000  0.10576000
   0.00047911  0.24969103  0.21001027
   0.24991987  0.00029002  0.20961016
   0.49882932  0.99979991  0.31221972
   0.75099983  0.24176123  0.31226539
   0.50000000  0.25000000  0.00000000
   0.75000000  0.00000000  0.00000000
   0.50000000  0.00000000  0.10576000
   0.75000000  0.25000000  0.10576000
   0.50015027  0.24987055  0.21005033
   0.75008993  0.99866086  0.20966981
   0.00825880  0.49920996  0.31225544
   0.25031002  0.75123071  0.31221982
   0.00000000  0.75000000  0.00000000
   0.25000000  0.50000000  0.00000000
   0.00000000  0.50000000  0.10576000
   0.25000000  0.75000000  0.10576000
   0.00029950  0.75006967  0.21006032
   0.25153878  0.50000013  0.20964976
   0.49850992  0.50004924  0.31445368
   0.75012075  0.75148015  0.31453365
   0.50000000  0.75000000  0.00000000
   0.75000000  0.50000000  0.00000000
   0.50000000  0.50000000  0.10576000
   0.75000000  0.75000000  0.10576000
   0.50055956  0.74959058  0.21045967
   0.74850083  0.50164931  0.21117151
   0.25000000  0.25000000  0.00000000
   0.00000000  0.00000000  0.00000000
   0.24953966  0.00059036  0.31645028
   0.00061846  0.24952149  0.31652949
   0.25058995  0.24994019  0.21135996
   0.00016979  0.99955005  0.21136995
   0.25000000  0.00000000  0.10576000
   0.00000000  0.25000000  0.10576000
   0.75000000  0.25000000  0.00000000
   0.50000000  0.00000000  0.00000000
   0.75051927  0.99861934  0.31700966
   0.49948166  0.25078167  0.31664977
   0.75041993  0.25019215  0.21206015
   0.50013015  0.00037978  0.21091016
   0.75000000  0.00000000  0.10576000
   0.50000000  0.25000000  0.10576000
   0.25000000  0.75000000  0.00000000
   0.00000000  0.50000000  0.00000000
   0.25151079  0.49967076  0.31696968
   0.99939848  0.75066851  0.31665975
   0.24969023  0.74998983  0.21093017
   0.99994780  0.49977009  0.21206013
   0.25000000  0.50000000  0.10576000
   0.00000000  0.75000000  0.10576000
   0.75000000  0.75000000  0.00000000
   0.50000000  0.50000000  0.00000000
   0.75138874  0.50001157  0.36197145
   0.49354552  0.75646446  0.31398147
   0.75057935  0.75038691  0.21117193
   0.49977306  0.49959062  0.21109194
   0.75000000  0.50000000  0.10576000
   0.50000000  0.75000000  0.10576000
   0.68353682  0.56787346  0.41290948
Direct configuration=     2
   0.00136352  0.99912862  0.31261918
   0.25099117  0.24890604  0.31259939
   0.00000000  0.25000000  0.00000000
   0.25000000  0.00000000  0.00000000
   0.00000000  0.00000000  0.10576000
   0.25000000  0.25000000  0.10576000
   0.00047732  0.24969308  0.21001080
   0.24991961  0.00029006  0.20961047
   0.49882795  0.99979974  0.31221914
   0.75099948  0.24176369  0.31227614
   0.50000000  0.25000000  0.00000000
   0.75000000  0.00000000  0.00000000
   0.50000000  0.00000000  0.10576000
   0.75000000  0.25000000  0.10576000
   0.50015081  0.24987165  0.21005101
   0.75008980  0.99866258  0.20966943
   0.00825642  0.49920987  0.31226631
   0.25031005  0.75123212  0.31221945
   0.00000000  0.75000000  0.00000000
   0.25000000  0.50000000  0.00000000
   0.00000000  0.50000000  0.10576000
   0.25000000  0.75000000  0.10576000
   0.00029850  0.75006901  0.21006096
   0.25153633  0.50000039  0.20964929
   0.49848975  0.50004772  0.31446102
   0.75012225  0.75150046  0.31454093
   0.50000000  0.75000000  0.00000000
   0.75000000  0.50000000  0.00000000
   0.50000000  0.50000000  0.10576000
   0.75000000  0.75000000  0.10576000
   0.50055868  0.74959174  0.21045902
   0.74850248  0.50164792  0.21115454
   0.25000000  0.25000000  0.00000000
   0.00000000  0.00000000  0.00000000
   0.24953899  0.00059108  0.31645083
   0.00061538  0.24952448  0.31652848
   0.25058985  0.24994057  0.21135988
   0.00016936  0.99955016  0.21136986
   0.25000000  0.00000000  0.10576000
   0.00000000  0.25000000  0.10576000
   0.75000000  0.25000000  0.00000000
   0.50000000  0.00000000  0.00000000
   0.75051782  0.99861803  0.31700899
   0.49948499  0.25078502  0.31664933
   0.75041977  0.25019645  0.21206045
   0.50013045  0.00037933  0.21091047
   0.75000000  0.00000000  0.10576000
   0.50000000  0.25000000  0.10576000
   0.25000000  0.75000000  0.00000000
   0.00000000  0.50000000  0.00000000
   0.25151236  0.49967227  0.31696903
   0.99939545  0.75066552  0.31665926
   0.24969070  0.74998950  0.21093051
   0.99994340  0.49977026  0.21206039
   0.25000000  0.50000000  0.10576000
   0.00000000  0.75000000  0.10576000
   0.75000000  0.75000000  0.00000000
   0.50000000  0.50000000  0.00000000
   0.75136630  0.50003470  0.36201437
   0.49355656  0.75645337  0.31398441
   0.75057804  0.75038072  0.21117578
   0.49977918  0.49959187  0.21109583
   0.75000000  0.50000000  0.10576000
   0.50000000  0.75000000  0.10576000
   0.68357043  0.56784037  0.41288849
Direct configuration=     3
   0.00136707  0.99912727  0.31261832
   0.25099231  0.24890209  0.31259877
   0.00000000  0.25000000  0.00000000
   0.25000000  0.00000000  0.00000000
   0.00000000  0.00000000  0.10576000
   0.25000000  0.25000000  0.10576000
   0.00047462  0.24969618  0.21001159
   0.24991922  0.00029011  0.20961094
   0.49882590  0.99979947  0.31221828
   0.75099896  0.24176733  0.31229222
   0.50000000  0.25000000  0.00000000
   0.75000000  0.00000000  0.00000000
   0.50000000  0.00000000  0.10576000
   0.75000000  0.25000000  0.10576000
   0.50015163  0.24987332  0.21005204
   0.75008959  0.99866516  0.20966887
   0.00825288  0.49920976  0.31228257
   0.25031011  0.75123425  0.31221889
   0.00000000  0.75000000  0.00000000
   0.25000000  0.50000000  0.00000000
   0.00000000  0.50000000  0.10576000
   0.25000000  0.75000000  0.10576000
   0.00029697  0.75006801  0.21006191
   0.25153266  0.50000078  0.20964859
   0.49845946  0.50004545  0.31447193
   0.75012449  0.75153095  0.31455174
   0.50000000  0.75000000  0.00000000
   0.75000000  0.50000000  0.00000000
   0.50000000  0.50000000  0.10576000
   0.75000000  0.75000000  0.10576000
   0.50055737  0.74959345  0.21045804
   0.74850493  0.50164589  0.21112915
   0.25000000  0.25000000  0.00000000
   0.00000000  0.00000000  0.00000000
   0.24953799  0.00059215  0.31645166
   0.00061074  0.24952899  0.31652700
   0.25058971  0.24994115  0.21135977
   0.00016872  0.99955032  0.21136974
   0.25000000  0.00000000  0.10576000
   0.00000000  0.25000000  0.10576000
   0.75000000  0.25000000  0.00000000
   0.50000000  0.00000000  0.00000000
   0.75051564  0.99861608  0.31700800
   0.49949001  0.25079006  0.31664869
   0.75041955  0.25020289  0.21206093
   0.50013089  0.00037866  0.21091095
   0.75000000  0.00000000  0.10576000
   0.50000000  0.25000000  0.10576000
   0.25000000  0.75000000  0.00000000
   0.00000000  0.50000000  0.00000000
   0.25151470  0.49967453  0.31696808
   0.99939087  0.75066101  0.31665855
   0.24969140  0.74998900  0.21093102
   0.99993680  0.49977053  0.21206080
   0.25000000  0.50000000  0.10576000
   0.00000000  0.75000000  0.10576000
   0.75000000  0.75000000  0.00000000
   0.50000000  0.50000000  0.00000000
   0.75133277  0.50006936  0.36207883
   0.49357317  0.75643669  0.31398886
   0.75057609  0.75037147  0.21118158
   0.49978833  0.49959374  0.21110168
   0.75000000  0.50000000  0.10576000
   0.50000000  0.75000000  0.10576000
   0.68362078  0.56779069  0.41285723
Direct configuration=     4
   0.00137181  0.99912552  0.31261717
   0.25099378  0.24889681  0.31259792
   0.00000000  0.25000000  0.00000000
   0.25000000  0.00000000  0.00000000
   0.00000000  0.00000000  0.10576000
   0.25000000  0.25000000  0.10576000
   0.00047100  0.24970033  0.21001266
   0.24991870  0.00029018  0.20961156
   0.49882315  0.99979910  0.31221713
   0.75099831  0.24177217  0.31231358
   0.50000000  0.25000000  0.00000000
   0.75000000  0.00000000  0.00000000
   0.50000000  0.00000000  0.10576000
   0.75000000  0.25000000  0.10576000
   0.50015275  0.24987558  0.21005340
   0.75008933  0.99866861  0.20966815
   0.00824830  0.49920961  0.31230413
   0.25031019  0.75123709  0.31221813
   0.00000000  0.75000000  0.00000000
   0.25000000  0.50000000  0.00000000
   0.00000000  0.50000000  0.10576000
   0.25000000  0.75000000  0.10576000
   0.00029490  0.75006664  0.21006317
   0.25152777  0.50000129  0.20964768
   0.49841890  0.50004241  0.31448629
   0.75012756  0.75157182  0.31456600
   0.50000000  0.75000000  0.00000000
   0.75000000  0.50000000  0.00000000
   0.50000000  0.50000000  0.10576000
   0.75000000  0.75000000  0.10576000
   0.50055567  0.74959569  0.21045675
   0.74850817  0.50164318  0.21109535
   0.25000000  0.25000000  0.00000000
   0.00000000  0.00000000  0.00000000
   0.24953667  0.00059355  0.31645278
   0.00060452  0.24953503  0.31652508
   0.25058951  0.24994192  0.21135963
   0.00016785  0.99955054  0.21136957
   0.25000000  0.00000000  0.10576000
   0.00000000  0.25000000  0.10576000
   0.75000000  0.25000000  0.00000000
   0.50000000  0.00000000  0.00000000
   0.75051275  0.99861350  0.31700668
   0.49949677  0.25079681  0.31664790
   0.75041925  0.25021145  0.21206160
   0.50013149  0.00037775  0.21091159
   0.75000000  0.00000000  0.10576000
   0.50000000  0.25000000  0.10576000
   0.25000000  0.75000000  0.00000000
   0.00000000  0.50000000  0.00000000
   0.25151778  0.49967754  0.31696682
   0.99938474  0.75065494  0.31665767
   0.24969234  0.74998833  0.21093172
   0.99992804  0.49977088  0.21206138
   0.25000000  0.50000000  0.10576000
   0.00000000  0.75000000  0.10576000
   0.75000000  0.75000000  0.00000000
   0.50000000  0.50000000  0.00000000
   0.75128821  0.50011556  0.36216494
   0.49359534  0.75641448  0.31399484
   0.75057341  0.75035921  0.21118927
   0.49980049  0.49959623  0.21110947
   0.75000000  0.50000000  0.10576000
   0.50000000  0.75000000  0.10576000
   0.68368769  0.56772440  0.41281595
Direct configuration=     5
   0.00137774  0.99912341  0.31261571
   0.25099554  0.24889010  0.31259681
   0.00000000  0.25000000  0.00000000
   0.25000000  0.00000000  0.00000000
   0.00000000  0.00000000  0.10576000
   0.25000000  0.25000000  0.10576000
   0.00046641  0.24970556  0.21001397
   0.24991805  0.00029027  0.20961232
   0.49881970  0.99979863  0.31221566
   0.75099737  0.24177817  0.31234015
   0.50000000  0.25000000  0.00000000
   0.75000000  0.00000000  0.00000000
   0.50000000  0.00000000  0.10576000
   0.75000000  0.25000000  0.10576000
   0.50015419  0.24987846  0.21005508
   0.75008906  0.99867303  0.20966728
   0.00824261  0.49920950  0.31233094
   0.25031031  0.75124065  0.31221717
   0.00000000  0.75000000  0.00000000
   0.25000000  0.50000000  0.00000000
   0.00000000  0.50000000  0.10576000
   0.25000000  0.75000000  0.10576000
   0.00029225  0.75006488  0.21006474
   0.25152164  0.50000192  0.20964657
   0.49836799  0.50003863  0.31450392
   0.75013140  0.75162333  0.31458351
   0.50000000  0.75000000  0.00000000
   0.75000000  0.50000000  0.00000000
   0.50000000  0.50000000  0.10576000
   0.75000000  0.75000000  0.10576000
   0.50055359  0.74959842  0.21045515
   0.74851223  0.50163976  0.21105327
   0.25000000  0.25000000  0.00000000
   0.00000000  0.00000000  0.00000000
   0.24953504  0.00059528  0.31645418
   0.00059669  0.24954263  0.31652278
   0.25058925  0.24994289  0.21135948
   0.00016676  0.99955081  0.21136939
   0.25000000  0.00000000  0.10576000
   0.00000000  0.25000000  0.10576000
   0.75000000  0.25000000  0.00000000
   0.50000000  0.00000000  0.00000000
   0.75050913  0.99861033  0.31700508
   0.49950531  0.25080528  0.31664702
   0.75041888  0.25022207  0.21206244
   0.50013224  0.00037662  0.21091243
   0.75000000  0.00000000  0.10576000
   0.50000000  0.25000000  0.10576000
   0.25000000  0.75000000  0.00000000
   0.00000000  0.50000000  0.00000000
   0.25152157  0.49968128  0.31696528
   0.99937702  0.75064723  0.31665668
   0.24969350  0.74998749  0.21093261
   0.99991720  0.49977125  0.21206214
   0.25000000  0.50000000  0.10576000
   0.00000000  0.75000000  0.10576000
   0.75000000  0.75000000  0.00000000
   0.50000000  0.50000000  0.00000000
   0.75123291  0.50017323  0.36227283
   0.49362317  0.75638658  0.31400244
   0.75057007  0.75034394  0.21119891
   0.49981561  0.49959928  0.21111917
   0.75000000  0.50000000  0.10576000
   0.50000000  0.75000000  0.10576000
   0.68377110  0.56764134  0.41276508
Direct configuration=     6
   0.00138487  0.99912101  0.31261390
   0.25099753  0.24888203  0.31259542
   0.00000000  0.25000000  0.00000000
   0.25000000  0.00000000  0.00000000
   0.00000000  0.00000000  0.10576000
   0.25000000  0.25000000  0.10576000
   0.00046081  0.24971191  0.21001553
   0.24991726  0.00029037  0.20961321
   0.49881552  0.99979805  0.31221387
   0.75099626  0.24178502  0.31237180
   0.50000000  0.25000000  0.00000000
   0.75000000  0.00000000  0.00000000
   0.50000000  0.00000000  0.10576000
   0.75000000  0.25000000  0.10576000
   0.50015600  0.24988200  0.21005707
   0.75008874  0.99867838  0.20966625
   0.00823615  0.49920925  0.31236296
   0.25031048  0.75124503  0.31221588
   0.00000000  0.75000000  0.00000000
   0.25000000  0.50000000  0.00000000
   0.00000000  0.50000000  0.10576000
   0.25000000  0.75000000  0.10576000
   0.00028898  0.75006269  0.21006659
   0.25151427  0.50000268  0.20964525
   0.49830657  0.50003414  0.31452459
   0.75013585  0.75168553  0.31460405
   0.50000000  0.75000000  0.00000000
   0.75000000  0.50000000  0.00000000
   0.50000000  0.50000000  0.10576000
   0.75000000  0.75000000  0.10576000
   0.50055118  0.74960160  0.21045324
   0.74851731  0.50163567  0.21100301
   0.25000000  0.25000000  0.00000000
   0.00000000  0.00000000  0.00000000
   0.24953312  0.00059731  0.31645589
   0.00058719  0.24955185  0.31652016
   0.25058893  0.24994408  0.21135933
   0.00016543  0.99955113  0.21136920
   0.25000000  0.00000000  0.10576000
   0.00000000  0.25000000  0.10576000
   0.75000000  0.25000000  0.00000000
   0.50000000  0.00000000  0.00000000
   0.75050479  0.99860661  0.31700321
   0.49951560  0.25081542  0.31664613
   0.75041843  0.25023476  0.21206354
   0.50013312  0.00037527  0.21091346
   0.75000000  0.00000000  0.10576000
   0.50000000  0.25000000  0.10576000
   0.25000000  0.75000000  0.00000000
   0.00000000  0.50000000  0.00000000
   0.25152603  0.49968577  0.31696349
   0.99936768  0.75063784  0.31665565
   0.24969489  0.74998649  0.21093372
   0.99990425  0.49977170  0.21206314
   0.25000000  0.50000000  0.10576000
   0.00000000  0.75000000  0.10576000
   0.75000000  0.75000000  0.00000000
   0.50000000  0.50000000  0.00000000
   0.75116701  0.50024239  0.36240270
   0.49365676  0.75635291  0.31401173
   0.75056610  0.75032581  0.21121046
   0.49983364  0.49960295  0.21113084
   0.75000000  0.50000000  0.10576000
   0.50000000  0.75000000  0.10576000
   0.68387084  0.56754158  0.41270519
Direct configuration=     7
   0.00139322  0.99911837  0.31261172
   0.25099967  0.24887260  0.31259373
   0.00000000  0.25000000  0.00000000
   0.25000000  0.00000000  0.00000000
   0.00000000  0.00000000  0.10576000
   0.25000000  0.25000000  0.10576000
   0.00045406  0.24971953  0.21001731
   0.24991635  0.00029049  0.20961421
   0.49881057  0.99979735  0.31221174
   0.75099489  0.24179250  0.31240839
   0.50000000  0.25000000  0.00000000
   0.75000000  0.00000000  0.00000000
   0.50000000  0.00000000  0.10576000
   0.75000000  0.25000000  0.10576000
   0.50015819  0.24988626  0.21005935
   0.75008837  0.99868465  0.20966509
   0.00822906  0.49920907  0.31239999
   0.25031069  0.75125017  0.31221434
   0.00000000  0.75000000  0.00000000
   0.25000000  0.50000000  0.00000000
   0.00000000  0.50000000  0.10576000
   0.25000000  0.75000000  0.10576000
   0.00028503  0.75006005  0.21006871
   0.25150566  0.50000356  0.20964376
   0.49823445  0.50002897  0.31454803
   0.75014107  0.75175882  0.31462735
   0.50000000  0.75000000  0.00000000
   0.75000000  0.50000000  0.00000000
   0.50000000  0.50000000  0.10576000
   0.75000000  0.75000000  0.10576000
   0.50054847  0.74960517  0.21045104
   0.74852313  0.50163074  0.21094462
   0.25000000  0.25000000  0.00000000
   0.00000000  0.00000000  0.00000000
   0.24953093  0.00059963  0.31645790
   0.00057599  0.24956272  0.31651732
   0.25058854  0.24994548  0.21135920
   0.00016384  0.99955152  0.21136903
   0.25000000  0.00000000  0.10576000
   0.00000000  0.25000000  0.10576000
   0.75000000  0.25000000  0.00000000
   0.50000000  0.00000000  0.00000000
   0.75049974  0.99860237  0.31700109
   0.49952780  0.25082716  0.31664527
   0.75041790  0.25024949  0.21206495
   0.50013415  0.00037368  0.21091473
   0.75000000  0.00000000  0.10576000
   0.50000000  0.25000000  0.10576000
   0.25000000  0.75000000  0.00000000
   0.00000000  0.50000000  0.00000000
   0.25153111  0.49969098  0.31696147
   0.99935667  0.75062668  0.31665468
   0.24969651  0.74998531  0.21093508
   0.99988935  0.49977222  0.21206447
   0.25000000  0.50000000  0.10576000
   0.00000000  0.75000000  0.10576000
   0.75000000  0.75000000  0.00000000
   0.50000000  0.50000000  0.00000000
   0.75109111  0.50032284  0.36255482
   0.49369606  0.75631355  0.31402274
   0.75056148  0.75030481  0.21122397
   0.49985452  0.49960721  0.21114448
   0.75000000  0.50000000  0.10576000
   0.50000000  0.75000000  0.10576000
   0.68398679  0.56742509  0.41263693
Direct configuration=     8
   0.00140305  0.99911567  0.31260913
   0.25100191  0.24886177  0.31259170
   0.00000000  0.25000000  0.00000000
   0.25000000  0.00000000  0.00000000
   0.00000000  0.00000000  0.10576000
   0.25000000  0.25000000  0.10576000
   0.00044600  0.24972844  0.21001927
   0.24991538  0.00029075  0.20961536
   0.49880486  0.99979650  0.31220925
   0.75099345  0.24180049  0.31244969
   0.50000000  0.25000000  0.00000000
   0.75000000  0.00000000  0.00000000
   0.50000000  0.00000000  0.10576000
   0.75000000  0.25000000  0.10576000
   0.50016077  0.24989130  0.21006202
   0.75008809  0.99869201  0.20966378
   0.00822130  0.49920876  0.31244187
   0.25031098  0.75125611  0.31221251
   0.00000000  0.75000000  0.00000000
   0.25000000  0.50000000  0.00000000
   0.00000000  0.50000000  0.10576000
   0.25000000  0.75000000  0.10576000
   0.00028029  0.75005690  0.21007120
   0.25149579  0.50000455  0.20964209
   0.49815094  0.50002332  0.31457402
   0.75014658  0.75184335  0.31465315
   0.50000000  0.75000000  0.00000000
   0.75000000  0.50000000  0.00000000
   0.50000000  0.50000000  0.10576000
   0.75000000  0.75000000  0.10576000
   0.50054553  0.74960908  0.21044855
   0.74852992  0.50162519  0.21087820
   0.25000000  0.25000000  0.00000000
   0.00000000  0.00000000  0.00000000
   0.24952850  0.00060220  0.31646025
   0.00056303  0.24957532  0.31651434
   0.25058809  0.24994711  0.21135912
   0.00016200  0.99955197  0.21136890
   0.25000000  0.00000000  0.10576000
   0.00000000  0.25000000  0.10576000
   0.75000000  0.25000000  0.00000000
   0.50000000  0.00000000  0.00000000
   0.75049399  0.99859767  0.31699878
   0.49954203  0.25084071  0.31664459
   0.75041730  0.25026623  0.21206672
   0.50013534  0.00037185  0.21091625
   0.75000000  0.00000000  0.10576000
   0.50000000  0.25000000  0.10576000
   0.25000000  0.75000000  0.00000000
   0.00000000  0.50000000  0.00000000
   0.25153677  0.49969691  0.31695926
   0.99934395  0.75061364  0.31665388
   0.24969837  0.74998396  0.21093670
   0.99987241  0.49977281  0.21206616
   0.25000000  0.50000000  0.10576000
   0.00000000  0.75000000  0.10576000
   0.75000000  0.75000000  0.00000000
   0.50000000  0.50000000  0.00000000
   0.75100517  0.50041416  0.36272941
   0.49374123  0.75626820  0.31403561
   0.75055633  0.75028102  0.21123941
   0.49987822  0.49961208  0.21116015
   0.75000000  0.50000000  0.10576000
   0.50000000  0.75000000  0.10576000
   0.68411857  0.56729187  0.41256134
Direct configuration=     9
   0.00141407  0.99911296  0.31260596
   0.25100413  0.24884954  0.31258931
   0.00000000  0.25000000  0.00000000
   0.25000000  0.00000000  0.00000000
   0.00000000  0.00000000  0.10576000
   0.25000000  0.25000000  0.10576000
   0.00043675  0.24973861  0.21002145
   0.24991429  0.00029103  0.20961661
   0.49879833  0.99979551  0.31220637
   0.75099181  0.24180873  0.31249541
   0.50000000  0.25000000  0.00000000
   0.75000000  0.00000000  0.00000000
   0.50000000  0.00000000  0.10576000
   0.75000000  0.25000000  0.10576000
   0.50016384  0.24989716  0.21006496
   0.75008779  0.99870060  0.20966231
   0.00821326  0.49920821  0.31248830
   0.25031122  0.75126295  0.31221030
   0.00000000  0.75000000  0.00000000
   0.25000000  0.50000000  0.00000000
   0.00000000  0.50000000  0.10576000
   0.25000000  0.75000000  0.10576000
   0.00027466  0.75005318  0.21007407
   0.25148465  0.50000564  0.20964029
   0.49805616  0.50001707  0.31460212
   0.75015246  0.75193983  0.31468103
   0.50000000  0.75000000  0.00000000
   0.75000000  0.50000000  0.00000000
   0.50000000  0.50000000  0.10576000
   0.75000000  0.75000000  0.10576000
   0.50054241  0.74961325  0.21044579
   0.74853780  0.50161860  0.21080379
   0.25000000  0.25000000  0.00000000
   0.00000000  0.00000000  0.00000000
   0.24952585  0.00060499  0.31646293
   0.00054823  0.24958968  0.31651136
   0.25058756  0.24994898  0.21135912
   0.00015989  0.99955248  0.21136884
   0.25000000  0.00000000  0.10576000
   0.00000000  0.25000000  0.10576000
   0.75000000  0.25000000  0.00000000
   0.50000000  0.00000000  0.00000000
   0.75048753  0.99859254  0.31699630
   0.49955839  0.25085612  0.31664422
   0.75041662  0.25028492  0.21206894
   0.50013666  0.00036979  0.21091806
   0.75000000  0.00000000  0.10576000
   0.50000000  0.25000000  0.10576000
   0.25000000  0.75000000  0.00000000
   0.00000000  0.50000000  0.00000000
   0.25154294  0.49970355  0.31695691
   0.99932949  0.75059881  0.31665335
   0.24970045  0.74998243  0.21093863
   0.99985348  0.49977347  0.21206829
   0.25000000  0.50000000  0.10576000
   0.00000000  0.75000000  0.10576000
   0.75000000  0.75000000  0.00000000
   0.50000000  0.50000000  0.00000000
   0.75091053  0.50051624  0.36292691
   0.49379232  0.75621706  0.31405055
   0.75055045  0.75025448  0.21125677
   0.49990462  0.49961753  0.21117784
   0.75000000  0.50000000  0.10576000
   0.50000000  0.75000000  0.10576000
   0.68426564  0.56714200  0.41247940
Direct configuration=    10
   0.00142639  0.99911034  0.31260229
   0.25100627  0.24883572  0.31258642
   0.00000000  0.25000000  0.00000000
   0.25000000  0.00000000  0.00000000
   0.00000000  0.00000000  0.10576000
   0.25000000  0.25000000  0.10576000
   0.00042622  0.24975012  0.21002381
   0.24991321  0.00029127  0.20961798
   0.49879092  0.99979438  0.31220306
   0.75098975  0.24181697  0.31254551
   0.50000000  0.25000000  0.00000000
   0.75000000  0.00000000  0.00000000
   0.50000000  0.00000000  0.10576000
   0.75000000  0.25000000  0.10576000
   0.50016747  0.24990387  0.21006827
   0.75008742  0.99871053  0.20966066
   0.00820535  0.49920769  0.31253910
   0.25031152  0.75127069  0.31220773
   0.00000000  0.75000000  0.00000000
   0.25000000  0.50000000  0.00000000
   0.00000000  0.50000000  0.10576000
   0.25000000  0.75000000  0.10576000
   0.00026817  0.75004879  0.21007730
   0.25147220  0.50000686  0.20963835
   0.49794966  0.50001000  0.31463199
   0.75015863  0.75204865  0.31471059
   0.50000000  0.75000000  0.00000000
   0.75000000  0.50000000  0.00000000
   0.50000000  0.50000000  0.10576000
   0.75000000  0.75000000  0.10576000
   0.50053913  0.74961765  0.21044275
   0.74854708  0.50161128  0.21072145
   0.25000000  0.25000000  0.00000000
   0.00000000  0.00000000  0.00000000
   0.24952300  0.00060799  0.31646597
   0.00053149  0.24960593  0.31650848
   0.25058693  0.24995113  0.21135923
   0.00015746  0.99955309  0.21136887
   0.25000000  0.00000000  0.10576000
   0.00000000  0.25000000  0.10576000
   0.75000000  0.25000000  0.00000000
   0.50000000  0.00000000  0.00000000
   0.75048036  0.99858710  0.31699369
   0.49957702  0.25087349  0.31664430
   0.75041585  0.25030557  0.21207167
   0.50013812  0.00036751  0.21092020
   0.75000000  0.00000000  0.10576000
   0.50000000  0.25000000  0.10576000
   0.25000000  0.75000000  0.00000000
   0.00000000  0.50000000  0.00000000
   0.25154961  0.49971084  0.31695453
   0.99931316  0.75058190  0.31665325
   0.24970274  0.74998074  0.21094090
   0.99983255  0.49977422  0.21207092
   0.25000000  0.50000000  0.10576000
   0.00000000  0.75000000  0.10576000
   0.75000000  0.75000000  0.00000000
   0.50000000  0.50000000  0.00000000
   0.75080763  0.50062776  0.36314764
   0.49384971  0.75615961  0.31406770
   0.75054392  0.75022530  0.21127616
   0.49993338  0.49962359  0.21119760
   0.75000000  0.50000000  0.10576000
   0.50000000  0.75000000  0.10576000
   0.68442766  0.56697570  0.41239263
Direct configuration=    11
   0.00144013  0.99910785  0.31259806
   0.25100822  0.24882035  0.31258304
   0.00000000  0.25000000  0.00000000
   0.25000000  0.00000000  0.00000000
   0.00000000  0.00000000  0.10576000
   0.25000000  0.25000000  0.10576000
   0.00041435  0.24976302  0.21002625
   0.24991202  0.00029152  0.20961932
   0.49878247  0.99979306  0.31219928
   0.75098776  0.24182531  0.31259988
   0.50000000  0.25000000  0.00000000
   0.75000000  0.00000000  0.00000000
   0.50000000  0.00000000  0.10576000
   0.75000000  0.25000000  0.10576000
   0.50017170  0.24991155  0.21007172
   0.75008702  0.99872159  0.20965882
   0.00819711  0.49920710  0.31259430
   0.25031191  0.75127944  0.31220475
   0.00000000  0.75000000  0.00000000
   0.25000000  0.50000000  0.00000000
   0.00000000  0.50000000  0.10576000
   0.25000000  0.75000000  0.10576000
   0.00026073  0.75004371  0.21008067
   0.25145840  0.50000817  0.20963619
   0.49783042  0.50000236  0.31466324
   0.75016573  0.75217010  0.31474155
   0.50000000  0.75000000  0.00000000
   0.75000000  0.50000000  0.00000000
   0.50000000  0.50000000  0.10576000
   0.75000000  0.75000000  0.10576000
   0.50053555  0.74962233  0.21043930
   0.74855721  0.50160339  0.21063109
   0.25000000  0.25000000  0.00000000
   0.00000000  0.00000000  0.00000000
   0.24952010  0.00061138  0.31646937
   0.00051275  0.24962413  0.31650588
   0.25058618  0.24995355  0.21135954
   0.00015472  0.99955378  0.21136910
   0.25000000  0.00000000  0.10576000
   0.00000000  0.25000000  0.10576000
   0.75000000  0.25000000  0.00000000
   0.50000000  0.00000000  0.00000000
   0.75047248  0.99858140  0.31699104
   0.49959800  0.25089278  0.31664502
   0.75041497  0.25032815  0.21207507
   0.50013971  0.00036499  0.21092278
   0.75000000  0.00000000  0.10576000
   0.50000000  0.25000000  0.10576000
   0.25000000  0.75000000  0.00000000
   0.00000000  0.50000000  0.00000000
   0.25155663  0.49971881  0.31695213
   0.99929498  0.75056283  0.31665376
   0.24970525  0.74997888  0.21094363
   0.99980978  0.49977487  0.21207416
   0.25000000  0.50000000  0.10576000
   0.00000000  0.75000000  0.10576000
   0.75000000  0.75000000  0.00000000
   0.50000000  0.50000000  0.00000000
   0.75069786  0.50074859  0.36339191
   0.49391372  0.75609554  0.31408732
   0.75053661  0.75019350  0.21129762
   0.49996473  0.49963024  0.21121956
   0.75000000  0.50000000  0.10576000
   0.50000000  0.75000000  0.10576000
   0.68460346  0.56679355  0.41230309
Direct configuration=    12
   0.00145532  0.99910566  0.31259324
   0.25100996  0.24880304  0.31257913
   0.00000000  0.25000000  0.00000000
   0.25000000  0.00000000  0.00000000
   0.00000000  0.00000000  0.10576000
   0.25000000  0.25000000  0.10576000
   0.00040108  0.24977740  0.21002883
   0.24991074  0.00029180  0.20962065
   0.49877303  0.99979157  0.31219498
   0.75098546  0.24183296  0.31265806
   0.50000000  0.25000000  0.00000000
   0.75000000  0.00000000  0.00000000
   0.50000000  0.00000000  0.10576000
   0.75000000  0.25000000  0.10576000
   0.50017662  0.24992029  0.21007534
   0.75008659  0.99873385  0.20965687
   0.00818899  0.49920646  0.31265354
   0.25031237  0.75128933  0.31220114
   0.00000000  0.75000000  0.00000000
   0.25000000  0.50000000  0.00000000
   0.00000000  0.50000000  0.10576000
   0.25000000  0.75000000  0.10576000
   0.00025226  0.75003790  0.21008420
   0.25144325  0.50000959  0.20963390
   0.49769850  0.49999419  0.31469534
   0.75017324  0.75230456  0.31477323
   0.50000000  0.75000000  0.00000000
   0.75000000  0.50000000  0.00000000
   0.50000000  0.50000000  0.10576000
   0.75000000  0.75000000  0.10576000
   0.50053194  0.74962708  0.21043556
   0.74856838  0.50159478  0.21053316
   0.25000000  0.25000000  0.00000000
   0.00000000  0.00000000  0.00000000
   0.24951711  0.00061492  0.31647317
   0.00049189  0.24964440  0.31650368
   0.25058533  0.24995628  0.21136005
   0.00015166  0.99955458  0.21136951
   0.25000000  0.00000000  0.10576000
   0.00000000  0.25000000  0.10576000
   0.75000000  0.25000000  0.00000000
   0.50000000  0.00000000  0.00000000
   0.75046402  0.99857544  0.31698847
   0.49962161  0.25091418  0.31664652
   0.75041402  0.25035262  0.21207916
   0.50014146  0.00036225  0.21092578
   0.75000000  0.00000000  0.10576000
   0.50000000  0.25000000  0.10576000
   0.25000000  0.75000000  0.00000000
   0.00000000  0.50000000  0.00000000
   0.25156395  0.49972749  0.31694972
   0.99927478  0.75054134  0.31665505
   0.24970800  0.74997685  0.21094681
   0.99978509  0.49977559  0.21207807
   0.25000000  0.50000000  0.10576000
   0.00000000  0.75000000  0.10576000
   0.75000000  0.75000000  0.00000000
   0.50000000  0.50000000  0.00000000
   0.75058209  0.50087763  0.36366048
   0.49398460  0.75602487  0.31410961