 running on   20 total cores
 distrk:  each k-point on   20 cores,    1 groups
 distr:  one band on    1 cores,   20 groups
 using from now: INCAR     
 vasp.5.4.4.18Apr17-6-g9f103f2a35 (build Dec 11 2018 16:16:58) complex          
  
 POSCAR found type information on POSCAR  Ni S 
 POSCAR found :  2 types and      56 ions
 scaLAPACK will be used

 ----------------------------------------------------------------------------- 
|                                                                             |
|           W    W    AA    RRRRR   N    N  II  N    N   GGGG   !!!           |
|           W    W   A  A   R    R  NN   N  II  NN   N  G    G  !!!           |
|           W    W  A    A  R    R  N N  N  II  N N  N  G       !!!           |
|           W WW W  AAAAAA  RRRRR   N  N N  II  N  N N  G  GGG   !            |
|           WW  WW  A    A  R   R   N   NN  II  N   NN  G    G                |
|           W    W  A    A  R    R  N    N  II  N    N   GGGG   !!!           |
|                                                                             |
|      For optimal performance we recommend to set                            |
|        NCORE= 4 - approx SQRT( number of cores)                             |
|      NCORE specifies how many cores store one orbital (NPAR=cpu/NCORE).     |
|      This setting can  greatly improve the performance of VASP for DFT.     |
|      The default,   NCORE=1            might be grossly inefficient         |
|      on modern multi-core architectures or massively parallel machines.     |
|      Do your own testing !!!!                                               |
|      Unfortunately you need to use the default for GW and RPA calculations. |
|      (for HF NCORE is supported but not extensively tested yet)             |
|                                                                             |
 ----------------------------------------------------------------------------- 

 LDA part: xc-table for Pade appr. of Perdew
 POSCAR, INCAR and KPOINTS ok, starting setup
 FFT: planning ...
 WAVECAR not read
 entering main loop
       N       E                     dE             d eps       ncg     rms          rms(c)
DAV:   1     0.284003342436E+04    0.28400E+04   -0.16147E+05  1520   0.881E+02
DAV:   2    -0.143297769830E+03   -0.29833E+04   -0.28820E+04  1640   0.275E+02
DAV:   3    -0.303198467150E+03   -0.15990E+03   -0.15264E+03  1820   0.767E+01
DAV:   4    -0.307111357615E+03   -0.39129E+01   -0.38526E+01  1680   0.131E+01
DAV:   5    -0.307196628059E+03   -0.85270E-01   -0.85203E-01  1740   0.146E+00    0.544E+01
RMM:   6    -0.390070835635E+03   -0.82874E+02   -0.58691E+02  1636   0.652E+01    0.129E+02
RMM:   7    -0.330401265965E+03    0.59670E+02   -0.27561E+02  1648   0.425E+01    0.792E+01
RMM:   8    -0.293855576914E+03    0.36546E+02   -0.10527E+02  1556   0.266E+01    0.926E+01
RMM:   9    -0.266659523725E+03    0.27196E+02   -0.44857E+01  1576   0.180E+01    0.473E+01
RMM:  10    -0.266852243248E+03   -0.19272E+00   -0.56408E+00  1585   0.584E+00    0.639E+01
RMM:  11    -0.260739988531E+03    0.61123E+01   -0.53794E+00  1570   0.571E+00    0.428E+01
RMM:  12    -0.259276418669E+03    0.14636E+01   -0.35100E+00  1569   0.447E+00    0.389E+01
RMM:  13    -0.257040589742E+03    0.22358E+01   -0.27388E+00  1577   0.409E+00    0.310E+01
RMM:  14    -0.256070089387E+03    0.97050E+00   -0.10062E+00  1583   0.244E+00    0.264E+01
RMM:  15    -0.254674038496E+03    0.13961E+01   -0.95206E-01  1569   0.234E+00    0.165E+01
RMM:  16    -0.254298955845E+03    0.37508E+00   -0.64088E-01  1586   0.191E+00    0.110E+01
RMM:  17    -0.254886754838E+03   -0.58780E+00   -0.80073E-01  1577   0.215E+00    0.200E+01
RMM:  18    -0.254522424085E+03    0.36433E+00   -0.86389E-01  1563   0.226E+00    0.158E+01
RMM:  19    -0.254247678248E+03    0.27475E+00   -0.43885E-01  1602   0.168E+00    0.811E+00
RMM:  20    -0.254933360693E+03   -0.68568E+00   -0.56542E-01  1576   0.180E+00    0.137E+01
RMM:  21    -0.255378536046E+03   -0.44518E+00   -0.55522E-01  1550   0.173E+00    0.936E+00
RMM:  22    -0.255393979485E+03   -0.15443E-01   -0.22992E-01  1587   0.115E+00    0.592E+00
RMM:  23    -0.255762109779E+03   -0.36813E+00   -0.21383E-01  1580   0.102E+00    0.891E+00
RMM:  24    -0.256306988763E+03   -0.54488E+00   -0.18560E-01  1573   0.922E-01    0.678E+00
RMM:  25    -0.256299506455E+03    0.74823E-02   -0.54223E-02  1600   0.559E-01    0.468E+00
RMM:  26    -0.256406510828E+03   -0.10700E+00   -0.25871E-02  1592   0.376E-01    0.460E+00
RMM:  27    -0.256664095939E+03   -0.25759E+00   -0.17795E-02  1581   0.284E-01    0.464E+00
RMM:  28    -0.256861373580E+03   -0.19728E+00   -0.16390E-02  1589   0.293E-01    0.477E+00
RMM:  29    -0.257480017356E+03   -0.61864E+00   -0.77194E-02  1547   0.519E-01    0.552E+00
RMM:  30    -0.258190772269E+03   -0.71075E+00   -0.98342E-02  1536   0.569E-01    0.290E+00
RMM:  31    -0.258441396097E+03   -0.25062E+00   -0.38874E-02  1556   0.404E-01    0.305E+00
RMM:  32    -0.259223641343E+03   -0.78225E+00   -0.89901E-02  1532   0.433E-01    0.242E+00
RMM:  33    -0.259467027979E+03   -0.24339E+00   -0.24661E-02  1576   0.305E-01    0.151E+00
RMM:  34    -0.259869693615E+03   -0.40267E+00   -0.29443E-02  1553   0.285E-01    0.272E+00
RMM:  35    -0.260392078225E+03   -0.52238E+00   -0.43819E-02  1547   0.296E-01    0.158E+00
RMM:  36    -0.260578956427E+03   -0.18688E+00   -0.12543E-02  1595   0.202E-01    0.122E+00
RMM:  37    -0.261145661236E+03   -0.56670E+00   -0.53181E-02  1548   0.287E-01    0.186E+00
RMM:  38    -0.261470608466E+03   -0.32495E+00   -0.30601E-02  1572   0.245E-01    0.966E-01
RMM:  39    -0.261754396691E+03   -0.28379E+00   -0.26903E-02  1578   0.238E-01    0.157E+00
RMM:  40    -0.262034408150E+03   -0.28001E+00   -0.28437E-02  1563   0.227E-01    0.824E-01
RMM:  41    -0.262123993315E+03   -0.89585E-01   -0.63897E-03  1621   0.140E-01    0.845E-01
RMM:  42    -0.262298870170E+03   -0.17488E+00   -0.97541E-03  1572   0.133E-01    0.703E-01
RMM:  43    -0.262332366010E+03   -0.33496E-01   -0.17684E-03  1651   0.802E-02    0.571E-01
RMM:  44    -0.262418038580E+03   -0.85673E-01   -0.35678E-03  1579   0.896E-02    0.670E-01
RMM:  45    -0.262464432133E+03   -0.46394E-01   -0.21342E-03  1600   0.779E-02    0.359E-01
RMM:  46    -0.262495295552E+03   -0.30863E-01   -0.12816E-03  1606   0.619E-02    0.423E-01
RMM:  47    -0.262545292516E+03   -0.49997E-01   -0.26454E-03  1549   0.636E-02    0.211E-01
RMM:  48    -0.262554311230E+03   -0.90187E-02   -0.42910E-04  1641   0.340E-02    0.201E-01
RMM:  49    -0.262579026150E+03   -0.24715E-01   -0.15364E-03  1571   0.424E-02    0.161E-01
RMM:  50    -0.262583232956E+03   -0.42068E-02   -0.30012E-04  1644   0.290E-02    0.179E-01
RMM:  51    -0.262588234046E+03   -0.50011E-02   -0.40007E-04  1598   0.325E-02    0.127E-01
RMM:  52    -0.262589780940E+03   -0.15469E-02   -0.12008E-04  1639   0.221E-02    0.853E-02
RMM:  53    -0.262593855451E+03   -0.40745E-02   -0.29381E-04  1561   0.218E-02    0.119E-01
RMM:  54    -0.262595277333E+03   -0.14219E-02   -0.13036E-04  1595   0.182E-02    0.709E-02
RMM:  55    -0.262596780388E+03   -0.15031E-02   -0.11628E-04  1593   0.158E-02    0.987E-02
RMM:  56    -0.262597638156E+03   -0.85777E-03   -0.49916E-05  1623   0.135E-02    0.580E-02
RMM:  57    -0.262598613018E+03   -0.97486E-03   -0.71683E-05  1559   0.115E-02    0.644E-02
RMM:  58    -0.262599241207E+03   -0.62819E-03   -0.38591E-05  1592   0.905E-03    0.355E-02
RMM:  59    -0.262599690089E+03   -0.44888E-03   -0.11511E-05  1464   0.552E-03    0.323E-02
RMM:  60    -0.262600361281E+03   -0.67119E-03   -0.22935E-05  1524   0.689E-03    0.416E-02
RMM:  61    -0.262600683469E+03   -0.32219E-03   -0.12765E-05  1453   0.553E-03    0.174E-02
RMM:  62    -0.262600890720E+03   -0.20725E-03   -0.88131E-06  1378   0.521E-03    0.256E-02
RMM:  63    -0.262601198345E+03   -0.30763E-03   -0.13767E-05  1387   0.540E-03    0.199E-02
RMM:  64    -0.262601407274E+03   -0.20893E-03   -0.10850E-05  1283   0.425E-03    0.168E-02
RMM:  65    -0.262601476403E+03   -0.69129E-04   -0.43697E-06  1143   0.333E-03    0.141E-02
RMM:  66    -0.262601444864E+03    0.31539E-04   -0.23499E-06  1059   0.326E-03    0.153E-02
RMM:  67    -0.262601467706E+03   -0.22842E-04   -0.24931E-06  1069   0.308E-03    0.142E-02
RMM:  68    -0.262601560411E+03   -0.92705E-04   -0.28801E-06  1080   0.241E-03    0.806E-03
RMM:  69    -0.262601638827E+03   -0.78416E-04   -0.24071E-06  1061   0.219E-03    0.689E-03
RMM:  70    -0.262601653700E+03   -0.14873E-04   -0.43775E-07  1042   0.149E-03    0.419E-03
RMM:  71    -0.262601680350E+03   -0.26649E-04   -0.71239E-07   997   0.134E-03    0.658E-03
RMM:  72    -0.262601718077E+03   -0.37728E-04   -0.45437E-07   998   0.135E-03    0.415E-03
RMM:  73    -0.262601746912E+03   -0.28834E-04   -0.22694E-07   982   0.872E-04    0.401E-03
RMM:  74    -0.262601765359E+03   -0.18447E-04   -0.13872E-07   967   0.716E-04    0.302E-03
RMM:  75    -0.262601794777E+03   -0.29418E-04   -0.22853E-07   963   0.748E-04    0.316E-03
RMM:  76    -0.262601805439E+03   -0.10663E-04   -0.17089E-07   947   0.742E-04    0.264E-03
RMM:  77    -0.262601810171E+03   -0.47315E-05   -0.13679E-07   919   0.606E-04    0.212E-03
RMM:  78    -0.262601816265E+03   -0.60945E-05   -0.47212E-08   835   0.460E-04    0.155E-03
RMM:  79    -0.262601820724E+03   -0.44590E-05   -0.32298E-08   608   0.370E-04    0.108E-03
RMM:  80    -0.262601824377E+03   -0.36524E-05   -0.29137E-08   561   0.349E-04    0.988E-04
RMM:  81    -0.262601824853E+03   -0.47575E-06   -0.15011E-08   496   0.329E-04
   1 F= -.26260182E+03 E0= -.26226372E+03  d E =-.676201E+00  mag=    40.3621
