  56  56   0   0
  0.1428571E+03  0.2000000E-08  0.2000000E-08  0.2000000E-08  0.5000000E-15
  1.000000000000000E-004
  CAR 
 single                                  
      2.84486659    -17.81044758  301     -3.79306474      1.00000000
    -17.810  0.0000E+00  0.0000E+00  0.0000E+00  0.0000E+00
    -17.742  0.0000E+00  0.0000E+00  0.0000E+00  0.0000E+00
    -17.673  0.0000E+00  0.0000E+00  0.0000E+00  0.0000E+00
    -17.604  0.0000E+00  0.0000E+00  0.0000E+00  0.0000E+00
    -17.535  0.0000E+00  0.0000E+00  0.0000E+00  0.0000E+00
    -17.466  0.0000E+00  0.0000E+00  0.0000E+00  0.0000E+00
    -17.397  0.8062E-15  0.0000E+00  0.5551E-16  0.0000E+00
    -17.328  0.1718E-11  0.0000E+00  0.1183E-12  0.0000E+00
    -17.260  0.1536E-08  0.4031E-14  0.1059E-09  0.2776E-15
    -17.191  0.5429E-06  0.8022E-11  0.3749E-07  0.5526E-12
    -17.122  0.7623E-04  0.5872E-08  0.5286E-05  0.4048E-09
    -17.053  0.4283E-02  0.1700E-05  0.3002E-03  0.1175E-06
    -16.984  0.9718E-01  0.1959E-03  0.6991E-02  0.1361E-04
    -16.915  0.8992E+00  0.9049E-02  0.6890E-01  0.6367E-03
    -16.847  0.3428E+01  0.1691E+00  0.3049E+00  0.1228E-01
    -16.778  0.5425E+01  0.1292E+01  0.6785E+00  0.1012E+00
    -16.709  0.3576E+01  0.4075E+01  0.9247E+00  0.3818E+00
    -16.640  0.9788E+00  0.5341E+01  0.9920E+00  0.7495E+00
    -16.571  0.1104E+00  0.2915E+01  0.9996E+00  0.9502E+00
    -16.502  0.5084E-02  0.6598E+00  0.1000E+01  0.9956E+00
    -16.433  0.9453E-04  0.6144E-01  0.1000E+01  0.9998E+00
    -16.365  0.7038E-06  0.2329E-02  0.1000E+01  0.1000E+01
    -16.296  0.2083E-08  0.3559E-04  0.1000E+01  0.1000E+01
    -16.227  0.2438E-11  0.2174E-06  0.1000E+01  0.1000E+01
    -16.158  0.0000E+00  0.5271E-09  0.1000E+01  0.1000E+01
    -16.089  0.0000E+00  0.5047E-12  0.1000E+01  0.1000E+01
    -16.020  0.0000E+00  0.0000E+00  0.1000E+01  0.1000E+01
    -15.951  0.0000E+00  0.0000E+00  0.1000E+01  0.1000E+01
    -15.883  0.0000E+00  0.0000E+00  0.1000E+01  0.1000E+01
    -15.814  0.0000E+00  0.0000E+00  0.1000E+01  0.1000E+01
    -15.745  0.0000E+00  0.0000E+00  0.1000E+01  0.1000E+01
    -15.676  0.0000E+00  0.0000E+00  0.1000E+01  0.1000E+01
    -15.607  0.0000E+00  0.0000E+00  0.1000E+01  0.1000E+01
    -15.538  0.0000E+00  0.0000E+00  0.1000E+01  0.1000E+01
    -15.470  0.0000E+00  0.0000E+00  0.1000E+01  0.1000E+01
    -15.401  0.0000E+00  0.0000E+00  0.1000E+01  0.1000E+01
    -15.332  0.0000E+00  0.0000E+00  0.1000E+01  0.1000E+01
    -15.263  0.0000E+00  0.0000E+00  0.1000E+01  0.1000E+01
    -15.194  0.0000E+00  0.0000E+00  0.1000E+01  0.1000E+01
    -15.125  0.0000E+00  0.0000E+00  0.1000E+01  0.1000E+01
    -15.056  0.0000E+00  0.0000E+00  0.1000E+01  0.1000E+01
    -14.988  0.0000E+00  0.0000E+00  0.1000E+01  0.1000E+01
    -14.919  0.0000E+00  0.0000E+00  0.1000E+01  0.1000E+01
    -14.850  0.0000E+00  0.0000E+00  0.1000E+01  0.1000E+01
    -14.781  0.0000E+00  0.0000E+00  0.1000E+01  0.1000E+01
    -14.712  0.0000E+00  0.0000E+00  0.1000E+01  0.1000E+01
    -14.643  0.0000E+00  0.0000E+00  0.1000E+01  0.1000E+01
    -14.574  0.0000E+00  0.0000E+00  0.1000E+01  0.1000E+01
    -14.506  0.0000E+00  0.0000E+00  0.1000E+01  0.1000E+01
    -14.437  0.0000E+00  0.0000E+00  0.1000E+01  0.1000E+01
    -14.368  0.0000E+00  0.0000E+00  0.1000E+01  0.1000E+01
    -14.299  0.0000E+00  0.0000E+00  0.1000E+01  0.1000E+01
    -14.230  0.0000E+00  0.0000E+00  0.1000E+01  0.1000E+01
    -14.161  0.0000E+00  0.0000E+00  0.1000E+01  0.1000E+01
    -14.092  0.0000E+00  0.0000E+00  0.1000E+01  0.1000E+01
    -14.024  0.0000E+00  0.0000E+00  0.1000E+01  0.1000E+01
    -13.955  0.0000E+00  0.0000E+00  0.1000E+01  0.1000E+01
    -13.886  0.0000E+00  0.0000E+00  0.1000E+01  0.1000E+01
    -13.817  0.0000E+00  0.0000E+00  0.1000E+01  0.1000E+01
    -13.748  0.0000E+00  0.0000E+00  0.1000E+01  0.1000E+01
    -13.679  0.0000E+00  0.0000E+00  0.1000E+01  0.1000E+01
    -13.611  0.0000E+00  0.0000E+00  0.1000E+01  0.1000E+01
    -13.542  0.0000E+00  0.0000E+00  0.1000E+01  0.1000E+01
    -13.473  0.0000E+00  0.0000E+00  0.1000E+01  0.1000E+01
    -13.404  0.0000E+00  0.0000E+00  0.1000E+01  0.1000E+01
    -13.335  0.0000E+00  0.0000E+00  0.1000E+01  0.1000E+01
    -13.266  0.0000E+00  0.0000E+00  0.1000E+01  0.1000E+01
    -13.197  0.0000E+00  0.0000E+00  0.1000E+01  0.1000E+01
    -13.129  0.0000E+00  0.0000E+00  0.1000E+01  0.1000E+01
    -13.060  0.0000E+00  0.0000E+00  0.1000E+01  0.1000E+01
    -12.991  0.0000E+00  0.0000E+00  0.1000E+01  0.1000E+01
    -12.922  0.0000E+00  0.0000E+00  0.1000E+01  0.1000E+01
    -12.853  0.0000E+00  0.0000E+00  0.1000E+01  0.1000E+01
    -12.784  0.0000E+00  0.0000E+00  0.1000E+01  0.1000E+01
    -12.715  0.0000E+00  0.0000E+00  0.1000E+01  0.1000E+01
    -12.647  0.0000E+00  0.0000E+00  0.1000E+01  0.1000E+01
    -12.578  0.5644E-14  0.2419E-14  0.1000E+01  0.1000E+01
    -12.509  0.9696E-11  0.4135E-11  0.1000E+01  0.1000E+01
    -12.440  0.6922E-08  0.3302E-08  0.1000E+01  0.1000E+01
    -12.371  0.1955E-05  0.1042E-05  0.1000E+01  0.1000E+01
    -12.302  0.2198E-03  0.1308E-03  0.1000E+01  0.1000E+01
    -12.234  0.9907E-02  0.6578E-02  0.1001E+01  0.1000E+01
    -12.165  0.1807E+00  0.1337E+00  0.1013E+01  0.1010E+01
    -12.096  0.1348E+01  0.1110E+01  0.1106E+01  0.1086E+01
    -12.027  0.4152E+01  0.3799E+01  0.1392E+01  0.1348E+01
    -11.958  0.5315E+01  0.5404E+01  0.1758E+01  0.1720E+01
    -11.889  0.2833E+01  0.3201E+01  0.1953E+01  0.1940E+01
    -11.820  0.6263E+00  0.7867E+00  0.1996E+01  0.1994E+01
    -11.752  0.5693E-01  0.7962E-01  0.2000E+01  0.2000E+01
    -11.683  0.2106E-02  0.3284E-02  0.2000E+01  0.2000E+01
    -11.614  0.3141E-04  0.5464E-04  0.2000E+01  0.2000E+01
    -11.545  0.1871E-06  0.3636E-06  0.2000E+01  0.2000E+01
    -11.476  0.4426E-09  0.9611E-09  0.2000E+01  0.2000E+01
    -11.407  0.4128E-12  0.1003E-11  0.2000E+01  0.2000E+01
    -11.338  0.0000E+00  0.0000E+00  0.2000E+01  0.2000E+01
    -11.270  0.0000E+00  0.0000E+00  0.2000E+01  0.2000E+01
    -11.201  0.3144E-12  0.2217E-12  0.2000E+01  0.2000E+01
    -11.132  0.3779E-09  0.2803E-09  0.2000E+01  0.2000E+01
    -11.063  0.1802E-06  0.1396E-06  0.2000E+01  0.2000E+01
    -10.994  0.3421E-04  0.2760E-04  0.2000E+01  0.2000E+01
    -10.925  0.2609E-02  0.2187E-02  0.2000E+01  0.2000E+01
    -10.856  0.8092E-01  0.7032E-01  0.2006E+01  0.2005E+01
    -10.788  0.1040E+01  0.9337E+00  0.2077E+01  0.2069E+01
    -10.719  0.5669E+01  0.5252E+01  0.2468E+01  0.2431E+01
    -10.650  0.1349E+02  0.1295E+02  0.3396E+01  0.3322E+01
    -10.581  0.1443E+02  0.1454E+02  0.4390E+01  0.4324E+01
    -10.512  0.7087E+01  0.7677E+01  0.4878E+01  0.4852E+01
    -10.443  0.1602E+01  0.1916E+01  0.4988E+01  0.4984E+01
    -10.375  0.1633E+00  0.2202E+00  0.4999E+01  0.4999E+01
    -10.306  0.7271E-02  0.1114E-01  0.5000E+01  0.5000E+01
    -10.237  0.1365E-03  0.2385E-03  0.5000E+01  0.5000E+01
    -10.168  0.1053E-05  0.2094E-05  0.5000E+01  0.5000E+01
    -10.099  0.3276E-08  0.7404E-08  0.5000E+01  0.5000E+01
    -10.030  0.4059E-11  0.1041E-10  0.5000E+01  0.5000E+01
     -9.961  0.3959E-12  0.6450E-14  0.5000E+01  0.5000E+01
     -9.893  0.4766E-09  0.2749E-12  0.5000E+01  0.5000E+01
     -9.824  0.2307E-06  0.3543E-09  0.5000E+01  0.5000E+01
     -9.755  0.4496E-04  0.1816E-06  0.5000E+01  0.5000E+01
     -9.686  0.3562E-02  0.3728E-04  0.5000E+01  0.5000E+01
     -9.617  0.1161E+00  0.3091E-02  0.5008E+01  0.5000E+01
     -9.548  0.1580E+01  0.1047E+00  0.5117E+01  0.5007E+01
     -9.479  0.9129E+01  0.1471E+01  0.5746E+01  0.5109E+01
     -9.411  0.2282E+02  0.8718E+01  0.7317E+01  0.5709E+01
     -9.342  0.2573E+02  0.2221E+02  0.9088E+01  0.7238E+01
     -9.273  0.1553E+02  0.2481E+02  0.1016E+02  0.8947E+01
     -9.204  0.7879E+01  0.1273E+02  0.1070E+02  0.9823E+01
     -9.135  0.3460E+01  0.5028E+01  0.1094E+02  0.1017E+02
     -9.066  0.8114E+00  0.5325E+01  0.1099E+02  0.1054E+02
     -8.998  0.8218E-01  0.4659E+01  0.1100E+02  0.1086E+02
     -8.929  0.7060E-02  0.1778E+01  0.1100E+02  0.1098E+02
     -8.860  0.1043E+00  0.2814E+00  0.1101E+02  0.1100E+02
     -8.791  0.1244E+01  0.1825E-01  0.1109E+02  0.1100E+02
     -8.722  0.6374E+01  0.1370E-02  0.1153E+02  0.1100E+02
     -8.653  0.1482E+02  0.3467E-01  0.1255E+02  0.1100E+02
     -8.584  0.1793E+02  0.5544E+00  0.1379E+02  0.1104E+02
     -8.516  0.1755E+02  0.3733E+01  0.1500E+02  0.1130E+02
     -8.447  0.2503E+02  0.1101E+02  0.1672E+02  0.1206E+02
     -8.378  0.3310E+02  0.1531E+02  0.1900E+02  0.1311E+02
     -8.309  0.3061E+02  0.1213E+02  0.2111E+02  0.1394E+02
     -8.240  0.3027E+02  0.8476E+01  0.2319E+02  0.1453E+02
     -8.171  0.3112E+02  0.6826E+01  0.2533E+02  0.1500E+02
     -8.102  0.2310E+02  0.9927E+01  0.2692E+02  0.1568E+02
     -8.034  0.1871E+02  0.2509E+02  0.2821E+02  0.1741E+02
     -7.965  0.2964E+02  0.4571E+02  0.3025E+02  0.2056E+02
     -7.896  0.4409E+02  0.4666E+02  0.3329E+02  0.2377E+02
     -7.827  0.4001E+02  0.3009E+02  0.3604E+02  0.2584E+02
     -7.758  0.2714E+02  0.1499E+02  0.3791E+02  0.2687E+02
     -7.689  0.2258E+02  0.9332E+01  0.3947E+02  0.2752E+02
     -7.620  0.2669E+02  0.1078E+02  0.4130E+02  0.2826E+02
     -7.552  0.3888E+02  0.1213E+02  0.4398E+02  0.2909E+02
     -7.483  0.4605E+02  0.1538E+02  0.4715E+02  0.3015E+02
     -7.414  0.4619E+02  0.2251E+02  0.5033E+02  0.3170E+02
     -7.345  0.4699E+02  0.3365E+02  0.5357E+02  0.3402E+02
     -7.276  0.4259E+02  0.4140E+02  0.5650E+02  0.3687E+02
     -7.207  0.3318E+02  0.3159E+02  0.5878E+02  0.3905E+02
     -7.139  0.3129E+02  0.1865E+02  0.6094E+02  0.4033E+02
     -7.070  0.3210E+02  0.2293E+02  0.6315E+02  0.4191E+02
     -7.001  0.3005E+02  0.3588E+02  0.6522E+02  0.4438E+02
     -6.932  0.3066E+02  0.4614E+02  0.6733E+02  0.4755E+02
     -6.863  0.3582E+02  0.4946E+02  0.6979E+02  0.5096E+02
     -6.794  0.4015E+02  0.4656E+02  0.7256E+02  0.5417E+02
     -6.725  0.4176E+02  0.3933E+02  0.7543E+02  0.5687E+02
     -6.657  0.4335E+02  0.3041E+02  0.7842E+02  0.5897E+02
     -6.588  0.5083E+02  0.2771E+02  0.8192E+02  0.6088E+02
     -6.519  0.7692E+02  0.2865E+02  0.8721E+02  0.6285E+02
     -6.450  0.9558E+02  0.2739E+02  0.9379E+02  0.6474E+02
     -6.381  0.8707E+02  0.2019E+02  0.9979E+02  0.6613E+02
     -6.312  0.7400E+02  0.1482E+02  0.1049E+03  0.6715E+02
     -6.243  0.7260E+02  0.2421E+02  0.1099E+03  0.6881E+02
     -6.175  0.7445E+02  0.4325E+02  0.1150E+03  0.7179E+02
     -6.106  0.7339E+02  0.5068E+02  0.1201E+03  0.7528E+02
     -6.037  0.7113E+02  0.4759E+02  0.1250E+03  0.7856E+02
     -5.968  0.5564E+02  0.4598E+02  0.1288E+03  0.8172E+02
     -5.899  0.3786E+02  0.5986E+02  0.1314E+03  0.8584E+02
     -5.830  0.4860E+02  0.7538E+02  0.1347E+03  0.9103E+02
     -5.762  0.8425E+02  0.6204E+02  0.1405E+03  0.9531E+02
     -5.693  0.1017E+03  0.4579E+02  0.1475E+03  0.9846E+02
     -5.624  0.9868E+02  0.5710E+02  0.1543E+03  0.1024E+03
     -5.555  0.9945E+02  0.6985E+02  0.1612E+03  0.1072E+03
     -5.486  0.9217E+02  0.7397E+02  0.1675E+03  0.1123E+03
     -5.417  0.6979E+02  0.9020E+02  0.1723E+03  0.1185E+03
     -5.348  0.5752E+02  0.9426E+02  0.1763E+03  0.1250E+03
     -5.280  0.6331E+02  0.6229E+02  0.1807E+03  0.1293E+03
     -5.211  0.7776E+02  0.3821E+02  0.1860E+03  0.1319E+03
     -5.142  0.8190E+02  0.5097E+02  0.1917E+03  0.1354E+03
     -5.073  0.8291E+02  0.7680E+02  0.1974E+03  0.1407E+03
     -5.004  0.9501E+02  0.7871E+02  0.2039E+03  0.1461E+03
     -4.935  0.1089E+03  0.6876E+02  0.2114E+03  0.1509E+03
     -4.866  0.1134E+03  0.8758E+02  0.2192E+03  0.1569E+03
     -4.798  0.1172E+03  0.1138E+03  0.2273E+03  0.1647E+03
     -4.729  0.1304E+03  0.1034E+03  0.2363E+03  0.1718E+03
     -4.660  0.1516E+03  0.7996E+02  0.2467E+03  0.1774E+03
     -4.591  0.1797E+03  0.7528E+02  0.2591E+03  0.1825E+03
     -4.522  0.1737E+03  0.7301E+02  0.2710E+03  0.1876E+03
     -4.453  0.1311E+03  0.5668E+02  0.2801E+03  0.1915E+03
     -4.384  0.8859E+02  0.5405E+02  0.2862E+03  0.1952E+03
     -4.316  0.5674E+02  0.7826E+02  0.2901E+03  0.2006E+03
     -4.247  0.3132E+02  0.1080E+03  0.2922E+03  0.2080E+03
     -4.178  0.1453E+02  0.1137E+03  0.2932E+03  0.2158E+03
     -4.109  0.1066E+02  0.9909E+02  0.2940E+03  0.2227E+03
     -4.040  0.9873E+01  0.9938E+02  0.2946E+03  0.2295E+03
     -3.971  0.8935E+01  0.1156E+03  0.2952E+03  0.2375E+03
     -3.903  0.1424E+02  0.1164E+03  0.2962E+03  0.2455E+03
     -3.834  0.1899E+02  0.1105E+03  0.2975E+03  0.2531E+03
     -3.765  0.1440E+02  0.1203E+03  0.2985E+03  0.2614E+03
     -3.696  0.8941E+01  0.1364E+03  0.2991E+03  0.2708E+03
     -3.627  0.1105E+02  0.1215E+03  0.2999E+03  0.2791E+03
     -3.558  0.1588E+02  0.8262E+02  0.3010E+03  0.2848E+03
     -3.489  0.1584E+02  0.6288E+02  0.3021E+03  0.2891E+03
     -3.421  0.9785E+01  0.5115E+02  0.3028E+03  0.2927E+03
     -3.352  0.3096E+01  0.3631E+02  0.3030E+03  0.2952E+03
     -3.283  0.8729E+00  0.2701E+02  0.3030E+03  0.2970E+03
     -3.214  0.2433E+01  0.2071E+02  0.3032E+03  0.2985E+03
     -3.145  0.5777E+01  0.1742E+02  0.3036E+03  0.2997E+03
     -3.076  0.7778E+01  0.1834E+02  0.3041E+03  0.3009E+03
     -3.007  0.8998E+01  0.1694E+02  0.3048E+03  0.3021E+03
     -2.939  0.1123E+02  0.1006E+02  0.3055E+03  0.3028E+03
     -2.870  0.1200E+02  0.3819E+01  0.3064E+03  0.3030E+03
     -2.801  0.7788E+01  0.3923E+01  0.3069E+03  0.3033E+03
     -2.732  0.5052E+01  0.7243E+01  0.3072E+03  0.3038E+03
     -2.663  0.7820E+01  0.9609E+01  0.3078E+03  0.3045E+03
     -2.594  0.9489E+01  0.1191E+02  0.3084E+03  0.3053E+03
     -2.526  0.6416E+01  0.1339E+02  0.3089E+03  0.3062E+03
     -2.457  0.5123E+01  0.1106E+02  0.3092E+03  0.3070E+03
     -2.388  0.1409E+02  0.8955E+01  0.3102E+03  0.3076E+03
     -2.319  0.2712E+02  0.9516E+01  0.3121E+03  0.3082E+03
     -2.250  0.2758E+02  0.1120E+02  0.3140E+03  0.3090E+03
     -2.181  0.1817E+02  0.1381E+02  0.3152E+03  0.3100E+03
     -2.112  0.8609E+01  0.1557E+02  0.3158E+03  0.3110E+03
     -2.044  0.2507E+01  0.1958E+02  0.3160E+03  0.3124E+03
     -1.975  0.6260E+00  0.2319E+02  0.3160E+03  0.3140E+03
     -1.906  0.1743E+01  0.1774E+02  0.3161E+03  0.3152E+03
     -1.837  0.4590E+01  0.8656E+01  0.3165E+03  0.3158E+03
     -1.768  0.5111E+01  0.2651E+01  0.3168E+03  0.3160E+03
     -1.699  0.2675E+01  0.1269E+01  0.3170E+03  0.3161E+03
     -1.630  0.2891E+01  0.3424E+01  0.3172E+03  0.3163E+03
     -1.562  0.8068E+01  0.5450E+01  0.3177E+03  0.3167E+03
     -1.493  0.1329E+02  0.4001E+01  0.3187E+03  0.3170E+03
     -1.424  0.1754E+02  0.3680E+01  0.3199E+03  0.3172E+03
     -1.355  0.2239E+02  0.8116E+01  0.3214E+03  0.3178E+03
     -1.286  0.1791E+02  0.1134E+02  0.3226E+03  0.3185E+03
     -1.217  0.1158E+02  0.1169E+02  0.3234E+03  0.3194E+03
     -1.148  0.1470E+02  0.1706E+02  0.3245E+03  0.3205E+03
     -1.080  0.1851E+02  0.2061E+02  0.3257E+03  0.3219E+03
     -1.011  0.1721E+02  0.1423E+02  0.3269E+03  0.3229E+03
     -0.942  0.1544E+02  0.9767E+01  0.3280E+03  0.3236E+03
     -0.873  0.2039E+02  0.1327E+02  0.3294E+03  0.3245E+03
     -0.804  0.2948E+02  0.2012E+02  0.3314E+03  0.3259E+03
     -0.735  0.2985E+02  0.2413E+02  0.3335E+03  0.3276E+03
     -0.667  0.2245E+02  0.2862E+02  0.3350E+03  0.3295E+03
     -0.598  0.1483E+02  0.3474E+02  0.3360E+03  0.3319E+03
     -0.529  0.9089E+01  0.2939E+02  0.3367E+03  0.3339E+03
     -0.460  0.3995E+01  0.1722E+02  0.3369E+03  0.3351E+03
     -0.391  0.9174E+00  0.1260E+02  0.3370E+03  0.3360E+03
     -0.322  0.9383E-01  0.9757E+01  0.3370E+03  0.3367E+03
     -0.253  0.4034E-02  0.4039E+01  0.3370E+03  0.3369E+03
     -0.185  0.1566E-02  0.7413E+00  0.3370E+03  0.3370E+03
     -0.116  0.4483E-01  0.5808E-01  0.3370E+03  0.3370E+03
     -0.047  0.5679E+00  0.2749E-02  0.3370E+03  0.3370E+03
      0.022  0.3302E+01  0.2840E-01  0.3373E+03  0.3370E+03
      0.091  0.1040E+02  0.3896E+00  0.3380E+03  0.3370E+03
      0.160  0.2102E+02  0.2276E+01  0.3394E+03  0.3372E+03
      0.229  0.2731E+02  0.6485E+01  0.3413E+03  0.3376E+03
      0.297  0.2243E+02  0.1313E+02  0.3429E+03  0.3385E+03
      0.366  0.1523E+02  0.2415E+02  0.3439E+03  0.3402E+03
      0.435  0.1324E+02  0.3038E+02  0.3448E+03  0.3423E+03
      0.504  0.1198E+02  0.2389E+02  0.3456E+03  0.3439E+03
      0.573  0.8910E+01  0.1699E+02  0.3463E+03  0.3451E+03
      0.642  0.6616E+01  0.1305E+02  0.3467E+03  0.3460E+03
      0.710  0.4268E+01  0.8844E+01  0.3470E+03  0.3466E+03
      0.779  0.5870E+01  0.5283E+01  0.3474E+03  0.3470E+03
      0.848  0.1389E+02  0.6581E+01  0.3484E+03  0.3474E+03
      0.917  0.2194E+02  0.1602E+02  0.3499E+03  0.3485E+03
      0.986  0.2647E+02  0.2638E+02  0.3517E+03  0.3503E+03
      1.055  0.2880E+02  0.2778E+02  0.3537E+03  0.3523E+03
      1.124  0.3216E+02  0.2421E+02  0.3559E+03  0.3539E+03
      1.192  0.4115E+02  0.3045E+02  0.3587E+03  0.3560E+03
      1.261  0.4692E+02  0.4475E+02  0.3620E+03  0.3591E+03
      1.330  0.3815E+02  0.4695E+02  0.3646E+03  0.3623E+03
      1.399  0.2924E+02  0.3690E+02  0.3666E+03  0.3649E+03
      1.468  0.3040E+02  0.3370E+02  0.3687E+03  0.3672E+03
      1.537  0.3255E+02  0.3541E+02  0.3709E+03  0.3696E+03
      1.606  0.3359E+02  0.3426E+02  0.3732E+03  0.3720E+03
      1.674  0.3533E+02  0.3291E+02  0.3757E+03  0.3743E+03
      1.743  0.3327E+02  0.3107E+02  0.3780E+03  0.3764E+03
      1.812  0.2117E+02  0.2665E+02  0.3794E+03  0.3782E+03
      1.881  0.7120E+01  0.1739E+02  0.3799E+03  0.3794E+03
      1.950  0.1113E+01  0.6766E+01  0.3800E+03  0.3799E+03
      2.019  0.7588E-01  0.1333E+01  0.3800E+03  0.3800E+03
      2.088  0.2183E-02  0.1217E+00  0.3800E+03  0.3800E+03
      2.156  0.2592E-04  0.4860E-02  0.3800E+03  0.3800E+03
      2.225  0.1252E-06  0.8178E-04  0.3800E+03  0.3800E+03
      2.294  0.2431E-09  0.5644E-06  0.3800E+03  0.3800E+03
      2.363  0.1870E-12  0.1570E-08  0.3800E+03  0.3800E+03
      2.432  0.0000E+00  0.1740E-11  0.3800E+03  0.3800E+03
      2.501  0.0000E+00  0.0000E+00  0.3800E+03  0.3800E+03
      2.569  0.0000E+00  0.0000E+00  0.3800E+03  0.3800E+03
      2.638  0.0000E+00  0.0000E+00  0.3800E+03  0.3800E+03
      2.707  0.0000E+00  0.0000E+00  0.3800E+03  0.3800E+03
      2.776  0.0000E+00  0.0000E+00  0.3800E+03  0.3800E+03
      2.845  0.0000E+00  0.0000E+00  0.3800E+03  0.3800E+03
