   56   56    1    2
  0.1428571E+03  0.2000000E-08  0.2000000E-08  0.2000000E-08  0.5000000E-15
  1.000000000000000E-004
  CAR 
 single                                  
    556      1    380
 
  0.0000000E+00  0.0000000E+00  0.0000000E+00  0.1000000E+01
    1      -16.810448    -16.687559   1.000000   1.000000
    2      -12.007540    -11.999268   1.000000   1.000000
    3      -10.662448    -10.658005   1.000000   1.000000
    4      -10.657890    -10.656618   1.000000   1.000000
    5      -10.609036    -10.599848   1.000000   1.000000
    6       -9.425685     -9.350960   1.000000   1.000000
    7       -9.417191     -9.348720   1.000000   1.000000
    8       -9.401874     -9.333096   1.000000   1.000000
    9       -9.400500     -9.331476   1.000000   1.000000
   10       -9.371987     -9.294921   1.000000   1.000000
   11       -9.244490     -9.072931   1.000000   1.000000
   12       -8.673575     -8.441697   1.000000   1.000000
   13       -8.664604     -8.435320   1.000000   1.000000
   14       -8.618675     -8.372036   1.000000   1.000000
   15       -8.543709     -8.248921   1.000000   1.000000
   16       -8.432835     -8.085658   1.000000   1.000000
   17       -8.423236     -8.000055   1.000000   1.000000
   18       -8.415728     -7.980225   1.000000   1.000000
   19       -8.414069     -7.977066   1.000000   1.000000
   20       -8.409245     -7.974297   1.000000   1.000000
   21       -8.334523     -7.971987   1.000000   1.000000
   22       -8.285832     -7.969153   1.000000   1.000000
   23       -8.239387     -7.965669   1.000000   1.000000
   24       -8.216578     -7.951718   1.000000   1.000000
   25       -8.210621     -7.874629   1.000000   1.000000
   26       -8.179520     -7.852513   1.000000   1.000000
   27       -8.171335     -7.844745   1.000000   1.000000
   28       -8.062528     -7.674717   1.000000   1.000000
   29       -7.989980     -7.607205   1.000000   1.000000
   30       -7.937465     -7.500693   1.000000   1.000000
   31       -7.934049     -7.448621   1.000000   1.000000
   32       -7.917831     -7.426773   1.000000   1.000000
   33       -7.910934     -7.332472   1.000000   1.000000
   34       -7.906412     -7.332290   1.000000   1.000000
   35       -7.904053     -7.329976   1.000000   1.000000
   36       -7.865894     -7.317358   1.000000   1.000000
   37       -7.853443     -7.302550   1.000000   1.000000
   38       -7.759057     -7.278181   1.000000   1.000000
   39       -7.733713     -7.255643   1.000000   1.000000
   40       -7.708896     -7.235121   1.000000   1.000000
   41       -7.589788     -7.062238   1.000000   1.000000
   42       -7.587873     -7.057138   1.000000   1.000000
   43       -7.587205     -7.056245   1.000000   1.000000
   44       -7.571629     -7.051481   1.000000   1.000000
   45       -7.533178     -6.956962   1.000000   1.000000
   46       -7.509127     -6.951098   1.000000   1.000000
   47       -7.505674     -6.945314   1.000000   1.000000
   48       -7.498094     -6.943164   1.000000   1.000000
   49       -7.441479     -6.919428   1.000000   1.000000
   50       -7.433214     -6.911543   1.000000   1.000000
   51       -7.399703     -6.883627   1.000000   1.000000
   52       -7.396770     -6.855666   1.000000   1.000000
   53       -7.354473     -6.806947   1.000000   1.000000
   54       -7.342975     -6.804812   1.000000   1.000000
   55       -7.326775     -6.791121   1.000000   1.000000
   56       -7.308474     -6.778413   1.000000   1.000000
   57       -7.298535     -6.767630   1.000000   1.000000
   58       -7.292617     -6.732297   1.000000   1.000000
   59       -7.189492     -6.642085   1.000000   1.000000
   60       -7.179517     -6.635076   1.000000   1.000000
   61       -7.159501     -6.633592   1.000000   1.000000
   62       -7.101876     -6.534680   1.000000   1.000000
   63       -7.098005     -6.531794   1.000000   1.000000
   64       -7.086235     -6.511521   1.000000   1.000000
   65       -7.012647     -6.457940   1.000000   1.000000
   66       -6.992509     -6.448399   1.000000   1.000000
   67       -6.964697     -6.374275   1.000000   1.000000
   68       -6.898759     -6.222583   1.000000   1.000000
   69       -6.890516     -6.210592   1.000000   1.000000
   70       -6.874578     -6.207780   1.000000   1.000000
   71       -6.838167     -6.202489   1.000000   1.000000
   72       -6.811644     -6.186532   1.000000   1.000000
   73       -6.802924     -6.171358   1.000000   1.000000
   74       -6.794219     -6.158214   1.000000   1.000000
   75       -6.723805     -6.122729   1.000000   1.000000
   76       -6.701227     -6.083246   1.000000   1.000000
   77       -6.698002     -6.075676   1.000000   1.000000
   78       -6.688545     -6.075026   1.000000   1.000000
   79       -6.669528     -6.045117   1.000000   1.000000
   80       -6.660564     -6.038530   1.000000   1.000000
   81       -6.554926     -5.986902   1.000000   1.000000
   82       -6.549357     -5.977378   1.000000   1.000000
   83       -6.544622     -5.905647   1.000000   1.000000
   84       -6.541802     -5.895329   1.000000   1.000000
   85       -6.537995     -5.887884   1.000000   1.000000
   86       -6.525671     -5.883906   1.000000   1.000000
   87       -6.517407     -5.883238   1.000000   1.000000
   88       -6.512374     -5.873777   1.000000   1.000000
   89       -6.504294     -5.870938   1.000000   1.000000
   90       -6.501887     -5.853485   1.000000   1.000000
   91       -6.481103     -5.841720   1.000000   1.000000
   92       -6.479561     -5.834892   1.000000   1.000000
   93       -6.473461     -5.833039   1.000000   1.000000
   94       -6.464034     -5.821382   1.000000   1.000000
   95       -6.455334     -5.813437   1.000000   1.000000
   96       -6.445630     -5.790535   1.000000   1.000000
   97       -6.432354     -5.770604   1.000000   1.000000
   98       -6.401814     -5.677367   1.000000   1.000000
   99       -6.400622     -5.645500   1.000000   1.000000
  100       -6.393669     -5.644234   1.000000   1.000000
  101       -6.390703     -5.633867   1.000000   1.000000
  102       -6.380829     -5.624942   1.000000   1.000000
  103       -6.346187     -5.616313   1.000000   1.000000
  104       -6.320959     -5.614388   1.000000   1.000000
  105       -6.315168     -5.596046   1.000000   1.000000
  106       -6.313683     -5.595301   1.000000   1.000000
  107       -6.291996     -5.590255   1.000000   1.000000
  108       -6.256087     -5.544991   1.000000   1.000000
  109       -6.249316     -5.531257   1.000000   1.000000
  110       -6.238343     -5.530131   1.000000   1.000000
  111       -6.231016     -5.518669   1.000000   1.000000
  112       -6.216876     -5.486281   1.000000   1.000000
  113       -6.213914     -5.455413   1.000000   1.000000
  114       -6.210269     -5.447906   1.000000   1.000000
  115       -6.192953     -5.430543   1.000000   1.000000
  116       -6.189964     -5.429121   1.000000   1.000000
  117       -6.157255     -5.425798   1.000000   1.000000
  118       -6.130164     -5.411580   1.000000   1.000000
  119       -6.123893     -5.405345   1.000000   1.000000
  120       -6.091695     -5.401018   1.000000   1.000000
  121       -6.083510     -5.392546   1.000000   1.000000
  122       -6.078709     -5.388711   1.000000   1.000000
  123       -6.077121     -5.384932   1.000000   1.000000
  124       -6.070450     -5.383663   1.000000   1.000000
  125       -6.055093     -5.371229   1.000000   1.000000
  126       -6.045136     -5.369751   1.000000   1.000000
  127       -6.035136     -5.362143   1.000000   1.000000
  128       -6.005077     -5.351104   1.000000   1.000000
  129       -5.992809     -5.345081   1.000000   1.000000
  130       -5.991759     -5.338537   1.000000   1.000000
  131       -5.949850     -5.238173   1.000000   1.000000
  132       -5.879756     -5.212989   1.000000   1.000000
  133       -5.806708     -5.153484   1.000000   1.000000
  134       -5.806019     -5.152872   1.000000   1.000000
  135       -5.791041     -5.122203   1.000000   1.000000
  136       -5.788076     -5.109573   1.000000   1.000000
  137       -5.779239     -5.109019   1.000000   1.000000
  138       -5.775095     -5.094225   1.000000   1.000000
  139       -5.772554     -5.091768   1.000000   1.000000
  140       -5.768940     -5.086208   1.000000   1.000000
  141       -5.767998     -5.078673   1.000000   1.000000
  142       -5.765005     -5.063709   1.000000   1.000000
  143       -5.756382     -5.061528   1.000000   1.000000
  144       -5.745474     -5.055545   1.000000   1.000000
  145       -5.743183     -5.045799   1.000000   1.000000
  146       -5.710104     -5.040222   1.000000   1.000000
  147       -5.699510     -5.018446   1.000000   1.000000
  148       -5.698607     -5.005073   1.000000   1.000000
  149       -5.693608     -4.983725   1.000000   1.000000
  150       -5.685717     -4.952441   1.000000   1.000000
  151       -5.653133     -4.903305   1.000000   1.000000
  152       -5.652697     -4.895523   1.000000   1.000000
  153       -5.646386     -4.891481   1.000000   1.000000
  154       -5.633902     -4.877550   1.000000   1.000000
  155       -5.617475     -4.871367   1.000000   1.000000
  156       -5.607708     -4.857215   1.000000   1.000000
  157       -5.606710     -4.844823   1.000000   1.000000
  158       -5.587546     -4.843286   1.000000   1.000000
  159       -5.570316     -4.833018   1.000000   1.000000
  160       -5.553846     -4.831852   1.000000   1.000000
  161       -5.546256     -4.823346   1.000000   1.000000
  162       -5.538093     -4.817880   1.000000   1.000000
  163       -5.535657     -4.815330   1.000000   1.000000
  164       -5.532724     -4.810491   1.000000   1.000000
  165       -5.528223     -4.809794   1.000000   1.000000
  166       -5.525324     -4.805561   1.000000   1.000000
  167       -5.524037     -4.803651   1.000000   1.000000
  168       -5.517614     -4.795753   1.000000   1.000000
  169       -5.507746     -4.793728   1.000000   1.000000
  170       -5.505501     -4.787604   1.000000   1.000000
  171       -5.455530     -4.775142   1.000000   1.000000
  172       -5.425807     -4.744077   1.000000   1.000000
  173       -5.418581     -4.723963   1.000000   1.000000
  174       -5.400286     -4.711057   1.000000   1.000000
  175       -5.377512     -4.702021   1.000000   1.000000
  176       -5.354293     -4.683602   1.000000   1.000000
  177       -5.349370     -4.681490   1.000000   1.000000
  178       -5.334975     -4.665613   1.000000   1.000000
  179       -5.310522     -4.662606   1.000000   1.000000
  180       -5.264746     -4.603567   1.000000   1.000000
  181       -5.241692     -4.589949   1.000000   1.000000
  182       -5.239234     -4.583403   1.000000   1.000000
  183       -5.238580     -4.582059   1.000000   1.000000
  184       -5.236340     -4.574343   1.000000   1.000000
  185       -5.235589     -4.569422   1.000000   1.000000
  186       -5.222818     -4.554878   1.000000   1.000000
  187       -5.219567     -4.553204   1.000000   1.000000
  188       -5.208452     -4.547793   1.000000   1.000000
  189       -5.193685     -4.540944   1.000000   1.000000
  190       -5.184451     -4.531146   1.000000   1.000000
  191       -5.156835     -4.503850   1.000000   1.000000
  192       -5.140244     -4.425581   1.000000   1.000000
  193       -5.128632     -4.424839   1.000000   1.000000
  194       -5.125045     -4.403850   1.000000   1.000000
  195       -5.100077     -4.387150   1.000000   1.000000
  196       -5.083578     -4.359480   1.000000   1.000000
  197       -5.067495     -4.348150   1.000000   1.000000
  198       -5.061520     -4.325660   1.000000   1.000000
  199       -5.059234     -4.316668   1.000000   1.000000
  200       -5.037543     -4.295914   1.000000   1.000000
  201       -5.028758     -4.292579   1.000000   1.000000
  202       -5.016994     -4.290983   1.000000   1.000000
  203       -5.016002     -4.283802   1.000000   1.000000
  204       -5.010777     -4.279355   1.000000   1.000000
  205       -5.000586     -4.269263   1.000000   1.000000
  206       -4.993103     -4.267605   1.000000   1.000000
  207       -4.958569     -4.260578   1.000000   1.000000
  208       -4.956174     -4.257096   1.000000   1.000000
  209       -4.949561     -4.246545   1.000000   1.000000
  210       -4.946724     -4.239940   1.000000   1.000000
  211       -4.936475     -4.237187   1.000000   1.000000
  212       -4.929747     -4.213904   1.000000   1.000000
  213       -4.929433     -4.213645   1.000000   1.000000
  214       -4.925653     -4.201540   1.000000   1.000000
  215       -4.915908     -4.179871   1.000000   1.000000
  216       -4.902453     -4.179555   1.000000   1.000000
  217       -4.895651     -4.176882   1.000000   1.000000
  218       -4.887078     -4.172425   1.000000   1.000000
  219       -4.879117     -4.170232   1.000000   1.000000
  220       -4.878721     -4.167281   1.000000   1.000000
  221       -4.865400     -4.162063   1.000000   1.000000
  222       -4.859780     -4.158285   1.000000   1.000000
  223       -4.819055     -4.098619   1.000000   0.999992
  224       -4.815823     -4.078833   1.000000   0.999973
  225       -4.795476     -4.076129   1.000000   0.999969
  226       -4.783278     -4.066441   1.000000   0.999945
  227       -4.782426     -4.046503   1.000000   0.999831
  228       -4.775876     -4.046236   1.000000   0.999828
  229       -4.773719     -4.042311   1.000000   0.999788
  230       -4.772848     -4.033102   1.000000   0.999656
  231       -4.770234     -4.026239   1.000000   0.999512
  232       -4.769391     -4.017119   1.000000   0.999234
  233       -4.768663     -4.002993   1.000000   0.998505
  234       -4.764109     -3.993809   1.000000   0.997737
  235       -4.759236     -3.992915   1.000000   0.997646
  236       -4.757305     -3.976068   1.000000   0.995174
  237       -4.726379     -3.975084   1.000000   0.994975
  238       -4.724528     -3.968110   1.000000   0.993348
  239       -4.712396     -3.967471   1.000000   0.993178
  240       -4.699261     -3.959506   1.000000   0.990710
  241       -4.680175     -3.955282   1.000000   0.989107
  242       -4.678139     -3.950885   1.000000   0.987190
  243       -4.659229     -3.945587   1.000000   0.984497
  244       -4.652739     -3.931507   1.000000   0.974878
  245       -4.652585     -3.926530   1.000000   0.970452
  246       -4.648596     -3.916626   1.000000   0.959718
  247       -4.648344     -3.906758   1.000000   0.946068
  248       -4.643470     -3.893618   1.000000   0.922493
  249       -4.643347     -3.859358   1.000000   0.825758
  250       -4.639365     -3.851145   1.000000   0.794285
  251       -4.637277     -3.839299   1.000000   0.743398
  252       -4.625935     -3.838779   1.000000   0.741023
  253       -4.618396     -3.828727   1.000000   0.692987
  254       -4.614194     -3.825348   1.000000   0.676006
  255       -4.604030     -3.821748   1.000000   0.657495
  256       -4.602928     -3.812399   1.000000   0.607736
  257       -4.599171     -3.808559   1.000000   0.586720
  258       -4.595523     -3.799425   1.000000   0.535837
  259       -4.589131     -3.794817   1.000000   0.509885
  260       -4.585002     -3.786242   1.000000   0.461564
  261       -4.582112     -3.755459   1.000000   0.297425
  262       -4.578928     -3.750111   1.000000   0.271772
  263       -4.578007     -3.739707   1.000000   0.225246
  264       -4.571830     -3.731265   1.000000   0.191065
  265       -4.571393     -3.722743   1.000000   0.159989
  266       -4.567280     -3.718790   1.000000   0.146767
  267       -4.563962     -3.702926   1.000000   0.101198
  268       -4.563278     -3.696404   1.000000   0.085814
  269       -4.557330     -3.695805   1.000000   0.084495
  270       -4.546256     -3.695160   1.000000   0.083090
  271       -4.545931     -3.693149   1.000000   0.078824
  272       -4.544587     -3.688341   1.000000   0.069301
  273       -4.539745     -3.687494   1.000000   0.067720
  274       -4.537390     -3.681414   1.000000   0.057170
  275       -4.533794     -3.680504   1.000000   0.055710
  276       -4.492008     -3.680337   1.000000   0.055445
  277       -4.478702     -3.677171   1.000000   0.050608
  278       -4.467511     -3.676181   1.000000   0.049166
  279       -4.465710     -3.673363   1.000000   0.045243
  280       -4.460973     -3.671358   1.000000   0.042607
  281       -4.459850     -3.670480   1.000000   0.041494
  282       -4.455091     -3.659730   1.000000   0.029672
  283       -4.454235     -3.574737   1.000000   0.001009
  284       -4.444473     -3.562709   1.000000   0.000562
  285       -4.438195     -3.562339   1.000000   0.000551
  286       -4.431076     -3.555790   1.000000   0.000396
  287       -4.400183     -3.552155   1.000000   0.000328
  288       -4.356758     -3.514780   1.000000   0.000042
  289       -4.340101     -3.508603   1.000000   0.000029
  290       -4.335423     -3.470482   1.000000   0.000003
  291       -4.334257     -3.464095   1.000000   0.000002
  292       -4.329914     -3.460617   1.000000   0.000001
  293       -4.277203     -3.456577   1.000000   0.000001
  294       -4.139172     -3.433422   1.000000   0.000000
  295       -4.070995     -3.391360   0.999958   0.000000
  296       -3.899450     -3.315818   0.933775   0.000000
  297       -3.882312     -3.310016   0.896552   0.000000
  298       -3.867008     -3.298657   0.852152   0.000000
  299       -3.790881     -3.219825   0.487679   0.000000
  300       -3.621208     -3.133805   0.007541   0.000000
  301       -3.602074     -3.108892   0.003456   0.000000
  302       -3.507371     -3.028168   0.000027   0.000000
  303       -3.502155     -3.021350   0.000019   0.000000
  304       -3.153180     -2.761147   0.000000   0.000000
  305       -3.029714     -2.653845   0.000000   0.000000
  306       -2.916862     -2.558733   0.000000   0.000000
  307       -2.890044     -2.530950   0.000000   0.000000
  308       -2.677269     -2.392585   0.000000   0.000000
  309       -2.602719     -2.290264   0.000000   0.000000
  310       -2.350585     -2.179381   0.000000   0.000000
  311       -2.346509     -2.178670   0.000000   0.000000
  312       -2.344520     -2.036288   0.000000   0.000000
  313       -2.341400     -2.032417   0.000000   0.000000
  314       -2.280683     -2.017662   0.000000   0.000000
  315       -2.244874     -1.972896   0.000000   0.000000
  316       -2.183698     -1.905466   0.000000   0.000000
  317       -1.828810     -1.593690   0.000000   0.000000
  318       -1.549674     -1.352338   0.000000   0.000000
  319       -1.522862     -1.312632   0.000000   0.000000
  320       -1.397294     -1.171452   0.000000   0.000000
  321       -1.380837     -1.126748   0.000000   0.000000
  322       -1.365376     -1.106409   0.000000   0.000000
  323       -1.352636     -1.101374   0.000000   0.000000
  324       -1.185106     -0.941078   0.000000   0.000000
  325       -1.122549     -0.835211   0.000000   0.000000
  326       -1.118811     -0.822767   0.000000   0.000000
  327       -1.033421     -0.784776   0.000000   0.000000
  328       -0.987866     -0.745385   0.000000   0.000000
  329       -0.858982     -0.664264   0.000000   0.000000
  330       -0.856937     -0.656685   0.000000   0.000000
  331       -0.825966     -0.631225   0.000000   0.000000
  332       -0.821764     -0.604311   0.000000   0.000000
  333       -0.773219     -0.590468   0.000000   0.000000
  334       -0.743038     -0.582530   0.000000   0.000000
  335       -0.714247     -0.542612   0.000000   0.000000
  336       -0.651913     -0.409729   0.000000   0.000000
  337       -0.566279     -0.375924   0.000000   0.000000
  338        0.077806      0.225415   0.000000   0.000000
  339        0.153061      0.334807   0.000000   0.000000
  340        0.185599      0.367791   0.000000   0.000000
  341        0.192489      0.392916   0.000000   0.000000
  342        0.208983      0.399244   0.000000   0.000000
  343        0.255028      0.411504   0.000000   0.000000
  344        0.325879      0.449618   0.000000   0.000000
  345        0.426653      0.555330   0.000000   0.000000
  346        0.466232      0.569812   0.000000   0.000000
  347        0.601489      0.684253   0.000000   0.000000
  348        0.826165      0.902475   0.000000   0.000000
  349        0.869672      0.921388   0.000000   0.000000
  350        0.893407      0.979939   0.000000   0.000000
  351        0.955781      0.992745   0.000000   0.000000
  352        0.992866      1.007017   0.000000   0.000000
  353        1.001071      1.039871   0.000000   0.000000
  354        1.042116      1.108149   0.000000   0.000000
  355        1.095960      1.168120   0.000000   0.000000
  356        1.120669      1.215293   0.000000   0.000000
  357        1.145041      1.225716   0.000000   0.000000
  358        1.192050      1.241322   0.000000   0.000000
  359        1.205583      1.249924   0.000000   0.000000
  360        1.216946      1.268970   0.000000   0.000000
  361        1.234322      1.283320   0.000000   0.000000
  362        1.241021      1.301549   0.000000   0.000000
  363        1.247559      1.312455   0.000000   0.000000
  364        1.272574      1.318806   0.000000   0.000000
  365        1.293562      1.395075   0.000000   0.000000
  366        1.371688      1.422639   0.000000   0.000000
  367        1.402607      1.461190   0.000000   0.000000
  368        1.442356      1.492838   0.000000   0.000000
  369        1.461911      1.494776   0.000000   0.000000
  370        1.487783      1.513079   0.000000   0.000000
  371        1.516408      1.563571   0.000000   0.000000
  372        1.566082      1.589915   0.000000   0.000000
  373        1.586376      1.626587   0.000000   0.000000
  374        1.607752      1.645809   0.000000   0.000000
  375        1.645764      1.679986   0.000000   0.000000
  376        1.673594      1.709123   0.000000   0.000000
  377        1.702108      1.740645   0.000000   0.000000
  378        1.728253      1.786966   0.000000   0.000000
  379        1.740541      1.803127   0.000000   0.000000
  380        1.752942      1.844867   0.000000   0.000000
