 vasp.5.4.4.18Apr17-6-g9f103f2a35 (build Dec 11 2018 16:16:58) complex          
  
 executed on             LinuxIFC date 2020.07.24  00:48:15
 running on   20 total cores
 distrk:  each k-point on   20 cores,    1 groups
 distr:  one band on NCORES_PER_BAND=   1 cores,   20 groups


--------------------------------------------------------------------------------------------------------


 INCAR:
 POTCAR:   PAW_PBE Ni 06Sep2000                   
 POTCAR:    PAW_PBE S 17Jan2003                   

 ----------------------------------------------------------------------------- 
|                                                                             |
|           W    W    AA    RRRRR   N    N  II  N    N   GGGG   !!!           |
|           W    W   A  A   R    R  NN   N  II  NN   N  G    G  !!!           |
|           W    W  A    A  R    R  N N  N  II  N N  N  G       !!!           |
|           W WW W  AAAAAA  RRRRR   N  N N  II  N  N N  G  GGG   !            |
|           WW  WW  A    A  R   R   N   NN  II  N   NN  G    G                |
|           W    W  A    A  R    R  N    N  II  N    N   GGGG   !!!           |
|                                                                             |
|      For optimal performance we recommend to set                            |
|        NCORE= 4 - approx SQRT( number of cores)                             |
|      NCORE specifies how many cores store one orbital (NPAR=cpu/NCORE).     |
|      This setting can  greatly improve the performance of VASP for DFT.     |
|      The default,   NCORE=1            might be grossly inefficient         |
|      on modern multi-core architectures or massively parallel machines.     |
|      Do your own testing !!!!                                               |
|      Unfortunately you need to use the default for GW and RPA calculations. |
|      (for HF NCORE is supported but not extensively tested yet)             |
|                                                                             |
 ----------------------------------------------------------------------------- 

 POTCAR:   PAW_PBE Ni 06Sep2000                   
  local pseudopotential read in
  partial core-charges read in
  atomic valenz-charges read in
  non local Contribution for L=           2  read in
    real space projection operators read in
  non local Contribution for L=           2  read in
    real space projection operators read in
  non local Contribution for L=           0  read in
    real space projection operators read in
  non local Contribution for L=           0  read in
    real space projection operators read in
  non local Contribution for L=           1  read in
    real space projection operators read in
  non local Contribution for L=           1  read in
    real space projection operators read in
    PAW grid and wavefunctions read in
 
   number of l-projection  operators is LMAX  =           6
   number of lm-projection operators is LMMAX =          18
 
 POTCAR:    PAW_PBE S 17Jan2003                   
  local pseudopotential read in
  partial core-charges read in
  atomic valenz-charges read in
  non local Contribution for L=           0  read in
    real space projection operators read in
  non local Contribution for L=           0  read in
    real space projection operators read in
  non local Contribution for L=           1  read in
    real space projection operators read in
  non local Contribution for L=           1  read in
    real space projection operators read in
    PAW grid and wavefunctions read in
 
   number of l-projection  operators is LMAX  =           4
   number of lm-projection operators is LMMAX =           8
 
 Optimization of the real space projectors (new method)

 maximal supplied QI-value         = 16.25
 optimisation between [QCUT,QGAM] = [ 10.24, 20.48] = [ 29.35,117.42] Ry 
 Optimized for a Real-space Cutoff    1.38 Angstroem

   l    n(q)    QCUT    max X(q) W(low)/X(q) W(high)/X(q)  e(spline) 
   2      7    10.239     4.811    0.22E-04    0.77E-04    0.38E-07
   2      7    10.239    15.146    0.35E-03    0.64E-03    0.10E-06
   0      8    10.239    14.357    0.23E-04    0.95E-05    0.71E-08
   0      8    10.239    43.282    0.33E-03    0.32E-04    0.83E-07
   1      8    10.239     5.514    0.10E-03    0.12E-03    0.15E-07
   1      8    10.239     7.697    0.32E-03    0.50E-03    0.12E-06
 Optimization of the real space projectors (new method)

 maximal supplied QI-value         = 19.84
 optimisation between [QCUT,QGAM] = [ 10.12, 20.44] = [ 28.68,116.96] Ry 
 Optimized for a Real-space Cutoff    1.23 Angstroem

   l    n(q)    QCUT    max X(q) W(low)/X(q) W(high)/X(q)  e(spline) 
   0      7    10.119     5.487    0.26E-04    0.13E-04    0.41E-08
   0      7    10.119    85.627    0.61E-04    0.28E-03    0.52E-07
   1      7    10.119     3.530    0.28E-04    0.18E-04    0.15E-07
   1      7    10.119    42.714    0.44E-03    0.62E-03    0.12E-06
 PAW_PBE Ni 06Sep2000                   :
 energy of atom  1       EATOM=-1077.9025
 kinetic energy error for atom=    0.0101 (will be added to EATOM!!)
  PAW_PBE S 17Jan2003                   :
 energy of atom  2       EATOM= -276.8230
 kinetic energy error for atom=    0.0046 (will be added to EATOM!!)
 
 
 POSCAR: IS                                      
  positions in direct lattice
  velocities in cartesian coordinates
 exchange correlation table for  LEXCH =        8
   RHO(1)=    0.500       N(1)  =     2000
   RHO(2)=  100.500       N(2)  =     4000
 


--------------------------------------------------------------------------------------------------------


 ion  position               nearest neighbor table
   1  0.350  0.596  0.410-  10 2.41  19 2.41  16 2.45   8 2.45   3 2.51  17 2.52   2 2.52  24 2.53

   2  0.451  0.663  0.378-  19 2.41   5 2.41   4 2.45  16 2.45   6 2.51   3 2.52   1 2.52  20 2.52

   3  0.412  0.663  0.497-  10 2.40   5 2.41   8 2.44   4 2.45   1 2.51   2 2.52  12 2.52  11 2.53

   4  0.513  0.724  0.465-   5 2.30   3 2.45   2 2.45  12 2.45   7 2.45   6 2.45
   5  0.515  0.609  0.465-   4 2.30  28 2.36  12 2.40   7 2.41   2 2.41   6 2.41   3 2.41  10 2.47
                            14 2.47  23 2.48  19 2.48  13 2.49
   6  0.577  0.665  0.378-  23 2.41   5 2.41  35 2.45   4 2.45   7 2.50   2 2.51  32 2.52  20 2.52

   7  0.616  0.665  0.497-   5 2.41  14 2.41   4 2.45  33 2.45   6 2.50  32 2.51  12 2.52  15 2.53

   8  0.317  0.593  0.528-  10 2.29   3 2.44   1 2.45  11 2.45   9 2.46  24 2.46
   9  0.351  0.488  0.582-  27 2.40  10 2.41   8 2.46  42 2.46  24 2.49  25 2.50  11 2.52  39 2.59

  10  0.415  0.543  0.496-   8 2.29  28 2.36   3 2.40   9 2.41   1 2.41  24 2.41  11 2.41  19 2.47
                             5 2.47  26 2.48  13 2.48  27 2.49
  11  0.412  0.596  0.605-  13 2.40  10 2.41  40 2.45   8 2.45  12 2.52  39 2.52   9 2.52   3 2.53

  12  0.514  0.664  0.571-   5 2.40  13 2.41  40 2.43   4 2.45  15 2.51   3 2.52  11 2.52   7 2.52

  13  0.514  0.543  0.570-  40 2.30  28 2.36  11 2.40  41 2.40  12 2.41  15 2.41  27 2.46  39 2.46
                            10 2.48  31 2.48   5 2.49  14 2.50
  14  0.615  0.545  0.497-  33 2.29  28 2.35  15 2.41  34 2.41   7 2.41  32 2.42  37 2.42  23 2.47
                             5 2.47  30 2.47  31 2.49  13 2.50
  15  0.616  0.599  0.604-  14 2.41  13 2.41  40 2.44  33 2.45  41 2.49  12 2.51  34 2.52   7 2.53

  16  0.393  0.594  0.296-  19 2.30   2 2.45  18 2.45   1 2.45  17 2.45  20 2.45
  17  0.352  0.489  0.344-  19 2.40  26 2.42  50 2.44  16 2.45  47 2.51   1 2.52  24 2.52  18 2.52

  18  0.454  0.491  0.270-  19 2.41  21 2.41  16 2.45  48 2.45  20 2.50  22 2.50  17 2.52  47 2.53

  19  0.453  0.543  0.379-  16 2.30  28 2.36  17 2.40   2 2.41  18 2.41   1 2.41  20 2.42  21 2.47
                            10 2.47  23 2.48   5 2.48  26 2.49
  20  0.515  0.598  0.291-  23 2.41  19 2.42  35 2.45  16 2.45  18 2.50  22 2.50   2 2.52   6 2.52

  21  0.517  0.438  0.359-  48 2.30  28 2.36  47 2.40  49 2.41  18 2.41  52 2.41  22 2.42  19 2.47
                            29 2.48  23 2.48  30 2.48  26 2.49
  22  0.579  0.492  0.271-  23 2.41  21 2.42  35 2.45  48 2.45  20 2.50  18 2.50  49 2.52  36 2.52

  23  0.578  0.545  0.379-  35 2.30  28 2.37  32 2.41   6 2.41  22 2.41  36 2.41  20 2.41  14 2.47
                             5 2.48  30 2.48  19 2.48  21 2.48
  24  0.312  0.488  0.464-  26 2.40  10 2.41  50 2.45   8 2.46   9 2.49  25 2.51  17 2.52   1 2.53

  25  0.352  0.381  0.517-  26 2.40  27 2.44  42 2.46  50 2.47   9 2.50  43 2.50  51 2.51  24 2.51

  26  0.416  0.437  0.433-  50 2.30  28 2.36  24 2.40  51 2.40  25 2.40  17 2.42  47 2.42  27 2.47
                            29 2.48  10 2.48  21 2.49  19 2.49
  27  0.455  0.437  0.550-  42 2.33  28 2.35   9 2.40  43 2.40  25 2.44  13 2.46  31 2.46  26 2.47
                            29 2.49  10 2.49  44 2.51  39 2.51
  28  0.516  0.491  0.465-  27 2.35  14 2.35  26 2.36  10 2.36  29 2.36   5 2.36  31 2.36  13 2.36
                            30 2.36  21 2.36  19 2.36  23 2.37
  29  0.518  0.373  0.464-  55 2.30  28 2.36  53 2.40  43 2.40  52 2.41  51 2.41  45 2.41  21 2.48
                            30 2.48  26 2.48  31 2.48  27 2.49
  30  0.617  0.439  0.432-  54 2.30  28 2.36  38 2.40  37 2.41  49 2.41  53 2.41  36 2.41  14 2.47
                            29 2.48  23 2.48  21 2.48  31 2.49
  31  0.578  0.438  0.550-  46 2.30  28 2.36  41 2.40  45 2.40  34 2.41  38 2.41  44 2.46  27 2.46
                            29 2.48  13 2.48  30 2.49  14 2.49
  32  0.680  0.600  0.411-  23 2.41  14 2.42  35 2.45  33 2.45   7 2.51  37 2.51  36 2.52   6 2.52

  33  0.712  0.597  0.529-  14 2.29  34 2.45  15 2.45  32 2.45  37 2.45   7 2.45
  34  0.680  0.492  0.584-  14 2.41  31 2.41  46 2.44  33 2.45  41 2.49  38 2.51  15 2.52  37 2.53

  35  0.637  0.597  0.296-  23 2.30  20 2.45  22 2.45  32 2.45   6 2.45  36 2.45
  36  0.681  0.493  0.345-  23 2.41  30 2.41  35 2.45  54 2.45  37 2.51  49 2.52  22 2.52  32 2.52

  37  0.720  0.493  0.464-  30 2.41  14 2.42  54 2.45  33 2.45  36 2.51  32 2.51  38 2.52  34 2.53

  38  0.682  0.386  0.518-  30 2.40  31 2.41  46 2.43  54 2.45  34 2.51  53 2.52  45 2.52  37 2.52

  39  0.452  0.492  0.663-  56 2.16  40 2.44  13 2.46  27 2.51  11 2.52  42 2.54  41 2.55   9 2.59
                            44 2.62
  40  0.514  0.596  0.672-  13 2.30  12 2.43  39 2.44  15 2.44  11 2.45  41 2.48
  41  0.580  0.492  0.657-  31 2.40  13 2.40  46 2.48  40 2.48  34 2.49  15 2.49  44 2.55  39 2.55

  42  0.393  0.384  0.633-  56 2.15  27 2.33  25 2.46   9 2.46  43 2.46  39 2.54  44 2.54
  43  0.454  0.317  0.550-  27 2.40  29 2.40  55 2.46  42 2.46  51 2.49  25 2.50  45 2.52  44 2.59

  44  0.519  0.381  0.642-  56 2.16  46 2.44  31 2.46  27 2.51  45 2.53  42 2.54  41 2.55  43 2.59
                            39 2.62
  45  0.581  0.318  0.551-  31 2.40  29 2.41  46 2.45  55 2.45  38 2.52  43 2.52  44 2.53  53 2.54

  46  0.641  0.387  0.632-  31 2.30  38 2.43  34 2.44  44 2.44  45 2.45  41 2.48
  47  0.416  0.383  0.324-  21 2.40  26 2.42  50 2.43  48 2.45  17 2.51  52 2.52  51 2.53  18 2.53

  48  0.517  0.387  0.256-  21 2.30  47 2.45  18 2.45  52 2.45  49 2.45  22 2.45
  49  0.619  0.386  0.324-  21 2.41  30 2.41  48 2.45  54 2.45  53 2.51  36 2.52  22 2.52  52 2.52

  50  0.320  0.385  0.398-  26 2.30  47 2.43  17 2.44  51 2.45  24 2.45  25 2.47
  51  0.416  0.317  0.431-  26 2.40  29 2.41  50 2.45  55 2.46  43 2.49  25 2.51  47 2.53  52 2.53

  52  0.518  0.318  0.356-  29 2.41  21 2.41  48 2.45  55 2.45  47 2.52  53 2.52  49 2.52  51 2.53

  53  0.620  0.319  0.430-  29 2.40  30 2.41  55 2.45  54 2.45  49 2.51  52 2.52  38 2.52  45 2.54

  54  0.715  0.389  0.400-  30 2.30  53 2.45  37 2.45  38 2.45  49 2.45  36 2.45
  55  0.519  0.258  0.463-  29 2.30  53 2.45  52 2.45  45 2.45  51 2.46  43 2.46
  56  0.450  0.401  0.722-  42 2.15  39 2.16  44 2.16
 
  LATTYP: Found a simple cubic cell.
 ALAT       =    20.0000000000
  
  Lattice vectors:
  
 A1 = (  20.0000000000,   0.0000000000,   0.0000000000)
 A2 = (   0.0000000000,  20.0000000000,   0.0000000000)
 A3 = (   0.0000000000,   0.0000000000,  20.0000000000)


Analysis of symmetry for initial positions (statically):
=====================================================================
 Subroutine PRICEL returns:
 Original cell was already a primitive cell.
 

 Routine SETGRP: Setting up the symmetry group for a 
 simple cubic supercell.


 Subroutine GETGRP returns: Found  1 space group operations
 (whereof  1 operations were pure point group operations)
 out of a pool of 48 trial point group operations.


The static configuration has the point symmetry C_1 .


Analysis of symmetry for dynamics (positions and initial velocities):
=====================================================================
 Subroutine PRICEL returns:
 Original cell was already a primitive cell.
 

 Routine SETGRP: Setting up the symmetry group for a 
 simple cubic supercell.


 Subroutine GETGRP returns: Found  1 space group operations
 (whereof  1 operations were pure point group operations)
 out of a pool of 48 trial point group operations.


The dynamic configuration has the point symmetry C_1 .


Analysis of structural, dynamic, and magnetic symmetry:
=====================================================================
 Subroutine PRICEL returns:
 Original cell was already a primitive cell.
 

 Routine SETGRP: Setting up the symmetry group for a 
 simple cubic supercell.


 Subroutine GETGRP returns: Found  1 space group operations
 (whereof  1 operations were pure point group operations)
 out of a pool of 48 trial point group operations.


The magnetic configuration has the point symmetry C_1 .


 Subroutine INISYM returns: Found  1 space group operations
 (whereof  1 operations are pure point group operations),
 and found     1 'primitive' translations

 
 
 KPOINTS: 4x2x1                                   

Automatic generation of k-mesh.
Space group operators:
 irot       det(A)        alpha          n_x          n_y          n_z        tau_x        tau_y        tau_z
    1     1.000000     0.000000     1.000000     0.000000     0.000000     0.000000     0.000000     0.000000
 
 Subroutine IBZKPT returns following result:
 ===========================================
 
 Found      1 irreducible k-points:
 
 Following reciprocal coordinates:
            Coordinates               Weight
  0.000000  0.000000  0.000000      1.000000
 
 Following cartesian coordinates:
            Coordinates               Weight
  0.000000  0.000000  0.000000      1.000000
 


--------------------------------------------------------------------------------------------------------




 Dimension of arrays:
   k-points           NKPTS =      1   k-points in BZ     NKDIM =      1   number of bands    NBANDS=    380
   number of dos      NEDOS =    301   number of ions     NIONS =     56
   non local maximal  LDIM  =      6   non local SUM 2l+1 LMDIM =     18
   total plane-waves  NPLWV = 941192
   max r-space proj   IRMAX =   1346   max aug-charges    IRDMAX=   4013
   dimension x,y,z NGX =    98 NGY =   98 NGZ =   98
   dimension x,y,z NGXF=   196 NGYF=  196 NGZF=  196
   support grid    NGXF=   196 NGYF=  196 NGZF=  196
   ions per type =              55   1
   NGX,Y,Z   is equivalent  to a cutoff of   8.15,  8.15,  8.15 a.u.
   NGXF,Y,Z  is equivalent  to a cutoff of  16.29, 16.29, 16.29 a.u.

 SYSTEM =  single                                  
 POSCAR =  IS                                      

 Startparameter for this run:
   NWRITE =      1    write-flag & timer
   PREC   = normal    normal or accurate (medium, high low for compatibility)
   ISTART =      0    job   : 0-new  1-cont  2-samecut
   ICHARG =      2    charge: 1-file 2-atom 10-const
   ISPIN  =      2    spin polarized calculation?
   LNONCOLLINEAR =      F non collinear calculations
   LSORBIT =      F    spin-orbit coupling
   INIWAV =      1    electr: 0-lowe 1-rand  2-diag
   LASPH  =      F    aspherical Exc in radial PAW
   METAGGA=      F    non-selfconsistent MetaGGA calc.

 Electronic Relaxation 1
   ENCUT  =  400.0 eV  29.40 Ry    5.42 a.u.  32.61 32.61 32.61*2*pi/ulx,y,z
   ENINI  =  400.0     initial cutoff
   ENAUG  =  544.6 eV  augmentation charge cutoff
   NELM   =    100;   NELMIN=  2; NELMDL= -5     # of ELM steps 
   EDIFF  = 0.1E-05   stopping-criterion for ELM
   LREAL  =      T    real-space projection
   NLSPLINE    = F    spline interpolate recip. space projectors
   LCOMPAT=      F    compatible to vasp.4.4
   GGA_COMPAT  = T    GGA compatible to vasp.4.4-vasp.4.6
   LMAXPAW     = -100 max onsite density
   LMAXMIX     =    2 max onsite mixed and CHGCAR
   VOSKOWN=      0    Vosko Wilk Nusair interpolation
   ROPT   =   -0.00050  -0.00050
 Ionic relaxation
   EDIFFG = 0.1E-04   stopping-criterion for IOM
   NSW    =      0    number of steps for IOM
   NBLOCK =      1;   KBLOCK =      1    inner block; outer block 
   IBRION =     -1    ionic relax: 0-MD 1-quasi-New 2-CG
   NFREE  =      0    steps in history (QN), initial steepest desc. (CG)
   ISIF   =      2    stress and relaxation
   IWAVPR =     10    prediction:  0-non 1-charg 2-wave 3-comb
   ISYM   =      2    0-nonsym 1-usesym 2-fastsym
   LCORR  =      T    Harris-Foulkes like correction to forces

   POTIM  = 0.5000    time-step for ionic-motion
   TEIN   =    0.0    initial temperature
   TEBEG  =    0.0;   TEEND  =   0.0 temperature during run
   SMASS  =  -3.00    Nose mass-parameter (am)
   estimated Nose-frequenzy (Omega)   =  0.10E-29 period in steps =****** mass=  -0.914E-26a.u.
   SCALEE = 1.0000    scale energy and forces
   NPACO  =    256;   APACO  = 16.0  distance and # of slots for P.C.
   PSTRESS=    0.0 pullay stress

  Mass of Ions in am
   POMASS =  58.69 32.07
  Ionic Valenz
   ZVAL   =  10.00  6.00
  Atomic Wigner-Seitz radii
   RWIGS  =  -1.00 -1.00
  virtual crystal weights 
   VCA    =   1.00  1.00
   NELECT =     556.0000    total number of electrons
   NUPDOWN=      -1.0000    fix difference up-down

 DOS related values:
   EMIN   =  10.00;   EMAX   =-10.00  energy-range for DOS
   EFERMI =   0.00
   ISMEAR =     0;   SIGMA  =   0.10  broadening in eV -4-tet -1-fermi 0-gaus

 Electronic relaxation 2 (details)
   IALGO  =     68    algorithm
   LDIAG  =      T    sub-space diagonalisation (order eigenvalues)
   LSUBROT=      F    optimize rotation matrix (better conditioning)
   TURBO    =      0    0=normal 1=particle mesh
   IRESTART =      0    0=no restart 2=restart with 2 vectors
   NREBOOT  =      0    no. of reboots
   NMIN     =      0    reboot dimension
   EREF     =   0.00    reference energy to select bands
   IMIX   =      4    mixing-type and parameters
     AMIX     =   0.40;   BMIX     =  1.00
     AMIX_MAG =   1.60;   BMIX_MAG =  1.00
     AMIN     =   0.10
     WC   =   100.;   INIMIX=   1;  MIXPRE=   1;  MAXMIX= -45

 Intra band minimization:
   WEIMIN = 0.0000     energy-eigenvalue tresh-hold
   EBREAK =  0.66E-09  absolut break condition
   DEPER  =   0.30     relativ break condition  

   TIME   =   0.40     timestep for ELM

  volume/ion in A,a.u.               =     142.86       964.05
  Fermi-wavevector in a.u.,A,eV,Ry     =   0.673085  1.271946  6.164026  0.453043
  Thomas-Fermi vector in A             =   1.749399
 
 Write flags
   LWAVE        =      F    write WAVECAR
   LDOWNSAMPLE  =      F    k-point downsampling of WAVECAR
   LCHARG       =      F    write CHGCAR
   LVTOT        =      F    write LOCPOT, total local potential
   LVHAR        =      F    write LOCPOT, Hartree potential only
   LELF         =      F    write electronic localiz. function (ELF)
   LORBIT       =      0    0 simple, 1 ext, 2 COOP (PROOUT), +10 PAW based schemes


 Dipole corrections
   LMONO  =      F    monopole corrections only (constant potential shift)
   LDIPOL =      F    correct potential (dipole corrections)
   IDIPOL =      0    1-x, 2-y, 3-z, 4-all directions 
   EPSILON=  1.0000000 bulk dielectric constant

 Exchange correlation treatment:
   GGA     =    --    GGA type
   LEXCH   =     8    internal setting for exchange type
   VOSKOWN=      0    Vosko Wilk Nusair interpolation
   LHFCALC =     F    Hartree Fock is set to
   LHFONE  =     F    Hartree Fock one center treatment
   AEXX    =    0.0000 exact exchange contribution

 Linear response parameters
   LEPSILON=     F    determine dielectric tensor
   LRPA    =     F    only Hartree local field effects (RPA)
   LNABLA  =     F    use nabla operator in PAW spheres
   LVEL    =     F    velocity operator in full k-point grid
   LINTERFAST=   F  fast interpolation
   KINTER  =     0    interpolate to denser k-point grid
   CSHIFT  =0.1000    complex shift for real part using Kramers Kronig
   OMEGAMAX=  -1.0    maximum frequency
   DEG_THRESHOLD= 0.2000000E-02 threshold for treating states as degnerate
   RTIME   =   -0.100 relaxation time in fs
  (WPLASMAI=    0.000 imaginary part of plasma frequency in eV, 0.658/RTIME)
   DFIELD  = 0.0000000 0.0000000 0.0000000 field for delta impulse in time
 
 Orbital magnetization related:
   ORBITALMAG=     F  switch on orbital magnetization
   LCHIMAG   =     F  perturbation theory with respect to B field
   DQ        =  0.001000  dq finite difference perturbation B field
   LLRAUG    =     F  two centre corrections for induced B field



--------------------------------------------------------------------------------------------------------


 Static calculation
 charge density and potential will be updated during run
 spin polarized calculation
 RMM-DIIS sequential band-by-band and
  variant of blocked Davidson during initial phase
 perform sub-space diagonalisation
    before iterative eigenvector-optimisation
 modified Broyden-mixing scheme, WC =      100.0
 initial mixing is a Kerker type mixing with AMIX =  0.4000 and BMIX =      1.0000
 Hartree-type preconditioning will be used
 using additional bands          102
 real space projection scheme for non local part
 use partial core corrections
 calculate Harris-corrections to forces 
   (improved forces if not selfconsistent)
 use gradient corrections 
 use of overlap-Matrix (Vanderbilt PP)
 Gauss-broadening in eV      SIGMA  =   0.10


--------------------------------------------------------------------------------------------------------


  energy-cutoff  :      400.00
  volume of cell :     8000.00
      direct lattice vectors                 reciprocal lattice vectors
    20.000000000  0.000000000  0.000000000     0.050000000  0.000000000  0.000000000
     0.000000000 20.000000000  0.000000000     0.000000000  0.050000000  0.000000000
     0.000000000  0.000000000 20.000000000     0.000000000  0.000000000  0.050000000

  length of vectors
    20.000000000 20.000000000 20.000000000     0.050000000  0.050000000  0.050000000


 
 k-points in units of 2pi/SCALE and weight: 4x2x1                                   
   0.00000000  0.00000000  0.00000000       1.000
 
 k-points in reciprocal lattice and weights: 4x2x1                                   
   0.00000000  0.00000000  0.00000000       1.000
 
 position of ions in fractional coordinates (direct lattice) 
   0.34990766  0.59608202  0.41027420
   0.45128849  0.66315330  0.37765323
   0.41172168  0.66280261  0.49708705
   0.51273817  0.72356208  0.46454192
   0.51458150  0.60860195  0.46450489
   0.57695893  0.66508225  0.37793327
   0.61554668  0.66531054  0.49706306
   0.31668456  0.59258437  0.52810787
   0.35104726  0.48800114  0.58243504
   0.41496896  0.54264351  0.49641684
   0.41249642  0.59596369  0.60469712
   0.51353966  0.66350059  0.57133430
   0.51441786  0.54291456  0.57044685
   0.61525399  0.54456776  0.49701638
   0.61587469  0.59871795  0.60449143
   0.39265435  0.59383610  0.29557743
   0.35185429  0.48906176  0.34425259
   0.45397470  0.49101838  0.27004978
   0.45349737  0.54268720  0.37892102
   0.51517609  0.59793502  0.29096653
   0.51651435  0.43846561  0.35878223
   0.57910395  0.49230602  0.27062278
   0.57750422  0.54451845  0.37931926
   0.31245958  0.48786041  0.46410810
   0.35169206  0.38119330  0.51722041
   0.41619880  0.43660352  0.43253277
   0.45493831  0.43737394  0.55005254
   0.51581996  0.49066520  0.46467341
   0.51762688  0.37282599  0.46368385
   0.61692253  0.43948815  0.43178498
   0.57788699  0.43811133  0.55014294
   0.67955595  0.60002730  0.41106690
   0.71210933  0.59685124  0.52908754
   0.68020152  0.49233461  0.58390690
   0.63736185  0.59681316  0.29618357
   0.68092732  0.49312034  0.34459013
   0.71958509  0.49335658  0.46395191
   0.68162706  0.38570541  0.51766538
   0.45240456  0.49157754  0.66332228
   0.51441209  0.59642614  0.67247742
   0.57972658  0.49199415  0.65734298
   0.39285405  0.38387483  0.63290237
   0.45433106  0.31727684  0.54950045
   0.51932228  0.38094781  0.64188802
   0.58051661  0.31812489  0.55099209
   0.64095419  0.38709827  0.63195644
   0.41573051  0.38317549  0.32369215
   0.51737029  0.38730205  0.25564944
   0.61906082  0.38560113  0.32396121
   0.31950221  0.38472182  0.39810505
   0.41603022  0.31663212  0.43103679
   0.51807354  0.31783984  0.35649001
   0.61980645  0.31887205  0.43047163
   0.71524466  0.38914980  0.39987143
   0.51901727  0.25806206  0.46347979
   0.44983362  0.40103578  0.72218398
 
 position of ions in cartesian coordinates  (Angst):
   6.99815322 11.92164043  8.20548396
   9.02576990 13.26306598  7.55306452
   8.23443354 13.25605225  9.94174097
  10.25476332 14.47124161  9.29083844
  10.29163001 12.17203904  9.29009772
  11.53917854 13.30164491  7.55866541
  12.31093365 13.30621078  9.94126129
   6.33369114 11.85168748 10.56215743
   7.02094516  9.76002286 11.64870075
   8.29937918 10.85287028  9.92833690
   8.24992847 11.91927379 12.09394232
  10.27079322 13.27001184 11.42668604
  10.28835721 10.85829118 11.40893707
  12.30507975 10.89135516  9.94032756
  12.31749371 11.97435895 12.08982869
   7.85308692 11.87672191  5.91154861
   7.03708579  9.78123520  6.88505188
   9.07949407  9.82036763  5.40099554
   9.06994736 10.85374392  7.57842044
  10.30352182 11.95870041  5.81933050
  10.33028710  8.76931219  7.17564463
  11.58207901  9.84612039  5.41245565
  11.55008446 10.89036907  7.58638525
   6.24919153  9.75720828  9.28216192
   7.03384124  7.62386592 10.34440825
   8.32397610  8.73207049  8.65065544
   9.09876622  8.74747871 11.00105086
  10.31639921  9.81330405  9.29346824
  10.35253754  7.45651980  9.27367698
  12.33845068  8.78976300  8.63569964
  11.55773989  8.76222658 11.00285879
  13.59111898 12.00054604  8.22133792
  14.24218665 11.93702488 10.58175089
  13.60403044  9.84669222 11.67813810
  12.74723703 11.93626310  5.92367130
  13.61854650  9.86240687  6.89180253
  14.39170173  9.86713152  9.27903815
  13.63254121  7.71410826 10.35330760
   9.04809115  9.83155089 13.26644560
  10.28824170 11.92852281 13.44954833
  11.59453165  9.83988296 13.14685962
   7.85708099  7.67749653 12.65804732
   9.08662129  6.34553680 10.99000904
  10.38644559  7.61895611 12.83776039
  11.61033225  6.36249789 11.01984187
  12.81908389  7.74196543 12.63912890
   8.31461010  7.66350973  6.47384305
  10.34740579  7.74604099  5.11298878
  12.38121645  7.71202255  6.47922413
   6.39004419  7.69443644  7.96210105
   8.32060445  6.33264250  8.62073571
  10.36147073  6.35679671  7.12980011
  12.39612898  6.37744094  8.60943259
  14.30489321  7.78299602  7.99742863
  10.38034537  5.16124128  9.26959582
   8.99667242  8.02071565 14.44367969
 


--------------------------------------------------------------------------------------------------------


 k-point  1 :   0.0000 0.0000 0.0000  plane waves:  145165

 maximum and minimum number of plane-waves per node :    145165   145165

 maximum number of plane-waves:    145165
 maximum index in each direction: 
   IXMAX=   32   IYMAX=   32   IZMAX=   32
   IXMIN=  -32   IYMIN=  -32   IZMIN=  -32


 serial   3D FFT for wavefunctions
 parallel 3D FFT for charge:
    minimum data exchange during FFTs selected (reduces bandwidth)


 total amount of memory used by VASP MPI-rank0   256274. kBytes
=======================================================================

   base      :      30000. kBytes
   nonlr-proj:      12282. kBytes
   fftplans  :      16788. kBytes
   grid      :     106586. kBytes
   one-center:       1741. kBytes
   wavefun   :      88877. kBytes
 
     INWAV:  cpu time    0.0010: real time    0.0001
 Broyden mixing: mesh for mixing (old mesh)
   NGX = 65   NGY = 65   NGZ = 65
  (NGX  =196   NGY  =196   NGZ  =196)
  gives a total of 274625 points

 initial charge density was supplied:
 charge density of overlapping atoms calculated
 number of electron     556.0000000 magnetization      56.0000000
 keeping initial charge density in first step


--------------------------------------------------------------------------------------------------------


 Maximum index for non-local projection operator         1275
 Maximum index for augmentation-charges          293 (set IRDMAX)


--------------------------------------------------------------------------------------------------------


 First call to EWALD:  gamma=   0.089
 Maximum number of real-space cells 3x 3x 3
 Maximum number of reciprocal cells 3x 3x 3

    FEWALD:  cpu time    0.0040: real time    0.0030


--------------------------------------- Iteration      1(   1)  ---------------------------------------


    POTLOK:  cpu time    0.9709: real time    0.9734
    SETDIJ:  cpu time    0.0230: real time    0.0233
     EDDAV:  cpu time   22.9615: real time   23.0137
       DOS:  cpu time    0.0030: real time    0.0033
    --------------------------------------------
      LOOP:  cpu time   23.9584: real time   24.0137

 eigenvalue-minimisations  :  1520
 total energy-change (2. order) : 0.2840033E+04  (-0.1614676E+05)
 number of electron     556.0000000 magnetization      56.0000000
 augmentation part      556.0000000 magnetization      56.0000000

 Free energy of the ion-electron system (eV)
  ---------------------------------------------------
  alpha Z        PSCENC =       387.12086559
  Ewald energy   TEWEN  =    180938.24842514
  -Hartree energ DENC   =   -235718.65759638
  -exchange      EXHF   =         0.00000000
  -V(xc)+E(xc)   XCENC  =      1723.69465415
  PAW double counting   =     47977.39182462   -51648.67119642
  entropy T*S    EENTRO =        -0.41934115
  eigenvalues    EBANDS =      -379.57683352
  atomic energy  EATOM  =     59560.90262231
  Solvation  Ediel_sol  =         0.00000000
  ---------------------------------------------------
  free energy    TOTEN  =      2840.03342436 eV

  energy without entropy =     2840.45276550  energy(sigma->0) =     2840.24309493


--------------------------------------------------------------------------------------------------------




--------------------------------------- Iteration      1(   2)  ---------------------------------------


     EDDAV:  cpu time   24.3953: real time   24.4554
       DOS:  cpu time    0.0030: real time    0.0031
    --------------------------------------------
      LOOP:  cpu time   24.3983: real time   24.4586

 eigenvalue-minimisations  :  1640
 total energy-change (2. order) :-0.2983331E+04  (-0.2882048E+04)
 number of electron     556.0000000 magnetization      56.0000000
 augmentation part      556.0000000 magnetization      56.0000000

 Free energy of the ion-electron system (eV)
  ---------------------------------------------------
  alpha Z        PSCENC =       387.12086559
  Ewald energy   TEWEN  =    180938.24842514
  -Hartree energ DENC   =   -235718.65759638
  -exchange      EXHF   =         0.00000000
  -V(xc)+E(xc)   XCENC  =      1723.69465415
  PAW double counting   =     47977.39182462   -51648.67119642
  entropy T*S    EENTRO =        -0.58259115
  eigenvalues    EBANDS =     -3362.74477770
  atomic energy  EATOM  =     59560.90262231
  Solvation  Ediel_sol  =         0.00000000
  ---------------------------------------------------
  free energy    TOTEN  =      -143.29776983 eV

  energy without entropy =     -142.71517868  energy(sigma->0) =     -143.00647425


--------------------------------------------------------------------------------------------------------




--------------------------------------- Iteration      1(   3)  ---------------------------------------


     EDDAV:  cpu time   26.3460: real time   26.4101
       DOS:  cpu time    0.0030: real time    0.0032
    --------------------------------------------
      LOOP:  cpu time   26.3490: real time   26.4132

 eigenvalue-minimisations  :  1820
 total energy-change (2. order) :-0.1599007E+03  (-0.1526363E+03)
 number of electron     556.0000000 magnetization      56.0000000
 augmentation part      556.0000000 magnetization      56.0000000

 Free energy of the ion-electron system (eV)
  ---------------------------------------------------
  alpha Z        PSCENC =       387.12086559
  Ewald energy   TEWEN  =    180938.24842514
  -Hartree energ DENC   =   -235718.65759638
  -exchange      EXHF   =         0.00000000
  -V(xc)+E(xc)   XCENC  =      1723.69465415
  PAW double counting   =     47977.39182462   -51648.67119642
  entropy T*S    EENTRO =        -0.48258218
  eigenvalues    EBANDS =     -3522.74548399
  atomic energy  EATOM  =     59560.90262231
  Solvation  Ediel_sol  =         0.00000000
  ---------------------------------------------------
  free energy    TOTEN  =      -303.19846715 eV

  energy without entropy =     -302.71588497  energy(sigma->0) =     -302.95717606


--------------------------------------------------------------------------------------------------------




--------------------------------------- Iteration      1(   4)  ---------------------------------------


     EDDAV:  cpu time   24.8552: real time   24.9164
       DOS:  cpu time    0.0030: real time    0.0031
    --------------------------------------------
      LOOP:  cpu time   24.8582: real time   24.9195

 eigenvalue-minimisations  :  1680
 total energy-change (2. order) :-0.3912890E+01  (-0.3852607E+01)
 number of electron     556.0000000 magnetization      56.0000000
 augmentation part      556.0000000 magnetization      56.0000000

 Free energy of the ion-electron system (eV)
  ---------------------------------------------------
  alpha Z        PSCENC =       387.12086559
  Ewald energy   TEWEN  =    180938.24842514
  -Hartree energ DENC   =   -235718.65759638
  -exchange      EXHF   =         0.00000000
  -V(xc)+E(xc)   XCENC  =      1723.69465415
  PAW double counting   =     47977.39182462   -51648.67119642
  entropy T*S    EENTRO =        -0.49027122
  eigenvalues    EBANDS =     -3526.65068542
  atomic energy  EATOM  =     59560.90262231
  Solvation  Ediel_sol  =         0.00000000
  ---------------------------------------------------
  free energy    TOTEN  =      -307.11135762 eV

  energy without entropy =     -306.62108639  energy(sigma->0) =     -306.86622200


--------------------------------------------------------------------------------------------------------




--------------------------------------- Iteration      1(   5)  ---------------------------------------


     EDDAV:  cpu time   25.4581: real time   25.5204
       DOS:  cpu time    0.0030: real time    0.0031
    CHARGE:  cpu time    1.1098: real time    1.1132
    MIXING:  cpu time    0.0140: real time    0.0147
    --------------------------------------------
      LOOP:  cpu time   26.5850: real time   26.6515

 eigenvalue-minimisations  :  1740
 total energy-change (2. order) :-0.8527044E-01  (-0.8520300E-01)
 number of electron     556.0000117 magnetization      54.9104031
 augmentation part      316.0199739 magnetization      45.7589545

 Broyden mixing:
  rms(total) = 0.54366E+01    rms(broyden)= 0.54357E+01
  rms(prec ) = 0.59685E+01
  weight for this iteration     100.00

 Free energy of the ion-electron system (eV)
  ---------------------------------------------------
  alpha Z        PSCENC =       387.12086559
  Ewald energy   TEWEN  =    180938.24842514
  -Hartree energ DENC   =   -235718.65759638
  -exchange      EXHF   =         0.00000000
  -V(xc)+E(xc)   XCENC  =      1723.69465415
  PAW double counting   =     47977.39182462   -51648.67119642
  entropy T*S    EENTRO =        -0.49060172
  eigenvalues    EBANDS =     -3526.73562536
  atomic energy  EATOM  =     59560.90262231
  Solvation  Ediel_sol  =         0.00000000
  ---------------------------------------------------
  free energy    TOTEN  =      -307.19662806 eV

  energy without entropy =     -306.70602634  energy(sigma->0) =     -306.95132720


--------------------------------------------------------------------------------------------------------




--------------------------------------- Iteration      1(   6)  ---------------------------------------


    POTLOK:  cpu time    0.9499: real time    0.9517
    SETDIJ:  cpu time    0.0230: real time    0.0229
    EDDIAG:  cpu time    4.8753: real time    4.8862
  RMM-DIIS:  cpu time   10.2994: real time   10.3270
    ORTHCH:  cpu time    1.6547: real time    1.6585
       DOS:  cpu time    0.0020: real time    0.0015
    CHARGE:  cpu time    1.0788: real time    1.0819
    MIXING:  cpu time    0.0180: real time    0.0171
    --------------------------------------------
      LOOP:  cpu time   18.9011: real time   18.9467

 eigenvalue-minimisations  :  1636
 total energy-change (2. order) :-0.8287421E+02  (-0.5869125E+02)
 number of electron     556.0000178 magnetization      53.9814694
 augmentation part      349.2899694 magnetization      49.6036315

 Broyden mixing:
  rms(total) = 0.12938E+02    rms(broyden)= 0.12938E+02
  rms(prec ) = 0.14959E+02
  weight for this iteration     100.00

 eigenvalues of (default mixing * dielectric matrix)
  average eigenvalue GAMMA=   0.2234
  0.2234

 Free energy of the ion-electron system (eV)
  ---------------------------------------------------
  alpha Z        PSCENC =       387.12086559
  Ewald energy   TEWEN  =    180938.24842514
  -Hartree energ DENC   =   -235013.28746743
  -exchange      EXHF   =         0.00000000
  -V(xc)+E(xc)   XCENC  =      1670.52754068
  PAW double counting   =     47634.51848817   -51117.92047424
  entropy T*S    EENTRO =        -0.19882366
  eigenvalues    EBANDS =     -4449.98201221
  atomic energy  EATOM  =     59560.90262231
  Solvation  Ediel_sol  =         0.00000000
  ---------------------------------------------------
  free energy    TOTEN  =      -390.07083564 eV

  energy without entropy =     -389.87201198  energy(sigma->0) =     -389.97142381


--------------------------------------------------------------------------------------------------------




--------------------------------------- Iteration      1(   7)  ---------------------------------------


    POTLOK:  cpu time    0.9469: real time    0.9501
    SETDIJ:  cpu time    0.0230: real time    0.0235
    EDDIAG:  cpu time    4.8463: real time    4.8584
  RMM-DIIS:  cpu time   10.4984: real time   10.5244
    ORTHCH:  cpu time    1.6617: real time    1.6661
       DOS:  cpu time    0.0020: real time    0.0012
    CHARGE:  cpu time    1.0838: real time    1.0874
    MIXING:  cpu time    0.0170: real time    0.0165
    --------------------------------------------
      LOOP:  cpu time   19.0791: real time   19.1274

 eigenvalue-minimisations  :  1648
 total energy-change (2. order) : 0.5966957E+02  (-0.2756066E+02)
 number of electron     556.0000018 magnetization      53.2222924
 augmentation part      350.7544982 magnetization      45.3196565

 Broyden mixing:
  rms(total) = 0.79225E+01    rms(broyden)= 0.79213E+01
  rms(prec ) = 0.88218E+01
  weight for this iteration     100.00

 eigenvalues of (default mixing * dielectric matrix)
  average eigenvalue GAMMA=   0.2350
  0.2981  0.1719

 Free energy of the ion-electron system (eV)
  ---------------------------------------------------
  alpha Z        PSCENC =       387.12086559
  Ewald energy   TEWEN  =    180938.24842514
  -Hartree energ DENC   =   -234883.77967379
  -exchange      EXHF   =         0.00000000
  -V(xc)+E(xc)   XCENC  =      1674.98349091
  PAW double counting   =     47934.94570405   -51474.71038055
  entropy T*S    EENTRO =        -0.74345172
  eigenvalues    EBANDS =     -4467.36886791
  atomic energy  EATOM  =     59560.90262231
  Solvation  Ediel_sol  =         0.00000000
  ---------------------------------------------------
  free energy    TOTEN  =      -330.40126596 eV

  energy without entropy =     -329.65781424  energy(sigma->0) =     -330.02954010


--------------------------------------------------------------------------------------------------------




--------------------------------------- Iteration      1(   8)  ---------------------------------------


    POTLOK:  cpu time    0.9509: real time    0.9532
    SETDIJ:  cpu time    0.0230: real time    0.0222
    EDDIAG:  cpu time    4.8443: real time    4.8568
  RMM-DIIS:  cpu time    9.9025: real time    9.9280
    ORTHCH:  cpu time    1.6547: real time    1.6586
       DOS:  cpu time    0.0010: real time    0.0012
    CHARGE:  cpu time    1.0798: real time    1.0834
    MIXING:  cpu time    0.0180: real time    0.0173
    --------------------------------------------
      LOOP:  cpu time   18.4742: real time   18.5207

 eigenvalue-minimisations  :  1556
 total energy-change (2. order) : 0.3654569E+02  (-0.1052697E+02)
 number of electron     556.0000216 magnetization      52.2354653
 augmentation part      346.4721243 magnetization      43.9197612

 Broyden mixing:
  rms(total) = 0.92632E+01    rms(broyden)= 0.92626E+01
  rms(prec ) = 0.10310E+02
  weight for this iteration     100.00

 eigenvalues of (default mixing * dielectric matrix)
  average eigenvalue GAMMA=   0.3082
  0.6146  0.1550  0.1550

 Free energy of the ion-electron system (eV)
  ---------------------------------------------------
  alpha Z        PSCENC =       387.12086559
  Ewald energy   TEWEN  =    180938.24842514
  -Hartree energ DENC   =   -235170.48037296
  -exchange      EXHF   =         0.00000000
  -V(xc)+E(xc)   XCENC  =      1681.29175943
  PAW double counting   =     48430.33244551   -52047.36049371
  entropy T*S    EENTRO =        -0.50050065
  eigenvalues    EBANDS =     -4073.41032758
  atomic energy  EATOM  =     59560.90262231
  Solvation  Ediel_sol  =         0.00000000
  ---------------------------------------------------
  free energy    TOTEN  =      -293.85557691 eV

  energy without entropy =     -293.35507626  energy(sigma->0) =     -293.60532659


--------------------------------------------------------------------------------------------------------




--------------------------------------- Iteration      1(   9)  ---------------------------------------


    POTLOK:  cpu time    0.9499: real time    0.9517
    SETDIJ:  cpu time    0.0230: real time    0.0231
    EDDIAG:  cpu time    4.8423: real time    4.8534
  RMM-DIIS:  cpu time    9.7945: real time    9.8211
    ORTHCH:  cpu time    1.6597: real time    1.6634
       DOS:  cpu time    0.0030: real time    0.0022
    CHARGE:  cpu time    1.0918: real time    1.0945
    MIXING:  cpu time    0.0180: real time    0.0184
    --------------------------------------------
      LOOP:  cpu time   18.3822: real time   18.4279

 eigenvalue-minimisations  :  1576
 total energy-change (2. order) : 0.2719605E+02  (-0.4485719E+01)
 number of electron     556.0000069 magnetization      51.9084937
 augmentation part      340.2902875 magnetization      42.5019504

 Broyden mixing:
  rms(total) = 0.47320E+01    rms(broyden)= 0.47309E+01
  rms(prec ) = 0.52787E+01
  weight for this iteration     100.00

 eigenvalues of (default mixing * dielectric matrix)
  average eigenvalue GAMMA=   0.2861
  0.6401  0.1965  0.1965  0.1111

 Free energy of the ion-electron system (eV)
  ---------------------------------------------------
  alpha Z        PSCENC =       387.12086559
  Ewald energy   TEWEN  =    180938.24842514
  -Hartree energ DENC   =   -235456.43196948
  -exchange      EXHF   =         0.00000000
  -V(xc)+E(xc)   XCENC  =      1686.82815526
  PAW double counting   =     48931.02548931   -52622.27979443
  entropy T*S    EENTRO =        -0.69595954
  eigenvalues    EBANDS =     -3691.37735789
  atomic energy  EATOM  =     59560.90262231
  Solvation  Ediel_sol  =         0.00000000
  ---------------------------------------------------
  free energy    TOTEN  =      -266.65952373 eV

  energy without entropy =     -265.96356418  energy(sigma->0) =     -266.31154395


--------------------------------------------------------------------------------------------------------




--------------------------------------- Iteration      1(  10)  ---------------------------------------


    POTLOK:  cpu time    0.9429: real time    0.9442
    SETDIJ:  cpu time    0.0220: real time    0.0226
    EDDIAG:  cpu time    4.8533: real time    4.8659
  RMM-DIIS:  cpu time    9.8665: real time    9.8931
    ORTHCH:  cpu time    1.6587: real time    1.6617
       DOS:  cpu time    0.0020: real time    0.0015
    CHARGE:  cpu time    1.0838: real time    1.0862
    MIXING:  cpu time    0.0190: real time    0.0195
    --------------------------------------------
      LOOP:  cpu time   18.4482: real time   18.4947

 eigenvalue-minimisations  :  1585
 total energy-change (2. order) :-0.1927195E+00  (-0.5640778E+00)
 number of electron     556.0000010 magnetization      51.3845388
 augmentation part      340.6929446 magnetization      43.2012473

 Broyden mixing:
  rms(total) = 0.63875E+01    rms(broyden)= 0.63867E+01
  rms(prec ) = 0.74031E+01
  weight for this iteration     100.00

 eigenvalues of (default mixing * dielectric matrix)
  average eigenvalue GAMMA=   0.2864
  0.6703  0.4230  0.1379  0.1379  0.0627

 Free energy of the ion-electron system (eV)
  ---------------------------------------------------
  alpha Z        PSCENC =       387.12086559
  Ewald energy   TEWEN  =    180938.24842514
  -Hartree energ DENC   =   -235493.44874897
  -exchange      EXHF   =         0.00000000
  -V(xc)+E(xc)   XCENC  =      1686.88709318
  PAW double counting   =     49044.34740360   -52745.65171086
  entropy T*S    EENTRO =        -0.68241525
  eigenvalues    EBANDS =     -3644.57577799
  atomic energy  EATOM  =     59560.90262231
  Solvation  Ediel_sol  =         0.00000000
  ---------------------------------------------------
  free energy    TOTEN  =      -266.85224325 eV

  energy without entropy =     -266.16982800  energy(sigma->0) =     -266.51103562


--------------------------------------------------------------------------------------------------------




--------------------------------------- Iteration      1(  11)  ---------------------------------------


    POTLOK:  cpu time    0.9659: real time    0.9680
    SETDIJ:  cpu time    0.0250: real time    0.0244
    EDDIAG:  cpu time    4.8713: real time    4.8831
  RMM-DIIS:  cpu time    9.7645: real time    9.7905
    ORTHCH:  cpu time    1.6597: real time    1.6639
       DOS:  cpu time    0.0020: real time    0.0015
    CHARGE:  cpu time    1.0918: real time    1.0947
    MIXING:  cpu time    0.0210: real time    0.0202
    --------------------------------------------
      LOOP:  cpu time   18.4012: real time   18.4463

 eigenvalue-minimisations  :  1570
 total energy-change (2. order) : 0.6112255E+01  (-0.5379411E+00)
 number of electron     556.0000113 magnetization      50.8972872
 augmentation part      340.1008793 magnetization      42.2637142

 Broyden mixing:
  rms(total) = 0.42781E+01    rms(broyden)= 0.42769E+01
  rms(prec ) = 0.48314E+01
  weight for this iteration     100.00

 eigenvalues of (default mixing * dielectric matrix)
  average eigenvalue GAMMA=   0.2732
  0.7028  0.4827  0.1386  0.1386  0.1347  0.0419

 Free energy of the ion-electron system (eV)
  ---------------------------------------------------
  alpha Z        PSCENC =       387.12086559
  Ewald energy   TEWEN  =    180938.24842514
  -Hartree energ DENC   =   -235537.51995516
  -exchange      EXHF   =         0.00000000
  -V(xc)+E(xc)   XCENC  =      1687.55153681
  PAW double counting   =     49188.17701440   -52900.91971150
  entropy T*S    EENTRO =        -0.57325620
  eigenvalues    EBANDS =     -3583.72752992
  atomic energy  EATOM  =     59560.90262231
  Solvation  Ediel_sol  =         0.00000000
  ---------------------------------------------------
  free energy    TOTEN  =      -260.73998853 eV

  energy without entropy =     -260.16673233  energy(sigma->0) =     -260.45336043


--------------------------------------------------------------------------------------------------------




--------------------------------------- Iteration      1(  12)  ---------------------------------------


    POTLOK:  cpu time    0.9489: real time    0.9513
    SETDIJ:  cpu time    0.0230: real time    0.0227
    EDDIAG:  cpu time    4.8403: real time    4.8525
  RMM-DIIS:  cpu time    9.8135: real time    9.8423
    ORTHCH:  cpu time    1.6627: real time    1.6654
       DOS:  cpu time    0.0030: real time    0.0030
    CHARGE:  cpu time    1.0958: real time    1.0995
    MIXING:  cpu time    0.0230: real time    0.0225
    --------------------------------------------
      LOOP:  cpu time   18.4102: real time   18.4592

 eigenvalue-minimisations  :  1569
 total energy-change (2. order) : 0.1463570E+01  (-0.3509969E+00)
 number of electron     556.0000106 magnetization      50.3862797
 augmentation part      339.7341824 magnetization      42.0119539

 Broyden mixing:
  rms(total) = 0.38892E+01    rms(broyden)= 0.38884E+01
  rms(prec ) = 0.43057E+01
  weight for this iteration     100.00

 eigenvalues of (default mixing * dielectric matrix)
  average eigenvalue GAMMA=   0.2610
  0.7295  0.4722  0.1850  0.1850  0.1408  0.0655  0.0493

 Free energy of the ion-electron system (eV)
  ---------------------------------------------------
  alpha Z        PSCENC =       387.12086559
  Ewald energy   TEWEN  =    180938.24842514
  -Hartree energ DENC   =   -235576.60990949
  -exchange      EXHF   =         0.00000000
  -V(xc)+E(xc)   XCENC  =      1688.08203525
  PAW double counting   =     49322.58886025   -53044.80632414
  entropy T*S    EENTRO =        -0.55194553
  eigenvalues    EBANDS =     -3534.25104804
  atomic energy  EATOM  =     59560.90262231
  Solvation  Ediel_sol  =         0.00000000
  ---------------------------------------------------
  free energy    TOTEN  =      -259.27641867 eV

  energy without entropy =     -258.72447313  energy(sigma->0) =     -259.00044590


--------------------------------------------------------------------------------------------------------




--------------------------------------- Iteration      1(  13)  ---------------------------------------


    POTLOK:  cpu time    0.9479: real time    0.9499
    SETDIJ:  cpu time    0.0240: real time    0.0239
    EDDIAG:  cpu time    4.8483: real time    4.8619
  RMM-DIIS:  cpu time    9.7875: real time    9.8125
    ORTHCH:  cpu time    1.6577: real time    1.6611
       DOS:  cpu time    0.0020: real time    0.0015
    CHARGE:  cpu time    1.1048: real time    1.1078
    MIXING:  cpu time    0.0230: real time    0.0229
    --------------------------------------------
      LOOP:  cpu time   18.3952: real time   18.4415

 eigenvalue-minimisations  :  1577
 total energy-change (2. order) : 0.2235829E+01  (-0.2738781E+00)
 number of electron     556.0000128 magnetization      50.1811304
 augmentation part      339.6842209 magnetization      42.0755831

 Broyden mixing:
  rms(total) = 0.30990E+01    rms(broyden)= 0.30984E+01
  rms(prec ) = 0.35164E+01
  weight for this iteration     100.00

 eigenvalues of (default mixing * dielectric matrix)
  average eigenvalue GAMMA=   0.2515
  0.7245  0.3699  0.3699  0.1958  0.1365  0.0853  0.0853  0.0449

 Free energy of the ion-electron system (eV)
  ---------------------------------------------------
  alpha Z        PSCENC =       387.12086559
  Ewald energy   TEWEN  =    180938.24842514
  -Hartree energ DENC   =   -235611.59870117
  -exchange      EXHF   =         0.00000000
  -V(xc)+E(xc)   XCENC  =      1688.73291499
  PAW double counting   =     49458.87945862   -53189.71539228
  entropy T*S    EENTRO =        -0.55437871
  eigenvalues    EBANDS =     -3489.05640423
  atomic energy  EATOM  =     59560.90262231
  Solvation  Ediel_sol  =         0.00000000
  ---------------------------------------------------
  free energy    TOTEN  =      -257.04058974 eV

  energy without entropy =     -256.48621103  energy(sigma->0) =     -256.76340039


--------------------------------------------------------------------------------------------------------




--------------------------------------- Iteration      1(  14)  ---------------------------------------


    POTLOK:  cpu time    0.9449: real time    0.9481
    SETDIJ:  cpu time    0.0250: real time    0.0245
    EDDIAG:  cpu time    4.8473: real time    4.8582
  RMM-DIIS:  cpu time    9.9435: real time    9.9688
    ORTHCH:  cpu time    1.6587: real time    1.6635
       DOS:  cpu time    0.0030: real time    0.0016
    CHARGE:  cpu time    1.0988: real time    1.1018
    MIXING:  cpu time    0.0260: real time    0.0265
    --------------------------------------------
      LOOP:  cpu time   18.5472: real time   18.5931

 eigenvalue-minimisations  :  1583
 total energy-change (2. order) : 0.9705004E+00  (-0.1006214E+00)
 number of electron     556.0000114 magnetization      49.9354090
 augmentation part      339.7670976 magnetization      41.8534544

 Broyden mixing:
  rms(total) = 0.26394E+01    rms(broyden)= 0.26389E+01
  rms(prec ) = 0.29916E+01
  weight for this iteration     100.00

 eigenvalues of (default mixing * dielectric matrix)
  average eigenvalue GAMMA=   0.2684
  0.7259  0.5337  0.5337  0.1745  0.1218  0.1144  0.1040  0.0456  0.0622

 Free energy of the ion-electron system (eV)
  ---------------------------------------------------
  alpha Z        PSCENC =       387.12086559
  Ewald energy   TEWEN  =    180938.24842514
  -Hartree energ DENC   =   -235620.21340345
  -exchange      EXHF   =         0.00000000
  -V(xc)+E(xc)   XCENC  =      1688.94990874
  PAW double counting   =     49507.29881371   -53240.10753814
  entropy T*S    EENTRO =        -0.53865969
  eigenvalues    EBANDS =     -3477.73112360
  atomic energy  EATOM  =     59560.90262231
  Solvation  Ediel_sol  =         0.00000000
  ---------------------------------------------------
  free energy    TOTEN  =      -256.07008939 eV

  energy without entropy =     -255.53142970  energy(sigma->0) =     -255.80075954


--------------------------------------------------------------------------------------------------------




--------------------------------------- Iteration      1(  15)  ---------------------------------------


    POTLOK:  cpu time    0.9439: real time    0.9456
    SETDIJ:  cpu time    0.0250: real time    0.0244
    EDDIAG:  cpu time    4.8443: real time    4.8568
  RMM-DIIS:  cpu time    9.8515: real time    9.8787
    ORTHCH:  cpu time    1.6927: real time    1.6994
       DOS:  cpu time    0.0030: real time    0.0019
    CHARGE:  cpu time    1.0998: real time    1.1036
    MIXING:  cpu time    0.0290: real time    0.0291
    --------------------------------------------
      LOOP:  cpu time   18.4892: real time   18.5394

 eigenvalue-minimisations  :  1569
 total energy-change (2. order) : 0.1396051E+01  (-0.9520625E-01)
 number of electron     556.0000114 magnetization      49.7678083
 augmentation part      339.7435174 magnetization      41.7333971

 Broyden mixing:
  rms(total) = 0.16540E+01    rms(broyden)= 0.16534E+01
  rms(prec ) = 0.18569E+01
  weight for this iteration     100.00

 eigenvalues of (default mixing * dielectric matrix)
  average eigenvalue GAMMA=   0.2648
  0.7312  0.5864  0.5864  0.1859  0.1329  0.1243  0.1243  0.0742  0.0455  0.0575

 Free energy of the ion-electron system (eV)
  ---------------------------------------------------
  alpha Z        PSCENC =       387.12086559
  Ewald energy   TEWEN  =    180938.24842514
  -Hartree energ DENC   =   -235628.21614543
  -exchange      EXHF   =         0.00000000
  -V(xc)+E(xc)   XCENC  =      1689.34139738
  PAW double counting   =     49560.96751512   -53295.14917875
  entropy T*S    EENTRO =        -0.61860297
  eigenvalues    EBANDS =     -3467.27093688
  atomic energy  EATOM  =     59560.90262231
  Solvation  Ediel_sol  =         0.00000000
  ---------------------------------------------------
  free energy    TOTEN  =      -254.67403850 eV

  energy without entropy =     -254.05543553  energy(sigma->0) =     -254.36473701


--------------------------------------------------------------------------------------------------------




--------------------------------------- Iteration      1(  16)  ---------------------------------------


    POTLOK:  cpu time    0.9479: real time    0.9505
    SETDIJ:  cpu time    0.0240: real time    0.0241
    EDDIAG:  cpu time    4.8373: real time    4.8482
  RMM-DIIS:  cpu time   10.0485: real time   10.0757
    ORTHCH:  cpu time    1.6587: real time    1.6613
       DOS:  cpu time    0.0020: real time    0.0021
    CHARGE:  cpu time    1.1008: real time    1.1038
    MIXING:  cpu time    0.0320: real time    0.0310
    --------------------------------------------
      LOOP:  cpu time   18.6512: real time   18.6968

 eigenvalue-minimisations  :  1586
 total energy-change (2. order) : 0.3750827E+00  (-0.6408829E-01)
 number of electron     556.0000123 magnetization      49.4335528
 augmentation part      339.8824298 magnetization      41.6020602

 Broyden mixing:
  rms(total) = 0.10973E+01    rms(broyden)= 0.10966E+01
  rms(prec ) = 0.12308E+01
  weight for this iteration     100.00

 eigenvalues of (default mixing * dielectric matrix)
  average eigenvalue GAMMA=   0.2726
  0.7664  0.6196  0.6196  0.2796  0.1507  0.1507  0.1471  0.0813  0.0813  0.0455
  0.0572

 Free energy of the ion-electron system (eV)
  ---------------------------------------------------
  alpha Z        PSCENC =       387.12086559
  Ewald energy   TEWEN  =    180938.24842514
  -Hartree energ DENC   =   -235632.25091622
  -exchange      EXHF   =         0.00000000
  -V(xc)+E(xc)   XCENC  =      1689.35546068
  PAW double counting   =     49594.02885967   -53328.76445680
  entropy T*S    EENTRO =        -0.68404776
  eigenvalues    EBANDS =     -3462.25576846
  atomic energy  EATOM  =     59560.90262231
  Solvation  Ediel_sol  =         0.00000000
  ---------------------------------------------------
  free energy    TOTEN  =      -254.29895585 eV

  energy without entropy =     -253.61490809  energy(sigma->0) =     -253.95693197


--------------------------------------------------------------------------------------------------------




--------------------------------------- Iteration      1(  17)  ---------------------------------------


    POTLOK:  cpu time    0.9519: real time    0.9552
    SETDIJ:  cpu time    0.0250: real time    0.0245
    EDDIAG:  cpu time    4.8353: real time    4.8474
  RMM-DIIS:  cpu time    9.9595: real time    9.9855
    ORTHCH:  cpu time    1.6577: real time    1.6605
       DOS:  cpu time    0.0030: real time    0.0027
    CHARGE:  cpu time    1.1028: real time    1.1059
    MIXING:  cpu time    0.0340: real time    0.0339
    --------------------------------------------
      LOOP:  cpu time   18.5692: real time   18.6156

 eigenvalue-minimisations  :  1577
 total energy-change (2. order) :-0.5877990E+00  (-0.8007293E-01)
 number of electron     556.0000096 magnetization      48.6399073
 augmentation part      339.9426943 magnetization      40.9344968

 Broyden mixing:
  rms(total) = 0.19960E+01    rms(broyden)= 0.19954E+01
  rms(prec ) = 0.22825E+01
  weight for this iteration     100.00

 eigenvalues of (default mixing * dielectric matrix)
  average eigenvalue GAMMA=   0.3080
  0.8798  0.7825  0.7825  0.4406  0.1680  0.1458  0.1458  0.0952  0.0911  0.0455
  0.0650  0.0545

 Free energy of the ion-electron system (eV)
  ---------------------------------------------------
  alpha Z        PSCENC =       387.12086559
  Ewald energy   TEWEN  =    180938.24842514
  -Hartree energ DENC   =   -235649.00723808
  -exchange      EXHF   =         0.00000000
  -V(xc)+E(xc)   XCENC  =      1689.31269405
  PAW double counting   =     49661.98697118   -53399.90356072
  entropy T*S    EENTRO =        -0.68219725
  eigenvalues    EBANDS =     -3442.86533706
  atomic energy  EATOM  =     59560.90262231
  Solvation  Ediel_sol  =         0.00000000
  ---------------------------------------------------
  free energy    TOTEN  =      -254.88675484 eV

  energy without entropy =     -254.20455759  energy(sigma->0) =     -254.54565622


--------------------------------------------------------------------------------------------------------




--------------------------------------- Iteration      1(  18)  ---------------------------------------


    POTLOK:  cpu time    0.9429: real time    0.9452
    SETDIJ:  cpu time    0.0250: real time    0.0239
    EDDIAG:  cpu time    4.8473: real time    4.8585
  RMM-DIIS:  cpu time    9.8125: real time    9.8383
    ORTHCH:  cpu time    1.6557: real time    1.6601
       DOS:  cpu time    0.0030: real time    0.0024
    CHARGE:  cpu time    1.1038: real time    1.1068
    MIXING:  cpu time    0.0380: real time    0.0380
    --------------------------------------------
      LOOP:  cpu time   18.4282: real time   18.4732

 eigenvalue-minimisations  :  1563
 total energy-change (2. order) : 0.3643308E+00  (-0.8638939E-01)
 number of electron     556.0000121 magnetization      48.4544252
 augmentation part      340.0648772 magnetization      41.2317568

 Broyden mixing:
  rms(total) = 0.15773E+01    rms(broyden)= 0.15764E+01
  rms(prec ) = 0.17619E+01
  weight for this iteration     100.00

 eigenvalues of (default mixing * dielectric matrix)
  average eigenvalue GAMMA=   0.2971
  0.9173  0.7844  0.7844  0.4542  0.1760  0.1525  0.1525  0.1035  0.1035  0.0745
  0.0455  0.0600  0.0538

 Free energy of the ion-electron system (eV)
  ---------------------------------------------------
  alpha Z        PSCENC =       387.12086559
  Ewald energy   TEWEN  =    180938.24842514
  -Hartree energ DENC   =   -235689.96132304
  -exchange      EXHF   =         0.00000000
  -V(xc)+E(xc)   XCENC  =      1689.05288724
  PAW double counting   =     49818.25750353   -53563.97093746
  entropy T*S    EENTRO =        -0.67000979
  eigenvalues    EBANDS =     -3393.50245761
  atomic energy  EATOM  =     59560.90262231
  Solvation  Ediel_sol  =         0.00000000
  ---------------------------------------------------
  free energy    TOTEN  =      -254.52242409 eV

  energy without entropy =     -253.85241430  energy(sigma->0) =     -254.18741919


--------------------------------------------------------------------------------------------------------




--------------------------------------- Iteration      1(  19)  ---------------------------------------


    POTLOK:  cpu time    0.9449: real time    0.9468
    SETDIJ:  cpu time    0.0250: real time    0.0241
    EDDIAG:  cpu time    4.8243: real time    4.8367
  RMM-DIIS:  cpu time   10.0515: real time   10.0778
    ORTHCH:  cpu time    1.6617: real time    1.6651
       DOS:  cpu time    0.0020: real time    0.0012
    CHARGE:  cpu time    1.0998: real time    1.1044
    MIXING:  cpu time    0.0430: real time    0.0420
    --------------------------------------------
      LOOP:  cpu time   18.6522: real time   18.6980

 eigenvalue-minimisations  :  1602
 total energy-change (2. order) : 0.2747458E+00  (-0.4388457E-01)
 number of electron     556.0000126 magnetization      48.0168784
 augmentation part      339.9434542 magnetization      40.8985653

 Broyden mixing:
  rms(total) = 0.81127E+00    rms(broyden)= 0.81064E+00
  rms(prec ) = 0.89407E+00
  weight for this iteration     100.00

 eigenvalues of (default mixing * dielectric matrix)
  average eigenvalue GAMMA=   0.3245
  0.9667  0.8993  0.8993  0.4483  0.4483  0.1600  0.1442  0.1442  0.1095  0.0849
  0.0770  0.0455  0.0614  0.0539

 Free energy of the ion-electron system (eV)
  ---------------------------------------------------
  alpha Z        PSCENC =       387.12086559
  Ewald energy   TEWEN  =    180938.24842514
  -Hartree energ DENC   =   -235701.55136797
  -exchange      EXHF   =         0.00000000
  -V(xc)+E(xc)   XCENC  =      1688.80619732
  PAW double counting   =     49849.98905816   -53597.91437080
  entropy T*S    EENTRO =        -0.69818046
  eigenvalues    EBANDS =     -3379.15092754
  atomic energy  EATOM  =     59560.90262231
  Solvation  Ediel_sol  =         0.00000000
  ---------------------------------------------------
  free energy    TOTEN  =      -254.24767825 eV

  energy without entropy =     -253.54949779  energy(sigma->0) =     -253.89858802


--------------------------------------------------------------------------------------------------------




--------------------------------------- Iteration      1(  20)  ---------------------------------------


    POTLOK:  cpu time    0.9469: real time    0.9500
    SETDIJ:  cpu time    0.0240: real time    0.0239
    EDDIAG:  cpu time    4.8263: real time    4.8375
  RMM-DIIS:  cpu time    9.8635: real time    9.9523
    ORTHCH:  cpu time    1.6587: real time    1.6616
       DOS:  cpu time    0.0020: real time    0.0024
    CHARGE:  cpu time    1.1048: real time    1.1067
    MIXING:  cpu time    0.0470: real time    0.0476
    --------------------------------------------
      LOOP:  cpu time   18.4732: real time   18.5820

 eigenvalue-minimisations  :  1576
 total energy-change (2. order) :-0.6856824E+00  (-0.5654221E-01)
 number of electron     556.0000110 magnetization      47.2220867
 augmentation part      340.0656145 magnetization      40.2572787

 Broyden mixing:
  rms(total) = 0.13687E+01    rms(broyden)= 0.13682E+01
  rms(prec ) = 0.15244E+01
  weight for this iteration     100.00

 eigenvalues of (default mixing * dielectric matrix)
  average eigenvalue GAMMA=   0.3509
  1.1319  1.0109  1.0109  0.5614  0.5614  0.1691  0.1429  0.1429  0.1230  0.0922
  0.0887  0.0455  0.0678  0.0605  0.0537

 Free energy of the ion-electron system (eV)
  ---------------------------------------------------
  alpha Z        PSCENC =       387.12086559
  Ewald energy   TEWEN  =    180938.24842514
  -Hartree energ DENC   =   -235719.17738401
  -exchange      EXHF   =         0.00000000
  -V(xc)+E(xc)   XCENC  =      1688.35666415
  PAW double counting   =     49903.45621420   -53653.90233668
  entropy T*S    EENTRO =        -0.64848801
  eigenvalues    EBANDS =     -3359.28994338
  atomic energy  EATOM  =     59560.90262231
  Solvation  Ediel_sol  =         0.00000000
  ---------------------------------------------------
  free energy    TOTEN  =      -254.93336069 eV

  energy without entropy =     -254.28487268  energy(sigma->0) =     -254.60911669


--------------------------------------------------------------------------------------------------------




--------------------------------------- Iteration      1(  21)  ---------------------------------------


    POTLOK:  cpu time    0.9469: real time    0.9494
    SETDIJ:  cpu time    0.0240: real time    0.0242
    EDDIAG:  cpu time    4.8333: real time    4.8437
  RMM-DIIS:  cpu time    9.7215: real time    9.7480
    ORTHCH:  cpu time    1.6517: real time    1.6568
       DOS:  cpu time    0.0040: real time    0.0027
    CHARGE:  cpu time    1.1208: real time    1.1239
    MIXING:  cpu time    0.0520: real time    0.0515
    --------------------------------------------
      LOOP:  cpu time   18.3542: real time   18.4003

 eigenvalue-minimisations  :  1550
 total energy-change (2. order) :-0.4451754E+00  (-0.5552236E-01)
 number of electron     556.0000110 magnetization      46.9696581
 augmentation part      340.3285228 magnetization      40.6261930

 Broyden mixing:
  rms(total) = 0.93642E+00    rms(broyden)= 0.93588E+00
  rms(prec ) = 0.10488E+01
  weight for this iteration     100.00

 eigenvalues of (default mixing * dielectric matrix)
  average eigenvalue GAMMA=   0.3418
  1.1565  1.0212  1.0212  0.5739  0.5739  0.1693  0.1693  0.1398  0.1398  0.0981
  0.0981  0.0807  0.0455  0.0657  0.0617  0.0538

 Free energy of the ion-electron system (eV)
  ---------------------------------------------------
  alpha Z        PSCENC =       387.12086559
  Ewald energy   TEWEN  =    180938.24842514
  -Hartree energ DENC   =   -235747.12248194
  -exchange      EXHF   =         0.00000000
  -V(xc)+E(xc)   XCENC  =      1687.58614605
  PAW double counting   =     49989.42026341   -53743.20734962
  entropy T*S    EENTRO =        -0.68644486
  eigenvalues    EBANDS =     -3327.64058213
  atomic energy  EATOM  =     59560.90262231
  Solvation  Ediel_sol  =         0.00000000
  ---------------------------------------------------
  free energy    TOTEN  =      -255.37853605 eV

  energy without entropy =     -254.69209119  energy(sigma->0) =     -255.03531362


--------------------------------------------------------------------------------------------------------




--------------------------------------- Iteration      1(  22)  ---------------------------------------


    POTLOK:  cpu time    0.9489: real time    0.9517
    SETDIJ:  cpu time    0.0240: real time    0.0231
    EDDIAG:  cpu time    4.8433: real time    4.8558
  RMM-DIIS:  cpu time    9.9495: real time    9.9912
    ORTHCH:  cpu time    1.6617: real time    1.6643
       DOS:  cpu time    0.0010: real time    0.0010
    CHARGE:  cpu time    1.1068: real time    1.1100
    MIXING:  cpu time    0.0550: real time    0.0551
    --------------------------------------------
      LOOP:  cpu time   18.5902: real time   18.6522

 eigenvalue-minimisations  :  1587
 total energy-change (2. order) :-0.1544344E-01  (-0.2299156E-01)
 number of electron     556.0000127 magnetization      46.5152766
 augmentation part      340.4359738 magnetization      40.3621735

 Broyden mixing:
  rms(total) = 0.59213E+00    rms(broyden)= 0.59177E+00
  rms(prec ) = 0.66450E+00
  weight for this iteration     100.00

 eigenvalues of (default mixing * dielectric matrix)
  average eigenvalue GAMMA=   0.3565
  1.2522  1.0173  1.0173  0.6179  0.6179  0.4708  0.1724  0.1458  0.1458  0.1148
  0.0967  0.0896  0.0455  0.0759  0.0656  0.0610  0.0537

 Free energy of the ion-electron system (eV)
  ---------------------------------------------------
  alpha Z        PSCENC =       387.12086559
  Ewald energy   TEWEN  =    180938.24842514
  -Hartree energ DENC   =   -235755.22174931
  -exchange      EXHF   =         0.00000000
  -V(xc)+E(xc)   XCENC  =      1687.49771004
  PAW double counting   =     50012.13222458   -53766.53519909
  entropy T*S    EENTRO =        -0.70675523
  eigenvalues    EBANDS =     -3318.83212353
  atomic energy  EATOM  =     59560.90262231
  Solvation  Ediel_sol  =         0.00000000
  ---------------------------------------------------
  free energy    TOTEN  =      -255.39397948 eV

  energy without entropy =     -254.68722426  energy(sigma->0) =     -255.04060187


--------------------------------------------------------------------------------------------------------




--------------------------------------- Iteration      1(  23)  ---------------------------------------


    POTLOK:  cpu time    0.9479: real time    0.9499
    SETDIJ:  cpu time    0.0240: real time    0.0240
    EDDIAG:  cpu time    4.8603: real time    4.8720
  RMM-DIIS:  cpu time    9.9375: real time    9.9630
    ORTHCH:  cpu time    1.6567: real time    1.6604
       DOS:  cpu time    0.0030: real time    0.0025
    CHARGE:  cpu time    1.1218: real time    1.1251
    MIXING:  cpu time    0.0590: real time    0.0588
    --------------------------------------------
      LOOP:  cpu time   18.6102: real time   18.6557

 eigenvalue-minimisations  :  1580
 total energy-change (2. order) :-0.3681303E+00  (-0.2138269E-01)
 number of electron     556.0000118 magnetization      45.9902144
 augmentation part      340.5042886 magnetization      40.0345894

 Broyden mixing:
  rms(total) = 0.89088E+00    rms(broyden)= 0.89059E+00
  rms(prec ) = 0.10133E+01
  weight for this iteration     100.00

 eigenvalues of (default mixing * dielectric matrix)
  average eigenvalue GAMMA=   0.3730
  1.6134  0.9201  0.9201  0.7745  0.7745  0.5542  0.1746  0.1457  0.1457  0.1161
  0.1072  0.0875  0.0875  0.0455  0.0537  0.0690  0.0606  0.0636

 Free energy of the ion-electron system (eV)
  ---------------------------------------------------
  alpha Z        PSCENC =       387.12086559
  Ewald energy   TEWEN  =    180938.24842514
  -Hartree energ DENC   =   -235771.72178136
  -exchange      EXHF   =         0.00000000
  -V(xc)+E(xc)   XCENC  =      1687.36806560
  PAW double counting   =     50044.42049815   -53799.85542890
  entropy T*S    EENTRO =        -0.69464010
  eigenvalues    EBANDS =     -3301.55073621
  atomic energy  EATOM  =     59560.90262231
  Solvation  Ediel_sol  =         0.00000000
  ---------------------------------------------------
  free energy    TOTEN  =      -255.76210978 eV

  energy without entropy =     -255.06746968  energy(sigma->0) =     -255.41478973


--------------------------------------------------------------------------------------------------------




--------------------------------------- Iteration      1(  24)  ---------------------------------------


    POTLOK:  cpu time    0.9399: real time    0.9438
    SETDIJ:  cpu time    0.0250: real time    0.0241
    EDDIAG:  cpu time    4.8273: real time    4.8397
  RMM-DIIS:  cpu time    9.9015: real time    9.9255
    ORTHCH:  cpu time    1.6587: real time    1.6639
       DOS:  cpu time    0.0020: real time    0.0015
    CHARGE:  cpu time    1.1098: real time    1.1132
    MIXING:  cpu time    0.0650: real time    0.0641
    --------------------------------------------
      LOOP:  cpu time   18.5292: real time   18.5757

 eigenvalue-minimisations  :  1573
 total energy-change (2. order) :-0.5448790E+00  (-0.1855952E-01)
 number of electron     556.0000120 magnetization      45.8588765
 augmentation part      340.4536659 magnetization      40.1480417

 Broyden mixing:
  rms(total) = 0.67842E+00    rms(broyden)= 0.67806E+00
  rms(prec ) = 0.79260E+00
  weight for this iteration     100.00

 eigenvalues of (default mixing * dielectric matrix)
  average eigenvalue GAMMA=   0.3638
  1.7081  0.9112  0.9112  0.7884  0.7884  0.5547  0.1768  0.1465  0.1465  0.1199
  0.1199  0.0908  0.0908  0.0772  0.0455  0.0651  0.0538  0.0599  0.0571

 Free energy of the ion-electron system (eV)
  ---------------------------------------------------
  alpha Z        PSCENC =       387.12086559
  Ewald energy   TEWEN  =    180938.24842514
  -Hartree energ DENC   =   -235792.04156581
  -exchange      EXHF   =         0.00000000
  -V(xc)+E(xc)   XCENC  =      1686.96576053
  PAW double counting   =     50076.55605418   -53833.17828024
  entropy T*S    EENTRO =        -0.71991164
  eigenvalues    EBANDS =     -3280.16095883
  atomic energy  EATOM  =     59560.90262231
  Solvation  Ediel_sol  =         0.00000000
  ---------------------------------------------------
  free energy    TOTEN  =      -256.30698876 eV

  energy without entropy =     -255.58707712  energy(sigma->0) =     -255.94703294


--------------------------------------------------------------------------------------------------------




--------------------------------------- Iteration      1(  25)  ---------------------------------------


    POTLOK:  cpu time    0.9469: real time    0.9495
    SETDIJ:  cpu time    0.0250: real time    0.0245
    EDDIAG:  cpu time    4.8393: real time    4.8509
  RMM-DIIS:  cpu time    9.9885: real time   10.0227
    ORTHCH:  cpu time    1.6547: real time    1.6585
       DOS:  cpu time    0.0020: real time    0.0014
    CHARGE:  cpu time    1.1158: real time    1.1191
    MIXING:  cpu time    0.0690: real time    0.0685
    --------------------------------------------
      LOOP:  cpu time   18.6412: real time   18.6951

 eigenvalue-minimisations  :  1600
 total energy-change (2. order) : 0.7482308E-02  (-0.5422282E-02)
 number of electron     556.0000126 magnetization      45.7508298
 augmentation part      340.4251842 magnetization      40.1028663

 Broyden mixing:
  rms(total) = 0.46763E+00    rms(broyden)= 0.46742E+00
  rms(prec ) = 0.53032E+00
  weight for this iteration     100.00

 eigenvalues of (default mixing * dielectric matrix)
  average eigenvalue GAMMA=   0.3554
  1.7457  0.9023  0.9023  0.7982  0.7982  0.5315  0.2301  0.1646  0.1476  0.1476
  0.1221  0.0961  0.0961  0.0838  0.0455  0.0664  0.0629  0.0629  0.0538  0.0507

 Free energy of the ion-electron system (eV)
  ---------------------------------------------------
  alpha Z        PSCENC =       387.12086559
  Ewald energy   TEWEN  =    180938.24842514
  -Hartree energ DENC   =   -235796.79513220
  -exchange      EXHF   =         0.00000000
  -V(xc)+E(xc)   XCENC  =      1686.96509429
  PAW double counting   =     50082.16453648   -53839.03692139
  entropy T*S    EENTRO =        -0.72225517
  eigenvalues    EBANDS =     -3275.14674151
  atomic energy  EATOM  =     59560.90262231
  Solvation  Ediel_sol  =         0.00000000
  ---------------------------------------------------
  free energy    TOTEN  =      -256.29950645 eV

  energy without entropy =     -255.57725129  energy(sigma->0) =     -255.93837887


--------------------------------------------------------------------------------------------------------




--------------------------------------- Iteration      1(  26)  ---------------------------------------


    POTLOK:  cpu time    0.9429: real time    0.9459
    SETDIJ:  cpu time    0.0250: real time    0.0239
    EDDIAG:  cpu time    4.8553: real time    4.8666
  RMM-DIIS:  cpu time   10.0285: real time   10.0550
    ORTHCH:  cpu time    1.6647: real time    1.6690
       DOS:  cpu time    0.0020: real time    0.0011
    CHARGE:  cpu time    1.0948: real time    1.0978
    MIXING:  cpu time    0.0720: real time    0.0726
    --------------------------------------------
      LOOP:  cpu time   18.6852: real time   18.7320

 eigenvalue-minimisations  :  1592
 total energy-change (2. order) :-0.1070044E+00  (-0.2587144E-02)
 number of electron     556.0000122 magnetization      45.6097204
 augmentation part      340.4251968 magnetization      39.9887969

 Broyden mixing:
  rms(total) = 0.46031E+00    rms(broyden)= 0.46024E+00
  rms(prec ) = 0.50689E+00
  weight for this iteration     100.00

 eigenvalues of (default mixing * dielectric matrix)
  average eigenvalue GAMMA=   0.3526
  1.7502  0.8972  0.8972  0.8315  0.8315  0.4515  0.4515  0.1686  0.1464  0.1464
  0.1216  0.1011  0.1011  0.0828  0.0828  0.0455  0.0708  0.0644  0.0603  0.0536
  0.0491

 Free energy of the ion-electron system (eV)
  ---------------------------------------------------
  alpha Z        PSCENC =       387.12086559
  Ewald energy   TEWEN  =    180938.24842514
  -Hartree energ DENC   =   -235799.71263919
  -exchange      EXHF   =         0.00000000
  -V(xc)+E(xc)   XCENC  =      1686.87203816
  PAW double counting   =     50083.43754601   -53840.37225748
  entropy T*S    EENTRO =        -0.71658829
  eigenvalues    EBANDS =     -3272.18652307
  atomic energy  EATOM  =     59560.90262231
  Solvation  Ediel_sol  =         0.00000000
  ---------------------------------------------------
  free energy    TOTEN  =      -256.40651083 eV

  energy without entropy =     -255.68992253  energy(sigma->0) =     -256.04821668


--------------------------------------------------------------------------------------------------------




--------------------------------------- Iteration      1(  27)  ---------------------------------------


    POTLOK:  cpu time    0.9449: real time    0.9470
[...]
 -0.010  -0.009  -0.001   0.013   0.006   0.006  -0.034   0.026   0.055  -0.004   0.031  -0.017   0.007   0.192  -0.025  -0.000
 -0.031  -0.009  -0.020   0.019   0.023  -0.020   0.005  -0.023   0.008   0.046   0.107  -0.050   0.020  -0.025   0.123  -0.000
 -0.009  -0.003  -0.003   0.000  -0.006  -0.003  -0.001  -0.001  -0.001  -0.003   0.011  -0.004  -0.010  -0.000  -0.000   0.001
  0.000   0.006  -0.003  -0.009  -0.000  -0.001   0.003  -0.002  -0.004   0.000  -0.005   0.002  -0.000  -0.013   0.001  -0.000
  0.006   0.000   0.005  -0.003  -0.009   0.001  -0.001   0.001  -0.000  -0.004  -0.017   0.006  -0.000   0.001  -0.009  -0.000
 total augmentation occupancy for first ion, spin component:           2
  0.148   0.016   0.024  -0.037  -0.060  -0.076  -0.002  -0.002   0.008   0.018  -0.036  -0.008  -0.014   0.006   0.021  -0.000
  0.016   0.127   0.009  -0.011  -0.024  -0.002  -0.078  -0.002  -0.000   0.009  -0.012  -0.002  -0.005   0.002   0.008  -0.000
  0.024   0.009   0.158  -0.040  -0.017  -0.000  -0.001  -0.088   0.013   0.002  -0.011   0.004  -0.009   0.003   0.015  -0.000
 -0.037  -0.011  -0.040   0.138  -0.012   0.008  -0.001   0.014  -0.079   0.008   0.013  -0.001   0.008  -0.004  -0.014   0.000
 -0.060  -0.024  -0.017  -0.012   0.060   0.018   0.009   0.002   0.007  -0.050   0.020   0.005   0.007  -0.003  -0.010   0.000
 -0.076  -0.002  -0.000   0.008   0.018   0.005   0.001   0.000  -0.001  -0.003   0.003   0.002   0.000  -0.000  -0.001   0.000
 -0.002  -0.078  -0.001  -0.001   0.009   0.001   0.006  -0.000  -0.000  -0.001   0.001   0.001  -0.000   0.001  -0.001   0.000
 -0.002  -0.002  -0.088   0.014   0.002   0.000  -0.000   0.009  -0.003  -0.000   0.003   0.002   0.001  -0.001  -0.002   0.000
  0.008  -0.000   0.013  -0.079   0.007  -0.001  -0.000  -0.003   0.007  -0.001  -0.002  -0.002  -0.001  -0.001   0.002  -0.000
  0.018   0.009   0.002   0.008  -0.050  -0.003  -0.001  -0.000  -0.001   0.002  -0.002  -0.001  -0.002  -0.000  -0.000   0.000
 -0.036  -0.012  -0.011   0.013   0.020   0.003   0.001   0.003  -0.002  -0.002   0.002   0.035   0.003  -0.007  -0.004  -0.000
 -0.008  -0.002   0.004  -0.001   0.005   0.002   0.001   0.002  -0.002  -0.001   0.035  -0.016  -0.002   0.001   0.003   0.000
 -0.014  -0.005  -0.009   0.008   0.007   0.000  -0.000   0.001  -0.001  -0.002   0.003  -0.002  -0.011  -0.002  -0.005   0.001
  0.006   0.002   0.003  -0.004  -0.003  -0.000   0.001  -0.001  -0.001  -0.000  -0.007   0.001  -0.002  -0.010   0.002   0.000
  0.021   0.008   0.015  -0.014  -0.010  -0.001  -0.001  -0.002   0.002  -0.000  -0.004   0.003  -0.005   0.002  -0.006   0.000
 -0.000  -0.000  -0.000   0.000   0.000   0.000   0.000   0.000  -0.000   0.000  -0.000   0.000   0.001   0.000   0.000  -0.000
  0.000   0.000   0.000  -0.000  -0.000   0.000  -0.000   0.000   0.000  -0.000   0.000  -0.000   0.000   0.001  -0.000  -0.000
  0.001   0.000   0.000  -0.000  -0.000  -0.000   0.000  -0.000   0.000   0.000   0.000  -0.001   0.000  -0.000   0.001  -0.000


------------------------ aborting loop because EDIFF is reached ----------------------------------------


    CHARGE:  cpu time    1.0968: real time    1.0998
    FORLOC:  cpu time    0.1180: real time    0.1175
    FORNL :  cpu time    3.2215: real time    3.2292
    STRESS:  cpu time    9.6915: real time    9.7145
    FORCOR:  cpu time    0.9209: real time    0.9222
    FORHAR:  cpu time    0.2030: real time    0.2045
    MIXING:  cpu time    0.2030: real time    0.2036
    OFIELD:  cpu time    0.0000: real time    0.0001

  FORCE on cell =-STRESS in cart. coord.  units (eV):
  Direction    XX          YY          ZZ          XY          YZ          ZX
  --------------------------------------------------------------------------------------
  Alpha Z   387.12087   387.12087   387.12087
  Ewald   58743.85876 59039.64932 63154.58364   256.13270 -1023.36568  -702.04542
  Hartree 77133.76285 77412.64645 81280.96698   240.73521  -941.64386  -654.37192
  E(xc)   -3041.07019 -3041.03075 -3040.43445     0.01958    -0.17339    -0.08074
  Local  ************************************  -497.03657  1964.82076  1356.59643
  n-local -1784.34688 -1783.35767 -1780.31349    -0.54647    -0.86919    -0.52998
  augment  2826.03052  2825.48802  2824.04411     0.37231     0.31235     0.13872
  Kinetic  4354.88509  4354.14223  4350.15467     0.44599     0.88537     0.23119
  Fock        0.00000     0.00000     0.00000     0.00000     0.00000     0.00000
  -------------------------------------------------------------------------------------
  Total      -2.74166    -2.74968    -2.58402     0.12276    -0.03365    -0.06171
  in kB      -0.54908    -0.55069    -0.51751     0.02458    -0.00674    -0.01236
  external pressure =       -0.54 kB  Pullay stress =        0.00 kB


 VOLUME and BASIS-vectors are now :
 -----------------------------------------------------------------------------
  energy-cutoff  :      400.00
  volume of cell :     8000.00
      direct lattice vectors                 reciprocal lattice vectors
    20.000000000  0.000000000  0.000000000     0.050000000  0.000000000  0.000000000
     0.000000000 20.000000000  0.000000000     0.000000000  0.050000000  0.000000000
     0.000000000  0.000000000 20.000000000     0.000000000  0.000000000  0.050000000

  length of vectors
    20.000000000 20.000000000 20.000000000     0.050000000  0.050000000  0.050000000


 FORCES acting on ions
    electron-ion (+dipol)            ewald-force                    non-local-force                 convergence-correction
 -----------------------------------------------------------------------------------------------
   0.182E+04 -.116E+04 0.604E+03   -.182E+04 0.116E+04 -.604E+03   -.216E+01 0.136E+01 -.510E+00   0.104E-02 0.313E-03 -.156E-02
   0.716E+03 -.189E+04 0.962E+03   -.715E+03 0.189E+04 -.961E+03   -.694E+00 0.211E+01 -.101E+01   -.656E-03 -.950E-03 -.675E-03
   0.115E+04 -.189E+04 -.358E+03   -.115E+04 0.188E+04 0.358E+03   -.132E+01 0.210E+01 0.443E+00   -.176E-03 -.154E-03 -.166E-02
   0.304E+02 -.227E+04 0.721E+00   -.303E+02 0.227E+04 -.591E+00   -.232E-01 0.690E+01 -.119E+00   -.778E-04 -.614E-03 -.100E-02
   0.127E+02 -.130E+04 0.536E+01   -.128E+02 0.130E+04 -.532E+01   0.527E-01 0.781E+00 -.516E-01   -.527E-03 0.200E-03 -.164E-02
   -.676E+03 -.191E+04 0.958E+03   0.675E+03 0.190E+04 -.957E+03   0.685E+00 0.217E+01 -.979E+00   -.607E-03 -.163E-03 -.141E-03
   -.111E+04 -.191E+04 -.363E+03   0.110E+04 0.191E+04 0.363E+03   0.128E+01 0.224E+01 0.477E+00   -.123E-03 0.417E-03 -.917E-03
   0.197E+04 -.103E+04 -.631E+03   -.196E+04 0.103E+04 0.630E+03   -.590E+01 0.291E+01 0.180E+01   0.186E-03 0.128E-03 -.800E-03
   0.182E+04 0.574E+01 -.127E+04   -.181E+04 -.593E+01 0.127E+04   -.188E+01 0.183E+00 0.205E+01   -.134E-03 -.670E-03 -.943E-04
   0.111E+04 -.581E+03 -.339E+03   -.111E+04 0.580E+03 0.339E+03   -.733E+00 0.338E+00 0.831E-01   0.309E-04 0.122E-03 -.149E-02
   0.115E+04 -.118E+04 -.151E+04   -.115E+04 0.118E+04 0.151E+04   -.157E+01 0.169E+01 0.167E+01   -.744E-03 -.166E-03 -.744E-03
   0.226E+02 -.190E+04 -.117E+04   -.225E+02 0.190E+04 0.117E+04   -.101E+00 0.209E+01 0.128E+01   0.760E-04 0.569E-03 -.120E-02
   0.117E+02 -.586E+03 -.114E+04   -.119E+02 0.585E+03 0.114E+04   0.249E+00 0.551E+00 0.433E+00   -.390E-03 -.382E-03 -.116E-02
   -.110E+04 -.598E+03 -.352E+03   0.110E+04 0.597E+03 0.352E+03   0.651E+00 0.386E+00 0.743E-01   -.475E-03 0.729E-03 -.974E-03
   -.112E+04 -.121E+04 -.153E+04   0.112E+04 0.121E+04 0.152E+04   0.117E+01 0.137E+01 0.156E+01   0.514E-03 0.380E-03 -.430E-03
   0.123E+04 -.103E+04 0.167E+04   -.123E+04 0.103E+04 -.166E+04   -.355E+01 0.299E+01 -.505E+01   -.265E-03 0.482E-03 0.763E-03
   0.180E+04 0.151E+02 0.133E+04   -.180E+04 -.152E+02 -.133E+04   -.189E+01 0.345E-01 -.167E+01   0.345E-03 0.161E-02 -.244E-03
   0.692E+03 0.507E+00 0.211E+04   -.691E+03 -.383E+00 -.211E+04   -.967E+00 -.127E+00 -.232E+01   -.818E-03 0.139E-02 0.635E-03
   0.688E+03 -.575E+03 0.944E+03   -.688E+03 0.574E+03 -.943E+03   -.397E+00 0.335E+00 -.611E+00   -.101E-02 0.134E-02 -.371E-03
   0.926E+01 -.119E+04 0.189E+04   -.918E+01 0.119E+04 -.189E+04   -.725E-01 0.134E+01 -.204E+01   -.107E-02 0.557E-03 0.845E-03
   -.801E+01 0.577E+03 0.116E+04   0.801E+01 -.577E+03 -.116E+04   0.385E-03 -.313E+00 -.729E+00   -.236E-03 0.663E-03 0.306E-03
   -.705E+03 -.129E+02 0.210E+04   0.705E+03 0.129E+02 -.210E+04   0.773E+00 -.726E-01 -.232E+01   0.153E-03 0.500E-03 0.229E-03
   -.680E+03 -.594E+03 0.938E+03   0.680E+03 0.593E+03 -.937E+03   0.496E+00 0.380E+00 -.439E+00   -.708E-03 0.778E-03 -.298E-03
   0.222E+04 0.222E+02 0.207E+02   -.221E+04 -.222E+02 -.206E+02   -.247E+01 -.167E-01 -.663E-01   0.724E-03 0.239E-03 -.498E-03
   0.180E+04 0.121E+04 -.553E+03   -.180E+04 -.120E+04 0.553E+03   -.254E+01 -.147E+01 -.366E+00   0.221E-03 -.112E-03 0.352E-03
   0.109E+04 0.593E+03 0.368E+03   -.109E+04 -.592E+03 -.368E+03   -.604E+00 -.365E+00 0.207E-01   0.202E-04 0.747E-03 -.559E-04
   0.663E+03 0.579E+03 -.918E+03   -.663E+03 -.579E+03 0.918E+03   -.213E+00 -.141E+00 0.839E-01   -.791E-03 -.513E-03 -.331E-03
   -.357E+01 -.353E+01 0.108E+02   0.365E+01 0.357E+01 -.108E+02   -.740E-01 -.317E-01 -.219E-01   -.970E-03 0.559E-03 -.972E-03
   -.251E+02 0.129E+04 0.234E+02   0.252E+02 -.129E+04 -.233E+02   -.597E-01 -.808E+00 -.129E+00   -.680E-03 0.206E-03 -.895E-04
   -.111E+04 0.564E+03 0.367E+03   0.111E+04 -.564E+03 -.367E+03   0.688E+00 -.260E+00 -.259E+00   -.265E-03 0.202E-03 -.964E-03
   -.690E+03 0.575E+03 -.917E+03   0.689E+03 -.575E+03 0.916E+03   0.681E+00 -.135E+00 0.303E+00   -.671E-03 -.265E-03 0.109E-03
   -.179E+04 -.121E+04 0.591E+03   0.179E+04 0.121E+04 -.591E+03   0.191E+01 0.129E+01 -.659E+00   -.673E-03 0.503E-03 -.571E-03
   -.194E+04 -.107E+04 -.649E+03   0.194E+04 0.107E+04 0.647E+03   0.575E+01 0.312E+01 0.187E+01   0.526E-04 0.665E-03 -.258E-03
   -.182E+04 -.278E+02 -.130E+04   0.182E+04 0.278E+02 0.130E+04   0.199E+01 -.706E-02 0.129E+01   0.275E-03 -.136E-04 0.440E-03
   -.122E+04 -.106E+04 0.166E+04   0.121E+04 0.106E+04 -.166E+04   0.355E+01 0.309E+01 -.484E+01   -.324E-03 0.275E-03 0.167E-03
   -.181E+04 -.250E+02 0.132E+04   0.180E+04 0.251E+02 -.132E+04   0.203E+01 -.605E-01 -.141E+01   -.876E-04 0.125E-03 -.401E-03
   -.222E+04 -.314E+02 0.595E+01   0.221E+04 0.313E+02 -.599E+01   0.262E+01 0.190E-01 0.430E-01   0.158E-03 0.929E-04 -.724E-03
   -.182E+04 0.116E+04 -.572E+03   0.182E+04 -.116E+04 0.572E+03   0.198E+01 -.133E+01 0.625E+00   0.214E-03 -.330E-03 -.174E-03
   0.688E+03 -.127E+03 -.198E+04   -.687E+03 0.128E+03 0.198E+04   -.111E+00 -.173E+01 0.702E+00   -.557E-03 -.108E-02 -.120E-03
   -.446E+01 -.109E+04 -.202E+04   0.421E+01 0.109E+04 0.201E+04   0.257E+00 0.297E+01 0.647E+01   0.660E-04 0.422E-04 0.341E-03
   -.746E+03 -.436E+02 -.207E+04   0.746E+03 0.442E+02 0.206E+04   0.685E-01 -.580E+00 0.323E+01   0.210E-03 -.819E-03 0.349E-03
   0.128E+04 0.107E+04 -.148E+04   -.128E+04 -.107E+04 0.148E+04   -.111E+01 -.128E+01 0.320E+01   -.175E-03 -.303E-03 -.387E-03
   0.671E+03 0.191E+04 -.906E+03   -.671E+03 -.190E+04 0.904E+03   -.402E+00 -.227E+01 0.159E+01   -.535E-03 0.245E-03 0.372E-03
   -.117E+03 0.120E+04 -.174E+04   0.119E+03 -.120E+04 0.174E+04   -.143E+01 0.446E+00 0.112E+01   -.425E-03 -.501E-03 0.105E-03
   -.726E+03 0.189E+04 -.923E+03   0.725E+03 -.189E+04 0.922E+03   0.984E+00 -.254E+01 0.851E+00   -.569E-03 -.192E-03 0.407E-03
   -.128E+04 0.103E+04 -.163E+04   0.128E+04 -.103E+04 0.163E+04   0.376E+01 -.283E+01 0.535E+01   -.869E-04 -.368E-03 0.797E-03
   0.110E+04 0.119E+04 0.155E+04   -.110E+04 -.119E+04 -.155E+04   -.117E+01 -.119E+01 -.192E+01   -.306E-03 0.420E-03 0.156E-03
   -.164E+02 0.104E+04 0.205E+04   0.163E+02 -.103E+04 -.204E+04   0.226E-01 -.294E+01 -.621E+01   0.157E-03 -.164E-03 -.174E-03
   -.114E+04 0.116E+04 0.155E+04   0.114E+04 -.116E+04 -.154E+04   0.133E+01 -.123E+01 -.167E+01   0.256E-03 0.319E-04 -.911E-04
   0.194E+04 0.106E+04 0.674E+03   -.193E+04 -.106E+04 -.672E+03   -.583E+01 -.326E+01 -.134E+01   -.481E-04 0.205E-03 -.797E-04
   0.110E+04 0.191E+04 0.390E+03   -.110E+04 -.191E+04 -.390E+03   -.121E+01 -.211E+01 -.472E+00   -.219E-03 0.322E-03 0.411E-03
   -.238E+02 0.189E+04 0.119E+04   0.237E+02 -.189E+04 -.119E+04   0.409E-01 -.230E+01 -.121E+01   0.106E-03 0.165E-04 -.196E-03
   -.115E+04 0.188E+04 0.382E+03   0.115E+04 -.188E+04 -.382E+03   0.125E+01 -.216E+01 -.396E+00   0.796E-04 -.612E-04 -.620E-03
   -.196E+04 0.102E+04 0.652E+03   0.196E+04 -.102E+04 -.650E+03   0.593E+01 -.292E+01 -.203E+01   0.268E-03 -.155E-03 -.806E-03
   -.345E+02 0.227E+04 0.216E+02   0.345E+02 -.227E+04 -.215E+02   -.902E-02 -.684E+01 -.788E-01   -.286E-03 0.242E-03 0.483E-04
   0.265E+03 0.399E+03 -.118E+04   -.265E+03 -.399E+03 0.118E+04   0.490E+00 0.914E+00 -.322E+01   -.883E-04 -.330E-03 -.149E-03
 -----------------------------------------------------------------------------------------------
   -.224E+01 -.277E+01 0.752E+01   -.335E-11 -.174E-10 0.387E-11   0.220E+01 0.278E+01 -.751E+01   -.106E-01 0.701E-02 -.162E-01
 
 
 POSITION                                       TOTAL-FORCE (eV/Angst)
 -----------------------------------------------------------------------------------
      6.99815     11.92164      8.20548         0.010279     -0.005159      0.003028
      9.02577     13.26307      7.55306         0.000123     -0.006800      0.008400
      8.23443     13.25605      9.94174        -0.004260     -0.008362      0.005101
     10.25476     14.47124      9.29084         0.002469     -0.007913      0.010906
     10.29163     12.17204      9.29010        -0.004126      0.007599     -0.008684
     11.53918     13.30164      7.55867        -0.006396     -0.002852      0.000047
     12.31093     13.30621      9.94126         0.007831      0.001471      0.002995
      6.33369     11.85169     10.56216        -0.007757     -0.001499      0.006478
      7.02095      9.76002     11.64870        -0.005666     -0.004054     -0.005115
      8.29938     10.85287      9.92834         0.006888     -0.001265      0.007354
      8.24993     11.91927     12.09394         0.005969     -0.003223      0.002348
     10.27079     13.27001     11.42669        -0.002030      0.008470      0.006478
     10.28836     10.85829     11.40894         0.012745      0.001755      0.006216
     12.30508     10.89136      9.94033         0.004553      0.001578     -0.001014
     12.31749     11.97436     12.08983         0.007896     -0.000382     -0.006163
      7.85309     11.87672      5.91155         0.000633      0.002788      0.005890
      7.03709      9.78124      6.88505         0.004150     -0.000304      0.004338
      9.07949      9.82037      5.40100        -0.001662     -0.001649      0.003329
      9.06995     10.85374      7.57842         0.000451     -0.003405     -0.006314
     10.30352     11.95870      5.81933         0.004955      0.010916      0.003109
     10.33029      8.76931      7.17564        -0.003882     -0.001960     -0.002663
     11.58208      9.84612      5.41246         0.006514     -0.004526     -0.004120
     11.55008     10.89037      7.58639         0.001894     -0.005810     -0.012624
      6.24919      9.75721      9.28216        -0.006559      0.009101     -0.009247
      7.03384      7.62387     10.34441         0.006350      0.005864      0.000154
      8.32398      8.73207      8.65066        -0.002906     -0.000961     -0.010919
      9.09877      8.74748     11.00105        -0.010270     -0.009512     -0.022796
     10.31640      9.81330      9.29347         0.009505     -0.001019      0.001315
     10.35254      7.45652      9.27368        -0.000131      0.000247      0.012324
     12.33845      8.78976      8.63570        -0.001134      0.003727     -0.010019
     11.55774      8.76223     11.00286         0.014334     -0.006394      0.004369
     13.59112     12.00055      8.22134        -0.006476     -0.001949     -0.002375
     14.24219     11.93702     10.58175         0.000841      0.002678     -0.009596
     13.60403      9.84669     11.67814         0.003744      0.004111     -0.007055
     12.74724     11.93626      5.92367        -0.009277     -0.005144     -0.002674
     13.61855      9.86241      6.89180        -0.010676     -0.005100      0.008562
     14.39170      9.86713      9.27904         0.001476      0.001455     -0.005054
     13.63254      7.71411     10.35331        -0.000922      0.000172     -0.001922
      9.04809      9.83155     13.26645         0.017259     -0.008460     -0.005361
     10.28824     11.92852     13.44955         0.006581     -0.006931     -0.002561
     11.59453      9.83988     13.14686        -0.000955      0.000881      0.001916
      7.85708      7.67750     12.65805        -0.002488     -0.001799      0.003492
      9.08662      6.34554     10.99001        -0.005040      0.004064     -0.009964
     10.38645      7.61896     12.83776        -0.005906      0.016405      0.001553
     11.61033      6.36250     11.01984        -0.005357      0.009023     -0.003986
     12.81908      7.74197     12.63913         0.000916      0.008887      0.006401
      8.31461      7.66351      6.47384         0.009047      0.007253      0.008607
     10.34741      7.74604      5.11299        -0.002577     -0.002293      0.002208
     12.38122      7.71202      6.47922        -0.002550      0.002822      0.009885
      6.39004      7.69444      7.96210        -0.006563      0.008585     -0.012234
      8.32060      6.33264      8.62074        -0.000316     -0.005241     -0.015952
     10.36147      6.35680      7.12980        -0.004248      0.013062      0.007763
     12.39613      6.37744      8.60943        -0.002816     -0.006473     -0.001588
     14.30489      7.78300      7.99743        -0.011112      0.001465      0.006139
     10.38035      5.16124      9.26960        -0.001670      0.001357      0.006429
      8.99667      8.02072     14.44368        -0.011676     -0.015296      0.022867
 -----------------------------------------------------------------------------------
    total drift:                               -0.050145      0.016800     -0.002781


--------------------------------------------------------------------------------------------------------



  FREE ENERGIE OF THE ION-ELECTRON SYSTEM (eV)
  ---------------------------------------------------
  free  energy   TOTEN  =      -262.60182485 eV

  energy  without entropy=     -261.92562376  energy(sigma->0) =     -262.26372431
 


--------------------------------------------------------------------------------------------------------


    POTLOK:  cpu time    0.9719: real time    0.9734


--------------------------------------------------------------------------------------------------------


     LOOP+:  cpu time 1499.0191: real time 1502.8855
    4ORBIT:  cpu time    0.0000: real time    0.0000

 total amount of memory used by VASP MPI-rank0   256274. kBytes
=======================================================================

   base      :      30000. kBytes
   nonlr-proj:      12282. kBytes
   fftplans  :      16788. kBytes
   grid      :     106586. kBytes
   one-center:       1741. kBytes
   wavefun   :      88877. kBytes
 
  
  
 General timing and accounting informations for this job:
 ========================================================
  
                  Total CPU time used (sec):     1510.744
                            User time (sec):     1482.362
                          System time (sec):       28.383
                         Elapsed time (sec):     1514.627
  
                   Maximum memory used (kb):      572860.
                   Average memory used (kb):           0.
  
                          Minor page faults:      1558716
                          Major page faults:            0
                 Voluntary context switches:           86
