single                                  
           1
    20.000000    0.000000    0.000000
     0.000000   20.000000    0.000000
     0.000000    0.000000   20.000000
   Ni   S 
  55   1
Direct configuration=     1
   0.34990766  0.59608202  0.41027420
   0.45128849  0.66315330  0.37765323
   0.41172168  0.66280261  0.49708705
   0.51273817  0.72356208  0.46454192
   0.51458150  0.60860195  0.46450489
   0.57695893  0.66508225  0.37793327
   0.61554668  0.66531054  0.49706306
   0.31668456  0.59258437  0.52810787
   0.35104726  0.48800114  0.58243504
   0.41496896  0.54264351  0.49641684
   0.41249642  0.59596369  0.60469712
   0.51353966  0.66350059  0.57133430
   0.51441786  0.54291456  0.57044685
   0.61525399  0.54456776  0.49701638
   0.61587469  0.59871795  0.60449143
   0.39265435  0.59383610  0.29557743
   0.35185429  0.48906176  0.34425259
   0.45397470  0.49101838  0.27004978
   0.45349737  0.54268720  0.37892102
   0.51517609  0.59793502  0.29096653
   0.51651435  0.43846561  0.35878223
   0.57910395  0.49230602  0.27062278
   0.57750422  0.54451845  0.37931926
   0.31245958  0.48786041  0.46410810
   0.35169206  0.38119330  0.51722041
   0.41619880  0.43660352  0.43253277
   0.45493831  0.43737394  0.55005254
   0.51581996  0.49066520  0.46467341
   0.51762688  0.37282599  0.46368385
   0.61692253  0.43948815  0.43178498
   0.57788699  0.43811133  0.55014294
   0.67955595  0.60002730  0.41106690
   0.71210933  0.59685124  0.52908754
   0.68020152  0.49233461  0.58390690
   0.63736185  0.59681316  0.29618357
   0.68092732  0.49312034  0.34459013
   0.71958509  0.49335658  0.46395191
   0.68162706  0.38570541  0.51766538
   0.45240456  0.49157754  0.66332228
   0.51441209  0.59642614  0.67247742
   0.57972658  0.49199415  0.65734298
   0.39285405  0.38387483  0.63290237
   0.45433106  0.31727684  0.54950045
   0.51932228  0.38094781  0.64188802
   0.58051661  0.31812489  0.55099209
   0.64095419  0.38709827  0.63195644
   0.41573051  0.38317549  0.32369215
   0.51737029  0.38730205  0.25564944
   0.61906082  0.38560113  0.32396121
   0.31950221  0.38472182  0.39810505
   0.41603022  0.31663212  0.43103679
   0.51807354  0.31783984  0.35649001
   0.61980645  0.31887205  0.43047163
   0.71524466  0.38914980  0.39987143
   0.51901727  0.25806206  0.46347979
   0.44983362  0.40103578  0.72218398
