Automatically generated mesh
      24
Reciprocal lattice
    0.12500000000000    0.12500000000000    0.00000000000000            16
    0.25000000000000   -0.12500000000000    0.00000000000000            16
    0.12500000000000   -0.25000000000000    0.00000000000000            16
    0.37500000000000    0.12500000000000    0.00000000000000            16
    0.50000000000000   -0.37500000000000    0.00000000000000            16
    0.12500000000000    0.50000000000000    0.00000000000000            16
   -0.12500000000000   -0.37500000000000    0.00000000000000            16
    0.37500000000000    0.50000000000000    0.00000000000000            16
    0.50000000000000   -0.12500000000000    0.00000000000000            16
   -0.37500000000000    0.12500000000000    0.00000000000000            16
   -0.25000000000000    0.37500000000000    0.00000000000000            16
    0.12500000000000    0.25000000000000    0.00000000000000            16
   -0.12500000000000    0.37500000000000    0.00000000000000            16
   -0.37500000000000    0.25000000000000    0.00000000000000            16
   -0.25000000000000   -0.12500000000000    0.00000000000000            16
   -0.12500000000000    0.12500000000000    0.00000000000000            16
    0.00000000000000    0.12500000000000    0.00000000000000            16
    0.12500000000000    0.00000000000000    0.00000000000000            16
    0.37500000000000    0.37500000000000    0.00000000000000            16
   -0.25000000000000   -0.37500000000000    0.00000000000000            16
    0.37500000000000    0.25000000000000    0.00000000000000            16
   -0.37500000000000    0.37500000000000    0.00000000000000            16
    0.00000000000000    0.37500000000000    0.00000000000000            16
    0.37500000000000    0.00000000000000    0.00000000000000            16
