 vasp.5.4.4.18Apr17-6-g9f103f2a35 (build Aug 09 2024 17:42:55) complex          
  
 executed on             LinuxIFC date 2025.12.05  14:46:29
 running on   64 total cores
 each image running on   16 cores
 distrk:  each k-point on   16 cores,    1 groups
 distr:  one band on NCORES_PER_BAND=   2 cores,    8 groups


--------------------------------------------------------------------------------------------------------


 INCAR:
 POTCAR:    PAW_PBE Pd 04Jan2005                  
 POTCAR:    PAW_PBE C 08Apr2002                   
 POTCAR:    PAW_PBE O 08Apr2002                   
 POTCAR:    PAW_PBE Pd 04Jan2005                  
  local pseudopotential read in
  partial core-charges read in
  partial kinetic energy density read in
  atomic valenz-charges read in
  non local Contribution for L=           2  read in
    real space projection operators read in
  non local Contribution for L=           2  read in
    real space projection operators read in
  non local Contribution for L=           0  read in
    real space projection operators read in
  non local Contribution for L=           0  read in
    real space projection operators read in
  non local Contribution for L=           1  read in
    real space projection operators read in
  non local Contribution for L=           1  read in
    real space projection operators read in
    PAW grid and wavefunctions read in
 
   number of l-projection  operators is LMAX  =           6
   number of lm-projection operators is LMMAX =          18
 
 POTCAR:    PAW_PBE C 08Apr2002                   
  local pseudopotential read in
  partial core-charges read in
  partial kinetic energy density read in
  atomic valenz-charges read in
  non local Contribution for L=           0  read in
    real space projection operators read in
  non local Contribution for L=           0  read in
    real space projection operators read in
  non local Contribution for L=           1  read in
    real space projection operators read in
  non local Contribution for L=           1  read in
    real space projection operators read in
    PAW grid and wavefunctions read in
 
   number of l-projection  operators is LMAX  =           4
   number of lm-projection operators is LMMAX =           8
 
 POTCAR:    PAW_PBE O 08Apr2002                   
  local pseudopotential read in
  partial core-charges read in
  partial kinetic energy density read in
  kinetic energy density of atom read in
  atomic valenz-charges read in
  non local Contribution for L=           0  read in
    real space projection operators read in
  non local Contribution for L=           0  read in
    real space projection operators read in
  non local Contribution for L=           1  read in
    real space projection operators read in
  non local Contribution for L=           1  read in
    real space projection operators read in
    PAW grid and wavefunctions read in
 
   number of l-projection  operators is LMAX  =           4
   number of lm-projection operators is LMMAX =           8
 
 Optimization of the real space projectors (new method)

 maximal supplied QI-value         = 14.36
 optimisation between [QCUT,QGAM] = [  9.77, 19.68] = [ 26.71,108.41] Ry 
 Optimized for a Real-space Cutoff    1.52 Angstroem

   l    n(q)    QCUT    max X(q) W(low)/X(q) W(high)/X(q)  e(spline) 
   2      8     9.766    59.108    0.18E-03    0.12E-03    0.98E-07
   2      8     9.766    58.101    0.18E-03    0.12E-03    0.10E-06
   0      9     9.766   102.235    0.37E-04    0.68E-04    0.73E-07
   0      9     9.766    58.388    0.33E-04    0.64E-04    0.69E-07
   1      8     9.766    22.191    0.23E-03    0.61E-04    0.11E-06
   1      8     9.766    15.590    0.19E-03    0.52E-04    0.93E-07
 Optimization of the real space projectors (new method)

 maximal supplied QI-value         = 25.13
 optimisation between [QCUT,QGAM] = [  9.80, 19.60] = [ 26.90,107.62] Ry 
 Optimized for a Real-space Cutoff    1.35 Angstroem

   l    n(q)    QCUT    max X(q) W(low)/X(q) W(high)/X(q)  e(spline) 
   0      8     9.802   115.676    0.45E-03    0.67E-03    0.24E-06
   0      8     9.802    87.132    0.44E-03    0.67E-03    0.24E-06
   1      7     9.802     4.429    0.38E-03    0.18E-03    0.24E-06
   1      7     9.802     2.733    0.25E-03    0.72E-04    0.26E-06
 Optimization of the real space projectors (new method)

 maximal supplied QI-value         = 24.76
 optimisation between [QCUT,QGAM] = [  9.65, 19.56] = [ 26.10,107.10] Ry 
 Optimized for a Real-space Cutoff    1.44 Angstroem

   l    n(q)    QCUT    max X(q) W(low)/X(q) W(high)/X(q)  e(spline) 
   0      8     9.655    20.381    0.19E-03    0.21E-03    0.36E-06
   0      8     9.655    15.268    0.21E-03    0.24E-03    0.37E-06
   1      8     9.655     5.964    0.43E-03    0.39E-03    0.31E-06
   1      8     9.655     5.382    0.36E-03    0.33E-03    0.28E-06
  PAW_PBE Pd 04Jan2005                  :
 energy of atom  1       EATOM= -809.7530
 kinetic energy error for atom=    0.0177 (will be added to EATOM!!)
  PAW_PBE C 08Apr2002                   :
 energy of atom  2       EATOM= -147.1560
 kinetic energy error for atom=    0.0545 (will be added to EATOM!!)
  PAW_PBE O 08Apr2002                   :
 energy of atom  3       EATOM= -432.3788
 kinetic energy error for atom=    0.2342 (will be added to EATOM!!)
 
 
 POSCAR: initial\(6)                             
  positions in direct lattice
  No initial velocities read in
 exchange correlation table for  LEXCH =        8
   RHO(1)=    0.500       N(1)  =     2000
   RHO(2)=  100.500       N(2)  =     4000

 VTST: version 3.2, (02/03/18)

 CHAIN: initializing optimizer
 
 OPT: Using Quick-Min optimizer
 OPT: QM, Init
 OPT: QM, MAXMOVE       0.200000
 OPT: QM, TIMESTEP      0.100000
 
 CHAIN: Read ICHAIN            0
 CHAIN: Running the NEB
 NEB:          SPRING     -5.000000
 NEB:          LCLIMB      T
 NEB:     LTANGENTOLD      F
 NEB:           LDNEB      F
 NEB:        LDNEBORG      F
 NEB:        LNEBCELL      F
 NEB:          EFIRST      0.000000
 NEB:           ELAST      0.000000
 
 POSCAR: initial\(7)                             
  positions in direct lattice
  velocities in cartesian coordinates
 
 POSCAR: final_re                                
  positions in direct lattice
  velocities in cartesian coordinates
 


--------------------------------------------------------------------------------------------------------


 ion  position               nearest neighbor table
   1  1.000  0.001  0.434-  37 2.03  38 2.66   9 2.77   3 2.77  27 2.77   7 2.77   4 2.77  10 2.77
                            13 2.77  25 2.77  19 2.77
   2  0.111  0.223  0.160-   3 2.77   9 2.77  31 2.77  32 2.77  12 2.77  28 2.77   5 2.77   8 2.77
                            26 2.77  20 2.77  14 2.77  11 2.77
   3  0.222  0.112  0.297-   1 2.77   4 2.77   2 2.77   5 2.77  13 2.77  20 2.77   9 2.77  21 2.77
                            27 2.77  12 2.77  15 2.77   6 2.77
   4  0.333  0.001  0.434-  37 2.10   3 2.77  21 2.77   6 2.77   1 2.77  13 2.77  22 2.77  19 2.77
                            16 2.77   7 2.77
   5  0.444  0.223  0.160-  32 2.77   3 2.77  29 2.77  15 2.77   6 2.77  33 2.77   2 2.77  20 2.77
                            23 2.77   8 2.77  17 2.77  14 2.77
   6  0.555  0.112  0.297-   7 2.77   8 2.77  16 2.77  23 2.77   4 2.77   5 2.77   9 2.77  24 2.77
                            15 2.77  18 2.77  21 2.77   3 2.77
   7  0.666  0.001  0.434-   6 2.77   9 2.77  24 2.77   1 2.77  16 2.77  10 2.77  25 2.77  22 2.77
                             4 2.77
   8  0.778  0.223  0.160-  33 2.77  31 2.77   6 2.77   9 2.77  18 2.77  30 2.77   2 2.77  26 2.77
                            23 2.77  11 2.77   5 2.77  17 2.77
   9  0.889  0.112  0.297-   1 2.77   7 2.77   2 2.77   8 2.77  10 2.77  26 2.77   3 2.77   6 2.77
                            27 2.77  24 2.77  12 2.77  18 2.77
  10  1.000  0.334  0.434-  38 2.24  18 2.77  12 2.77   9 2.77  16 2.77  13 2.77   1 2.77   7 2.77
                            22 2.77  19 2.77
  11  0.111  0.557  0.160-  34 2.77  35 2.77  21 2.77  18 2.77  12 2.77  31 2.77  14 2.77  17 2.77
                            23 2.77  20 2.77   8 2.77   2 2.77
  12  0.222  0.446  0.297-  10 2.77  13 2.77   2 2.77  14 2.77  11 2.77  22 2.77  18 2.77   9 2.77
                             3 2.77  15 2.77  21 2.77  24 2.77
  13  0.333  0.334  0.434-  38 1.69  37 2.33  12 2.77   3 2.77  15 2.77  10 2.77   4 2.77   1 2.77
                            16 2.77  22 2.77  25 2.77
  14  0.444  0.557  0.160-  35 2.77  12 2.77  24 2.77  36 2.77  32 2.77  11 2.77  23 2.77  15 2.77
                            26 2.77   2 2.77  17 2.77   5 2.77
  15  0.555  0.446  0.297-  16 2.77  17 2.77   5 2.77  13 2.77  25 2.77  18 2.77   6 2.77  14 2.77
                             3 2.77  27 2.77  12 2.77  24 2.77
  16  0.666  0.334  0.434-  18 2.77  15 2.77   6 2.77  10 2.77   7 2.77   4 2.77  19 2.77  13 2.77
                            25 2.77
  17  0.778  0.557  0.160-  36 2.77  34 2.77  27 2.77  15 2.77  18 2.77  33 2.77  11 2.77  26 2.77
                            20 2.77  14 2.77   5 2.77   8 2.77
  18  0.889  0.446  0.297-  10 2.77  16 2.77   8 2.77  11 2.77  17 2.77  19 2.77  12 2.77  15 2.77
                             9 2.77   6 2.77  21 2.77  27 2.77
  19  1.000  0.668  0.434-  21 2.77  27 2.77  18 2.77  25 2.77  22 2.77   4 2.77   1 2.77  16 2.77
                            10 2.77
  20  0.111  0.890  0.160-  21 2.77  27 2.77  29 2.77  28 2.77   3 2.77  34 2.77  23 2.77  26 2.77
                            11 2.77  17 2.77   5 2.77   2 2.77
  21  0.222  0.779  0.297-  19 2.77  22 2.77  20 2.77  23 2.77   4 2.77  11 2.77  27 2.77   3 2.77
                             6 2.77  18 2.77  24 2.77  12 2.77
  22  0.333  0.668  0.434-  21 2.77  24 2.77  12 2.77  19 2.77   4 2.77   7 2.77  10 2.77  25 2.77
                            13 2.77
  23  0.444  0.890  0.160-  21 2.77  29 2.77  35 2.77   6 2.77  24 2.77  30 2.77  20 2.77  11 2.77
                            14 2.77   5 2.77   8 2.77  26 2.77
  24  0.555  0.779  0.297-  25 2.77  26 2.77   7 2.77  14 2.77  22 2.77  23 2.77  27 2.77   6 2.77
                             9 2.77  21 2.77  12 2.77  15 2.77
  25  0.666  0.668  0.434-  27 2.77  24 2.77  15 2.77  19 2.77   1 2.77   7 2.77  22 2.77  13 2.77
                            16 2.77
  26  0.778  0.890  0.160-  24 2.77  27 2.77  28 2.77  30 2.77   9 2.77  36 2.77  20 2.77  17 2.77
                             2 2.77   8 2.77  14 2.77  23 2.77
  27  0.889  0.779  0.297-  19 2.77  25 2.77  20 2.77  26 2.77   1 2.77  17 2.77  21 2.77  24 2.77
                             9 2.77   3 2.77  15 2.77  18 2.77
  28  1.000  0.001  0.023-  26 2.77  20 2.77   2 2.77  30 2.77  29 2.77  31 2.77  32 2.77  36 2.77
                            34 2.77
  29  0.333  0.001  0.023-  20 2.77  23 2.77   5 2.77  28 2.77  32 2.77  34 2.77  35 2.77  33 2.77
                            30 2.77
  30  0.666  0.001  0.023-  26 2.77   8 2.77  23 2.77  28 2.77  31 2.77  33 2.77  36 2.77  35 2.77
                            29 2.77
  31  1.000  0.334  0.023-   2 2.77   8 2.77  11 2.77  33 2.77  32 2.77  28 2.77  30 2.77  35 2.77
                            34 2.77
  32  0.333  0.334  0.023-   5 2.77   2 2.77  14 2.77  31 2.77  29 2.77  28 2.77  33 2.77  35 2.77
                            36 2.77
  33  0.666  0.334  0.023-   8 2.77   5 2.77  17 2.77  31 2.77  30 2.77  29 2.77  34 2.77  32 2.77
                            36 2.77
  34  1.000  0.668  0.023-  11 2.77  17 2.77  20 2.77  36 2.77  35 2.77  28 2.77  29 2.77  33 2.77
                            31 2.77
  35  0.333  0.668  0.023-  14 2.77  11 2.77  23 2.77  34 2.77  29 2.77  30 2.77  31 2.77  36 2.77
                            32 2.77
  36  0.666  0.668  0.023-  17 2.77  26 2.77  14 2.77  34 2.77  28 2.77  30 2.77  35 2.77  32 2.77
                            33 2.77
  37  0.199  0.079  0.520-  39 1.76  38 1.94   1 2.03   4 2.10  13 2.33
  38  0.203  0.314  0.516-  13 1.69  37 1.94  10 2.24   1 2.66
  39  0.191  0.965  0.612-  37 1.76
 

IMPORTANT INFORMATION: All symmetrisations will be switched off!
NOSYMM: (Re-)initialisation of all symmetry stuff for point group C_1.

 
 
 KPOINTS: Automatic mesh                          

Automatic generation of k-mesh.
Space group operators:
 irot       det(A)        alpha          n_x          n_y          n_z        tau_x        tau_y        tau_z
    1     1.000000     0.000000     1.000000     0.000000     0.000000     0.000000     0.000000     0.000000
 
 Subroutine IBZKPT returns following result:
 ===========================================
 
 Found     24 irreducible k-points:
 
 Following reciprocal coordinates:
            Coordinates               Weight
  0.125000  0.125000  0.000000     16.000000
  0.250000 -0.125000  0.000000     16.000000
  0.125000 -0.250000  0.000000     16.000000
  0.375000  0.125000  0.000000     16.000000
  0.500000 -0.375000  0.000000     16.000000
  0.125000  0.500000  0.000000     16.000000
 -0.125000 -0.375000  0.000000     16.000000
  0.375000  0.500000  0.000000     16.000000
  0.500000 -0.125000  0.000000     16.000000
 -0.375000  0.125000  0.000000     16.000000
 -0.250000  0.375000  0.000000     16.000000
  0.125000  0.250000  0.000000     16.000000
 -0.125000  0.375000  0.000000     16.000000
 -0.375000  0.250000  0.000000     16.000000
 -0.250000 -0.125000  0.000000     16.000000
 -0.125000  0.125000  0.000000     16.000000
  0.000000  0.125000  0.000000     16.000000
  0.125000  0.000000  0.000000     16.000000
  0.375000  0.375000  0.000000     16.000000
 -0.250000 -0.375000  0.000000     16.000000
  0.375000  0.250000  0.000000     16.000000
 -0.375000  0.375000  0.000000     16.000000
  0.000000  0.375000  0.000000     16.000000
  0.375000  0.000000  0.000000     16.000000
 
 Following cartesian coordinates:
            Coordinates               Weight
  0.015042  0.026054  0.000000     16.000000
  0.030085  0.000000  0.000000     16.000000
  0.015042 -0.026054  0.000000     16.000000
  0.045127  0.043423  0.000000     16.000000
  0.060169 -0.017369  0.000000     16.000000
  0.015042  0.078162  0.000000     16.000000
 -0.015042 -0.060793  0.000000     16.000000
  0.045127  0.095531  0.000000     16.000000
  0.060169  0.017369  0.000000     16.000000
 -0.045127 -0.008685  0.000000     16.000000
 -0.030085  0.034739  0.000000     16.000000
  0.015042  0.043423  0.000000     16.000000
 -0.015042  0.043423  0.000000     16.000000
 -0.045127  0.008685  0.000000     16.000000
 -0.030085 -0.034739  0.000000     16.000000
 -0.015042  0.008685  0.000000     16.000000
  0.000000  0.017369  0.000000     16.000000
  0.015042  0.008685  0.000000     16.000000
  0.045127  0.078162  0.000000     16.000000
 -0.030085 -0.069477  0.000000     16.000000
  0.045127  0.060793  0.000000     16.000000
 -0.045127  0.026054  0.000000     16.000000
  0.000000  0.052108  0.000000     16.000000
  0.045127  0.026054  0.000000     16.000000
 


--------------------------------------------------------------------------------------------------------




 Dimension of arrays:
   k-points           NKPTS =     24   k-points in BZ     NKDIM =     24   number of bands    NBANDS=    232
   number of dos      NEDOS =    301   number of ions     NIONS =     39
   non local maximal  LDIM  =      6   non local SUM 2l+1 LMDIM =     18
   total plane-waves  NPLWV = 128000
   max r-space proj   IRMAX =   1966   max aug-charges    IRDMAX=   6482
   dimension x,y,z NGX =    40 NGY =   40 NGZ =   80
   dimension x,y,z NGXF=    80 NGYF=   80 NGZF=  160
   support grid    NGXF=    80 NGYF=   80 NGZF=  160
   ions per type =              36   1   2
   NGX,Y,Z   is equivalent  to a cutoff of   8.00,  8.00,  8.05 a.u.
   NGXF,Y,Z  is equivalent  to a cutoff of  16.00, 16.00, 16.10 a.u.

 SYSTEM =  PBE-grap                                
 POSCAR =  initial\(6)                             

 Startparameter for this run:
   NWRITE =      0    write-flag & timer
   PREC   = normal    normal or accurate (medium, high low for compatibility)
   ISTART =      0    job   : 0-new  1-cont  2-samecut
   ICHARG =      2    charge: 1-file 2-atom 10-const
   ISPIN  =      1    spin polarized calculation?
   LNONCOLLINEAR =      F non collinear calculations
   LSORBIT =      F    spin-orbit coupling
   INIWAV =      1    electr: 0-lowe 1-rand  2-diag
   LASPH  =      F    aspherical Exc in radial PAW
   METAGGA=      F    non-selfconsistent MetaGGA calc.

 Electronic Relaxation 1
   ENCUT  =  370.0 eV  27.19 Ry    5.21 a.u.  13.03 13.03 25.92*2*pi/ulx,y,z
   ENINI  =  370.0     initial cutoff
   ENAUG  =  644.9 eV  augmentation charge cutoff
   NELM   =    150;   NELMIN=  4; NELMDL= -5     # of ELM steps 
   EDIFF  = 0.1E-04   stopping-criterion for ELM
   LREAL  =      T    real-space projection
   NLSPLINE    = F    spline interpolate recip. space projectors
   LCOMPAT=      F    compatible to vasp.4.4
   GGA_COMPAT  = T    GGA compatible to vasp.4.4-vasp.4.6
   LMAXPAW     = -100 max onsite density
   LMAXMIX     =    2 max onsite mixed and CHGCAR
   VOSKOWN=      0    Vosko Wilk Nusair interpolation
   ROPT   =   -0.00050  -0.00050  -0.00050
 Ionic relaxation
   EDIFFG = -.3E-01   stopping-criterion for IOM
   NSW    =   1000    number of steps for IOM
   NBLOCK =      1;   KBLOCK =   1000    inner block; outer block 
   IBRION =      3    ionic relax: 0-MD 1-quasi-New 2-CG
   NFREE  =      0    steps in history (QN), initial steepest desc. (CG)
   ISIF   =      2    stress and relaxation
   IWAVPR =     11    prediction:  0-non 1-charg 2-wave 3-comb
   ISYM   =      0    0-nonsym 1-usesym 2-fastsym
   LCORR  =      T    Harris-Foulkes like correction to forces

   POTIM  = 0.0000    time-step for ionic-motion
   TEIN   =    0.0    initial temperature
   TEBEG  =    0.0;   TEEND  =   0.0 temperature during run
   SMASS  =  -3.00    Nose mass-parameter (am)
   estimated Nose-frequenzy (Omega)   =  0.10E-29 period in steps =  0.00 mass=  -0.158E-26a.u.
   SCALEE = 1.0000    scale energy and forces
   NPACO  =    256;   APACO  = 16.0  distance and # of slots for P.C.
   PSTRESS=    0.0 pullay stress

  Mass of Ions in am
   POMASS = 106.42 12.01 16.00
  Ionic Valenz
   ZVAL   =  10.00  4.00  6.00
  Atomic Wigner-Seitz radii
   RWIGS  =  -1.00 -1.00 -1.00
  virtual crystal weights 
   VCA    =   1.00  1.00  1.00
   NELECT =     376.0000    total number of electrons
   NUPDOWN=      -1.0000    fix difference up-down

 DOS related values:
   EMIN   =  10.00;   EMAX   =-10.00  energy-range for DOS
   EFERMI =   0.00
   ISMEAR =     0;   SIGMA  =   0.41  broadening in eV -4-tet -1-fermi 0-gaus

 Electronic relaxation 2 (details)
   IALGO  =     38    algorithm
   LDIAG  =      T    sub-space diagonalisation (order eigenvalues)
   LSUBROT=      F    optimize rotation matrix (better conditioning)
   TURBO    =      0    0=normal 1=particle mesh
   IRESTART =      0    0=no restart 2=restart with 2 vectors
   NREBOOT  =      0    no. of reboots
   NMIN     =      0    reboot dimension
   EREF     =   0.00    reference energy to select bands
   IMIX   =      4    mixing-type and parameters
     AMIX     =   0.40;   BMIX     =  1.00
     AMIX_MAG =   1.60;   BMIX_MAG =  1.00
     AMIN     =   0.10
     WC   =   100.;   INIMIX=   1;  MIXPRE=   1;  MAXMIX= -45

 Intra band minimization:
   WEIMIN = 0.0010     energy-eigenvalue tresh-hold
   EBREAK =  0.11E-07  absolut break condition
   DEPER  =   0.30     relativ break condition  

   TIME   =   0.40     timestep for ELM

  volume/ion in A,a.u.               =      25.34       170.98
  Fermi-wavevector in a.u.,A,eV,Ry     =   1.186304  2.241790 19.147714  1.407317
  Thomas-Fermi vector in A             =   2.322480
 
 Write flags
   LWAVE        =      F    write WAVECAR
   LDOWNSAMPLE  =      F    k-point downsampling of WAVECAR
   LCHARG       =      F    write CHGCAR
   LVTOT        =      F    write LOCPOT, total local potential
   LVHAR        =      F    write LOCPOT, Hartree potential only
   LELF         =      F    write electronic localiz. function (ELF)
   LORBIT       =      0    0 simple, 1 ext, 2 COOP (PROOUT), +10 PAW based schemes


 Dipole corrections
   LMONO  =      F    monopole corrections only (constant potential shift)
   LDIPOL =      F    correct potential (dipole corrections)
   IDIPOL =      0    1-x, 2-y, 3-z, 4-all directions 
   EPSILON=  1.0000000 bulk dielectric constant

 Exchange correlation treatment:
   GGA     =    PE    GGA type
   LEXCH   =     8    internal setting for exchange type
   VOSKOWN=      0    Vosko Wilk Nusair interpolation
   LHFCALC =     F    Hartree Fock is set to
   LHFONE  =     F    Hartree Fock one center treatment
   AEXX    =    0.0000 exact exchange contribution

 Linear response parameters
   LEPSILON=     F    determine dielectric tensor
   LRPA    =     F    only Hartree local field effects (RPA)
   LNABLA  =     F    use nabla operator in PAW spheres
   LVEL    =     F    velocity operator in full k-point grid
   LINTERFAST=   F  fast interpolation
   KINTER  =     0    interpolate to denser k-point grid
   CSHIFT  =0.1000    complex shift for real part using Kramers Kronig
   OMEGAMAX=  -1.0    maximum frequency
   DEG_THRESHOLD= 0.2000000E-02 threshold for treating states as degnerate
   RTIME   =   -0.100 relaxation time in fs
  (WPLASMAI=    0.000 imaginary part of plasma frequency in eV, 0.658/RTIME)
   DFIELD  = 0.0000000 0.0000000 0.0000000 field for delta impulse in time
 
 Orbital magnetization related:
   ORBITALMAG=     F  switch on orbital magnetization
   LCHIMAG   =     F  perturbation theory with respect to B field
   DQ        =  0.001000  dq finite difference perturbation B field
   LLRAUG    =     F  two centre corrections for induced B field



--------------------------------------------------------------------------------------------------------


 quickmin algorithm: (dynamic with friction)
   using selective dynamics as specified on POSCAR
 charge density and potential will be updated during run
 non-spin polarized calculation
 Variant of blocked Davidson
 Davidson routine will perform the subspace rotation
 perform sub-space diagonalisation
    after iterative eigenvector-optimisation
 modified Broyden-mixing scheme, WC =      100.0
 initial mixing is a Kerker type mixing with AMIX =  0.4000 and BMIX =      1.0000
 Hartree-type preconditioning will be used
 using additional bands           44
 real space projection scheme for non local part
 use partial core corrections
 calculate Harris-corrections to forces 
   (improved forces if not selfconsistent)
 use gradient corrections 
 use of overlap-Matrix (Vanderbilt PP)
 Gauss-broadening in eV      SIGMA  =   0.41


--------------------------------------------------------------------------------------------------------


  energy-cutoff  :      370.00
  volume of cell :      988.15
      direct lattice vectors                 reciprocal lattice vectors
     8.309900284  0.000000000  0.000000000     0.120338387  0.069477400  0.000000000
    -4.154950142  7.196584749  0.000000000     0.000000000  0.138954801  0.000000000
     0.000000000  0.000000000 16.523500443     0.000000000  0.000000000  0.060519864

  length of vectors
     8.309900284  8.309900284 16.523500443     0.138954801  0.138954801  0.060519864


 
 k-points in units of 2pi/SCALE and weight: Automatic mesh                          
   0.01504230  0.02605403  0.00000000       0.042
   0.03008460  0.00000000  0.00000000       0.042
   0.01504230 -0.02605403  0.00000000       0.042
   0.04512690  0.04342338  0.00000000       0.042
   0.06016919 -0.01736935  0.00000000       0.042
   0.01504230  0.07816208  0.00000000       0.042
  -0.01504230 -0.06079273  0.00000000       0.042
   0.04512690  0.09553143  0.00000000       0.042
   0.06016919  0.01736935  0.00000000       0.042
  -0.04512690 -0.00868468  0.00000000       0.042
  -0.03008460  0.03473870  0.00000000       0.042
   0.01504230  0.04342338  0.00000000       0.042
  -0.01504230  0.04342338  0.00000000       0.042
  -0.04512690  0.00868468  0.00000000       0.042
  -0.03008460 -0.03473870  0.00000000       0.042
  -0.01504230  0.00868468  0.00000000       0.042
   0.00000000  0.01736935  0.00000000       0.042
   0.01504230  0.00868468  0.00000000       0.042
   0.04512690  0.07816208  0.00000000       0.042
  -0.03008460 -0.06947740  0.00000000       0.042
   0.04512690  0.06079273  0.00000000       0.042
  -0.04512690  0.02605403  0.00000000       0.042
   0.00000000  0.05210805  0.00000000       0.042
   0.04512690  0.02605403  0.00000000       0.042
 
 k-points in reciprocal lattice and weights: Automatic mesh                          
   0.12500000  0.12500000  0.00000000       0.042
   0.25000000 -0.12500000  0.00000000       0.042
   0.12500000 -0.25000000  0.00000000       0.042
   0.37500000  0.12500000  0.00000000       0.042
   0.50000000 -0.37500000  0.00000000       0.042
   0.12500000  0.50000000  0.00000000       0.042
  -0.12500000 -0.37500000  0.00000000       0.042
   0.37500000  0.50000000  0.00000000       0.042
   0.50000000 -0.12500000  0.00000000       0.042
  -0.37500000  0.12500000  0.00000000       0.042
  -0.25000000  0.37500000  0.00000000       0.042
   0.12500000  0.25000000  0.00000000       0.042
  -0.12500000  0.37500000  0.00000000       0.042
  -0.37500000  0.25000000  0.00000000       0.042
  -0.25000000 -0.12500000  0.00000000       0.042
  -0.12500000  0.12500000  0.00000000       0.042
   0.00000000  0.12500000  0.00000000       0.042
   0.12500000  0.00000000  0.00000000       0.042
   0.37500000  0.37500000  0.00000000       0.042
  -0.25000000 -0.37500000  0.00000000       0.042
   0.37500000  0.25000000  0.00000000       0.042
  -0.37500000  0.37500000  0.00000000       0.042
   0.00000000  0.37500000  0.00000000       0.042
   0.37500000  0.00000000  0.00000000       0.042
 
 position of ions in fractional coordinates (direct lattice) 
   0.99982000  0.00108000  0.43398000
   0.11093000  0.22330000  0.16024000
   0.22204000  0.11219000  0.29711000
   0.33315000  0.00108000  0.43398000
   0.44426000  0.22330000  0.16024000
   0.55538000  0.11219000  0.29711000
   0.66649000  0.00108000  0.43398000
   0.77760000  0.22330000  0.16024000
   0.88871000  0.11219000  0.29711000
   0.99982000  0.33441000  0.43398000
   0.11093000  0.55664000  0.16024000
   0.22204000  0.44552000  0.29711000
   0.33315000  0.33441000  0.43398000
   0.44426000  0.55664000  0.16024000
   0.55538000  0.44552000  0.29711000
   0.66649000  0.33441000  0.43398000
   0.77760000  0.55664000  0.16024000
   0.88871000  0.44552000  0.29711000
   0.99982000  0.66775000  0.43398000
   0.11093000  0.88997000  0.16024000
   0.22204000  0.77886000  0.29711000
   0.33315000  0.66775000  0.43398000
   0.44426000  0.88997000  0.16024000
   0.55538000  0.77886000  0.29711000
   0.66649000  0.66775000  0.43398000
   0.77760000  0.88997000  0.16024000
   0.88871000  0.77886000  0.29711000
   0.99982000  0.00108000  0.02337000
   0.33315000  0.00108000  0.02337000
   0.66649000  0.00108000  0.02337000
   0.99982000  0.33441000  0.02337000
   0.33315000  0.33441000  0.02337000
   0.66649000  0.33441000  0.02337000
   0.99982000  0.66775000  0.02337000
   0.33315000  0.66775000  0.02337000
   0.66649000  0.66775000  0.02337000
   0.19906000  0.07886000  0.52026000
   0.20288000  0.31368000  0.51621000
   0.19065000  0.96535000  0.61155000
 
 position of ions in cartesian coordinates  (Angst):
   8.30391716  0.00777231  7.17086872
  -0.00598313  1.60699737  2.64772571
   1.37898640  0.80738484  4.90929722
   2.76395593  0.00777231  7.17086872
   2.76395593  1.60699737  2.64772571
   4.14900856  0.80738484  4.90929722
   5.53397809  0.00777231  7.17086872
   5.53397809  1.60699737  2.64772571
   6.91894762  0.80738484  4.90929722
   6.91894762  2.40660991  7.17086872
  -1.39099421  4.00590693  2.64772571
  -0.00598313  3.20622244  4.90929722
   1.37898640  2.40660991  7.17086872
   1.37894485  4.00590693  2.64772571
   2.76403903  3.20622244  4.90929722
   4.14900856  2.40660991  7.17086872
   4.14896701  4.00590693  2.64772571
   5.53397809  3.20622244  4.90929722
   5.53393654  4.80551947  7.17086872
  -2.77596374  6.40474453  2.64772571
  -1.39099421  5.60513200  4.90929722
  -0.00602468  4.80551947  7.17086872
  -0.00602468  6.40474453  2.64772571
   1.37902795  5.60513200  4.90929722
   2.76399748  4.80551947  7.17086872
   2.76399748  6.40474453  2.64772571
   4.14896701  5.60513200  4.90929722
   8.30391716  0.00777231  0.38615421
   2.76395593  0.00777231  0.38615421
   5.53397809  0.00777231  0.38615421
   6.91894762  2.40660991  0.38615421
   1.37898640  2.40660991  0.38615421
   4.14900856  2.40660991  0.38615421
   5.53393654  4.80551947  0.38615421
  -0.00602468  4.80551947  0.38615421
   2.76399748  4.80551947  0.38615421
   1.32650938  0.56752267  8.59651634
   0.38258781  2.25742470  8.52959616
  -2.42669863  6.94722309 10.10494670
 


--------------------------------------------------------------------------------------------------------


 k-point  1 :   0.1250 0.1250 0.0000  plane waves:   15951
 k-point  2 :   0.2500-0.1250 0.0000  plane waves:   15951
 k-point  3 :   0.1250-0.2500 0.0000  plane waves:   15951
 k-point  4 :   0.3750 0.1250 0.0000  plane waves:   15982
 k-point  5 :   0.5000-0.3750 0.0000  plane waves:   15982
 k-point  6 :   0.1250 0.5000 0.0000  plane waves:   15982
 k-point  7 :  -0.1250-0.3750 0.0000  plane waves:   15982
 k-point  8 :   0.3750 0.5000 0.0000  plane waves:   15982
 k-point  9 :   0.5000-0.1250 0.0000  plane waves:   15982
 k-point 10 :  -0.3750 0.1250 0.0000  plane waves:   15967
 k-point 11 :  -0.2500 0.3750 0.0000  plane waves:   15967
 k-point 12 :   0.1250 0.2500 0.0000  plane waves:   15967
 k-point 13 :  -0.1250 0.3750 0.0000  plane waves:   15967
 k-point 14 :  -0.3750 0.2500 0.0000  plane waves:   15967
 k-point 15 :  -0.2500-0.1250 0.0000  plane waves:   15967
 k-point 16 :  -0.1250 0.1250 0.0000  plane waves:   15947
 k-point 17 :   0.0000 0.1250 0.0000  plane waves:   15947
 k-point 18 :   0.1250 0.0000 0.0000  plane waves:   15947
 k-point 19 :   0.3750 0.3750 0.0000  plane waves:   16001
 k-point 20 :  -0.2500-0.3750 0.0000  plane waves:   16001
 k-point 21 :   0.3750 0.2500 0.0000  plane waves:   16001
 k-point 22 :  -0.3750 0.3750 0.0000  plane waves:   15956
 k-point 23 :   0.0000 0.3750 0.0000  plane waves:   15956
 k-point 24 :   0.3750 0.0000 0.0000  plane waves:   15956

 maximum and minimum number of plane-waves per node :      8054     7937

 maximum number of plane-waves:     16001
 maximum index in each direction: 
   IXMAX=   13   IYMAX=   13   IZMAX=   25
   IXMIN=  -13   IYMIN=  -13   IZMIN=  -25


 real space projection operators:
  total allocation   :       9687.27 KBytes
  max/ min on nodes  :       4845.38       4841.89


 parallel 3D FFT for wavefunctions:
    minimum data exchange during FFTs selected (reduces bandwidth)
 parallel 3D FFT for charge:
    minimum data exchange during FFTs selected (reduces bandwidth)


 total amount of memory used by VASP MPI-rank0   141689. kBytes
=======================================================================

   base      :      30000. kBytes
   nonlr-proj:       7232. kBytes
   fftplans  :       4164. kBytes
   grid      :       6707. kBytes
   one-center:        311. kBytes
   wavefun   :      93275. kBytes
 
     INWAV:  cpu time    0.0002: real time    0.0002
 Broyden mixing: mesh for mixing (old mesh)
   NGX = 27   NGY = 27   NGZ = 51
  (NGX  = 80   NGY  = 80   NGZ  =160)
  gives a total of  37179 points

 initial charge density was supplied:
 charge density of overlapping atoms calculated
 number of electron     376.0000000 magnetization 
 keeping initial charge density in first step


--------------------------------------------------------------------------------------------------------


 Maximum index for non-local projection operator          939
 Maximum index for augmentation-charges          431 (set IRDMAX)


--------------------------------------------------------------------------------------------------------


 First call to EWALD:  gamma=   0.178
 Maximum number of real-space cells 4x 4x 2
 Maximum number of reciprocal cells 2x 2x 4

    FEWALD:  cpu time    0.0108: real time    0.0108


--------------------------------------- Iteration      1(   1)  ---------------------------------------


    POTLOK:  cpu time    0.1786: real time    0.1882
    SETDIJ:  cpu time    0.0432: real time    0.0458
     EDDAV:  cpu time   49.7916: real time   49.9949
       DOS:  cpu time    0.0184: real time    0.0184
    --------------------------------------------
      LOOP:  cpu time   50.0320: real time   50.2474

 eigenvalue-minimisations  : 11144
 total energy-change (2. order) : 0.2110731E+04  (-0.1521580E+05)
 number of electron     376.0000000 magnetization 
 augmentation part      376.0000000 magnetization 

 Free energy of the ion-electron system (eV)
  ---------------------------------------------------
  alpha Z        PSCENC =       918.22725072
  Ewald energy   TEWEN  =     25414.52634720
  -Hartree energ DENC   =    -58062.89061177
  -exchange      EXHF   =         0.00000000
  -V(xc)+E(xc)   XCENC  =      -992.36674654
  PAW double counting   =     29844.20032359   -27608.36462881
  entropy T*S    EENTRO =        -1.34762842
  eigenvalues    EBANDS =      2436.88356987
  atomic energy  EATOM  =     30161.86332653
  Solvation  Ediel_sol  =         0.00000000
  ---------------------------------------------------
  free energy    TOTEN  =      2110.73120238 eV

  energy without entropy =     2112.07883080  energy(sigma->0) =     2111.40501659


--------------------------------------------------------------------------------------------------------




--------------------------------------- Iteration      1(   2)  ---------------------------------------


     EDDAV:  cpu time   53.8048: real time   54.0034
       DOS:  cpu time    0.0196: real time    0.0196
    --------------------------------------------
      LOOP:  cpu time   53.8245: real time   54.0230

 eigenvalue-minimisations  : 12072
 total energy-change (2. order) :-0.2200395E+04  (-0.2067747E+04)
 number of electron     376.0000000 magnetization 
 augmentation part      376.0000000 magnetization 

 Free energy of the ion-electron system (eV)
  ---------------------------------------------------
  alpha Z        PSCENC =       918.22725072
  Ewald energy   TEWEN  =     25414.52634720
  -Hartree energ DENC   =    -58062.89061177
  -exchange      EXHF   =         0.00000000
  -V(xc)+E(xc)   XCENC  =      -992.36674654
  PAW double counting   =     29844.20032359   -27608.36462881
  entropy T*S    EENTRO =        -3.56645195
  eigenvalues    EBANDS =       238.70721002
  atomic energy  EATOM  =     30161.86332653
  Solvation  Ediel_sol  =         0.00000000
  ---------------------------------------------------
  free energy    TOTEN  =       -89.66398100 eV

  energy without entropy =      -86.09752905  energy(sigma->0) =      -87.88075503


--------------------------------------------------------------------------------------------------------




--------------------------------------- Iteration      1(   3)  ---------------------------------------


     EDDAV:  cpu time   55.1195: real time   55.3103
       DOS:  cpu time    0.0206: real time    0.0206
    --------------------------------------------
      LOOP:  cpu time   55.1401: real time   55.3309

 eigenvalue-minimisations  : 12536
 total energy-change (2. order) :-0.1157538E+03  (-0.1052082E+03)
 number of electron     376.0000000 magnetization 
 augmentation part      376.0000000 magnetization 

 Free energy of the ion-electron system (eV)
  ---------------------------------------------------
  alpha Z        PSCENC =       918.22725072
  Ewald energy   TEWEN  =     25414.52634720
  -Hartree energ DENC   =    -58062.89061177
  -exchange      EXHF   =         0.00000000
  -V(xc)+E(xc)   XCENC  =      -992.36674654
  PAW double counting   =     29844.20032359   -27608.36462881
  entropy T*S    EENTRO =        -5.14524573
  eigenvalues    EBANDS =       124.53216234
  atomic energy  EATOM  =     30161.86332653
  Solvation  Ediel_sol  =         0.00000000
  ---------------------------------------------------
  free energy    TOTEN  =      -205.41782246 eV

  energy without entropy =     -200.27257674  energy(sigma->0) =     -202.84519960


--------------------------------------------------------------------------------------------------------




--------------------------------------- Iteration      1(   4)  ---------------------------------------


     EDDAV:  cpu time   56.2680: real time   56.4716
       DOS:  cpu time    0.0202: real time    0.0202
    --------------------------------------------
      LOOP:  cpu time   56.2885: real time   56.4921

 eigenvalue-minimisations  : 12760
 total energy-change (2. order) :-0.3717062E+01  (-0.3622820E+01)
 number of electron     376.0000000 magnetization 
 augmentation part      376.0000000 magnetization 

 Free energy of the ion-electron system (eV)
  ---------------------------------------------------
  alpha Z        PSCENC =       918.22725072
  Ewald energy   TEWEN  =     25414.52634720
  -Hartree energ DENC   =    -58062.89061177
  -exchange      EXHF   =         0.00000000
  -V(xc)+E(xc)   XCENC  =      -992.36674654
  PAW double counting   =     29844.20032359   -27608.36462881
  entropy T*S    EENTRO =        -5.20647947
  eigenvalues    EBANDS =       120.87633366
  atomic energy  EATOM  =     30161.86332653
  Solvation  Ediel_sol  =         0.00000000
  ---------------------------------------------------
  free energy    TOTEN  =      -209.13488489 eV

  energy without entropy =     -203.92840542  energy(sigma->0) =     -206.53164515


--------------------------------------------------------------------------------------------------------




--------------------------------------- Iteration      1(   5)  ---------------------------------------


     EDDAV:  cpu time   55.7342: real time   55.9376
       DOS:  cpu time    0.0211: real time    0.0211
    CHARGE:  cpu time    2.4457: real time    2.4459
    MIXING:  cpu time    0.0073: real time    0.0084
    --------------------------------------------
      LOOP:  cpu time   58.2080: real time   58.4128

 eigenvalue-minimisations  : 12648
 total energy-change (2. order) :-0.1265680E+00  (-0.1263912E+00)
 number of electron     376.0000417 magnetization 
 augmentation part      145.7985824 magnetization 

 Broyden mixing:
  rms(total) = 0.47112E+01    rms(broyden)= 0.47107E+01
  rms(prec ) = 0.49095E+01
  weight for this iteration     100.00

 Free energy of the ion-electron system (eV)
  ---------------------------------------------------
  alpha Z        PSCENC =       918.22725072
  Ewald energy   TEWEN  =     25414.52634720
  -Hartree energ DENC   =    -58062.89061177
  -exchange      EXHF   =         0.00000000
  -V(xc)+E(xc)   XCENC  =      -992.36674654
  PAW double counting   =     29844.20032359   -27608.36462881
  entropy T*S    EENTRO =        -5.20748236
  eigenvalues    EBANDS =       120.75076853
  atomic energy  EATOM  =     30161.86332653
  Solvation  Ediel_sol  =         0.00000000
  ---------------------------------------------------
  free energy    TOTEN  =      -209.26145289 eV

  energy without entropy =     -204.05397054  energy(sigma->0) =     -206.65771171


--------------------------------------------------------------------------------------------------------




--------------------------------------- Iteration      1(   6)  ---------------------------------------


    POTLOK:  cpu time    0.1506: real time    0.1591
    SETDIJ:  cpu time    0.0415: real time    0.0416
     EDDAV:  cpu time   55.4585: real time   55.6676
       DOS:  cpu time    0.0215: real time    0.0215
    CHARGE:  cpu time    2.3924: real time    2.3926
    MIXING:  cpu time    0.0101: real time    0.0258
    --------------------------------------------
      LOOP:  cpu time   58.0746: real time   58.3082

 eigenvalue-minimisations  : 12512
 total energy-change (2. order) : 0.2266544E+01  (-0.4380320E+01)
 number of electron     376.0000461 magnetization 
 augmentation part      153.8130303 magnetization 

 Broyden mixing:
  rms(total) = 0.39820E+01    rms(broyden)= 0.39806E+01
  rms(prec ) = 0.46367E+01
  weight for this iteration     100.00

 eigenvalues of (default mixing * dielectric matrix)
  average eigenvalue GAMMA=   0.6735
  0.6735

 Free energy of the ion-electron system (eV)
  ---------------------------------------------------
  alpha Z        PSCENC =       918.22725072
  Ewald energy   TEWEN  =     25414.52634720
  -Hartree energ DENC   =    -57811.62350424
  -exchange      EXHF   =         0.00000000
  -V(xc)+E(xc)   XCENC  =      -997.64731347
  PAW double counting   =     32007.41314252   -29818.57577888
  entropy T*S    EENTRO =        -4.29451915
  eigenvalues    EBANDS =       -76.88386029
  atomic energy  EATOM  =     30161.86332653
  Solvation  Ediel_sol  =         0.00000000
  ---------------------------------------------------
  free energy    TOTEN  =      -206.99490905 eV

  energy without entropy =     -202.70038990  energy(sigma->0) =     -204.84764948


--------------------------------------------------------------------------------------------------------




--------------------------------------- Iteration      1(   7)  ---------------------------------------


    POTLOK:  cpu time    0.1547: real time    0.1635
    SETDIJ:  cpu time    0.0415: real time    0.0415
     EDDAV:  cpu time   55.8658: real time   56.2219
       DOS:  cpu time    0.0206: real time    0.0206
    CHARGE:  cpu time    2.4249: real time    2.4251
    MIXING:  cpu time    0.0070: real time    0.0090
    --------------------------------------------
      LOOP:  cpu time   58.5145: real time   58.8816

 eigenvalue-minimisations  : 12688
 total energy-change (2. order) :-0.8677348E+00  (-0.1987824E+01)
 number of electron     376.0000421 magnetization 
 augmentation part      150.8455337 magnetization 

 Broyden mixing:
  rms(total) = 0.29630E+01    rms(broyden)= 0.29614E+01
  rms(prec ) = 0.39943E+01
  weight for this iteration     100.00

 eigenvalues of (default mixing * dielectric matrix)
  average eigenvalue GAMMA=   0.9046
  1.4828  0.3263

 Free energy of the ion-electron system (eV)
  ---------------------------------------------------
  alpha Z        PSCENC =       918.22725072
  Ewald energy   TEWEN  =     25414.52634720
  -Hartree energ DENC   =    -57948.91409416
  -exchange      EXHF   =         0.00000000
  -V(xc)+E(xc)   XCENC  =     -1000.08842637
  PAW double counting   =     32829.84159909   -30648.23098932
  entropy T*S    EENTRO =        -4.60517714
  eigenvalues    EBANDS =        69.51751960
  atomic energy  EATOM  =     30161.86332653
  Solvation  Ediel_sol  =         0.00000000
  ---------------------------------------------------
  free energy    TOTEN  =      -207.86264384 eV

  energy without entropy =     -203.25746670  energy(sigma->0) =     -205.56005527


--------------------------------------------------------------------------------------------------------




--------------------------------------- Iteration      1(   8)  ---------------------------------------


    POTLOK:  cpu time    0.1537: real time    0.1621
    SETDIJ:  cpu time    0.0414: real time    0.0414
     EDDAV:  cpu time   54.4267: real time   54.6135
       DOS:  cpu time    0.0202: real time    0.0203
    CHARGE:  cpu time    2.4570: real time    2.4575
    MIXING:  cpu time    0.0066: real time    0.0066
    --------------------------------------------
      LOOP:  cpu time   57.1056: real time   57.3013

 eigenvalue-minimisations  : 12232
 total energy-change (2. order) :-0.2494028E+02  (-0.3684660E+01)
 number of electron     376.0000481 magnetization 
 augmentation part      149.8186660 magnetization 

 Broyden mixing:
  rms(total) = 0.48494E+01    rms(broyden)= 0.48491E+01
  rms(prec ) = 0.83966E+01
  weight for this iteration     100.00

 eigenvalues of (default mixing * dielectric matrix)
  average eigenvalue GAMMA=   0.7988
  1.8870  0.3487  0.1607

 Free energy of the ion-electron system (eV)
  ---------------------------------------------------
  alpha Z        PSCENC =       918.22725072
  Ewald energy   TEWEN  =     25414.52634720
  -Hartree energ DENC   =    -57887.78493153
  -exchange      EXHF   =         0.00000000
  -V(xc)+E(xc)   XCENC  =     -1000.33735302
  PAW double counting   =     33896.44294883   -31729.43222327
  entropy T*S    EENTRO =        -3.99114403
  eigenvalues    EBANDS =        -2.31714160
  atomic energy  EATOM  =     30161.86332653
  Solvation  Ediel_sol  =         0.00000000
  ---------------------------------------------------
  free energy    TOTEN  =      -232.80292015 eV

  energy without entropy =     -228.81177612  energy(sigma->0) =     -230.80734814


--------------------------------------------------------------------------------------------------------




--------------------------------------- Iteration      1(   9)  ---------------------------------------


    POTLOK:  cpu time    0.1541: real time    0.1627
    SETDIJ:  cpu time    0.0414: real time    0.0414
     EDDAV:  cpu time   54.0483: real time   54.2757
       DOS:  cpu time    0.0216: real time    0.0216
    CHARGE:  cpu time    2.3831: real time    2.3833
    MIXING:  cpu time    0.0074: real time    0.0085
    --------------------------------------------
      LOOP:  cpu time   56.6559: real time   56.8932

 eigenvalue-minimisations  : 12000
 total energy-change (2. order) : 0.2482398E+02  (-0.3595491E+01)
 number of electron     376.0000437 magnetization 
 augmentation part      152.7523898 magnetization 

 Broyden mixing:
  rms(total) = 0.31091E+01    rms(broyden)= 0.31085E+01
  rms(prec ) = 0.40857E+01
  weight for this iteration     100.00

 eigenvalues of (default mixing * dielectric matrix)
  average eigenvalue GAMMA=   0.6938
  2.0170  0.3080  0.3080  0.1422

 Free energy of the ion-electron system (eV)
  ---------------------------------------------------
  alpha Z        PSCENC =       918.22725072
  Ewald energy   TEWEN  =     25414.52634720
  -Hartree energ DENC   =    -57890.79461217
  -exchange      EXHF   =         0.00000000
  -V(xc)+E(xc)   XCENC  =     -1000.43313606
  PAW double counting   =     34682.58101497   -32527.96051004
  entropy T*S    EENTRO =        -3.83667020
  eigenvalues    EBANDS =        37.84805181
  atomic energy  EATOM  =     30161.86332653
  Solvation  Ediel_sol  =         0.00000000
  ---------------------------------------------------
  free energy    TOTEN  =      -207.97893724 eV

  energy without entropy =     -204.14226704  energy(sigma->0) =     -206.06060214


--------------------------------------------------------------------------------------------------------




--------------------------------------- Iteration      1(  10)  ---------------------------------------


    POTLOK:  cpu time    0.1541: real time    0.1626
    SETDIJ:  cpu time    0.0414: real time    0.0414
     EDDAV:  cpu time   52.0255: real time   52.1685
       DOS:  cpu time    0.0211: real time    0.0211
    CHARGE:  cpu time    2.3880: real time    2.3978
    MIXING:  cpu time    0.0074: real time    0.0074
    --------------------------------------------
      LOOP:  cpu time   54.6374: real time   54.7988

 eigenvalue-minimisations  : 11520
 total energy-change (2. order) : 0.8984459E+01  (-0.2338420E+01)
 number of electron     376.0000445 magnetization 
 augmentation part      152.3413176 magnetization 

 Broyden mixing:
  rms(total) = 0.12500E+01    rms(broyden)= 0.12494E+01
  rms(prec ) = 0.17985E+01
  weight for this iteration     100.00

 eigenvalues of (default mixing * dielectric matrix)
  average eigenvalue GAMMA=   0.6852
  2.1266  0.5102  0.3979  0.2631  0.1283

 Free energy of the ion-electron system (eV)
  ---------------------------------------------------
  alpha Z        PSCENC =       918.22725072
  Ewald energy   TEWEN  =     25414.52634720
  -Hartree energ DENC   =    -57904.08992394
  -exchange      EXHF   =         0.00000000
  -V(xc)+E(xc)   XCENC  =     -1000.38054463
  PAW double counting   =     35088.81835582   -32938.09130335
  entropy T*S    EENTRO =        -5.11522029
  eigenvalues    EBANDS =        65.24723347
  atomic energy  EATOM  =     30161.86332653
  Solvation  Ediel_sol  =         0.00000000
  ---------------------------------------------------
  free energy    TOTEN  =      -198.99447847 eV

  energy without entropy =     -193.87925819  energy(sigma->0) =     -196.43686833


--------------------------------------------------------------------------------------------------------




--------------------------------------- Iteration      1(  11)  ---------------------------------------


    POTLOK:  cpu time    0.1545: real time    0.1625
    SETDIJ:  cpu time    0.0412: real time    0.0412
     EDDAV:  cpu time   52.1579: real time   52.1735
       DOS:  cpu time    0.0206: real time    0.0206
    CHARGE:  cpu time    2.4048: real time    2.4178
    MIXING:  cpu time    0.0079: real time    0.0079
    --------------------------------------------
      LOOP:  cpu time   54.7869: real time   54.8235

 eigenvalue-minimisations  : 11656
 total energy-change (2. order) : 0.2093964E+00  (-0.7944504E+00)
 number of electron     376.0000446 magnetization 
 augmentation part      152.5136297 magnetization 

 Broyden mixing:
  rms(total) = 0.14116E+01    rms(broyden)= 0.14113E+01
  rms(prec ) = 0.17756E+01
  weight for this iteration     100.00

 eigenvalues of (default mixing * dielectric matrix)
  average eigenvalue GAMMA=   0.6481
  2.1876  0.7249  0.3872  0.1289  0.2300  0.2300

 Free energy of the ion-electron system (eV)
  ---------------------------------------------------
  alpha Z        PSCENC =       918.22725072
  Ewald energy   TEWEN  =     25414.52634720
  -Hartree energ DENC   =    -57881.15488566
  -exchange      EXHF   =         0.00000000
  -V(xc)+E(xc)   XCENC  =      -999.76570133
  PAW double counting   =     35273.25540574   -33123.23627309
  entropy T*S    EENTRO =        -4.87846392
  eigenvalues    EBANDS =        42.37791175
  atomic energy  EATOM  =     30161.86332653
  Solvation  Ediel_sol  =         0.00000000
  ---------------------------------------------------
  free energy    TOTEN  =      -198.78508205 eV

  energy without entropy =     -193.90661812  energy(sigma->0) =     -196.34585009


--------------------------------------------------------------------------------------------------------




--------------------------------------- Iteration      1(  12)  ---------------------------------------


    POTLOK:  cpu time    0.1520: real time    0.1765
    SETDIJ:  cpu time    0.0412: real time    0.0412
     EDDAV:  cpu time   52.3941: real time   52.5105
       DOS:  cpu time    0.0207: real time    0.0208
    CHARGE:  cpu time    2.4104: real time    2.4106
    MIXING:  cpu time    0.0083: real time    0.0083
    --------------------------------------------
      LOOP:  cpu time   55.0268: real time   55.1679

 eigenvalue-minimisations  : 11496
 total energy-change (2. order) : 0.1337369E+01  (-0.4194696E+00)
 number of electron     376.0000438 magnetization 
 augmentation part      152.2603294 magnetization 

 Broyden mixing:
  rms(total) = 0.73350E+00    rms(broyden)= 0.73323E+00
  rms(prec ) = 0.10052E+01
  weight for this iteration     100.00

 eigenvalues of (default mixing * dielectric matrix)
  average eigenvalue GAMMA=   0.6173
  2.1905  0.7352  0.3776  0.3776  0.1276  0.2771  0.2350

 Free energy of the ion-electron system (eV)
  ---------------------------------------------------
  alpha Z        PSCENC =       918.22725072
  Ewald energy   TEWEN  =     25414.52634720
  -Hartree energ DENC   =    -57907.91471762
  -exchange      EXHF   =         0.00000000
  -V(xc)+E(xc)   XCENC  =      -999.47981989
  PAW double counting   =     35465.11089910   -33316.11926600
  entropy T*S    EENTRO =        -5.01439959
  eigenvalues    EBANDS =        71.35266692
  atomic energy  EATOM  =     30161.86332653
  Solvation  Ediel_sol  =         0.00000000
  ---------------------------------------------------
  free energy    TOTEN  =      -197.44771264 eV

  energy without entropy =     -192.43331305  energy(sigma->0) =     -194.94051284


--------------------------------------------------------------------------------------------------------




--------------------------------------- Iteration      1(  13)  ---------------------------------------


    POTLOK:  cpu time    0.1531: real time    0.1613
    SETDIJ:  cpu time    0.0405: real time    0.0405
     EDDAV:  cpu time   52.3157: real time   52.4940
       DOS:  cpu time    0.0215: real time    0.0215
    CHARGE:  cpu time    2.3880: real time    2.3886
    MIXING:  cpu time    0.0089: real time    0.0089
    --------------------------------------------
      LOOP:  cpu time   54.9276: real time   55.1147

 eigenvalue-minimisations  : 11632
 total energy-change (2. order) : 0.3206890E+00  (-0.1909178E+00)
 number of electron     376.0000442 magnetization 
 augmentation part      152.4242227 magnetization 

 Broyden mixing:
  rms(total) = 0.56479E+00    rms(broyden)= 0.56463E+00
  rms(prec ) = 0.73272E+00
  weight for this iteration     100.00

 eigenvalues of (default mixing * dielectric matrix)
  average eigenvalue GAMMA=   0.6195
  2.2083  0.7356  0.7356  0.4512  0.2635  0.2635  0.1270  0.1709

 Free energy of the ion-electron system (eV)
  ---------------------------------------------------
  alpha Z        PSCENC =       918.22725072
  Ewald energy   TEWEN  =     25414.52634720
  -Hartree energ DENC   =    -57891.53916750
  -exchange      EXHF   =         0.00000000
  -V(xc)+E(xc)   XCENC  =      -999.44474196
  PAW double counting   =     35490.63168326   -33341.72959178
  entropy T*S    EENTRO =        -5.07776798
  eigenvalues    EBANDS =        55.41563788
  atomic energy  EATOM  =     30161.86332653
  Solvation  Ediel_sol  =         0.00000000
  ---------------------------------------------------
  free energy    TOTEN  =      -197.12702363 eV

  energy without entropy =     -192.04925565  energy(sigma->0) =     -194.58813964


--------------------------------------------------------------------------------------------------------




--------------------------------------- Iteration      1(  14)  ---------------------------------------


    POTLOK:  cpu time    0.1523: real time    0.1600
    SETDIJ:  cpu time    0.0411: real time    0.0411
     EDDAV:  cpu time   54.1888: real time   54.5060
       DOS:  cpu time    0.0212: real time    0.0212
    CHARGE:  cpu time    2.3903: real time    2.3905
    MIXING:  cpu time    0.0093: real time    0.0093
    --------------------------------------------
      LOOP:  cpu time   56.8029: real time   57.1280

 eigenvalue-minimisations  : 12200
 total energy-change (2. order) : 0.3102041E+00  (-0.6067261E-01)
 number of electron     376.0000442 magnetization 
 augmentation part      152.5223591 magnetization 

 Broyden mixing:
  rms(total) = 0.30307E+00    rms(broyden)= 0.30301E+00
  rms(prec ) = 0.38434E+00
  weight for this iteration     100.00

 eigenvalues of (default mixing * dielectric matrix)
  average eigenvalue GAMMA=   0.6009
  2.1538  0.8330  0.8330  0.4592  0.3000  0.3000  0.1272  0.2008  0.2008

 Free energy of the ion-electron system (eV)
  ---------------------------------------------------
  alpha Z        PSCENC =       918.22725072
  Ewald energy   TEWEN  =     25414.52634720
  -Hartree energ DENC   =    -57889.55061449
  -exchange      EXHF   =         0.00000000
  -V(xc)+E(xc)   XCENC  =      -999.52737691
  PAW double counting   =     35506.39846508   -33357.78236322
  entropy T*S    EENTRO =        -5.05221961
  eigenvalues    EBANDS =        54.08036522
  atomic energy  EATOM  =     30161.86332653
  Solvation  Ediel_sol  =         0.00000000
  ---------------------------------------------------
  free energy    TOTEN  =      -196.81681949 eV

  energy without entropy =     -191.76459987  energy(sigma->0) =     -194.29070968


--------------------------------------------------------------------------------------------------------




--------------------------------------- Iteration      1(  15)  ---------------------------------------


    POTLOK:  cpu time    0.1538: real time    0.1624
    SETDIJ:  cpu time    0.0413: real time    0.0413
     EDDAV:  cpu time   51.9279: real time   52.0798
       DOS:  cpu time    0.0215: real time    0.0216
    CHARGE:  cpu time    2.3870: real time    2.3872
    MIXING:  cpu time    0.0100: real time    0.0100
    --------------------------------------------
      LOOP:  cpu time   54.5414: real time   54.7021

 eigenvalue-minimisations  : 11528
 total energy-change (2. order) : 0.5953620E-01  (-0.1774911E-01)
 number of electron     376.0000441 magnetization 
 augmentation part      152.4970355 magnetization 

 Broyden mixing:
  rms(total) = 0.24763E+00    rms(broyden)= 0.24761E+00
  rms(prec ) = 0.27827E+00
  weight for this iteration     100.00

 eigenvalues of (default mixing * dielectric matrix)
  average eigenvalue GAMMA=   0.6115
  2.0850  1.0064  1.0064  0.4644  0.3653  0.3653  0.2585  0.2585  0.1271  0.1780

 Free energy of the ion-electron system (eV)
  ---------------------------------------------------
  alpha Z        PSCENC =       918.22725072
  Ewald energy   TEWEN  =     25414.52634720
  -Hartree energ DENC   =    -57890.44125344
  -exchange      EXHF   =         0.00000000
  -V(xc)+E(xc)   XCENC  =      -999.55110722
  PAW double counting   =     35477.98788311   -33328.93343600
  entropy T*S    EENTRO =        -5.05954114
  eigenvalues    EBANDS =        54.62324694
  atomic energy  EATOM  =     30161.86332653
  Solvation  Ediel_sol  =         0.00000000
  ---------------------------------------------------
  free energy    TOTEN  =      -196.75728329 eV

  energy without entropy =     -191.69774214  energy(sigma->0) =     -194.22751272


--------------------------------------------------------------------------------------------------------




--------------------------------------- Iteration      1(  16)  ---------------------------------------


    POTLOK:  cpu time    0.1537: real time    0.1621
    SETDIJ:  cpu time    0.0412: real time    0.0412
     EDDAV:  cpu time   52.6473: real time   52.8849
       DOS:  cpu time    0.0211: real time    0.0211
    CHARGE:  cpu time    2.3889: real time    2.3891
    MIXING:  cpu time    0.0101: real time    0.0110
    --------------------------------------------
      LOOP:  cpu time   55.2624: real time   55.5094

 eigenvalue-minimisations  : 11736
 total energy-change (2. order) : 0.4225053E-02  (-0.1073257E-01)
 number of electron     376.0000440 magnetization 
 augmentation part      152.4510362 magnetization 

 Broyden mixing:
  rms(total) = 0.23852E+00    rms(broyden)= 0.23851E+00
  rms(prec ) = 0.27509E+00
  weight for this iteration     100.00

 eigenvalues of (default mixing * dielectric matrix)
  average eigenvalue GAMMA=   0.6745
  2.0349  1.3993  1.3993  0.5419  0.5419  0.3834  0.2903  0.2903  0.1271  0.2285
  0.1829

 Free energy of the ion-electron system (eV)
  ---------------------------------------------------
  alpha Z        PSCENC =       918.22725072
  Ewald energy   TEWEN  =     25414.52634720
  -Hartree energ DENC   =    -57892.29440345
  -exchange      EXHF   =         0.00000000
  -V(xc)+E(xc)   XCENC  =      -999.56428983
  PAW double counting   =     35443.87059827   -33294.34729502
  entropy T*S    EENTRO =        -5.05414448
  eigenvalues    EBANDS =        56.01955182
  atomic energy  EATOM  =     30161.86332653
  Solvation  Ediel_sol  =         0.00000000
  ---------------------------------------------------
  free energy    TOTEN  =      -196.75305824 eV

  energy without entropy =     -191.69891375  energy(sigma->0) =     -194.22598599


--------------------------------------------------------------------------------------------------------




--------------------------------------- Iteration      1(  17)  ---------------------------------------


    POTLOK:  cpu time    0.1523: real time    0.1601
    SETDIJ:  cpu time    0.0409: real time    0.0409
     EDDAV:  cpu time   52.3314: real time   52.8562
       DOS:  cpu time    0.0217: real time    0.0217
    CHARGE:  cpu time    2.3846: real time    2.3849
    MIXING:  cpu time    0.0108: real time    0.0108
    --------------------------------------------
      LOOP:  cpu time   54.9417: real time   55.4745

 eigenvalue-minimisations  : 11592
 total energy-change (2. order) :-0.5181102E-02  (-0.1129578E-01)
 number of electron     376.0000440 magnetization 
 augmentation part      152.4278940 magnetization 

 Broyden mixing:
  rms(total) = 0.21872E+00    rms(broyden)= 0.21870E+00
  rms(prec ) = 0.27395E+00
  weight for this iteration     100.00

 eigenvalues of (default mixing * dielectric matrix)
  average eigenvalue GAMMA=   0.7304
  2.0966  1.7417  1.7417  0.6858  0.6858  0.1271  0.3531  0.3437  0.2884  0.2884
  0.1815  0.2304

 Free energy of the ion-electron system (eV)
  ---------------------------------------------------
  alpha Z        PSCENC =       918.22725072
  Ewald energy   TEWEN  =     25414.52634720
  -Hartree energ DENC   =    -57894.28619132
  -exchange      EXHF   =         0.00000000
  -V(xc)+E(xc)   XCENC  =      -999.55917456
  PAW double counting   =     35424.58193752   -33274.83925924
  entropy T*S    EENTRO =        -5.05410312
  eigenvalues    EBANDS =        57.78162693
  atomic energy  EATOM  =     30161.86332653
  Solvation  Ediel_sol  =         0.00000000
  ---------------------------------------------------
  free energy    TOTEN  =      -196.75823934 eV

  energy without entropy =     -191.70413622  energy(sigma->0) =     -194.23118778


--------------------------------------------------------------------------------------------------------




--------------------------------------- Iteration      1(  18)  ---------------------------------------


    POTLOK:  cpu time    0.1609: real time    0.1611
    SETDIJ:  cpu time    0.0412: real time    0.0412
     EDDAV:  cpu time   52.2822: real time   52.5658
       DOS:  cpu time    0.0216: real time    0.0216
    CHARGE:  cpu time    2.3861: real time    2.3865
    MIXING:  cpu time    0.0116: real time    0.0116
    --------------------------------------------
      LOOP:  cpu time   54.9035: real time   55.1878

 eigenvalue-minimisations  : 11600
 total energy-change (2. order) : 0.2802823E-01  (-0.8107740E-02)
 number of electron     376.0000440 magnetization 
 augmentation part      152.4349002 magnetization 

 Broyden mixing:
  rms(total) = 0.11364E+00    rms(broyden)= 0.11361E+00
  rms(prec ) = 0.13985E+00
  weight for this iteration     100.00

 eigenvalues of (default mixing * dielectric matrix)
  average eigenvalue GAMMA=   0.7156
  2.1793  1.7261  1.7261  0.7496  0.7496  0.3853  0.3853  0.1271  0.3238  0.2732
  0.2732  0.1818  0.2227

 Free energy of the ion-electron system (eV)
  ---------------------------------------------------
  alpha Z        PSCENC =       918.22725072
  Ewald energy   TEWEN  =     25414.52634720
  -Hartree energ DENC   =    -57895.89229215
  -exchange      EXHF   =         0.00000000
  -V(xc)+E(xc)   XCENC  =      -999.53534089
  PAW double counting   =     35430.08136622   -33280.42222744
  entropy T*S    EENTRO =        -5.06758922
  eigenvalues    EBANDS =        59.48894792
  atomic energy  EATOM  =     30161.86332653
  Solvation  Ediel_sol  =         0.00000000
  ---------------------------------------------------
  free energy    TOTEN  =      -196.73021111 eV

  energy without entropy =     -191.66262189  energy(sigma->0) =     -194.19641650


--------------------------------------------------------------------------------------------------------




--------------------------------------- Iteration      1(  19)  ---------------------------------------


    POTLOK:  cpu time    0.1518: real time    0.1590
    SETDIJ:  cpu time    0.0409: real time    0.0409
     EDDAV:  cpu time   52.5290: real time   52.7899
       DOS:  cpu time    0.0210: real time    0.0211
    CHARGE:  cpu time    2.3842: real time    2.3844
    MIXING:  cpu time    0.0122: real time    0.0122
    --------------------------------------------
      LOOP:  cpu time   55.1391: real time   55.4075

 eigenvalue-minimisations  : 11672
 total energy-change (2. order) : 0.1103007E-01  (-0.2503453E-02)
 number of electron     376.0000440 magnetization 
 augmentation part      152.4300590 magnetization 

 Broyden mixing:
  rms(total) = 0.52526E-01    rms(broyden)= 0.52494E-01
  rms(prec ) = 0.64768E-01
  weight for this iteration     100.00

 eigenvalues of (default mixing * dielectric matrix)
  average eigenvalue GAMMA=   0.7065
  2.3099  1.6204  1.6204  0.8528  0.8528  0.5303  0.3751  0.3751  0.1271  0.2840
  0.2840  0.1816  0.2511  0.2261

 Free energy of the ion-electron system (eV)
  ---------------------------------------------------
  alpha Z        PSCENC =       918.22725072
  Ewald energy   TEWEN  =     25414.52634720
  -Hartree energ DENC   =    -57896.74545648
  -exchange      EXHF   =         0.00000000
  -V(xc)+E(xc)   XCENC  =      -999.51631290
  PAW double counting   =     35439.69472388   -33290.09425134
  entropy T*S    EENTRO =        -5.07511302
  eigenvalues    EBANDS =        60.40030436
  atomic energy  EATOM  =     30161.86332653
  Solvation  Ediel_sol  =         0.00000000
  ---------------------------------------------------
  free energy    TOTEN  =      -196.71918104 eV

  energy without entropy =     -191.64406802  energy(sigma->0) =     -194.18162453


--------------------------------------------------------------------------------------------------------




--------------------------------------- Iteration      1(  20)  ---------------------------------------


    POTLOK:  cpu time    0.1520: real time    0.1600
    SETDIJ:  cpu time    0.0408: real time    0.0408
     EDDAV:  cpu time   52.2388: real time   52.4533
       DOS:  cpu time    0.0212: real time    0.0212
    CHARGE:  cpu time    2.3851: real time    2.3853
    MIXING:  cpu time    0.0130: real time    0.0130
    --------------------------------------------
      LOOP:  cpu time   54.8507: real time   55.0736

 eigenvalue-minimisations  : 11584
 total energy-change (2. order) : 0.9235145E-03  (-0.7940702E-03)
 number of electron     376.0000440 magnetization 
 augmentation part      152.4241168 magnetization 

 Broyden mixing:
  rms(total) = 0.33449E-01    rms(broyden)= 0.33439E-01
  rms(prec ) = 0.41719E-01
  weight for this iteration     100.00

 eigenvalues of (default mixing * dielectric matrix)
  average eigenvalue GAMMA=   0.6970
  2.3852  1.6007  1.6007  0.9319  0.9319  0.5437  0.4095  0.4095  0.1271  0.1817
  0.2915  0.2915  0.2643  0.2643  0.2212

 Free energy of the ion-electron system (eV)
  ---------------------------------------------------
  alpha Z        PSCENC =       918.22725072
  Ewald energy   TEWEN  =     25414.52634720
  -Hartree energ DENC   =    -57897.64649584
  -exchange      EXHF   =         0.00000000
  -V(xc)+E(xc)   XCENC  =      -999.50386916
  PAW double counting   =     35451.00176755   -33301.49199390
  entropy T*S    EENTRO =        -5.07639889
  eigenvalues    EBANDS =        61.38180825
  atomic energy  EATOM  =     30161.86332653
  Solvation  Ediel_sol  =         0.00000000
  ---------------------------------------------------
  free energy    TOTEN  =      -196.71825753 eV

  energy without entropy =     -191.64185864  energy(sigma->0) =     -194.18005808


--------------------------------------------------------------------------------------------------------




--------------------------------------- Iteration      1(  21)  ---------------------------------------


    POTLOK:  cpu time    0.1558: real time    0.1637
    SETDIJ:  cpu time    0.0412: real time    0.0415
     EDDAV:  cpu time   52.4760: real time   52.7127
       DOS:  cpu time    0.0214: real time    0.0214
    CHARGE:  cpu time    2.3860: real time    2.3863
    MIXING:  cpu time    0.0136: real time    0.0136
    --------------------------------------------
      LOOP:  cpu time   55.0940: real time   55.3392

 eigenvalue-minimisations  : 11680
 total energy-change (2. order) :-0.7861316E-04  (-0.2363233E-03)
 number of electron     376.0000440 magnetization 
 augmentation part      152.4226867 magnetization 

 Broyden mixing:
  rms(total) = 0.19369E-01    rms(broyden)= 0.19365E-01
  rms(prec ) = 0.24744E-01
  weight for this iteration     100.00

 eigenvalues of (default mixing * dielectric matrix)
  average eigenvalue GAMMA=   0.7263
  2.4678  1.6833  1.6833  1.0652  1.0652  0.6455  0.6455  0.1271  0.3699  0.3699
  0.2822  0.2822  0.2939  0.1817  0.2326  0.2250

 Free energy of the ion-electron system (eV)
  ---------------------------------------------------
  alpha Z        PSCENC =       918.22725072
  Ewald energy   TEWEN  =     25414.52634720
  -Hartree energ DENC   =    -57898.23349783
  -exchange      EXHF   =         0.00000000
  -V(xc)+E(xc)   XCENC  =      -999.50180463
  PAW double counting   =     35457.74222254   -33308.30901297
  entropy T*S    EENTRO =        -5.07655899
  eigenvalues    EBANDS =        62.04339129
  atomic energy  EATOM  =     30161.86332653
  Solvation  Ediel_sol  =         0.00000000
  ---------------------------------------------------
  free energy    TOTEN  =      -196.71833614 eV

  energy without entropy =     -191.64177715  energy(sigma->0) =     -194.18005665


--------------------------------------------------------------------------------------------------------




--------------------------------------- Iteration      1(  22)  ---------------------------------------


    POTLOK:  cpu time    0.1551: real time    0.1633
    SETDIJ:  cpu time    0.0412: real time    0.0412
     EDDAV:  cpu time   52.3448: real time   52.5870
       DOS:  cpu time    0.0210: real time    0.0210
    CHARGE:  cpu time    2.3897: real time    2.3899
    MIXING:  cpu time    0.0143: real time    0.0143
    --------------------------------------------
      LOOP:  cpu time   54.9661: real time   55.2168

 eigenvalue-minimisations  : 11552
 total energy-change (2. order) :-0.1348625E-02  (-0.1566730E-03)
 number of electron     376.0000440 magnetization 
 augmentation part      152.4237191 magnetization 

 Broyden mixing:
  rms(total) = 0.17380E-01    rms(broyden)= 0.17377E-01
  rms(prec ) = 0.22414E-01
  weight for this iteration     100.00

 eigenvalues of (default mixing * dielectric matrix)
  average eigenvalue GAMMA=   0.7574
  2.5975  1.8941  1.8941  1.1845  1.1845  0.7248  0.7248  0.3746  0.3746  0.1271
  0.3413  0.2810  0.2810  0.1817  0.2580  0.2313  0.2202

 Free energy of the ion-electron system (eV)
  ---------------------------------------------------
  alpha Z        PSCENC =       918.22725072
  Ewald energy   TEWEN  =     25414.52634720
  -Hartree energ DENC   =    -57899.05920129
  -exchange      EXHF   =         0.00000000
  -V(xc)+E(xc)   XCENC  =      -999.50142333
  PAW double counting   =     35462.04085661   -33312.68334975
  entropy T*S    EENTRO =        -5.07535468
  eigenvalues    EBANDS =        62.94186322
  atomic energy  EATOM  =     30161.86332653
  Solvation  Ediel_sol  =         0.00000000
  ---------------------------------------------------
  free energy    TOTEN  =      -196.71968476 eV

  energy without entropy =     -191.64433009  energy(sigma->0) =     -194.18200743


--------------------------------------------------------------------------------------------------------




--------------------------------------- Iteration      1(  23)  ---------------------------------------


    POTLOK:  cpu time    0.1550: real time    0.1627
    SETDIJ:  cpu time    0.0411: real time    0.0411
     EDDAV:  cpu time   53.2883: real time   53.7257
       DOS:  cpu time    0.0203: real time    0.0203
    CHARGE:  cpu time    2.4016: real time    2.4019
    MIXING:  cpu time    0.0151: real time    0.0151
    --------------------------------------------
      LOOP:  cpu time   55.9214: real time   56.3668

 eigenvalue-minimisations  : 11856
 total energy-change (2. order) :-0.8820734E-03  (-0.9256590E-04)
 number of electron     376.0000440 magnetization 
 augmentation part      152.4248495 magnetization 

 Broyden mixing:
  rms(total) = 0.10721E-01    rms(broyden)= 0.10718E-01
  rms(prec ) = 0.16945E-01
  weight for this iteration     100.00

 eigenvalues of (default mixing * dielectric matrix)
  average eigenvalue GAMMA=   0.7509
  2.6306  1.8831  1.8831  1.2166  1.2166  0.7612  0.7612  0.5052  0.3918  0.3918
  0.1271  0.1817  0.2875  0.2875  0.2733  0.2733  0.2243  0.2200

 Free energy of the ion-electron system (eV)
  ---------------------------------------------------
  alpha Z        PSCENC =       918.22725072
  Ewald energy   TEWEN  =     25414.52634720
  -Hartree energ DENC   =    -57900.22036587
  -exchange      EXHF   =         0.00000000
  -V(xc)+E(xc)   XCENC  =      -999.49642777
  PAW double counting   =     35462.87365068   -33313.55681242
  entropy T*S    EENTRO =        -5.07655864
  eigenvalues    EBANDS =        64.13902273
  atomic energy  EATOM  =     30161.86332653
  Solvation  Ediel_sol  =         0.00000000
  ---------------------------------------------------
  free energy    TOTEN  =      -196.72056684 eV

  energy without entropy =     -191.64400820  energy(sigma->0) =     -194.18228752


--------------------------------------------------------------------------------------------------------




--------------------------------------- Iteration      1(  24)  ---------------------------------------


    POTLOK:  cpu time    0.1554: real time    0.1632
    SETDIJ:  cpu time    0.0407: real time    0.0407
     EDDAV:  cpu time   52.5571: real time   52.6109
       DOS:  cpu time    0.0215: real time    0.0215
    CHARGE:  cpu time    2.3943: real time    2.4642
    MIXING:  cpu time    0.0158: real time    0.0160
    --------------------------------------------
      LOOP:  cpu time   55.1848: real time   55.3165

 eigenvalue-minimisations  : 11728
 total energy-change (2. order) :-0.3135234E-03  (-0.4113499E-04)
 number of electron     376.0000440 magnetization 
 augmentation part      152.4223648 magnetization 

 Broyden mixing:
  rms(total) = 0.75417E-02    rms(broyden)= 0.75403E-02
  rms(prec ) = 0.10206E-01
  weight for this iteration     100.00

 eigenvalues of (default mixing * dielectric matrix)
  average eigenvalue GAMMA=   0.7566
  2.6441  1.8822  1.7452  1.7452  0.9482  0.9482  0.8066  0.6593  0.4001  0.4001
  0.1271  0.3285  0.2855  0.2855  0.1817  0.2834  0.2584  0.2260  0.2194

 Free energy of the ion-electron system (eV)
  ---------------------------------------------------
  alpha Z        PSCENC =       918.22725072
  Ewald energy   TEWEN  =     25414.52634720
  -Hartree energ DENC   =    -57900.95109376
  -exchange      EXHF   =         0.00000000
  -V(xc)+E(xc)   XCENC  =      -999.49178560
  PAW double counting   =     35459.85440709   -33310.51143624
  entropy T*S    EENTRO =        -5.07707742
  eigenvalues    EBANDS =        64.83918112
  atomic energy  EATOM  =     30161.86332653
  Solvation  Ediel_sol  =         0.00000000
  ---------------------------------------------------
  free energy    TOTEN  =      -196.72088036 eV

  energy without entropy =     -191.64380294  energy(sigma->0) =     -194.18234165


--------------------------------------------------------------------------------------------------------




--------------------------------------- Iteration      1(  25)  ---------------------------------------


    POTLOK:  cpu time    0.1578: real time    0.1830
    SETDIJ:  cpu time    0.0412: real time    0.0413
     EDDAV:  cpu time   52.0696: real time   52.3076
       DOS:  cpu time    0.0206: real time    0.0206
    CHARGE:  cpu time    2.3983: real time    2.4078
    MIXING:  cpu time    0.0167: real time    0.0167
    --------------------------------------------
      LOOP:  cpu time   54.7041: real time   54.9770

 eigenvalue-minimisations  : 11616
 total energy-change (2. order) :-0.2653656E-03  (-0.1918942E-04)
 number of electron     376.0000440 magnetization 
 augmentation part      152.4197359 magnetization 

 Broyden mixing:
  rms(total) = 0.58234E-02    rms(broyden)= 0.58213E-02
  rms(prec ) = 0.76502E-02
  weight for this iteration     100.00

 eigenvalues of (default mixing * dielectric matrix)
  average eigenvalue GAMMA=   0.7706
  2.4474  2.4474  1.6669  1.6669  1.0161  1.0161  0.9603  0.6321  0.6321  0.3890
  0.3890  0.1271  0.1817  0.2854  0.2854  0.3031  0.2654  0.2563  0.2246  0.2197

 Free energy of the ion-electron system (eV)
  ---------------------------------------------------
  alpha Z        PSCENC =       918.22725072
  Ewald energy   TEWEN  =     25414.52634720
  -Hartree energ DENC   =    -57901.67782034
  -exchange      EXHF   =         0.00000000
  -V(xc)+E(xc)   XCENC  =      -999.48775280
  PAW double counting   =     35456.69431027   -33307.32476126
  entropy T*S    EENTRO =        -5.07675223
  eigenvalues    EBANDS =        65.53470618
  atomic energy  EATOM  =     30161.86332653
  Solvation  Ediel_sol  =         0.00000000
  ---------------------------------------------------
  free energy    TOTEN  =      -196.72114573 eV

  energy without entropy =     -191.64439350  energy(sigma->0) =     -194.18276961


--------------------------------------------------------------------------------------------------------




--------------------------------------- Iteration      1(  26)  ---------------------------------------


    POTLOK:  cpu time    0.1538: real time    0.1618
    SETDIJ:  cpu time    0.0409: real time    0.0410
     EDDAV:  cpu time   48.8109: real time   48.9591
       DOS:  cpu time    0.0213: real time    0.0214
    CHARGE:  cpu time    2.4002: real time    2.4034
    MIXING:  cpu time    0.0160: real time    0.0178
    --------------------------------------------
      LOOP:  cpu time   51.4432: real time   51.6044

 eigenvalue-minimisations  : 10576
 total energy-change (2. order) :-0.1070339E-03  (-0.8491483E-05)
 number of electron     376.0000440 magnetization 
 augmentation part      152.4194639 magnetization 

 Broyden mixing:
  rms(total) = 0.33620E-02    rms(broyden)= 0.33613E-02
  rms(prec ) = 0.44707E-02
  weight for this iteration     100.00

 eigenvalues of (default mixing * dielectric matrix)
  average eigenvalue GAMMA=   0.7832
  2.5839  2.5839  1.6963  1.6963  1.0634  1.0634  1.0673  0.7079  0.7079  0.3918
  0.3918  0.1271  0.3577  0.1817  0.2870  0.2870  0.2813  0.2813  0.2468  0.2251
  0.2189

 Free energy of the ion-electron system (eV)
  ---------------------------------------------------
  alpha Z        PSCENC =       918.22725072
  Ewald energy   TEWEN  =     25414.52634720
  -Hartree energ DENC   =    -57902.03529485
  -exchange      EXHF   =         0.00000000
  -V(xc)+E(xc)   XCENC  =      -999.48498135
  PAW double counting   =     35454.59423191   -33305.20854675
  entropy T*S    EENTRO =        -5.07669229
  eigenvalues    EBANDS =        65.87310613
  atomic energy  EATOM  =     30161.86332653
  Solvation  Ediel_sol  =         0.00000000
  ---------------------------------------------------
  free energy    TOTEN  =      -196.72125276 eV

  energy without entropy =     -191.64456047  energy(sigma->0) =     -194.18290661


--------------------------------------------------------------------------------------------------------




--------------------------------------- Iteration      1(  27)  ---------------------------------------


[...]

 real space projection operators:
  total allocation   :       9691.75 KBytes
  max/ min on nodes  :       4846.03       4845.72

    ORTHCH:  cpu time    4.6921: real time    4.6951
     LOOP+:  cpu time 1023.3914: real time 1026.9927


--------------------------------------- Iteration    166(   1)  ---------------------------------------


    POTLOK:  cpu time    0.1569: real time    0.1608
    SETDIJ:  cpu time    0.0402: real time    0.0403
     EDDAV:  cpu time   50.3469: real time   50.5880
       DOS:  cpu time    0.0205: real time    0.0205
    CHARGE:  cpu time    2.3912: real time    2.3915
    MIXING:  cpu time    0.0056: real time    0.0056
    --------------------------------------------
      LOOP:  cpu time   52.9614: real time   53.2067

 eigenvalue-minimisations  : 11136
 total energy-change (2. order) :-0.1380786E-02  (-0.5987022E-02)
 number of electron     376.0000092 magnetization 
 augmentation part      152.5664603 magnetization 

  free energy =  -0.203182599196E+03  energy without entropy=  -0.198229384743E+03


--------------------------------------------------------------------------------------------------------




--------------------------------------- Iteration    166(   2)  ---------------------------------------


    POTLOK:  cpu time    0.1473: real time    0.1485
    SETDIJ:  cpu time    0.0404: real time    0.0404
     EDDAV:  cpu time   53.1105: real time   53.3505
       DOS:  cpu time    0.0200: real time    0.0200
    CHARGE:  cpu time    2.3596: real time    2.3607
    MIXING:  cpu time    0.0059: real time    0.0059
    --------------------------------------------
      LOOP:  cpu time   55.6837: real time   55.9260

 eigenvalue-minimisations  : 11976
 total energy-change (2. order) :-0.1274809E-02  (-0.3350828E-03)
 number of electron     376.0000091 magnetization 
 augmentation part      152.5664184 magnetization 

 eigenvalues of (default mixing * dielectric matrix)
  average eigenvalue GAMMA=   0.1203
  0.1203

  free energy =  -0.203183874005E+03  energy without entropy=  -0.198228526982E+03


--------------------------------------------------------------------------------------------------------




--------------------------------------- Iteration    166(   3)  ---------------------------------------


    POTLOK:  cpu time    0.1476: real time    0.1481
    SETDIJ:  cpu time    0.0407: real time    0.0407
     EDDAV:  cpu time   53.5153: real time   53.6899
       DOS:  cpu time    0.0204: real time    0.0204
    CHARGE:  cpu time    2.3560: real time    2.3565
    MIXING:  cpu time    0.0061: real time    0.0061
    --------------------------------------------
      LOOP:  cpu time   56.0860: real time   56.2616

 eigenvalue-minimisations  : 12008
 total energy-change (2. order) : 0.1154143E-02  (-0.2041873E-03)
 number of electron     376.0000092 magnetization 
 augmentation part      152.5672220 magnetization 

 eigenvalues of (default mixing * dielectric matrix)
  average eigenvalue GAMMA=   0.2681
  0.4371  0.0990

  free energy =  -0.203182719862E+03  energy without entropy=  -0.198230134845E+03


--------------------------------------------------------------------------------------------------------




--------------------------------------- Iteration    166(   4)  ---------------------------------------


    POTLOK:  cpu time    0.1473: real time    0.1477
    SETDIJ:  cpu time    0.0408: real time    0.0408
     EDDAV:  cpu time   50.9408: real time   51.1481
       DOS:  cpu time    0.0191: real time    0.0191
    CHARGE:  cpu time    2.3576: real time    2.3578
    MIXING:  cpu time    0.0066: real time    0.0066
    --------------------------------------------
      LOOP:  cpu time   53.5122: real time   53.7201

 eigenvalue-minimisations  : 11296
 total energy-change (2. order) : 0.6749935E-05  (-0.1625790E-04)
 number of electron     376.0000092 magnetization 
 augmentation part      152.5653898 magnetization 

 eigenvalues of (default mixing * dielectric matrix)
  average eigenvalue GAMMA=   0.4654
  1.1153  0.0981  0.1827

  free energy =  -0.203182713112E+03  energy without entropy=  -0.198228950333E+03


--------------------------------------------------------------------------------------------------------




--------------------------------------- Iteration    166(   5)  ---------------------------------------


    POTLOK:  cpu time    0.1468: real time    0.1472
    SETDIJ:  cpu time    0.0404: real time    0.0404
     EDDAV:  cpu time   37.6625: real time   37.6976
       DOS:  cpu time    0.0204: real time    0.0205
    CHARGE:  cpu time    2.3601: real time    2.3602
    MIXING:  cpu time    0.0070: real time    0.0070
    --------------------------------------------
      LOOP:  cpu time   40.2372: real time   40.2729

 eigenvalue-minimisations  :  7288
 total energy-change (2. order) : 0.1650498E-04  (-0.4556411E-05)
 number of electron     376.0000092 magnetization 
 augmentation part      152.5662778 magnetization 

 eigenvalues of (default mixing * dielectric matrix)
  average eigenvalue GAMMA=   0.5952
  1.4589  0.6478  0.0981  0.1762

  free energy =  -0.203182696607E+03  energy without entropy=  -0.198229313388E+03


--------------------------------------------------------------------------------------------------------




--------------------------------------- Iteration    166(   6)  ---------------------------------------


    POTLOK:  cpu time    0.1472: real time    0.1476
    SETDIJ:  cpu time    0.0403: real time    0.0403
     EDDAV:  cpu time   37.2105: real time   37.3355
       DOS:  cpu time    0.0201: real time    0.0201
    --------------------------------------------
      LOOP:  cpu time   37.4181: real time   37.5436

 eigenvalue-minimisations  :  7072
 total energy-change (2. order) :-0.1827033E-05  (-0.2477730E-05)
 number of electron     376.0000092 magnetization 
 augmentation part      152.5662778 magnetization 

  free energy =  -0.203182698434E+03  energy without entropy=  -0.198229532732E+03


--------------------------------------------------------------------------------------------------------




------------------------ aborting loop because EDIFF is reached ----------------------------------------


    CHARGE:  cpu time    2.3509: real time    2.3511
    FORLOC:  cpu time    0.0772: real time    0.0772
    FORNL :  cpu time   10.9265: real time   10.9313
    STRESS:  cpu time   33.2390: real time   33.4394
    FORCOR:  cpu time    0.2327: real time    0.2328
    FORHAR:  cpu time    0.1008: real time    0.1008
    MIXING:  cpu time    0.0073: real time    0.0073
    OFIELD:  cpu time    0.0001: real time    0.0001

  FORCE on cell =-STRESS in cart. coord.  units (eV):
  Direction    XX          YY          ZZ          XY          YZ          ZX
  --------------------------------------------------------------------------------------
  Alpha Z   918.22725   918.22725   918.22725
  Ewald   44466.90109 44322.32400-64556.21508  -111.85607   -63.22847    40.70863
  Hartree 53422.64884 53409.55600-50061.21146   -94.64954   -45.02341    33.53191
  E(xc)   -1955.87146 -1956.76472 -1964.52637    -0.06365    -0.04621    -0.01335
  Local  ************************107910.58240   205.64631   105.43600   -74.75439
  n-local  -185.00347  -193.84408  -230.53079    -0.14746    -4.62294    -0.19362
  augment  2664.76444  2673.50282  2713.35839     0.30515     3.02813     0.37306
  Kinetic  5195.22311  5212.98941  5267.18397     0.21012     1.52946     0.54575
  Fock        0.00000     0.00000     0.00000     0.00000     0.00000     0.00000
  -------------------------------------------------------------------------------------
  Total      -7.68503   -10.53616    -3.13169    -0.55514    -2.92744     0.19799
  in kB     -12.46040   -17.08318    -5.07768    -0.90010    -4.74651     0.32102
  external pressure =      -11.54 kB  Pullay stress =        0.00 kB



--------------------------------------------------------------------------------------------------------



  FREE ENERGIE OF THE ION-ELECTRON SYSTEM (eV)
  ---------------------------------------------------
  free  energy   TOTEN  =      -203.18269843 eV

  energy  without entropy=     -198.22953273  energy(sigma->0) =     -200.70611558
 
 d Force = 0.1485382E-02[ 0.125E-02, 0.172E-02]  d Energy = 0.1478321E-02 0.706E-05
 d Force = 0.5469262E-01[ 0.528E-01, 0.566E-01]  d Ewald  = 0.5469399E-01-0.137E-05


--------------------------------------------------------------------------------------------------------


    POTLOK:  cpu time    0.1938: real time    0.1938


--------------------------------------------------------------------------------------------------------


 NEB: the previous image is higher in energy: F
 NEB: the next image is higher in energy    : F
 NEB: image is at an extrema
 NEB: diff energy (min, max):     0.257302  203.182698

 NEB: Tangent
 ----------------------------------------------
      0.00553      0.09369      0.09537
      0.00000      0.00000      0.00000
      0.00115      0.01425     -0.00782
      0.01656      0.05618      0.00074
      0.00000      0.00000      0.00000
      0.00230      0.01641      0.00981
      0.00664      0.04216     -0.00195
      0.00000      0.00000      0.00000
      0.00863      0.01552      0.00168
     -0.01642      0.10755     -0.03296
      0.00000      0.00000      0.00000
      0.00171      0.02018     -0.01336
      0.02909      0.11986     -0.12893
      0.00000      0.00000      0.00000
      0.01119      0.02297     -0.00338
      0.00804      0.05721      0.00425
      0.00000      0.00000      0.00000
      0.00312      0.02514      0.01464
      0.00630      0.08197      0.05601
      0.00000      0.00000      0.00000
     -0.00184      0.01650     -0.00412
     -0.00165      0.03641     -0.03621
      0.00000      0.00000      0.00000
      0.00861      0.01837     -0.00989
      0.00665      0.06477      0.00407
      0.00000      0.00000      0.00000
      0.00779      0.02921      0.02206
      0.00000      0.00000      0.00000
      0.00000      0.00000      0.00000
      0.00000      0.00000      0.00000
     -0.00000      0.00000      0.00000
     -0.00000      0.00000      0.00000
      0.00000      0.00000      0.00000
      0.00000      0.00000      0.00000
      0.00000      0.00000      0.00000
     -0.00000      0.00000      0.00000
      0.07551     -0.47147      0.06161
      0.06730     -0.72975     -0.01184
      0.09532     -0.35471      0.05267

 NEB: forces: par spring, perp REAL, dneb     0.145576    0.215890    0.000000
 NEB: distance to prev, next image, angle between     1.673937    1.703052   92.198196
 NEB: projections on to tangent (spring, REAL)     0.145576    0.567509

 stress matrix after NEB project (eV)
     -7.68503     -0.55514      0.19799
     -0.55514    -10.53616     -2.92744
      0.19799     -2.92744     -3.13169
  FORCES: max atom, RMS     0.186970    0.041695
  FORCE total and by dimension    0.260387    0.138335
  Stress total and by dimension   14.061025   10.536160
 
 OPT: Flag T
 OPT: QM Step


--------------------------------------------------------------------------------------------------------


    WAVPRE:  cpu time  678.3172: real time  680.3046
    FEWALD:  cpu time    0.0053: real time    0.0053

 real space projection operators:
  total allocation   :       9690.55 KBytes
  max/ min on nodes  :       4845.50       4845.05

    ORTHCH:  cpu time    4.7001: real time    4.7026
     LOOP+:  cpu time 1026.1431: real time 1029.3738


--------------------------------------- Iteration    167(   1)  ---------------------------------------


    POTLOK:  cpu time    0.1562: real time    0.1581
    SETDIJ:  cpu time    0.0402: real time    0.0402
     EDDAV:  cpu time   50.5307: real time   50.6987
       DOS:  cpu time    0.0205: real time    0.0205
    CHARGE:  cpu time    2.4268: real time    2.4273
    MIXING:  cpu time    0.0055: real time    0.0055
    --------------------------------------------
      LOOP:  cpu time   53.1800: real time   53.3505

 eigenvalue-minimisations  : 11136
 total energy-change (2. order) :-0.1393924E-02  (-0.6641782E-02)
 number of electron     376.0000093 magnetization 
 augmentation part      152.5627962 magnetization 

  free energy =  -0.203184090531E+03  energy without entropy=  -0.198231255085E+03


--------------------------------------------------------------------------------------------------------




--------------------------------------- Iteration    167(   2)  ---------------------------------------


    POTLOK:  cpu time    0.1480: real time    0.1485
    SETDIJ:  cpu time    0.0408: real time    0.0408
     EDDAV:  cpu time   51.4896: real time   51.7345
       DOS:  cpu time    0.0204: real time    0.0204
    CHARGE:  cpu time    2.4022: real time    2.4025
    MIXING:  cpu time    0.0062: real time    0.0062
    --------------------------------------------
      LOOP:  cpu time   54.1072: real time   54.3528

 eigenvalue-minimisations  : 11416
 total energy-change (2. order) :-0.1412901E-03  (-0.1690037E-03)
 number of electron     376.0000093 magnetization 
 augmentation part      152.5643445 magnetization 

 eigenvalues of (default mixing * dielectric matrix)
  average eigenvalue GAMMA=   0.5196
  0.5196

  free energy =  -0.203184231821E+03  energy without entropy=  -0.198231167863E+03


--------------------------------------------------------------------------------------------------------




--------------------------------------- Iteration    167(   3)  ---------------------------------------


    POTLOK:  cpu time    0.1479: real time    0.1484
    SETDIJ:  cpu time    0.0407: real time    0.0407
     EDDAV:  cpu time   53.6736: real time   53.9323
       DOS:  cpu time    0.0197: real time    0.0197
    CHARGE:  cpu time    2.4022: real time    2.4028
    MIXING:  cpu time    0.0063: real time    0.0063
    --------------------------------------------
      LOOP:  cpu time   56.2904: real time   56.5502

 eigenvalue-minimisations  : 12056
 total energy-change (2. order) :-0.1855544E-04  (-0.2563116E-04)
 number of electron     376.0000093 magnetization 
 augmentation part      152.5653131 magnetization 

 eigenvalues of (default mixing * dielectric matrix)
  average eigenvalue GAMMA=   0.5793
  0.9830  0.1756

  free energy =  -0.203184250377E+03  energy without entropy=  -0.198232141175E+03


--------------------------------------------------------------------------------------------------------




--------------------------------------- Iteration    167(   4)  ---------------------------------------


    POTLOK:  cpu time    0.1475: real time    0.1480
    SETDIJ:  cpu time    0.0407: real time    0.0407
     EDDAV:  cpu time   43.9734: real time   44.2143
       DOS:  cpu time    0.0205: real time    0.0205
    CHARGE:  cpu time    2.3968: real time    2.3971
    MIXING:  cpu time    0.0065: real time    0.0065
    --------------------------------------------
      LOOP:  cpu time   46.5854: real time   46.8271

 eigenvalue-minimisations  :  9144
 total energy-change (2. order) : 0.1734428E-05  (-0.2727662E-04)
 number of electron     376.0000093 magnetization 
 augmentation part      152.5639770 magnetization 

 eigenvalues of (default mixing * dielectric matrix)
  average eigenvalue GAMMA=   0.5779
  1.3474  0.2827  0.1035

  free energy =  -0.203184248642E+03  energy without entropy=  -0.198230815242E+03


--------------------------------------------------------------------------------------------------------




--------------------------------------- Iteration    167(   5)  ---------------------------------------


    POTLOK:  cpu time    0.1470: real time    0.1475
    SETDIJ:  cpu time    0.0403: real time    0.0403
     EDDAV:  cpu time   43.3979: real time   43.4627
       DOS:  cpu time    0.0203: real time    0.0204
    CHARGE:  cpu time    2.3613: real time    2.3873
    MIXING:  cpu time    0.0073: real time    0.0073
    --------------------------------------------
      LOOP:  cpu time   45.9742: real time   46.0654

 eigenvalue-minimisations  :  9048
 total energy-change (2. order) : 0.5274335E-04  (-0.1409484E-04)
 number of electron     376.0000093 magnetization 
 augmentation part      152.5636359 magnetization 

 eigenvalues of (default mixing * dielectric matrix)
  average eigenvalue GAMMA=   0.7041
  1.8440  0.6700  0.2036  0.0987

  free energy =  -0.203184195899E+03  energy without entropy=  -0.198231372199E+03


--------------------------------------------------------------------------------------------------------




--------------------------------------- Iteration    167(   6)  ---------------------------------------


    POTLOK:  cpu time    0.1494: real time    0.1498
    SETDIJ:  cpu time    0.0409: real time    0.0409
     EDDAV:  cpu time   39.7413: real time   39.9786
       DOS:  cpu time    0.0201: real time    0.0201
    --------------------------------------------
      LOOP:  cpu time   39.9517: real time   40.1894

 eigenvalue-minimisations  :  7880
 total energy-change (2. order) :-0.1697903E-05  (-0.5419227E-05)
 number of electron     376.0000093 magnetization 
 augmentation part      152.5636359 magnetization 

  free energy =  -0.203184197597E+03  energy without entropy=  -0.198231649101E+03


--------------------------------------------------------------------------------------------------------




------------------------ aborting loop because EDIFF is reached ----------------------------------------


    CHARGE:  cpu time    2.3727: real time    2.3730
    FORLOC:  cpu time    0.0766: real time    0.0766
    FORNL :  cpu time   10.9381: real time   11.0073
    STRESS:  cpu time   33.2002: real time   33.3961
    FORCOR:  cpu time    0.2331: real time    0.2331
    FORHAR:  cpu time    0.1008: real time    0.1008
    MIXING:  cpu time    0.0072: real time    0.0072
    OFIELD:  cpu time    0.0001: real time    0.0001

  FORCE on cell =-STRESS in cart. coord.  units (eV):
  Direction    XX          YY          ZZ          XY          YZ          ZX
  --------------------------------------------------------------------------------------
  Alpha Z   918.22725   918.22725   918.22725
  Ewald   44466.21723 44321.97404-64556.74647  -111.81116   -63.30161    40.72686
  Hartree 53424.76786 53411.92160-50063.80402   -94.65029   -44.95315    33.51720
  E(xc)   -1955.85102 -1956.74184 -1964.50862    -0.06356    -0.04614    -0.01286
  Local  ************************107913.36802   205.60427   105.39002   -74.75446
  n-local  -184.96108  -193.82679  -230.43898    -0.14810    -4.63153    -0.19932
  augment  2664.76243  2673.50915  2713.38648     0.30476     3.03971     0.37459
  Kinetic  5195.12044  5212.86312  5267.07034     0.20711     1.52985     0.54149
  Fock        0.00000     0.00000     0.00000     0.00000     0.00000     0.00000
  -------------------------------------------------------------------------------------
  Total      -7.64880   -10.52513    -3.44600    -0.55697    -2.97285     0.19350
  in kB     -12.40165   -17.06529    -5.58729    -0.90305    -4.82013     0.31374
  external pressure =      -11.68 kB  Pullay stress =        0.00 kB



--------------------------------------------------------------------------------------------------------



  FREE ENERGIE OF THE ION-ELECTRON SYSTEM (eV)
  ---------------------------------------------------
  free  energy   TOTEN  =      -203.18419760 eV

  energy  without entropy=     -198.23164910  energy(sigma->0) =     -200.70792335
 
 d Force = 0.1494621E-02[ 0.103E-02, 0.196E-02]  d Energy = 0.1499163E-02-0.454E-05
 d Force = 0.1565217E+01[ 0.156E+01, 0.157E+01]  d Ewald  = 0.1565214E+01 0.344E-05


--------------------------------------------------------------------------------------------------------


    POTLOK:  cpu time    0.1942: real time    0.1942


--------------------------------------------------------------------------------------------------------


