PBE-grap                                
           1
     8.309900    0.000000    0.000000
    -4.154950    7.196585    0.000000
     0.000000    0.000000   16.523500
   Pd   C    O 
  36   1   2
Direct configuration=     1
   0.99970852  0.00037410  0.43439785
   0.11093000  0.22330000  0.16024000
   0.22211526  0.11219195  0.29682339
   0.33294496  0.00133555  0.43462051
   0.44426000  0.22330000  0.16024000
   0.55542791  0.11218290  0.29704545
   0.66645964  0.00105199  0.43399118
   0.77760000  0.22330000  0.16024000
   0.88861064  0.11213363  0.29698868
   0.99980849  0.33471306  0.43415293
   0.11093000  0.55664000  0.16024000
   0.22210769  0.44562079  0.29690705
   0.33979578  0.33666368  0.43030996
   0.44426000  0.55664000  0.16024000
   0.55536088  0.44549534  0.29711423
   0.66687082  0.33460152  0.43396756
   0.77760000  0.55664000  0.16024000
   0.88875234  0.44549700  0.29716896
   0.99969977  0.66763951  0.43406163
   0.11093000  0.88997000  0.16024000
   0.22207578  0.77885475  0.29703499
   0.33326741  0.66795992  0.43393922
   0.44426000  0.88997000  0.16024000
   0.55539878  0.77889666  0.29705620
   0.66664959  0.66788537  0.43399881
   0.77760000  0.88997000  0.16024000
   0.88868834  0.77883238  0.29703124
   0.99982000  0.00108000  0.02337000
   0.33315000  0.00108000  0.02337000
   0.66649000  0.00108000  0.02337000
   0.99982000  0.33441000  0.02337000
   0.33315000  0.33441000  0.02337000
   0.66649000  0.33441000  0.02337000
   0.99982000  0.66775000  0.02337000
   0.33315000  0.66775000  0.02337000
   0.66649000  0.66775000  0.02337000
   0.19777070  0.07373806  0.52288045
   0.19713019  0.30994855  0.52010091
   0.19088656  0.96849617  0.60814733
Direct configuration=     2
   0.99970105 -0.00061568  0.43536764
   0.11093000  0.22330000  0.16024000
   0.22205701  0.11197325  0.29635255
   0.33259027  0.00189414  0.43587611
   0.44426000  0.22330000  0.16024000
   0.55543337  0.11208839  0.29697157
   0.66633632  0.00093584  0.43406090
   0.77760000  0.22330000  0.16024000
   0.88845768  0.11201702  0.29687066
   0.99998214  0.33500282  0.43476788
   0.11093000  0.55664000  0.16024000
   0.22207703  0.44576710  0.29655081
   0.34456388  0.33916106  0.42843309
   0.44426000  0.55664000  0.16024000
   0.55540306  0.44543552  0.29707824
   0.66768452  0.33485028  0.43399349
   0.77760000  0.55664000  0.16024000
   0.88882431  0.44538011  0.29729745
   0.99935824  0.66730759  0.43418462
   0.11093000  0.88997000  0.16024000
   0.22213732  0.77883933  0.29696430
   0.33353300  0.66829712  0.43401247
   0.44426000  0.88997000  0.16024000
   0.55537816  0.77893326  0.29699801
   0.66706881  0.66820337  0.43408474
   0.77760000  0.88997000  0.16024000
   0.88865747  0.77880920  0.29692075
   0.99982000  0.00108000  0.02337000
   0.33315000  0.00108000  0.02337000
   0.66649000  0.00108000  0.02337000
   0.99982000  0.33441000  0.02337000
   0.33315000  0.33441000  0.02337000
   0.66649000  0.33441000  0.02337000
   0.99982000  0.66775000  0.02337000
   0.33315000  0.66775000  0.02337000
   0.66649000  0.66775000  0.02337000
   0.19562078  0.06358682  0.52727139
   0.19283766  0.30712335  0.52079439
   0.18702981  0.98301058  0.60386223
Direct configuration=     3
   0.99985901 -0.00106107  0.43611652
   0.11093000  0.22330000  0.16024000
   0.22190988  0.11170322  0.29602188
   0.33241965  0.00256035  0.43672201
   0.44426000  0.22330000  0.16024000
   0.55538321  0.11197224  0.29695992
   0.66620698  0.00083752  0.43410888
   0.77760000  0.22330000  0.16024000
   0.88839679  0.11193175  0.29683738
   1.00046914  0.33522704  0.43537169
   0.11093000  0.55664000  0.16024000
   0.22197955  0.44587269  0.29626123
   0.34670991  0.34079414  0.42783813
   0.44426000  0.55664000  0.16024000
   0.55562994  0.44546712  0.29694744
   0.66844333  0.33500163  0.43402519
   0.77760000  0.55664000  0.16024000
   0.88891349  0.44525636  0.29740517
   0.99910556  0.66699108  0.43421236
   0.11093000  0.88997000  0.16024000
   0.22220497  0.77886702  0.29695741
   0.33372716  0.66860117  0.43406833
   0.44426000  0.88997000  0.16024000
   0.55536139  0.77896067  0.29696044
   0.66754162  0.66858970  0.43415462
   0.77760000  0.88997000  0.16024000
   0.88867776  0.77884402  0.29686729
   0.99982000  0.00108000  0.02337000
   0.33315000  0.00108000  0.02337000
   0.66649000  0.00108000  0.02337000
   0.99982000  0.33441000  0.02337000
   0.33315000  0.33441000  0.02337000
   0.66649000  0.33441000  0.02337000
   0.99982000  0.66775000  0.02337000
   0.33315000  0.66775000  0.02337000
   0.66649000  0.66775000  0.02337000
   0.19319193  0.05333667  0.53294421
   0.19011478  0.30541972  0.51994071
   0.18388259  0.99654005  0.59865599
Direct configuration=     4
   1.00023244 -0.00105757  0.43695275
   0.11093000  0.22330000  0.16024000
   0.22174716  0.11145147  0.29574605
   0.33245009  0.00329843  0.43740525
   0.44426000  0.22330000  0.16024000
   0.55518313  0.11178211  0.29704036
   0.66606941  0.00073489  0.43415032
   0.77760000  0.22330000  0.16024000
   0.88839452  0.11182366  0.29688431
   1.00132950  0.33548141  0.43620133
   0.11093000  0.55664000  0.16024000
   0.22185407  0.44596555  0.29595918
   0.34766093  0.34217680  0.42801854
   0.44426000  0.55664000  0.16024000
   0.55592429  0.44551681  0.29678715
   0.66928872  0.33514409  0.43406929
   0.77760000  0.55664000  0.16024000
   0.88904391  0.44508264  0.29753303
   0.99884570  0.66657783  0.43419135
   0.11093000  0.88997000  0.16024000
   0.22230865  0.77894276  0.29698079
   0.33394538  0.66900772  0.43415797
   0.44426000  0.88997000  0.16024000
   0.55533230  0.77896251  0.29693047
   0.66817663  0.66911074  0.43422813
   0.77760000  0.88997000  0.16024000
   0.88874149  0.77895538  0.29684926
   0.99982000  0.00108000  0.02337000
   0.33315000  0.00108000  0.02337000
   0.66649000  0.00108000  0.02337000
   0.99982000  0.33441000  0.02337000
   0.33315000  0.33441000  0.02337000
   0.66649000  0.33441000  0.02337000
   0.99982000  0.66775000  0.02337000
   0.33315000  0.66775000  0.02337000
   0.66649000  0.66775000  0.02337000
   0.19167632  0.04971356  0.53129101
   0.18767352  0.30498742  0.51987665
   0.18371938  0.99835489  0.59968413
Direct configuration=     5
   1.00042865 -0.00106185  0.43757630
   0.11093000  0.22330000  0.16024000
   0.22164270  0.11129837  0.29558625
   0.33253427  0.00385947  0.43795278
   0.44426000  0.22330000  0.16024000
   0.55504087  0.11164976  0.29711113
   0.66596835  0.00067506  0.43418414
   0.77760000  0.22330000  0.16024000
   0.88841346  0.11176582  0.29695969
   1.00204532  0.33569626  0.43685747
   0.11093000  0.55664000  0.16024000
   0.22176236  0.44601069  0.29576045
   0.34841515  0.34321279  0.42813613
   0.44426000  0.55664000  0.16024000
   0.55615050  0.44554739  0.29668055
   0.66992755  0.33523793  0.43409974
   0.77760000  0.55664000  0.16024000
   0.88916100  0.44493036  0.29764215
   0.99870665  0.66631305  0.43418072
   0.11093000  0.88997000  0.16024000
   0.22238314  0.77901231  0.29702026
   0.33414457  0.66938159  0.43421365
   0.44426000  0.88997000  0.16024000
   0.55531579  0.77895007  0.29691585
   0.66868942  0.66953032  0.43428097
   0.77760000  0.88997000  0.16024000
   0.88880853  0.77904206  0.29685231
   0.99982000  0.00108000  0.02337000
   0.33315000  0.00108000  0.02337000
   0.66649000  0.00108000  0.02337000
   0.99982000  0.33441000  0.02337000
   0.33315000  0.33441000  0.02337000
   0.66649000  0.33441000  0.02337000
   0.99982000  0.66775000  0.02337000
   0.33315000  0.66775000  0.02337000
   0.66649000  0.66775000  0.02337000
   0.19013973  0.04509243  0.53214935
   0.18547462  0.30471671  0.51923693
   0.18284035  1.00236163  0.59868914
Direct configuration=     6
   1.00053582 -0.00099123  0.43788378
   0.11093000  0.22330000  0.16024000
   0.22161624  0.11126336  0.29555029
   0.33266891  0.00408830  0.43813490
   0.44426000  0.22330000  0.16024000
   0.55494845  0.11157977  0.29716404
   0.66594300  0.00066030  0.43420065
   0.77760000  0.22330000  0.16024000
   0.88843764  0.11174193  0.29701907
   1.00240085  0.33580278  0.43719388
   0.11093000  0.55664000  0.16024000
   0.22172551  0.44601921  0.29569244
   0.34849102  0.34359517  0.42838746
   0.44426000  0.55664000  0.16024000
   0.55622719  0.44554845  0.29665695
   0.67020751  0.33528578  0.43411644
   0.77760000  0.55664000  0.16024000
   0.88922183  0.44485049  0.29769746
   0.99865155  0.66619103  0.43417456
   0.11093000  0.88997000  0.16024000
   0.22241857  0.77905124  0.29704282
   0.33424905  0.66956768  0.43424555
   0.44426000  0.88997000  0.16024000
   0.55530810  0.77893531  0.29691332
   0.66893116  0.66972469  0.43430294
   0.77760000  0.88997000  0.16024000
   0.88884883  0.77909565  0.29686406
   0.99982000  0.00108000  0.02337000
   0.33315000  0.00108000  0.02337000
   0.66649000  0.00108000  0.02337000
   0.99982000  0.33441000  0.02337000
   0.33315000  0.33441000  0.02337000
   0.66649000  0.33441000  0.02337000
   0.99982000  0.66775000  0.02337000
   0.33315000  0.66775000  0.02337000
   0.66649000  0.66775000  0.02337000
   0.18976665  0.04419675  0.53040058
   0.18463243  0.30489373  0.51924123
   0.18323845  1.00165643  0.60012174
Direct configuration=     7
   1.00059064 -0.00097265  0.43815811
   0.11093000  0.22330000  0.16024000
   0.22158209  0.11121501  0.29550241
   0.33274242  0.00433205  0.43840606
   0.44426000  0.22330000  0.16024000
   0.55488232  0.11151944  0.29720668
   0.66589504  0.00064334  0.43421845
   0.77760000  0.22330000  0.16024000
   0.88845648  0.11172817  0.29707353
   1.00274235  0.33592276  0.43751161
   0.11093000  0.55664000  0.16024000
   0.22168900  0.44603271  0.29561628
   0.34885160  0.34405266  0.42843219
   0.44426000  0.55664000  0.16024000
   0.55633507  0.44555856  0.29661843
   0.67050442  0.33532692  0.43413124
   0.77760000  0.55664000  0.16024000
   0.88928729  0.44477432  0.29775385
   0.99862518  0.66610053  0.43417611
   0.11093000  0.88997000  0.16024000
   0.22245299  0.77909142  0.29707102
   0.33436413  0.66978294  0.43427028
   0.44426000  0.88997000  0.16024000
   0.55530404  0.77892187  0.29691038
   0.66918131  0.66992746  0.43432379
   0.77760000  0.88997000  0.16024000
   0.88888878  0.77913473  0.29687010
   0.99982000  0.00108000  0.02337000
   0.33315000  0.00108000  0.02337000
   0.66649000  0.00108000  0.02337000
   0.99982000  0.33441000  0.02337000
   0.33315000  0.33441000  0.02337000
   0.66649000  0.33441000  0.02337000
   0.99982000  0.66775000  0.02337000
   0.33315000  0.66775000  0.02337000
   0.66649000  0.66775000  0.02337000
   0.18909854  0.04182483  0.53100294
   0.18338411  0.30491400  0.51877509
   0.18261578  1.00367068  0.59945541
Direct configuration=     8
   1.00070654 -0.00088804  0.43860145
   0.11093000  0.22330000  0.16024000
   0.22154360  0.11116893  0.29545965
   0.33295077  0.00467974  0.43873349
   0.44426000  0.22330000  0.16024000
   0.55475946  0.11142193  0.29728750
   0.66584499  0.00062980  0.43424659
   0.77760000  0.22330000  0.16024000
   0.88850155  0.11170743  0.29717236
   1.00325369  0.33612139  0.43801558
   0.11093000  0.55664000  0.16024000
   0.22163715  0.44604208  0.29551893
   0.34920601  0.34467595  0.42865613
   0.44426000  0.55664000  0.16024000
   0.55647615  0.44556364  0.29658196
   0.67094453  0.33539502  0.43415707
   0.77760000  0.55664000  0.16024000
   0.88939424  0.44465145  0.29784459
   0.99858674  0.66595942  0.43417525
   0.11093000  0.88997000  0.16024000
   0.22250576  0.77915740  0.29711578
   0.33455292  0.67012513  0.43431352
   0.44426000  0.88997000  0.16024000
   0.55529758  0.77889480  0.29690835
   0.66956178  0.67023333  0.43435715
   0.77760000  0.88997000  0.16024000
   0.88895732  0.77920772  0.29688791
   0.99982000  0.00108000  0.02337000
   0.33315000  0.00108000  0.02337000
   0.66649000  0.00108000  0.02337000
   0.99982000  0.33441000  0.02337000
   0.33315000  0.33441000  0.02337000
   0.66649000  0.33441000  0.02337000
   0.99982000  0.66775000  0.02337000
   0.33315000  0.66775000  0.02337000
   0.66649000  0.66775000  0.02337000
   0.18826099  0.03917843  0.52994389
   0.18162845  0.30519538  0.51828827
   0.18227594  1.00477151  0.60031301
Direct configuration=     9
   1.00078060 -0.00081982  0.43899739
   0.11093000  0.22330000  0.16024000
   0.22151503  0.11112999  0.29542815
   0.33315986  0.00498900  0.43908452
   0.44426000  0.22330000  0.16024000
   0.55465712  0.11133957  0.29736168
   0.66578909  0.00062419  0.43427646
   0.77760000  0.22330000  0.16024000
   0.88854013  0.11169638  0.29727156
   1.00368904  0.33634251  0.43846665
   0.11093000  0.55664000  0.16024000
   0.22159454  0.44605490  0.29543025
   0.34967732  0.34527331  0.42876936
   0.44426000  0.55664000  0.16024000
   0.55662976  0.44557340  0.29654518
   0.67135675  0.33545255  0.43417893
   0.77760000  0.55664000  0.16024000
   0.88949898  0.44453491  0.29793087
   0.99858379  0.66586547  0.43418688
   0.11093000  0.88997000  0.16024000
   0.22255353  0.77921722  0.29716198
   0.33475433  0.67048118  0.43434816
   0.44426000  0.88997000  0.16024000
   0.55529757  0.77887071  0.29690758
   0.66992825  0.67052841  0.43438492
   0.77760000  0.88997000  0.16024000
   0.88902734  0.77927001  0.29690388
   0.99982000  0.00108000  0.02337000
   0.33315000  0.00108000  0.02337000
   0.66649000  0.00108000  0.02337000
   0.99982000  0.33441000  0.02337000
   0.33315000  0.33441000  0.02337000
   0.66649000  0.33441000  0.02337000
   0.99982000  0.66775000  0.02337000
   0.33315000  0.66775000  0.02337000
   0.66649000  0.66775000  0.02337000
   0.18735092  0.03565195  0.53077639
   0.17967235  0.30549764  0.51755873
   0.18142373  1.00731346  0.59940382
Direct configuration=    10
   1.00087483 -0.00074065  0.43925005
   0.11093000  0.22330000  0.16024000
   0.22151535  0.11114490  0.29544531
   0.33336514  0.00512361  0.43917577
   0.44426000  0.22330000  0.16024000
   0.55458760  0.11129436  0.29740985
   0.66579482  0.00063494  0.43429474
   0.77760000  0.22330000  0.16024000
   0.88857545  0.11168966  0.29734315
   1.00386635  0.33647988  0.43871173
   0.11093000  0.55664000  0.16024000
   0.22157703  0.44604922  0.29540837
   0.34971941  0.34551229  0.42900616
   0.44426000  0.55664000  0.16024000
   0.55667173  0.44556511  0.29655748
   0.67154695  0.33548707  0.43419576
   0.77760000  0.55664000  0.16024000
   0.88955534  0.44446670  0.29797651
   0.99857994  0.66581273  0.43419039
   0.11093000  0.88997000  0.16024000
   0.22257414  0.77924471  0.29718219
   0.33487096  0.67066622  0.43437337
   0.44426000  0.88997000  0.16024000
   0.55529749  0.77885182  0.29690965
   0.67011946  0.67067860  0.43440179
   0.77760000  0.88997000  0.16024000
   0.88907262  0.77931636  0.29692241
   0.99982000  0.00108000  0.02337000
   0.33315000  0.00108000  0.02337000
   0.66649000  0.00108000  0.02337000
   0.99982000  0.33441000  0.02337000
   0.33315000  0.33441000  0.02337000
   0.66649000  0.33441000  0.02337000
   0.99982000  0.66775000  0.02337000
   0.33315000  0.66775000  0.02337000
   0.66649000  0.66775000  0.02337000
   0.18698777  0.03434552  0.52955567
   0.17891283  0.30584282  0.51749039
   0.18174635  1.00707344  0.60050941
Direct configuration=    11
   1.00092253 -0.00068173  0.43946999
   0.11093000  0.22330000  0.16024000
   0.22150938  0.11114202  0.29544702
   0.33353818  0.00526802  0.43933986
   0.44426000  0.22330000  0.16024000
   0.55452997  0.11125095  0.29745537
   0.66577797  0.00064261  0.43431363
   0.77760000  0.22330000  0.16024000
   0.88860219  0.11168889  0.29740751
   1.00403595  0.33663385  0.43893817
   0.11093000  0.55664000  0.16024000
   0.22156254  0.44605442  0.29537313
   0.34994352  0.34580613  0.42909659
   0.44426000  0.55664000  0.16024000
   0.55674829  0.44556805  0.29655035
   0.67175698  0.33552045  0.43420964
   0.77760000  0.55664000  0.16024000
   0.88961722  0.44440325  0.29802284
   0.99859618  0.66578643  0.43420236
   0.11093000  0.88997000  0.16024000
   0.22259691  0.77927583  0.29720725
   0.33499914  0.67087358  0.43439259
   0.44426000  0.88997000  0.16024000
   0.55530116  0.77883511  0.29691076
   0.67032190  0.67083910  0.43441594
   0.77760000  0.88997000  0.16024000
   0.88911856  0.77935148  0.29693436
   0.99982000  0.00108000  0.02337000
   0.33315000  0.00108000  0.02337000
   0.66649000  0.00108000  0.02337000
   0.99982000  0.33441000  0.02337000
   0.33315000  0.33441000  0.02337000
   0.66649000  0.33441000  0.02337000
   0.99982000  0.66775000  0.02337000
   0.33315000  0.66775000  0.02337000
   0.66649000  0.66775000  0.02337000
   0.18647410  0.03233431  0.53009483
   0.17781316  0.30615513  0.51708269
   0.18136247  1.00826997  0.59992515
Direct configuration=    12
   1.00106729 -0.00055405  0.43985512
   0.11093000  0.22330000  0.16024000
   0.22151559  0.11117728  0.29548813
   0.33389041  0.00545417  0.43948027
   0.44426000  0.22330000  0.16024000
   0.55443484  0.11118592  0.29752798
   0.66579775  0.00066861  0.43434570
   0.77760000  0.22330000  0.16024000
   0.88865812  0.11168443  0.29752379
   1.00420439  0.33688556  0.43926848
   0.11093000  0.55664000  0.16024000
   0.22154541  0.44604494  0.29535303
   0.35005642  0.34616577  0.42943523
   0.44426000  0.55664000  0.16024000
   0.55681196  0.44555232  0.29657859
   0.67203103  0.33557461  0.43423871
   0.77760000  0.55664000  0.16024000
   0.88970837  0.44430673  0.29809108
   0.99861739  0.66574509  0.43421659
   0.11093000  0.88997000  0.16024000
   0.22262322  0.77931490  0.29723853
   0.33519789  0.67117166  0.43442883
   0.44426000  0.88997000  0.16024000
   0.55530618  0.77880408  0.29691467
   0.67061511  0.67106830  0.43444228
   0.77760000  0.88997000  0.16024000
   0.88919273  0.77941809  0.29696344
   0.99982000  0.00108000  0.02337000
   0.33315000  0.00108000  0.02337000
   0.66649000  0.00108000  0.02337000
   0.99982000  0.33441000  0.02337000
   0.33315000  0.33441000  0.02337000
   0.66649000  0.33441000  0.02337000
   0.99982000  0.66775000  0.02337000
   0.33315000  0.66775000  0.02337000
   0.66649000  0.66775000  0.02337000
   0.18580250  0.02974404  0.52942526
   0.17656650  0.30670180  0.51688930
   0.18169061  1.00862583  0.60049620
Direct configuration=    13
   1.00118651 -0.00041860  0.44021758
   0.11093000  0.22330000  0.16024000
   0.22152488  0.11121372  0.29552928
   0.33425112  0.00562605  0.43964133
   0.44426000  0.22330000  0.16024000
   0.55435397  0.11113317  0.29759789
   0.66581664  0.00069941  0.43438055
   0.77760000  0.22330000  0.16024000
   0.88871518  0.11169040  0.29763763
   1.00429751  0.33716598  0.43955581
   0.11093000  0.55664000  0.16024000
   0.22153694  0.44604225  0.29533244
   0.35026636  0.34653149  0.42969033
   0.44426000  0.55664000  0.16024000
   0.55688919  0.44554061  0.29660280
   0.67230040  0.33562999  0.43426808
   0.77760000  0.55664000  0.16024000
   0.88979972  0.44421293  0.29815736
   0.99866485  0.66574063  0.43424257
   0.11093000  0.88997000  0.16024000
   0.22265045  0.77935609  0.29726960
   0.33541000  0.67147861  0.43446245
   0.44426000  0.88997000  0.16024000
   0.55531739  0.77877403  0.29691868
   0.67089677  0.67129342  0.43446453
   0.77760000  0.88997000  0.16024000
   0.88926766  0.77947914  0.29698725
   0.99982000  0.00108000  0.02337000
   0.33315000  0.00108000  0.02337000
   0.66649000  0.00108000  0.02337000
   0.99982000  0.33441000  0.02337000
   0.33315000  0.33441000  0.02337000
   0.66649000  0.33441000  0.02337000
   0.99982000  0.66775000  0.02337000
   0.33315000  0.66775000  0.02337000
   0.66649000  0.66775000  0.02337000
   0.18504511  0.02670062  0.53016721
   0.17512914  0.30730176  0.51649731
   0.18162529  1.00973720  0.59968154
Direct configuration=    14
   1.00131842 -0.00033074  0.44046041
   0.11093000  0.22330000  0.16024000
   0.22153744  0.11126493  0.29558470
   0.33449008  0.00568945  0.43964048
   0.44426000  0.22330000  0.16024000
   0.55431591  0.11111109  0.29763272
   0.66587151  0.00072660  0.43440267
   0.77760000  0.22330000  0.16024000
   0.88876423  0.11168627  0.29771595
   1.00425040  0.33731811  0.43968757
   0.11093000  0.55664000  0.16024000
   0.22153890  0.44602458  0.29535478
   0.35020917  0.34665575  0.42998276
   0.44426000  0.55664000  0.16024000
   0.55688488  0.44551849  0.29665200
   0.67240175  0.33566632  0.43429226
   0.77760000  0.55664000  0.16024000
   0.88984037  0.44416301  0.29819066
   0.99869325  0.66574289  0.43425547
   0.11093000  0.88997000  0.16024000
   0.22265657  0.77936699  0.29727698
   0.33552300  0.67162609  0.43448623
   0.44426000  0.88997000  0.16024000
   0.55532486  0.77875743  0.29692351
   0.67102368  0.67139356  0.43448306
   0.77760000  0.88997000  0.16024000
   0.88931168  0.77952485  0.29701138
   0.99982000  0.00108000  0.02337000
   0.33315000  0.00108000  0.02337000
   0.66649000  0.00108000  0.02337000
   0.99982000  0.33441000  0.02337000
   0.33315000  0.33441000  0.02337000
   0.66649000  0.33441000  0.02337000
   0.99982000  0.66775000  0.02337000
   0.33315000  0.66775000  0.02337000
   0.66649000  0.66775000  0.02337000
   0.18469797  0.02543583  0.52922051
   0.17477658  0.30751852  0.51666175
   0.18228657  1.00937083  0.60064415
Direct configuration=    15
   1.00140364 -0.00024202  0.44066379
   0.11093000  0.22330000  0.16024000
   0.22154780  0.11129966  0.29562236
   0.33470921  0.00576049  0.43969838
   0.44426000  0.22330000  0.16024000
   0.55428114  0.11108761  0.29766873
   0.66590254  0.00074943  0.43442378
   0.77760000  0.22330000  0.16024000
   0.88880095  0.11168791  0.29778260
   1.00423237  0.33748366  0.43981511
   0.11093000  0.55664000  0.16024000
   0.22154211  0.44601893  0.29535876
   0.35029306  0.34682347  0.43014585
   0.44426000  0.55664000  0.16024000
   0.55691325  0.44550719  0.29667954
   0.67252210  0.33570278  0.43431135
   0.77760000  0.55664000  0.16024000
   0.88988528  0.44411764  0.29822429
   0.99873490  0.66576742  0.43427588
   0.11093000  0.88997000  0.16024000
   0.22266814  0.77938429  0.29728941
   0.33564352  0.67178516  0.43450554
   0.44426000  0.88997000  0.16024000
   0.55533529  0.77874366  0.29692671
   0.67116148  0.67150486  0.43449632
   0.77760000  0.88997000  0.16024000
   0.88935542  0.77956072  0.29702813
   0.99982000  0.00108000  0.02337000
   0.33315000  0.00108000  0.02337000
   0.66649000  0.00108000  0.02337000
   0.99982000  0.33441000  0.02337000
   0.33315000  0.33441000  0.02337000
   0.66649000  0.33441000  0.02337000
   0.99982000  0.66775000  0.02337000
   0.33315000  0.66775000  0.02337000
   0.66649000  0.66775000  0.02337000
   0.18430403  0.02378490  0.52980150
   0.17408167  0.30783406  0.51651393
   0.18234755  1.00983149  0.60005243
Direct configuration=    16
   1.00155837 -0.00013490  0.44094258
   0.11093000  0.22330000  0.16024000
   0.22156399  0.11136213  0.29569174
   0.33498780  0.00581696  0.43969420
   0.44426000  0.22330000  0.16024000
   0.55425015  0.11106927  0.29770494
   0.66597645  0.00078536  0.43445093
   0.77760000  0.22330000  0.16024000
   0.88885698  0.11168307  0.29787368
   1.00414390  0.33766212  0.43994251
   0.11093000  0.55664000  0.16024000
   0.22155046  0.44599860  0.29539282
   0.35024111  0.34695033  0.43046606
   0.44426000  0.55664000  0.16024000
   0.55690251  0.44548146  0.29674146
   0.67262140  0.33574800  0.43434075
   0.77760000  0.55664000  0.16024000
   0.88992929  0.44406698  0.29826050
   0.99878284  0.66579545  0.43429771
   0.11093000  0.88997000  0.16024000
   0.22267306  0.77939421  0.29729633
   0.33577545  0.67194884  0.43453241
   0.44426000  0.88997000  0.16024000
   0.55534540  0.77872513  0.29693126
   0.67129908  0.67161542  0.43451814
   0.77760000  0.88997000  0.16024000
   0.88940588  0.77961029  0.29705723
   0.99982000  0.00108000  0.02337000
   0.33315000  0.00108000  0.02337000
   0.66649000  0.00108000  0.02337000
   0.99982000  0.33441000  0.02337000
   0.33315000  0.33441000  0.02337000
   0.66649000  0.33441000  0.02337000
   0.99982000  0.66775000  0.02337000
   0.33315000  0.66775000  0.02337000
   0.66649000  0.66775000  0.02337000
   0.18390138  0.02219456  0.52937618
   0.17368583  0.30802891  0.51668407
   0.18302384  1.00965017  0.60052503
Direct configuration=    17
   1.00173326  0.00000960  0.44128462
   0.11093000  0.22330000  0.16024000
   0.22158560  0.11143651  0.29577477
   0.33533178  0.00588487  0.43971633
   0.44426000  0.22330000  0.16024000
   0.55421841  0.11104938  0.29774852
   0.66606666  0.00083161  0.43448743
   0.77760000  0.22330000  0.16024000
   0.88892613  0.11167853  0.29798409
   1.00404864  0.33789688  0.44010173
   0.11093000  0.55664000  0.16024000
   0.22156517  0.44597724  0.29543170
   0.35025090  0.34712701  0.43080393
   0.44426000  0.55664000  0.16024000
   0.55690042  0.44545367  0.29681313
   0.67274904  0.33580915  0.43437633
   0.77760000  0.55664000  0.16024000
   0.88998642  0.44401345  0.29830475
   0.99885754  0.66585506  0.43433369
   0.11093000  0.88997000  0.16024000
   0.22268161  0.77940876  0.29730635
   0.33594855  0.67215894  0.43456429
   0.44426000  0.88997000  0.16024000
   0.55536142  0.77870504  0.29693616
   0.67147597  0.67175905  0.43454348
   0.77760000  0.88997000  0.16024000
   0.88947095  0.77966963  0.29709178
   0.99982000  0.00108000  0.02337000
   0.33315000  0.00108000  0.02337000
   0.66649000  0.00108000  0.02337000
   0.99982000  0.33441000  0.02337000
   0.33315000  0.33441000  0.02337000
   0.66649000  0.33441000  0.02337000
   0.99982000  0.66775000  0.02337000
   0.33315000  0.66775000  0.02337000
   0.66649000  0.66775000  0.02337000
   0.18338563  0.01998268  0.52992422
   0.17299628  0.30830164  0.51673046
   0.18354496  1.00983664  0.60002763
Direct configuration=    18
   1.00191377  0.00011198  0.44158287
   0.11093000  0.22330000  0.16024000
   0.22160181  0.11150703  0.29586009
   0.33558938  0.00591008  0.43967595
   0.44426000  0.22330000  0.16024000
   0.55420915  0.11104250  0.29777289
   0.66616824  0.00087188  0.43451635
   0.77760000  0.22330000  0.16024000
   0.88899131  0.11167193  0.29807704
   1.00393771  0.33805144  0.44019935
   0.11093000  0.55664000  0.16024000
   0.22158189  0.44594950  0.29548901
   0.35014273  0.34719947  0.43116018
   0.44426000  0.55664000  0.16024000
   0.55685788  0.44542041  0.29689435
   0.67280088  0.33585452  0.43441029
   0.77760000  0.55664000  0.16024000
   0.89001833  0.44397813  0.29833165
   0.99891532  0.66590140  0.43435994
   0.11093000  0.88997000  0.16024000
   0.22268026  0.77940988  0.29730558
   0.33606619  0.67229301  0.43459090
   0.44426000  0.88997000  0.16024000
   0.55537316  0.77869368  0.29694186
   0.67158454  0.67184800  0.43456996
   0.77760000  0.88997000  0.16024000
   0.88951714  0.77971920  0.29712789
   0.99982000  0.00108000  0.02337000
   0.33315000  0.00108000  0.02337000
   0.66649000  0.00108000  0.02337000
   0.99982000  0.33441000  0.02337000
   0.33315000  0.33441000  0.02337000
   0.66649000  0.33441000  0.02337000
   0.99982000  0.66775000  0.02337000
   0.33315000  0.66775000  0.02337000
   0.66649000  0.66775000  0.02337000
   0.18303473  0.01871089  0.52927291
   0.17286262  0.30821544  0.51705663
   0.18443716  1.00945608  0.60077873
Direct configuration=    19
   1.00202214  0.00021257  0.44179310
   0.11093000  0.22330000  0.16024000
   0.22161689  0.11155589  0.29591675
   0.33579258  0.00594078  0.43968436
   0.44426000  0.22330000  0.16024000
   0.55420134  0.11103543  0.29779548
   0.66623788  0.00090457  0.43454059
   0.77760000  0.22330000  0.16024000
   0.88903658  0.11167091  0.29814407
   1.00390439  0.33819477  0.44029520
   0.11093000  0.55664000  0.16024000
   0.22159628  0.44593377  0.29552082
   0.35014985  0.34729383  0.43136214
   0.44426000  0.55664000  0.16024000
   0.55684885  0.44540139  0.29694587
   0.67286072  0.33589538  0.43443434
   0.77760000  0.55664000  0.16024000
   0.89004936  0.44395315  0.29835560
   0.99897305  0.66595772  0.43438771
   0.11093000  0.88997000  0.16024000
   0.22268383  0.77941546  0.29730935
   0.33616855  0.67240951  0.43460970
   0.44426000  0.88997000  0.16024000
   0.55538557  0.77868627  0.29694586
   0.67168415  0.67192986  0.43458667
   0.77760000  0.88997000  0.16024000
   0.88955666  0.77975506  0.29715172
   0.99982000  0.00108000  0.02337000
   0.33315000  0.00108000  0.02337000
   0.66649000  0.00108000  0.02337000
   0.99982000  0.33441000  0.02337000
   0.33315000  0.33441000  0.02337000
   0.66649000  0.33441000  0.02337000
   0.99982000  0.66775000  0.02337000
   0.33315000  0.66775000  0.02337000
   0.66649000  0.66775000  0.02337000
   0.18277965  0.01741852  0.52985815
   0.17243069  0.30830614  0.51707469
   0.18470577  1.00955630  0.60023647
Direct configuration=    20
   1.00217832  0.00030815  0.44204470
   0.11093000  0.22330000  0.16024000
   0.22163265  0.11161520  0.29599089
   0.33599629  0.00595624  0.43965433
   0.44426000  0.22330000  0.16024000
   0.55420096  0.11103267  0.29781476
   0.66633272  0.00094048  0.43456659
   0.77760000  0.22330000  0.16024000
   0.88909142  0.11166634  0.29822082
   1.00383951  0.33832566  0.44038020
   0.11093000  0.55664000  0.16024000
   0.22161396  0.44590909  0.29557374
   0.35007536  0.34735203  0.43164634
   0.44426000  0.55664000  0.16024000
   0.55681232  0.44537666  0.29701766
   0.67289664  0.33593756  0.43446416
   0.77760000  0.55664000  0.16024000
   0.89007404  0.44392896  0.29837799
   0.99903165  0.66601041  0.43441276
   0.11093000  0.88997000  0.16024000
   0.22268242  0.77941527  0.29730777
   0.33626465  0.67251518  0.43463147
   0.44426000  0.88997000  0.16024000
   0.55539701  0.77867860  0.29695136
   0.67177279  0.67200304  0.43460971
   0.77760000  0.88997000  0.16024000
   0.88959306  0.77979465  0.29718357
   0.99982000  0.00108000  0.02337000