 vasp.6.4.2 20Jul23 (build Jun  3 2025 15:36:07) complex                         
 executed on              LinuxNV date 2025.11.12  21:10:38
 running    3 mpi-ranks, with    1 threads/rank, on    3 nodes
 each image running on    1 cores
 distrk:  each k-point on    1 cores,    1 groups
 distr:  one band on NCORE=   1 cores,    1 groups
 OpenACC runtime initialized ...    3 GPUs detected


--------------------------------------------------------------------------------------------------------


 INCAR:
   SYSTEM = Si
   ISTART = 1
   ICHARG = 2
   NELECT = 1080
   ISPIN = 2
   NELM = 20
   ENCUT = 400
   PREC = Accurate
   ISMEAR = 0
   SIGMA = 0.01
   EDIFF = 1E-10
   NUPDOWN = 0
   IBRION = 3
   NSW = 500
   POTIM = 0
   ISIF = 0
   IOPT = 3
   MAXMOVE = 0.2
   TIMESTEP = 0.1
   EDIFFG = -0.010
   ICHAIN = 0
   IMAGES = 3
   SPRING = -5.0
   LCLIMB = .FALSE.
   LSUBROT = .TRUE.
   LHFCALC = .TRUE.
   HFSCREEN = 0.20
   AEXX = 0.25
   PRECFOCK = Fast

 POTCAR:    PAW_PBE Li_sv 10Sep2004               
 POTCAR:    PAW_PBE F 08Apr2002                   
 -----------------------------------------------------------------------------
|                                                                             |
|           W    W    AA    RRRRR   N    N  II  N    N   GGGG   !!!           |
|           W    W   A  A   R    R  NN   N  II  NN   N  G    G  !!!           |
|           W    W  A    A  R    R  N N  N  II  N N  N  G       !!!           |
|           W WW W  AAAAAA  RRRRR   N  N N  II  N  N N  G  GGG   !            |
|           WW  WW  A    A  R   R   N   NN  II  N   NN  G    G                |
|           W    W  A    A  R    R  N    N  II  N    N   GGGG   !!!           |
|                                                                             |
|     You use a magnetic or noncollinear calculation, but did not specify     |
|     the initial magnetic moment with the MAGMOM tag. Note that a            |
|     default of 0 will be used for all atoms. This ferromagnetic setup       |
|     may break the symmetry of the crystal, in particular it may rule        |
|     out finding an antiferromagnetic solution. Thence, we recommend         |
|     setting the initial magnetic moment manually or verifying carefully     |
|     that this magnetic setup is desired.                                    |
|                                                                             |
 -----------------------------------------------------------------------------

 POTCAR:    PAW_PBE Li_sv 10Sep2004               
   SHA256 =  7e51fe1804c037e1dccc81a9c376d94d693a7559600c847f4b41960edb8ab895 Li_sv/POTCAR          
   COPYR  = (c) Copyright 10Sep2004 Georg Kresse                                                    
   COPYR  = This file is part of the software VASP. Any use, copying, and all other rights are regul
   COPYR  = If you do not have a valid VASP license, you may not use, copy or distribute this file. 
   VRHFIN =Li: 1s2s2p                                                                               
   LEXCH  = PE                                                                                      
   EATOM  =   202.7858 eV,   14.9043 Ry                                                             
                                                                                                    
   TITEL  = PAW_PBE Li_sv 10Sep2004                                                                 
   LULTRA =        F    use ultrasoft PP ?                                                          
   IUNSCR =        0    unscreen: 0-lin 1-nonlin 2-no                                               
   RPACOR =    0.000    partial core radius                                                         
   POMASS =    7.010; ZVAL   =    3.000    mass and valenz                                          
   RCORE  =    1.700    outmost cutoff radius                                                       
   RWIGS  =    2.050; RWIGS  =    1.085    wigner-seitz radius (au A)                               
   ENMAX  =  499.034; ENMIN  =  374.276 eV                                                          
   ICORE  =        2    local potential                                                             
   LCOR   =        T    correct aug charges                                                         
   LPAW   =        T    paw PP                                                                      
   EAUG   =  628.945                                                                                
   RMAX   =    1.732    core radius for proj-oper                                                   
   RAUG   =    1.300    factor for augmentation sphere                                              
   RDEP   =    1.728    radius for radial grids                                                     
   RDEPT  =    1.329    core radius for aug-charge                                                  
                                                                                                    
   Atomic configuration                                                                             
    4 entries                                                                                       
     n  l   j            E        occ.                                                              
     1  0  0.50       -51.8549   2.0000                                                             
     2  0  0.50        -2.8742   1.0000                                                             
     2  1  0.50        -1.3606   0.0000                                                             
     3  2  1.50        -1.3606   0.0000                                                             
   Description                                                                                      
     l       E           TYP  RCUT    TYP  RCUT                                                     
     0    -51.8548813     23  1.400                                                                 
     0     -2.8742052     23  1.700                                                                 
     1     -1.3605826     23  1.400                                                                 
     2     -1.3605826     23  1.400                                                                 
  local pseudopotential read in
  atomic valenz-charges read in
  non local Contribution for L=            0  read in
    real space projection operators read in
  non local Contribution for L=            0  read in
    real space projection operators read in
  non local Contribution for L=            1  read in
    real space projection operators read in
    PAW grid and wavefunctions read in
 
   number of l-projection  operators is LMAX  =            3
   number of lm-projection operators is LMMAX =            5
 
 POTCAR:    PAW_PBE F 08Apr2002                   
   SHA256 =  53c630871ac675939349fc2b976745ee17808dedc90b5bdde026bc81f0faf456 F/POTCAR              
   COPYR  = (c) Copyright 08Apr2002 Georg Kresse                                                    
   COPYR  = This file is part of the software VASP. Any use, copying, and all other rights are regul
   COPYR  = If you do not have a valid VASP license, you may not use, copy or distribute this file. 
   VRHFIN =F: s2p5                                                                                  
   LEXCH  = PE                                                                                      
   EATOM  =   659.6475 eV,   48.4827 Ry                                                             
                                                                                                    
   TITEL  = PAW_PBE F 08Apr2002                                                                     
   LULTRA =        F    use ultrasoft PP ?                                                          
   IUNSCR =        1    unscreen: 0-lin 1-nonlin 2-no                                               
   RPACOR =    1.200    partial core radius                                                         
   POMASS =   18.998; ZVAL   =    7.000    mass and valenz                                          
   RCORE  =    1.520    outmost cutoff radius                                                       
   RWIGS  =    1.500; RWIGS  =    0.794    wigner-seitz radius (au A)                               
   ENMAX  =  400.000; ENMIN  =  300.000 eV                                                          
   ICORE  =        2    local potential                                                             
   LCOR   =        T    correct aug charges                                                         
   LPAW   =        T    paw PP                                                                      
   EAUG   =  613.614                                                                                
   RMAX   =    1.555    core radius for proj-oper                                                   
   RAUG   =    1.300    factor for augmentation sphere                                              
   RDEP   =    1.539    radius for radial grids                                                     
   RDEPT  =    1.299    core radius for aug-charge                                                  
                                                                                                    
   Atomic configuration                                                                             
    4 entries                                                                                       
     n  l   j            E        occ.                                                              
     1  0  0.50      -663.3661   2.0000                                                             
     2  0  0.50       -29.8995   2.0000                                                             
     2  1  0.50       -11.1114   5.0000                                                             
     3  2  1.50       -10.8847   0.0000                                                             
   Description                                                                                      
     l       E           TYP  RCUT    TYP  RCUT                                                     
     0    -29.8995018     23  1.200                                                                 
     0     -9.5240782     23  1.200                                                                 
     1    -11.1113914     23  1.520                                                                 
     1      1.3605826     23  1.520                                                                 
     2    -10.8846608      7  1.500                                                                 
  local pseudopotential read in
  partial core-charges read in
  partial kinetic energy density read in
  atomic valenz-charges read in
  non local Contribution for L=            0  read in
    real space projection operators read in
  non local Contribution for L=            0  read in
    real space projection operators read in
  non local Contribution for L=            1  read in
    real space projection operators read in
  non local Contribution for L=            1  read in
    real space projection operators read in
    PAW grid and wavefunctions read in
 
   number of l-projection  operators is LMAX  =            4
   number of lm-projection operators is LMMAX =            8
 
 -----------------------------------------------------------------------------
|                                                                             |
|               ----> ADVICE to this user running VASP <----                  |
|                                                                             |
|     You have a (more or less) 'large supercell' and for larger cells it     |
|     might be more efficient to use real-space projection operators.         |
|     Therefore, try LREAL= Auto in the INCAR file.                           |
|     Mind: For very accurate calculation, you might also keep the            |
|     reciprocal projection scheme (i.e. LREAL=.FALSE.).                      |
|                                                                             |
 -----------------------------------------------------------------------------

  PAW_PBE Li_sv 10Sep2004               :
 energy of atom  1       EATOM= -202.7858
 kinetic energy error for atom=    0.0926 (will be added to EATOM!!)
  PAW_PBE F 08Apr2002                   :
 energy of atom  2       EATOM= -659.6475
 kinetic energy error for atom=    0.1978 (will be added to EATOM!!)
 
 
 POSCAR: Li   F
  positions in direct lattice
  No initial velocities read in
 exchange correlation table for  LEXCH =        8
   RHO(1)=    0.500       N(1)  =     2000
   RHO(2)=  100.500       N(2)  =     4000

 VTST: version 4.1, (05/19/21)

 CHAIN: initializing optimizer
 
 OPT: Using Quick-Min optimizer
 OPT: QM, Init
 OPT: QM, MAXMOVE       0.200000
 OPT: QM, TIMESTEP      0.100000
 
 CHAIN: Read ICHAIN             0
 CHAIN: Running the NEB
 NEB:          SPRING     -5.000000
 NEB:          LCLIMB      F
 NEB:     LTANGENTOLD      F
 NEB:           LDNEB      F
 NEB:        LDNEBORG      F
 NEB:        LNEBCELL      F
 NEB:          EFIRST      0.000000
 NEB:           ELAST      0.000000
 
 POSCAR: Li   F
  positions in direct lattice
  No initial velocities read in
 
 POSCAR: Li   F
  positions in direct lattice
  No initial velocities read in
 
 POSCAR: Li   F
  positions in direct lattice
  No initial velocities read in
 
 POSCAR: Li   F
  positions in direct lattice
  No initial velocities read in
 


--------------------------------------------------------------------------------------------------------


 ion  position               nearest neighbor table
   1  0.000  1.000  1.000- 109 1.99 136 1.99 115 2.03 138 2.03 190 2.03 208 2.03
   2  0.000  0.001  0.327- 116 1.92 136 1.96 110 2.01 209 2.03 191 2.04 137 2.08
   3  0.000  0.000  0.672- 138 1.93 117 2.00 111 2.01 210 2.03 192 2.04 137 2.09
   4  0.000  0.326  0.000- 141 1.92 109 1.96 139 2.01 211 2.03 193 2.04 112 2.08
   5  1.000  0.326  0.326- 110 1.92 139 1.93 212 2.00 194 2.05 140 2.08 113 2.08  32 2.60
   6  0.001  0.327  0.674- 114 1.82 111 1.94 213 2.00 141 2.02 195 2.10 140 2.13
   7  0.000  0.672  0.000- 115 1.93 144 2.01 142 2.01 214 2.03 196 2.04 112 2.09
   8  0.001  0.674  0.327- 143 1.83 142 1.94 215 2.00 116 2.02 197 2.10 113 2.12
   9  1.000  0.672  0.667- 167 1.80 117 1.97 144 2.02 198 2.03 216 2.17
  10  0.329  1.000  1.000- 190 1.94 118 2.02 145 2.02 147 2.03 124 2.03 199 2.06
  11  0.329  0.000  0.328- 191 1.93 145 1.94 125 2.02 119 2.03 200 2.07 146 2.07
  12  0.329  0.000  0.672- 147 1.93 192 1.94 120 2.02 126 2.04 201 2.05 146 2.09
  13  0.329  0.328  0.000- 193 1.93 118 1.94 150 2.02 148 2.03 202 2.07 121 2.07
  14  0.333  0.328  0.328- 148 1.93 119 1.93 194 1.99 203 2.00 149 2.06 122 2.06
  15  0.334  0.329  0.672- 195 1.92 150 1.95 120 1.95 204 2.00 123 2.06 149 2.10
  16  0.329  0.672  0.000- 124 1.93 196 1.94 151 2.02 153 2.03 205 2.06 121 2.09
  17  0.334  0.672  0.329- 197 1.92 125 1.95 151 1.95 206 2.00 152 2.06 122 2.10
  18  0.329  0.670  0.670- 198 1.95 153 1.96 126 1.96 207 2.06 123 2.07 152 2.07
  19  0.671  1.000  1.000- 208 1.95 127 2.02 154 2.02 133 2.03 156 2.03 199 2.07
  20  0.671  0.999  0.328- 209 1.95 154 1.95 128 2.01 134 2.03 155 2.06 200 2.07
  21  0.670  1.000  0.671- 156 1.94 210 1.96 135 1.98 129 2.01 201 2.07 155 2.08
  22  0.671  0.328  0.999- 211 1.94 127 1.95 157 2.01 159 2.03 130 2.06 202 2.07
  23  0.672  0.329  0.328- 128 1.97 212 1.97 157 1.97 131 2.07 158 2.07 203 2.09
  24  0.672  0.329  0.670- 159 1.95 129 1.97 213 1.98 132 2.04 158 2.06 204 2.09
  25  0.671  0.671  0.999- 133 1.94 214 1.95 162 1.99 160 2.01 205 2.07 130 2.08
  26  0.672  0.670  0.329- 134 1.95 160 1.97 215 1.98 161 2.04 131 2.06 206 2.08
  27  0.672  0.671  0.671- 216 1.82 162 1.99 135 1.99 207 2.08 161 2.08 132 2.08
  28  1.000  0.170  0.170- 110 1.95 139 1.95 181 2.03 109 2.03 136 2.04 163 2.04
  29  0.000  0.170  0.500- 140 1.95 137 2.00 182 2.02 111 2.02 110 2.03 164 2.05
  30  0.000  0.165  0.829- 141 1.89 111 1.97 138 2.00 183 2.03 165 2.05 109 2.08
  31  0.000  0.500  0.170- 113 1.96 112 2.01 184 2.02 142 2.02 139 2.03 166 2.05
  32  0.972  0.477  0.477- 167 1.72 140 1.83 113 1.83 185 1.88  77 2.57 104 2.58   5 2.60
  33  0.000  0.500  0.848- 114 1.80 112 1.88 186 2.01 144 2.03 141 2.16 168 2.18
  34  0.000  0.829  0.165- 116 1.90 142 1.96 115 2.00 187 2.03 169 2.04 136 2.08
  35  0.000  0.849  0.499- 143 1.80 137 1.88 188 2.01 117 2.03 116 2.15 170 2.18
  36  1.000  0.828  0.828- 144 1.95 117 1.95 189 2.03 171 2.05 138 2.06 115 2.06
  37  0.329  0.170  0.170- 163 1.94 119 1.95 148 1.95 172 2.06 118 2.06 145 2.06
  38  0.334  0.171  0.500- 164 1.98 173 2.00 149 2.01 146 2.01 120 2.02 119 2.03
  39  0.329  0.170  0.829- 165 1.93 150 1.95 120 1.96 174 2.06 118 2.07 147 2.07
  40  0.334  0.500  0.171- 166 1.98 175 2.00 122 2.01 121 2.01 151 2.02 148 2.03
  41  0.352  0.500  0.500- 176 1.84 152 1.98 123 1.98 149 1.99 122 1.99
  42  0.345  0.500  0.847- 177 1.90 121 1.90 168 1.98 153 2.03 150 2.04 123 2.23
  43  0.329  0.829  0.171- 169 1.93 125 1.95 151 1.96 178 2.06 145 2.06 124 2.07
  44  0.345  0.847  0.500- 179 1.90 146 1.90 170 1.98 126 2.03 125 2.04 152 2.23
  45  0.333  0.829  0.829- 153 1.96 126 1.96 171 1.98 180 2.01 147 2.06 124 2.06
  46  0.671  0.170  0.170- 128 1.94 157 1.94 181 1.95 127 2.07 154 2.07 172 2.07
  47  0.671  0.166  0.500- 158 1.92 182 1.96 155 2.01 129 2.02 128 2.04 173 2.07
  48  0.671  0.171  0.829- 159 1.94 183 1.94 129 1.95 127 2.06 156 2.06 174 2.07
  49  0.671  0.500  0.166- 131 1.92 184 1.96 130 2.01 160 2.02 157 2.04 175 2.07
  50  0.671  0.500  0.500- 185 1.82 132 2.01 161 2.01 176 2.02 158 2.12 131 2.12
  51  0.673  0.500  0.827- 132 1.94 186 1.95 162 2.02 159 2.04 177 2.07 130 2.08
  52  0.671  0.829  0.171- 134 1.94 187 1.94 160 1.95 154 2.06 133 2.07 178 2.07
  53  0.673  0.827  0.500- 161 1.94 188 1.95 135 2.02 134 2.04 179 2.07 155 2.08
  54  0.671  0.828  0.828- 189 1.95 162 1.95 135 1.96 133 2.07 180 2.07 156 2.07
  55  0.171  1.000  0.170- 191 1.94 145 1.95 169 2.03 163 2.03 136 2.06 190 2.07
  56  0.173  0.001  0.500- 170 1.88 146 1.98 164 1.99 192 2.03 191 2.04 137 2.08
  57  0.172  1.000  0.829- 192 1.95 147 1.95 165 2.01 171 2.04 190 2.06 138 2.06
  58  0.171  0.329  0.170- 163 1.94 148 1.95 194 2.01 193 2.04 139 2.04 166 2.05
  59  0.172  0.321  0.501- 164 1.87 149 1.92 195 1.98 140 1.99 194 1.99
  60  0.171  0.328  0.829- 165 1.96 150 1.98 195 2.00 141 2.07 193 2.08 168 2.10
  61  0.172  0.671  0.170- 197 1.93 169 1.94 151 1.96 196 2.04 142 2.06 166 2.08
  62  0.173  0.697  0.499- 170 1.81 143 1.82 152 1.95 198 2.03 197 2.09
  63  0.172  0.671  0.830- 171 1.93 153 1.97 198 2.00 144 2.05 168 2.07 196 2.07
  64  0.500  1.000  0.170- 200 1.94 154 2.02 172 2.02 145 2.02 178 2.03 199 2.07
  65  0.501  0.001  0.500- 146 1.98 155 2.01 173 2.01 201 2.02 200 2.03 179 2.04
  66  0.500  1.000  0.829- 201 1.96 156 2.01 147 2.02 174 2.02 180 2.03 199 2.06
  67  0.500  0.328  0.170- 172 1.95 203 1.95 157 2.01 148 2.02 175 2.06 202 2.07
  68  0.502  0.327  0.500- 173 1.94 158 1.95 204 2.02 203 2.03 149 2.06 176 2.07
  69  0.501  0.328  0.829- 174 1.94 204 1.96 150 2.01 159 2.03 202 2.06 177 2.07
  70  0.500  0.671  0.167- 178 1.94 206 2.00 151 2.01 160 2.02 205 2.02 175 2.08
  71  0.501  0.672  0.500- 179 1.94 207 2.01 206 2.03 161 2.05 152 2.06 176 2.09
  72  0.501  0.671  0.829- 180 1.94 207 1.96 162 1.98 153 2.01 205 2.06 177 2.09
  73  0.829  1.000  0.170- 209 1.94 154 1.95 181 2.00 187 2.03 208 2.06 136 2.08
  74  0.828  0.000  0.499- 155 1.94 188 1.99 182 2.01 210 2.02 209 2.03 137 2.09
  75  0.828  1.000  0.829- 156 1.95 210 1.96 189 1.98 183 2.00 208 2.06 138 2.08
  76  0.829  0.327  0.165- 212 1.91 157 1.96 181 1.96 211 2.00 184 2.07 139 2.10
  77  0.825  0.325  0.500- 185 1.80 182 1.91 158 1.96 213 2.02 212 2.13 140 2.21  32 2.57
  78  0.834  0.328  0.829- 183 1.97 213 1.97 159 2.00 141 2.02 211 2.07 186 2.07
  79  0.829  0.671  0.170- 187 1.94 215 1.95 160 1.95 214 2.06 184 2.08 142 2.08
  80  0.850  0.674  0.501- 167 1.83 188 1.97 215 2.05 161 2.16 143 2.18 216 2.21
  81  0.828  0.672  0.831- 216 1.81 162 1.98 189 1.98 214 2.04 186 2.09 144 2.10
  82  0.171  0.170  1.000- 193 1.94 118 1.95 165 2.03 163 2.03 109 2.06 190 2.07
  83  0.171  0.170  0.329- 163 1.94 119 1.95 194 2.01 191 2.04 110 2.04 164 2.05
  84  0.172  0.170  0.671- 195 1.92 165 1.94 120 1.96 192 2.04 111 2.06 164 2.09
  85  0.173  0.500  0.001- 168 1.88 121 1.98 166 1.99 196 2.03 193 2.04 112 2.08
  86  0.172  0.501  0.321- 166 1.87 122 1.92 197 1.98 113 1.99 194 1.99
  87  0.173  0.499  0.697- 168 1.81 114 1.81 123 1.95 198 2.04 195 2.10
  88  0.171  0.829  1.000- 196 1.95 124 1.95 169 2.02 171 2.04 190 2.05 115 2.06
  89  0.171  0.829  0.328- 169 1.95 125 1.98 197 2.00 116 2.07 191 2.08 170 2.09
  90  0.172  0.830  0.671- 171 1.93 126 1.97 198 2.00 117 2.05 192 2.07 170 2.07
  91  0.500  0.170  1.000- 202 1.94 127 2.02 172 2.02 118 2.02 174 2.03 199 2.07
  92  0.500  0.170  0.328- 172 1.95 203 1.95 128 2.01 119 2.02 173 2.06 200 2.07
  93  0.500  0.170  0.671- 174 1.94 204 1.96 120 2.01 129 2.02 201 2.06 173 2.08
  94  0.501  0.500  0.001- 121 1.98 175 2.00 130 2.01 205 2.02 202 2.03 177 2.04
  95  0.502  0.500  0.327- 175 1.94 131 1.95 206 2.02 203 2.03 122 2.07 176 2.08
  96  0.501  0.500  0.672- 177 1.94 207 2.01 204 2.02 132 2.05 123 2.06 176 2.08
  97  0.500  0.829  1.000- 205 1.96 133 2.01 178 2.02 124 2.02 180 2.03 199 2.06
  98  0.501  0.829  0.328- 178 1.94 206 1.95 125 2.01 134 2.03 200 2.06 179 2.07
  99  0.501  0.829  0.671- 180 1.94 207 1.96 135 1.97 126 2.00 201 2.07 179 2.09
 100  0.829  0.166  1.000- 127 1.95 211 1.99 181 2.00 208 2.02 183 2.03 109 2.07
 101  0.829  0.169  0.327- 212 1.88 128 1.96 181 1.96 209 2.03 182 2.07 110 2.10
 102  0.829  0.170  0.671- 183 1.94 213 1.94 129 1.95 210 2.05 182 2.08 111 2.08
 103  0.828  0.500  1.000- 130 1.94 186 1.99 184 2.01 214 2.02 211 2.04 112 2.09
 104  0.825  0.499  0.324- 185 1.80 184 1.92 131 1.96 215 2.02 212 2.11 113 2.21  32 2.58
 105  0.850  0.500  0.674- 167 1.82 186 1.96 213 2.05 132 2.16 114 2.18 216 2.25
 106  0.828  0.829  1.000- 133 1.95 214 1.96 189 1.98 187 2.01 208 2.05 115 2.09
 107  0.834  0.829  0.328- 187 1.96 215 1.97 134 2.00 116 2.02 188 2.06 209 2.08
 108  0.828  0.835  0.672- 216 1.82 189 1.98 135 1.98 210 2.00 188 2.10 117 2.11
 109  0.000  0.164  0.002-   4 1.96   1 1.99  28 2.03  82 2.06 100 2.07  30 2.08
 110  0.002  0.167  0.331-   5 1.92  28 1.95   2 2.01  29 2.03  83 2.04 101 2.10
 111  0.001  0.167  0.667-   6 1.94  30 1.97   3 2.01  29 2.02  84 2.06 102 2.08
 112  0.001  0.499  0.004-  33 1.88  31 2.01  85 2.08   4 2.08   7 2.09 103 2.09
 113  0.008  0.498  0.332-  32 1.83  31 1.96  86 1.99   5 2.08   8 2.12 104 2.21
 114  0.026  0.472  0.705-  33 1.80  87 1.81   6 1.82 105 2.18
 115  0.001  0.832  0.999-   7 1.93  34 2.00   1 2.03  88 2.06  36 2.06 106 2.09
 116  0.000  0.841  0.322-  34 1.90   2 1.92 107 2.02   8 2.02  89 2.07  35 2.15
 117  0.003  0.835  0.667-  36 1.95   9 1.97   3 2.00  35 2.03  90 2.05 108 2.11
 118  0.332  0.167  1.000-  13 1.94  82 1.95  10 2.02  91 2.02  37 2.06  39 2.07
 119  0.333  0.168  0.332-  14 1.93  37 1.95  83 1.95  92 2.02  38 2.03  11 2.03
 120  0.334  0.167  0.667-  15 1.95  39 1.96  84 1.96  93 2.01  38 2.02  12 2.02
 121  0.337  0.499  0.005-  42 1.90  85 1.98  94 1.98  40 2.01  13 2.07  16 2.09
 122  0.331  0.498  0.337-  86 1.92  41 1.99  40 2.01  14 2.06  95 2.07  17 2.10
 123  0.331  0.499  0.663-  87 1.95  41 1.98  15 2.06  96 2.06  18 2.07  42 2.23
 124  0.333  0.832  0.999-  16 1.93  88 1.95  97 2.02  10 2.03  45 2.06  43 2.07
 125  0.335  0.833  0.332-  43 1.95  17 1.95  89 1.98  98 2.01  11 2.02  44 2.04
 126  0.335  0.832  0.667-  45 1.96  18 1.96  90 1.97  99 2.00  44 2.03  12 2.04
 127  0.667  0.166  0.999-  22 1.95 100 1.95  19 2.02  91 2.02  48 2.06  46 2.07
 128  0.667  0.166  0.331-  46 1.94 101 1.96  23 1.97  92 2.01  20 2.01  47 2.04
 129  0.668  0.167  0.667- 102 1.95  48 1.95  24 1.97  21 2.01  93 2.02  47 2.02
 130  0.667  0.499  1.000- 103 1.94  94 2.01  49 2.01  22 2.06  51 2.08  25 2.08
 131  0.663  0.500  0.324-  49 1.92  95 1.95 104 1.96  26 2.06  23 2.07  50 2.12
 132  0.671  0.499  0.666-  51 1.94  50 2.01  24 2.04  96 2.05  27 2.08 105 2.16
 133  0.667  0.832  1.000-  25 1.94 106 1.95  97 2.01  19 2.03  52 2.07  54 2.07
 134  0.669  0.831  0.331-  52 1.94  26 1.95 107 2.00  98 2.03  20 2.03  53 2.04
 135  0.664  0.836  0.667-  54 1.96  99 1.97 108 1.98  21 1.98  27 1.99  53 2.02
 136  0.001  0.001  0.165-   2 1.96   1 1.99  28 2.04  55 2.06  73 2.08  34 2.08
 137  0.001  0.004  0.499-  35 1.88  29 2.00  56 2.08   2 2.08   3 2.09  74 2.09
 138  0.001  0.999  0.832-   3 1.93  30 2.00   1 2.03  57 2.06  36 2.06  75 2.08
 139  0.002  0.331  0.167-   5 1.93  28 1.95   4 2.01  31 2.03  58 2.04  76 2.10
 140  0.008  0.332  0.498-  32 1.83  29 1.95  59 1.99   5 2.08   6 2.13  77 2.21
 141  0.000  0.321  0.842-  30 1.89   4 1.92  78 2.02   6 2.02  60 2.07  33 2.16
 142  0.001  0.667  0.167-   8 1.94  34 1.96   7 2.01  31 2.02  61 2.06  79 2.08
 143  0.025  0.705  0.474-  35 1.80  62 1.82   8 1.83  80 2.18
 144  0.002  0.667  0.834-  36 1.95   7 2.01   9 2.02  33 2.03  63 2.05  81 2.10
 145  0.332  1.000  0.167-  11 1.94  55 1.95  10 2.02  64 2.02  37 2.06  43 2.06
 146  0.337  0.005  0.499-  44 1.90  56 1.98  65 1.98  38 2.01  11 2.07  12 2.09
 147  0.333  0.999  0.832-  12 1.93  57 1.95  66 2.02  10 2.03  45 2.06  39 2.07
 148  0.333  0.332  0.168-  14 1.93  37 1.95  58 1.95  67 2.02  40 2.03  13 2.03
 149  0.331  0.337  0.498-  59 1.92  41 1.99  38 2.01  14 2.06  68 2.06  15 2.10
 150  0.335  0.332  0.833-  39 1.95  15 1.95  60 1.98  69 2.01  13 2.02  42 2.04
 151  0.334  0.667  0.167-  17 1.95  43 1.96  61 1.96  70 2.01  16 2.02  40 2.02
 152  0.331  0.663  0.499-  62 1.95  41 1.98  17 2.06  71 2.06  18 2.07  44 2.23
 153  0.335  0.667  0.832-  45 1.96  18 1.96  63 1.97  72 2.01  42 2.03  16 2.03
 154  0.667  0.999  0.167-  20 1.95  73 1.95  64 2.02  19 2.02  52 2.06  46 2.07
 155  0.667  1.000  0.499-  74 1.94  65 2.01  47 2.01  20 2.06  21 2.08  53 2.08
 156  0.667  1.000  0.832-  21 1.94  75 1.95  66 2.01  19 2.03  48 2.06  54 2.07
 157  0.667  0.331  0.165-  46 1.94  76 1.96  23 1.97  22 2.01  67 2.01  49 2.04
 158  0.663  0.325  0.500-  47 1.92  68 1.95  77 1.96  24 2.06  23 2.07  50 2.12
 159  0.668  0.331  0.831-  48 1.94  24 1.95  78 2.00  69 2.03  22 2.03  51 2.04
 160  0.668  0.667  0.166-  79 1.95  52 1.95  26 1.97  25 2.01  70 2.02  49 2.02
 161  0.671  0.667  0.498-  53 1.94  50 2.01  26 2.04  71 2.05  27 2.08  80 2.16
 162  0.664  0.667  0.835-  54 1.95  72 1.98  81 1.98  27 1.99  25 1.99  51 2.02
 163  0.169  0.168  0.168-  83 1.94  58 1.94  37 1.94  55 2.03  82 2.03  28 2.04
 164  0.170  0.166  0.499-  59 1.87  38 1.98  56 1.99  29 2.05  83 2.05  84 2.09
 165  0.169  0.166  0.832-  39 1.93  84 1.94  60 1.96  57 2.01  82 2.03  30 2.05
 166  0.170  0.499  0.166-  86 1.87  40 1.98  85 1.99  31 2.05  58 2.05  61 2.08
 167  0.936  0.574  0.575-  32 1.72   9 1.80 105 1.82  80 1.83
 168  0.181  0.501  0.846-  87 1.81  85 1.88  42 1.98  63 2.07  60 2.10  33 2.18
 169  0.169  0.832  0.166-  43 1.93  61 1.94  89 1.95  88 2.02  55 2.03  34 2.04
 170  0.181  0.846  0.500-  62 1.81  56 1.88  44 1.98  90 2.07  89 2.09  35 2.18
 171  0.169  0.831  0.831-  90 1.93  63 1.93  45 1.98  57 2.04  88 2.04  36 2.05
 172  0.499  0.167  0.167-  92 1.95  67 1.95  64 2.02  91 2.02  37 2.06  46 2.07
 173  0.499  0.167  0.499-  68 1.94  38 2.00  65 2.01  92 2.06  47 2.07  93 2.08
 174  0.500  0.167  0.831-  93 1.94  69 1.94  66 2.02  91 2.03  39 2.06  48 2.07
 175  0.499  0.499  0.167-  95 1.94  40 2.00  94 2.00  67 2.06  49 2.07  70 2.08
 176  0.504  0.499  0.499-  41 1.84  50 2.02  68 2.07  95 2.08  96 2.08  71 2.09
 177  0.502  0.499  0.832-  42 1.90  96 1.94  94 2.04  69 2.07  51 2.07  72 2.09
 178  0.500  0.831  0.167-  70 1.94  98 1.94  97 2.02  64 2.03  43 2.06  52 2.07
 179  0.502  0.832  0.499-  44 1.90  71 1.94  65 2.04  53 2.07  98 2.07  99 2.09
 180  0.500  0.832  0.832-  99 1.94  72 1.94  45 2.01  97 2.03  66 2.03  54 2.07
 181  0.832  0.165  0.165-  46 1.95  76 1.96 101 1.96 100 2.00  73 2.00  28 2.03
 182  0.833  0.167  0.499-  77 1.91  47 1.96  74 2.01  29 2.02 101 2.07 102 2.08
 183  0.832  0.165  0.831- 102 1.94  48 1.94  78 1.97  75 2.00 100 2.03  30 2.03
 184  0.833  0.499  0.166- 104 1.92  49 1.96 103 2.01  31 2.02  76 2.07  79 2.08
 185  0.816  0.471  0.470-  77 1.80 104 1.80  50 1.82  32 1.88
 186  0.834  0.499  0.835-  51 1.95 105 1.96 103 1.99  33 2.01  78 2.07  81 2.09
 187  0.832  0.831  0.166-  79 1.94  52 1.94 107 1.96 106 2.01  34 2.03  73 2.03
 188  0.834  0.836  0.498-  53 1.95  80 1.97  74 1.99  35 2.01 107 2.06 108 2.10
 189  0.832  0.836  0.836-  54 1.95  75 1.98 108 1.98 106 1.98  81 1.98  36 2.03
 190  0.168  0.999  0.999-  10 1.94   1 2.03  88 2.05  57 2.06  55 2.07  82 2.07
 191  0.169  0.001  0.331-  11 1.93  55 1.94  56 2.04   2 2.04  83 2.04  89 2.08
 192  0.169  0.001  0.668-  12 1.94  57 1.95  56 2.03   3 2.04  84 2.04  90 2.07
 193  0.169  0.331  0.001-  13 1.93  82 1.94  85 2.04  58 2.04   4 2.04  60 2.08
 194  0.169  0.336  0.336-  14 1.99  86 1.99  59 1.99  83 2.01  58 2.01   5 2.05
 195  0.175  0.329  0.664-  15 1.92  84 1.92  59 1.98  60 2.00  87 2.10   6 2.10
 196  0.169  0.668  0.001-  16 1.94  88 1.95  85 2.03   7 2.04  61 2.04  63 2.07
 197  0.175  0.664  0.329-  17 1.92  61 1.93  86 1.98  89 2.00  62 2.09   8 2.10
 198  0.168  0.665  0.664-  18 1.95  90 2.00  63 2.00  62 2.03   9 2.03  87 2.04
 199  0.500  0.999  0.999-  97 2.06  10 2.06  66 2.06  19 2.07  91 2.07  64 2.07
 200  0.500  0.999  0.332-  64 1.94  65 2.03  98 2.06  11 2.07  20 2.07  92 2.07
 201  0.499  1.000  0.667-  66 1.96  65 2.02  12 2.05  93 2.06  21 2.07  99 2.07
 202  0.500  0.331  0.999-  91 1.94  94 2.03  69 2.06  13 2.07  22 2.07  67 2.07
 203  0.499  0.332  0.332-  67 1.95  92 1.95  14 2.00  68 2.03  95 2.03  23 2.09
 204  0.499  0.332  0.667-  69 1.96  93 1.96  15 2.00  68 2.02  96 2.02  24 2.09
 205  0.499  0.667  0.999-  97 1.96  94 2.02  70 2.02  16 2.06  72 2.06  25 2.07
 206  0.499  0.667  0.332-  98 1.95  70 2.00  17 2.00  95 2.02  71 2.03  26 2.08
 207  0.500  0.666  0.666-  72 1.96  99 1.96  96 2.01  71 2.01  18 2.06  27 2.08
 208  0.832  0.999  1.000-  19 1.95 100 2.02   1 2.03 106 2.05  75 2.06  73 2.06
 209  0.832  0.001  0.331-  73 1.94  20 1.95   2 2.03  74 2.03 101 2.03 107 2.08
 210  0.832  0.001  0.667-  21 1.96  75 1.96 108 2.00  74 2.02   3 2.03 102 2.05
 211  0.832  0.331  1.000-  22 1.94 100 1.99  76 2.00   4 2.03 103 2.04  78 2.07
 212  0.835  0.325  0.323- 101 1.88  76 1.91  23 1.97   5 2.00 104 2.11  77 2.13
 213  0.836  0.331  0.666- 102 1.94  78 1.97  24 1.98   6 2.00  77 2.02 105 2.05
 214  0.833  0.667  1.000-  25 1.95 106 1.96 103 2.02   7 2.03  81 2.04  79 2.06
 215  0.836  0.666  0.331-  79 1.95 107 1.97  26 1.98   8 2.00 104 2.02  80 2.05
 216  0.821  0.685  0.682-  81 1.81 108 1.82  27 1.82   9 2.17  80 2.21 105 2.25
 
  LATTYP: Found a simple cubic cell.
 ALAT       =    12.0789003372
  
  Lattice vectors:
  
 A1 = (  12.0789003372,   0.0000000000,   0.0000000000)
 A2 = (   0.0000000000,  12.0789003372,   0.0000000000)
 A3 = (   0.0000000000,   0.0000000000,  12.0789003372)


Analysis of symmetry for initial positions (statically):
=====================================================================
 Subroutine PRICEL returns:
 Original cell was already a primitive cell.
 

 Routine SETGRP: Setting up the symmetry group for a 
 simple cubic supercell.


 Subroutine GETGRP returns: Found  1 space group operations
 (whereof  1 operations were pure point group operations)
 out of a pool of 48 trial point group operations.


The static configuration has the point symmetry C_1 .


Analysis of symmetry for dynamics (positions and initial velocities):
=====================================================================
 Subroutine PRICEL returns:
 Original cell was already a primitive cell.
 

 Routine SETGRP: Setting up the symmetry group for a 
 simple cubic supercell.


 Subroutine GETGRP returns: Found  1 space group operations
 (whereof  1 operations were pure point group operations)
 out of a pool of 48 trial point group operations.


The dynamic configuration has the point symmetry C_1 .


Analysis of structural, dynamic, and magnetic symmetry:
=====================================================================
 Subroutine PRICEL returns:
 Original cell was already a primitive cell.
 

 Routine SETGRP: Setting up the symmetry group for a 
 simple cubic supercell.


 Subroutine GETGRP returns: Found  1 space group operations
 (whereof  1 operations were pure point group operations)
 out of a pool of 48 trial point group operations.


The overall configuration has the point symmetry C_1 .


 Subroutine INISYM returns: Found  1 space group operations
 (whereof  1 operations are pure point group operations),
 and found     1 'primitive' translations


----------------------------------------------------------------------------------------

                                     Primitive cell                                     

  volume of cell :    1762.3095

  direct lattice vectors                    reciprocal lattice vectors
    12.078900337  0.000000000  0.000000000     0.082788993  0.000000000  0.000000000
     0.000000000 12.078900337  0.000000000     0.000000000  0.082788993  0.000000000
     0.000000000  0.000000000 12.078900337     0.000000000  0.000000000  0.082788993

  length of vectors
    12.078900337 12.078900337 12.078900337     0.082788993  0.082788993  0.082788993

  position of ions in fractional coordinates (direct lattice)
     0.000060782  0.999711350  0.999893278
     0.000218335  0.000573432  0.326577022
     0.000349892  0.000250524  0.671669002
     0.000213520  0.326427569  0.000461238
     0.999765142  0.326392554  0.326251774
     0.001363538  0.326825066  0.674084508
     0.000180128  0.671644617  0.000028068
     0.001385037  0.674060111  0.327079927
     0.999992785  0.672198872  0.666694993
     0.328952100  0.999698674  0.999722921
     0.329070740  0.000231495  0.327725043
     0.329278069  0.000320471  0.671608648
     0.329042841  0.327681161  0.000246320
     0.333315225  0.328446088  0.328456883
     0.333506475  0.328967713  0.671744611
     0.328936022  0.671570082  0.000190088
     0.333785731  0.671708753  0.328822691
     0.328913843  0.670155313  0.670138750
     0.670672264  0.999501980  0.999685970
     0.671046727  0.999372846  0.328112704
     0.670346078  0.999799729  0.671125757
     0.671076949  0.327925751  0.999227623
     0.671839566  0.328673763  0.328414527
     0.672088207  0.329499129  0.670117445
     0.670861915  0.671107251  0.999486715
     0.671926950  0.670056637  0.329361233
     0.671532915  0.670929728  0.670584869
     0.999899121  0.169920504  0.169944321
     0.000090336  0.170010914  0.499691018
     0.000124657  0.164857533  0.829470513
     0.000077195  0.499691763  0.169983620
     0.971849302  0.477299465  0.477372119
     0.000249148  0.499522138  0.848410664
     0.000114246  0.829398310  0.164889489
     0.000232094  0.848780810  0.499246852
     0.999807549  0.828328677  0.828375409
     0.329189641  0.170428937  0.170467586
     0.333647884  0.170770154  0.499821186
     0.329444901  0.170494978  0.828799680
     0.333656823  0.499797441  0.170800571
     0.351693836  0.500362060  0.500365958
     0.345313341  0.499700251  0.847041599
     0.329436028  0.828769613  0.170531592
     0.345354883  0.847047531  0.499699779
     0.333258787  0.828737339  0.828747366
     0.670900103  0.170254577  0.170265426
     0.670557393  0.165964454  0.499618113
     0.671006089  0.170574121  0.828695143
     0.670576934  0.499615536  0.165838413
     0.671287828  0.499855132  0.499841402
     0.672664396  0.499758813  0.827402106
     0.671003424  0.828631394  0.170588346
     0.672641021  0.827415716  0.499743158
     0.671183718  0.828468149  0.828451860
     0.170887926  0.999767714  0.170420657
     0.172855247  0.001496810  0.499635030
     0.171528627  0.999523467  0.828855978
     0.171321552  0.328553670  0.170250177
     0.172309948  0.321168928  0.500728064
     0.170969724  0.328157573  0.829345886
     0.171856634  0.671034937  0.170025244
     0.173388009  0.696640671  0.499176549
     0.171646243  0.670834520  0.829633475
     0.499976603  0.999683097  0.170499251
     0.501314455  0.000869534  0.499694548
     0.500111587  0.999851198  0.828552942
     0.500294056  0.328198749  0.170240283
     0.501503369  0.327321265  0.499661246
     0.500739538  0.327648094  0.828782949
     0.500241384  0.670914129  0.166567296
     0.501228898  0.671635857  0.499759531
     0.500641398  0.671463566  0.828517324
     0.828831170  0.999567615  0.170364405
     0.828035128  0.000199028  0.499376078
     0.828283808  0.999683853  0.829120438
     0.828591828  0.327497927  0.165186276
     0.824912104  0.324670810  0.499509258
     0.833936587  0.327970986  0.829015077
     0.828969617  0.670895253  0.170414593
     0.849596445  0.673561269  0.500804659
     0.828245955  0.672056181  0.830698529
     0.170885450  0.170341680  0.999790689
     0.171322947  0.170270235  0.328603546
     0.171907216  0.169985235  0.671102592
     0.172811302  0.499609322  0.001476798
     0.172320008  0.500690165  0.321209478
     0.173185375  0.499250366  0.696641115
     0.171496851  0.828814784  0.999541483
     0.171038741  0.829398291  0.328162279
     0.171886242  0.829883514  0.670867506
     0.499975371  0.170413798  0.999707446
     0.500294699  0.170316152  0.328215163
     0.500274319  0.170406021  0.670925658
     0.501328261  0.499524756  0.000764334
     0.501515743  0.499816140  0.327196470
     0.501222272  0.499835183  0.671628837
     0.500115920  0.828792349  0.999704003
     0.500759022  0.828514107  0.327531961
     0.500618441  0.828643170  0.671455381
     0.828827125  0.166072243  0.999634362
     0.828606916  0.169114790  0.327493194
     0.828929733  0.170488630  0.670972521
     0.828085558  0.499646900  0.999919409
     0.824901901  0.499300806  0.324483930
     0.849889524  0.500445559  0.673602006
     0.828305434  0.829001549  0.999667011
     0.833877748  0.828840504  0.328133270
     0.827815941  0.834762326  0.671878922
     0.000477990  0.164154387  0.001628505
     0.002224768  0.167208057  0.331414908
     0.001296571  0.166601320  0.666771897
     0.000818864  0.498917501  0.003902334
     0.007953166  0.498366398  0.331708301
     0.025772366  0.472120264  0.704532804
     0.000908717  0.831758209  0.999125810
     0.000408579  0.841376374  0.321544131
     0.002512925  0.835020694  0.666738194
     0.332451689  0.166801049  0.999735194
     0.332715711  0.168408315  0.331820570
     0.334242742  0.167387028  0.666873273
     0.337050731  0.499095668  0.004519672
     0.330805426  0.498403916  0.336900742
     0.330754517  0.499174043  0.662672000
     0.332956073  0.831542542  0.999143761
     0.334747571  0.833056863  0.331714134
     0.334819021  0.831987685  0.666903069
     0.667135376  0.166367002  0.998870762
     0.666785884  0.165905188  0.330790191
     0.667685550  0.166535234  0.667172878
     0.667380994  0.498786655  0.999548671
     0.662795336  0.499548068  0.324378929
     0.670833528  0.498711726  0.666448347
     0.666762352  0.831630294  0.999677359
     0.668526300  0.831132038  0.331205003
     0.663907095  0.835713021  0.666859048
     0.000524581  0.001397696  0.164720342
     0.000848452  0.004175094  0.498931625
     0.000814161  0.999069761  0.831818225
     0.002359016  0.331434620  0.166809635
     0.007785075  0.331575242  0.498186957
     0.000380454  0.320864949  0.841611138
     0.001271129  0.666752684  0.166724694
     0.025429411  0.704553001  0.473667298
     0.002237051  0.667120086  0.833878349
     0.332451938  0.999612543  0.166885262
     0.337029741  0.004526822  0.499062244
     0.332963570  0.999116034  0.831684978
     0.332709395  0.331799194  0.168422863
     0.330854910  0.336944262  0.498361069
     0.334775789  0.331739049  0.833146828
     0.334158296  0.666818451  0.167061579
     0.330819965  0.662646556  0.499130375
     0.334744085  0.666904828  0.831915228
     0.667092700  0.998785856  0.166818266
     0.667362415  0.999832333  0.498771485
     0.666838327  0.999762454  0.831742086
     0.666723317  0.330790133  0.165351431
     0.662821467  0.324591686  0.499589806
     0.668441088  0.331216911  0.831100545
     0.667712308  0.667132312  0.166062396
     0.670543142  0.666501457  0.498483640
     0.664377185  0.666938197  0.834818451
     0.168649842  0.168083051  0.168173477
     0.169932866  0.166158978  0.498521154
     0.169442789  0.166215689  0.831750735
     0.169924951  0.498565737  0.166197439
     0.936148304  0.574264932  0.574929566
     0.181105148  0.500556969  0.846184859
     0.169385280  0.831623646  0.166376980
     0.181030183  0.846173157  0.500464821
     0.169423673  0.830911683  0.830879223
     0.499401533  0.166914019  0.166963251
     0.498825564  0.167099152  0.498998633
     0.500030570  0.167023077  0.831471728
     0.498836115  0.499063149  0.166657944
     0.504341289  0.499029524  0.499122026
     0.501669757  0.498622277  0.832166176
     0.500002950  0.831337087  0.166651871
     0.501639334  0.832215296  0.498636267
     0.499934853  0.831831776  0.831810832
     0.831870954  0.165069512  0.165078118
     0.833079154  0.166566492  0.498842937
     0.831809678  0.165192912  0.831444009
     0.833089289  0.499085101  0.165948609
     0.816148718  0.470588436  0.470494404
     0.834212236  0.498946226  0.834939899
     0.831864302  0.831282937  0.165739967
     0.834264330  0.835653415  0.498462988
     0.832285000  0.836222065  0.835737455
     0.168333449  0.998798823  0.998974813
     0.169160463  0.001280144  0.330788068
     0.168871485  0.001173482  0.667832161
     0.169195829  0.330695505  0.001302324
     0.168835812  0.336391019  0.336386694
     0.175148065  0.328894437  0.664075539
     0.168656625  0.667794756  0.001087221
     0.174774185  0.664134471  0.329268950
     0.167945858  0.664599860  0.664146227
     0.499526483  0.999215989  0.999269772
     0.500039408  0.999062251  0.331503042
     0.499284695  0.999895211  0.666669651
     0.500019304  0.331431325  0.999040457
     0.498882442  0.331730008  0.331589780
     0.499341813  0.332462057  0.666939829
     0.499403716  0.666631492  0.999066679
     0.499378767  0.666865275  0.332187304
     0.499645748  0.666191991  0.666156306
     0.831731131  0.998834637  0.999617025
     0.832073432  0.000746126  0.331205032
     0.832434390  0.000583116  0.666796001
     0.832045211  0.330882801  0.999943854
     0.834613626  0.324759952  0.323406608
     0.835675109  0.331273438  0.665997908
     0.832557192  0.666957740  0.999744235
     0.835761443  0.665866504  0.331445502
     0.821299497  0.684567050  0.681505380

  ion indices of the primitive-cell ions
   primitive index   ion index
                 1           1
                 2           2
                 3           3
                 4           4
                 5           5
                 6           6
                 7           7
                 8           8
                 9           9
                10          10
                11          11
                12          12
                13          13
                14          14
                15          15
                16          16
                17          17
                18          18
                19          19
                20          20
                21          21
                22          22
                23          23
                24          24
                25          25
                26          26
                27          27
                28          28
                29          29
                30          30
                31          31
                32          32
                33          33
                34          34
                35          35
                36          36
                37          37
                38          38
                39          39
                40          40
                41          41
                42          42
                43          43
                44          44
                45          45
                46          46
                47          47
                48          48
                49          49
                50          50
                51          51
                52          52
                53          53
                54          54
                55          55
                56          56
                57          57
                58          58
                59          59
                60          60
                61          61
                62          62
                63          63
                64          64
                65          65
                66          66
                67          67
                68          68
                69          69
                70          70
                71          71
                72          72
                73          73
                74          74
                75          75
                76          76
                77          77
                78          78
                79          79
                80          80
                81          81
                82          82
                83          83
                84          84
                85          85
                86          86
                87          87
                88          88
                89          89
                90          90
                91          91
                92          92
                93          93
                94          94
                95          95
                96          96
                97          97
                98          98
                99          99
               100         100
               101         101
               102         102
               103         103
               104         104
               105         105
               106         106
               107         107
               108         108
               109         109
               110         110
               111         111
               112         112
               113         113
               114         114
               115         115
               116         116
               117         117
               118         118
               119         119
               120         120
               121         121
               122         122
               123         123
               124         124
               125         125
               126         126
               127         127
               128         128
               129         129
               130         130
               131         131
               132         132
               133         133
               134         134
               135         135
               136         136
               137         137
               138         138
               139         139
               140         140
               141         141
               142         142
               143         143
               144         144
               145         145
               146         146
               147         147
               148         148
               149         149
               150         150
               151         151
               152         152
               153         153
               154         154
               155         155
               156         156
               157         157
               158         158
               159         159
               160         160
               161         161
               162         162
               163         163
               164         164
               165         165
               166         166
               167         167
               168         168
               169         169
               170         170
               171         171
               172         172
               173         173
               174         174
               175         175
               176         176
               177         177
               178         178
               179         179
               180         180
               181         181
               182         182
               183         183
               184         184
               185         185
               186         186
               187         187
               188         188
               189         189
               190         190
               191         191
               192         192
               193         193
               194         194
               195         195
               196         196
               197         197
               198         198
               199         199
               200         200
               201         201
               202         202
               203         203
               204         204
               205         205
               206         206
               207         207
               208         208
               209         209
               210         210
               211         211
               212         212
               213         213
               214         214
               215         215
               216         216

----------------------------------------------------------------------------------------

 
 
 KPOINTS: Gamma-point only                        

Automatic generation of k-mesh.
 Grid dimensions read from file:
 generate k-points for:    1    1    1

 Generating k-lattice:

  Cartesian coordinates                     Fractional coordinates (reciprocal lattice)
     0.082788993  0.000000000  0.000000000     1.000000000  0.000000000  0.000000000
     0.000000000  0.082788993  0.000000000     0.000000000  1.000000000  0.000000000
     0.000000000  0.000000000  0.082788993     0.000000000  0.000000000  1.000000000

  Length of vectors
     0.082788993  0.082788993  0.082788993

  Shift w.r.t. Gamma in fractional coordinates (k-lattice)
     0.000000000  0.000000000  0.000000000

 
 Subroutine IBZKPT returns following result:
 ===========================================
 
 Found      1 irreducible k-points:
 
 Following reciprocal coordinates:
            Coordinates               Weight
  0.000000  0.000000  0.000000      1.000000
 
 Following cartesian coordinates:
            Coordinates               Weight
  0.000000  0.000000  0.000000      1.000000
 
 
 Subroutine IBZKPT_HF returns following result:
 ==============================================
 
 Found      1 k-points in 1st BZ
 the following      1 k-points will be used (e.g. in the exchange kernel)
 Following reciprocal coordinates:   # in IRBZ
  0.000000  0.000000  0.000000    1.00000000   1 t-inv F


--------------------------------------------------------------------------------------------------------




 Dimension of arrays:
   k-points           NKPTS =      1   k-points in BZ     NKDIM =      1   number of bands    NBANDS=    649
   number of dos      NEDOS =    301   number of ions     NIONS =    216
   non local maximal  LDIM  =      4   non local SUM 2l+1 LMDIM =      8
   total plane-waves  NPLWV = 512000
   max r-space proj   IRMAX =      1   max aug-charges    IRDMAX=   3893
   dimension x,y,z NGX =    80 NGY =   80 NGZ =   80
   dimension x,y,z NGXF=   160 NGYF=  160 NGZF=  160
   support grid    NGXF=   160 NGYF=  160 NGZF=  160
   ions per type =             108 108
   NGX,Y,Z   is equivalent  to a cutoff of  11.01, 11.01, 11.01 a.u.
   NGXF,Y,Z  is equivalent  to a cutoff of  22.02, 22.02, 22.02 a.u.

 SYSTEM =  Si                                      
 POSCAR =  Li   F                                  

 Startparameter for this run:
   NWRITE =      2    write-flag & timer
   PREC   = accura    normal or accurate (medium, high low for compatibility)
   ISTART =      0    job   : 0-new  1-cont  2-samecut
   ICHARG =      2    charge: 1-file 2-atom 10-const
   ISPIN  =      2    spin polarized calculation?
   LNONCOLLINEAR =      F non collinear calculations
   LSORBIT =      F    spin-orbit coupling
   INIWAV =      1    electr: 0-lowe 1-rand  2-diag
   LASPH  =      F    aspherical Exc in radial PAW
 Electronic Relaxation 1
   ENCUT  =  400.0 eV  29.40 Ry    5.42 a.u.  19.70 19.70 19.70*2*pi/ulx,y,z
   ENINI  =  400.0     initial cutoff
   ENAUG  =  628.9 eV  augmentation charge cutoff
   NELM   =     20;   NELMIN=  2; NELMDL=  0     # of ELM steps 
   EDIFF  = 0.1E-09   stopping-criterion for ELM
   LREAL  =      F    real-space projection
   NLSPLINE    = F    spline interpolate recip. space projectors
   LCOMPAT=      F    compatible to vasp.4.4
   GGA_COMPAT  = T    GGA compatible to vasp.4.4-vasp.4.6
   LMAXPAW     = -100 max onsite density
   LMAXMIX     =    2 max onsite mixed and CHGCAR
   VOSKOWN=      0    Vosko Wilk Nusair interpolation
   ROPT   =    0.00000   0.00000
 Ionic relaxation
   EDIFFG = -.1E-01   stopping-criterion for IOM
   NSW    =    500    number of steps for IOM
   NBLOCK =      1;   KBLOCK =    500    inner block; outer block 
   IBRION =      3    ionic relax: 0-MD 1-quasi-New 2-CG
   NFREE  =      0    steps in history (QN), initial steepest desc. (CG)
   ISIF   =      0    stress and relaxation
   IWAVPR =     11    prediction:  0-non 1-charg 2-wave 3-comb
   ISYM   =      3    0-nonsym 1-usesym 2-fastsym
   LCORR  =      T    Harris-Foulkes like correction to forces

   POTIM  = 0.0000    time-step for ionic-motion
   TEIN   =    0.0    initial temperature
   TEBEG  =    0.0;   TEEND  =   0.0 temperature during run
   SMASS  =  -3.00    Nose mass-parameter (am)
   estimated Nose-frequenzy (Omega)   =  0.10E-29 period in steps = 0.00E+00 mass=  -0.333E-26a.u.
   SCALEE = 1.0000    scale energy and forces
   NPACO  =    256;   APACO  = 10.0  distance and # of slots for P.C.
   PSTRESS=    0.0 pullay stress

  Mass of Ions in am
   POMASS =   7.01 19.00
  Ionic Valenz
   ZVAL   =   3.00  7.00
  Atomic Wigner-Seitz radii
   RWIGS  =  -1.00 -1.00
  virtual crystal weights 
   VCA    =   1.00  1.00
   NELECT =    1080.0000    total number of electrons
   NUPDOWN=       0.0000    fix difference up-down

 DOS related values:
   EMIN   =  10.00;   EMAX   =-10.00  energy-range for DOS
   EFERMI =   0.00;   METHOD = LEGACY      
   ISMEAR =     0;   SIGMA  =   0.01  broadening in eV -4-tet -1-fermi 0-gaus

 Electronic relaxation 2 (details)
   IALGO  =     38    algorithm
   LDIAG  =      T    sub-space diagonalisation (order eigenvalues)
   LSUBROT=      T    optimize rotation matrix (better conditioning)
   TURBO    =      0    0=normal 1=particle mesh
   IRESTART =      0    0=no restart 2=restart with 2 vectors
   NREBOOT  =      0    no. of reboots
   NMIN     =      0    reboot dimension
   EREF     =   0.00    reference energy to select bands
   IMIX   =      1    mixing-type and parameters
     AMIX     =   0.40;   BMIX     =  1.00
     AMIX_MAG =   1.60;   BMIX_MAG =  1.00
     AMIN     =   0.10
     WC   =   100.;   INIMIX=   1;  MIXPRE=   1;  MAXMIX= -45

 Intra band minimization:
   WEIMIN = 0.0010     energy-eigenvalue tresh-hold
   EBREAK =  0.39E-13  absolut break condition
   DEPER  =   0.30     relativ break condition  

   TIME   =   0.40     timestep for ELM

  volume/ion in A,a.u.               =       8.16        55.06
  Fermi-wavevector in a.u.,A,eV,Ry     =   1.390557  2.627771 26.308875  1.933648
  Thomas-Fermi vector in A             =   2.514480
 
 Write flags
   LWAVE        =      T    write WAVECAR
   LDOWNSAMPLE  =      F    k-point downsampling of WAVECAR
   LCHARG       =      T    write CHGCAR
   LVTOT        =      F    write LOCPOT, total local potential
   LVHAR        =      F    write LOCPOT, Hartree potential only
   LELF         =      F    write electronic localiz. function (ELF)
   LORBIT       =      0    0 simple, 1 ext, 2 COOP (PROOUT), +10 PAW based schemes


 Dipole corrections
   LMONO  =      F    monopole corrections only (constant potential shift)
   LDIPOL =      F    correct potential (dipole corrections)
   IDIPOL =      0    1-x, 2-y, 3-z, 4-all directions 
   EPSILON=  1.0000000 bulk dielectric constant

 Exchange correlation treatment:
   GGA     =    --    GGA type
   LEXCH   =     8    internal setting for exchange type
   LIBXC   =     F    Libxc                    
   VOSKOWN =     0    Vosko Wilk Nusair interpolation
   EXXOEP  =     0    0=HF, 1=EXX-LHF (local Hartree Fock) 2=EXX OEP
   LHFCALC =     T    Hartree Fock is set to
   LSYMGRAD=     F    symmetrize gradient (conserves proper symmetry)
   PRECFOCK=fast      Normal, Fast or Accurate (Low or Medium for compatibility)
   LRHFCALC=     F    long range Hartree Fock
   LRSCOR  =     F    long range correlation only (use DFT for short range part)
   LTHOMAS =     F    Thomas Fermi screening in HF
   LMODELHF=     F    short range full HF, long range fraction AEXX
   FOCKCORR=     1    mode to apply convergence corrections
   LFOCKACE=     T    use Adeptively-Compressed-Exchange operator
   ENCUT4O =  -1.0   cutoff for four orbital integrals eV
   LMAXFOCK=     4    L truncation for augmentation on plane wave grid
   LMAXFOCKAE=  -1    L truncation for all-electron charge restoration on plane wave grid
   NMAXFOCKAE=   1    number of basis functions for all-electron charge restoration
   LFOCKAEDFT=     F  apply the AE augmentation even for DFT
   NKREDX  =     1    reduce k-point grid by
   NKREDY  =     1    reduce k-point grid by
   NKREDZ  =     1    reduce k-point grid by
   SHIFTRED=     F    shift reduced grid of Gamma
   HFKIDENT=     F    idential grid for each k-point
   ODDONLY =     F    use only odd q-grid points
   EVENONLY=     F    use only even q-grid points
   HFALPHA =   -1.0000 decay constant for conv. correction
   MCALPHA =    0.0000 extent of test-charge in conv. correction in multipole expansion
   AEXX    =    0.2500 exact exchange contribution
   HFSCREEN=    0.2000 screening length (either q_TF or 0.3 A-1)
   HFSCREENC=   0.2000 screening length for correlation (either q_TF or 0.3 A-1)
   HFRCUT  =    0.0000 spherical cutoff for potential kernel
   ALDAX   =    0.7500 LDA exchange part
   AGGAX   =    0.7500 GGA exchange part
   ALDAC   =    1.0000 LDA correlation
   AGGAC   =    1.0000 GGA correlation
   ENCUTFOCK=  -1.0 apply spherical cutoff to Coloumb kernel
   NBANDSGWLOW=     1    first orbital included in HF term
   NBLOCK_FOCK=    64    blocking factor in FOCK_ACC

 Linear response parameters
   LEPSILON=     F    determine dielectric tensor
   LRPA    =     F    only Hartree local field effects (RPA)
   LNABLA  =     F    use nabla operator in PAW spheres
   LVEL    =     F    velocity operator in full k-point grid
   CSHIFT  =0.1000    complex shift for real part using Kramers Kronig
   OMEGAMAX=  -1.0    maximum frequency
   DEG_THRESHOLD= 0.2000000E-02 threshold for treating states as degnerate
   RTIME   =   -0.100 relaxation time in fs
  (WPLASMAI=    0.000 imaginary part of plasma frequency in eV, 0.658/RTIME)
   DFIELD  = 0.0000000 0.0000000 0.0000000 field for delta impulse in time
 
  Optional k-point grid parameters
   LKPOINTS_OPT  =     F    use optional k-point grid
   KPOINTS_OPT_MODE=     1    mode for optional k-point grid
 
 Orbital magnetization related:
   ORBITALMAG=     F  switch on orbital magnetization
   LCHIMAG   =     F  perturbation theory with respect to B field
   DQ        =  0.001000  dq finite difference perturbation B field
   LLRAUG    =     F  two centre corrections for induced B field
   LBONE     =     F  B-component reconstruction in AE one-centre
   LVGVCALC  =     T  calculate vGv susceptibility
   LVGVAPPL  =     F  apply vGv susceptibility instead of pGv for G=0

 Random number generation:
   RANDOM_GENERATOR = DEFAULT
   PCG_SEED         = not used


--------------------------------------------------------------------------------------------------------


 quickmin algorithm: (dynamic with friction)
 charge density and potential will be updated during run
 spin polarized calculation
 Variant of blocked Davidson
 Davidson routine will perform the subspace rotation
 perform sub-space diagonalisation
    after iterative eigenvector-optimisation
 Kerker-like  mixing scheme
 using additional bands           109
 reciprocal scheme for non local part
 use partial core corrections
 calculate Harris-corrections to forces 
   (improved forces if not selfconsistent)
 use gradient corrections 
 use of overlap-Matrix (Vanderbilt PP)
 Gauss-broadening in eV      SIGMA  =   0.01


--------------------------------------------------------------------------------------------------------


  energy-cutoff  :      400.00
  volume of cell :     1762.31
      direct lattice vectors                 reciprocal lattice vectors
    12.078900337  0.000000000  0.000000000     0.082788993  0.000000000  0.000000000
     0.000000000 12.078900337  0.000000000     0.000000000  0.082788993  0.000000000
     0.000000000  0.000000000 12.078900337     0.000000000  0.000000000  0.082788993

  length of vectors
    12.078900337 12.078900337 12.078900337     0.082788993  0.082788993  0.082788993


 
 k-points in units of 2pi/SCALE and weight: Gamma-point only                        
   0.00000000  0.00000000  0.00000000       1.000
 
 k-points in reciprocal lattice and weights: Gamma-point only                        
   0.00000000  0.00000000  0.00000000       1.000
 
 position of ions in fractional coordinates (direct lattice) 
   0.00006078  0.99971135  0.99989328
   0.00021834  0.00057343  0.32657702
   0.00034989  0.00025052  0.67166900
   0.00021352  0.32642757  0.00046124
   0.99976514  0.32639255  0.32625177
   0.00136354  0.32682507  0.67408451
   0.00018013  0.67164462  0.00002807
   0.00138504  0.67406011  0.32707993
   0.99999278  0.67219887  0.66669499
   0.32895210  0.99969867  0.99972292
   0.32907074  0.00023149  0.32772504
   0.32927807  0.00032047  0.67160865
   0.32904284  0.32768116  0.00024632
   0.33331522  0.32844609  0.32845688
   0.33350648  0.32896771  0.67174461
   0.32893602  0.67157008  0.00019009
   0.33378573  0.67170875  0.32882269
   0.32891384  0.67015531  0.67013875
   0.67067226  0.99950198  0.99968597
   0.67104673  0.99937285  0.32811270
   0.67034608  0.99979973  0.67112576
   0.67107695  0.32792575  0.99922762
   0.67183957  0.32867376  0.32841453
   0.67208821  0.32949913  0.67011744
   0.67086191  0.67110725  0.99948672
   0.67192695  0.67005664  0.32936123
   0.67153292  0.67092973  0.67058487
   0.99989912  0.16992050  0.16994432
   0.00009034  0.17001091  0.49969102
   0.00012466  0.16485753  0.82947051
   0.00007719  0.49969176  0.16998362
   0.97184930  0.47729946  0.47737212
   0.00024915  0.49952214  0.84841066
   0.00011425  0.82939831  0.16488949
   0.00023209  0.84878081  0.49924685
   0.99980755  0.82832868  0.82837541
   0.32918964  0.17042894  0.17046759
   0.33364788  0.17077015  0.49982119
   0.32944490  0.17049498  0.82879968
   0.33365682  0.49979744  0.17080057
   0.35169384  0.50036206  0.50036596
   0.34531334  0.49970025  0.84704160
   0.32943603  0.82876961  0.17053159
   0.34535488  0.84704753  0.49969978
   0.33325879  0.82873734  0.82874737
   0.67090010  0.17025458  0.17026543
   0.67055739  0.16596445  0.49961811
   0.67100609  0.17057412  0.82869514
   0.67057693  0.49961554  0.16583841
   0.67128783  0.49985513  0.49984140
   0.67266440  0.49975881  0.82740211
   0.67100342  0.82863139  0.17058835
   0.67264102  0.82741572  0.49974316
   0.67118372  0.82846815  0.82845186
   0.17088793  0.99976771  0.17042066
   0.17285525  0.00149681  0.49963503
   0.17152863  0.99952347  0.82885598
   0.17132155  0.32855367  0.17025018
   0.17230995  0.32116893  0.50072806
   0.17096972  0.32815757  0.82934589
   0.17185663  0.67103494  0.17002524
   0.17338801  0.69664067  0.49917655
   0.17164624  0.67083452  0.82963347
   0.49997660  0.99968310  0.17049925
   0.50131446  0.00086953  0.49969455
   0.50011159  0.99985120  0.82855294
   0.50029406  0.32819875  0.17024028
   0.50150337  0.32732127  0.49966125
   0.50073954  0.32764809  0.82878295
   0.50024138  0.67091413  0.16656730
   0.50122890  0.67163586  0.49975953
   0.50064140  0.67146357  0.82851732
   0.82883117  0.99956761  0.17036440
   0.82803513  0.00019903  0.49937608
   0.82828381  0.99968385  0.82912044
   0.82859183  0.32749793  0.16518628
   0.82491210  0.32467081  0.49950926
   0.83393659  0.32797099  0.82901508
   0.82896962  0.67089525  0.17041459
   0.84959645  0.67356127  0.50080466
   0.82824595  0.67205618  0.83069853
   0.17088545  0.17034168  0.99979069
   0.17132295  0.17027024  0.32860355
   0.17190722  0.16998524  0.67110259
   0.17281130  0.49960932  0.00147680
   0.17232001  0.50069017  0.32120948
   0.17318537  0.49925037  0.69664111
   0.17149685  0.82881478  0.99954148
   0.17103874  0.82939829  0.32816228
   0.17188624  0.82988351  0.67086751
   0.49997537  0.17041380  0.99970745
   0.50029470  0.17031615  0.32821516
   0.50027432  0.17040602  0.67092566
   0.50132826  0.49952476  0.00076433
   0.50151574  0.49981614  0.32719647
   0.50122227  0.49983518  0.67162884
   0.50011592  0.82879235  0.99970400
   0.50075902  0.82851411  0.32753196
   0.50061844  0.82864317  0.67145538
   0.82882713  0.16607224  0.99963436
   0.82860692  0.16911479  0.32749319
   0.82892973  0.17048863  0.67097252
   0.82808556  0.49964690  0.99991941
   0.82490190  0.49930081  0.32448393
   0.84988952  0.50044556  0.67360201
   0.82830543  0.82900155  0.99966701
   0.83387775  0.82884050  0.32813327
   0.82781594  0.83476233  0.67187892
   0.00047799  0.16415439  0.00162851
   0.00222477  0.16720806  0.33141491
   0.00129657  0.16660132  0.66677190
   0.00081886  0.49891750  0.00390233
   0.00795317  0.49836640  0.33170830
   0.02577237  0.47212026  0.70453280
   0.00090872  0.83175821  0.99912581
   0.00040858  0.84137637  0.32154413
   0.00251292  0.83502069  0.66673819
   0.33245169  0.16680105  0.99973519
   0.33271571  0.16840832  0.33182057
   0.33424274  0.16738703  0.66687327
   0.33705073  0.49909567  0.00451967
   0.33080543  0.49840392  0.33690074
   0.33075452  0.49917404  0.66267200
   0.33295607  0.83154254  0.99914376
   0.33474757  0.83305686  0.33171413
   0.33481902  0.83198768  0.66690307
   0.66713538  0.16636700  0.99887076
   0.66678588  0.16590519  0.33079019
   0.66768555  0.16653523  0.66717288
   0.66738099  0.49878665  0.99954867
   0.66279534  0.49954807  0.32437893
   0.67083353  0.49871173  0.66644835
   0.66676235  0.83163029  0.99967736
   0.66852630  0.83113204  0.33120500
   0.66390709  0.83571302  0.66685905
   0.00052458  0.00139770  0.16472034
   0.00084845  0.00417509  0.49893163
   0.00081416  0.99906976  0.83181822
   0.00235902  0.33143462  0.16680964
   0.00778508  0.33157524  0.49818696
   0.00038045  0.32086495  0.84161114
   0.00127113  0.66675268  0.16672469
   0.02542941  0.70455300  0.47366730
   0.00223705  0.66712009  0.83387835
   0.33245194  0.99961254  0.16688526
   0.33702974  0.00452682  0.49906224
   0.33296357  0.99911603  0.83168498
   0.33270939  0.33179919  0.16842286
   0.33085491  0.33694426  0.49836107
   0.33477579  0.33173905  0.83314683
   0.33415830  0.66681845  0.16706158
   0.33081996  0.66264656  0.49913037
   0.33474409  0.66690483  0.83191523
   0.66709270  0.99878586  0.16681827
   0.66736242  0.99983233  0.49877148
   0.66683833  0.99976245  0.83174209
   0.66672332  0.33079013  0.16535143
   0.66282147  0.32459169  0.49958981
   0.66844109  0.33121691  0.83110055
   0.66771231  0.66713231  0.16606240
   0.67054314  0.66650146  0.49848364
   0.66437718  0.66693820  0.83481845
   0.16864984  0.16808305  0.16817348
   0.16993287  0.16615898  0.49852115
   0.16944279  0.16621569  0.83175073
   0.16992495  0.49856574  0.16619744
   0.93614830  0.57426493  0.57492957
   0.18110515  0.50055697  0.84618486
   0.16938528  0.83162365  0.16637698
   0.18103018  0.84617316  0.50046482
   0.16942367  0.83091168  0.83087922
   0.49940153  0.16691402  0.16696325
   0.49882556  0.16709915  0.49899863
   0.50003057  0.16702308  0.83147173
   0.49883612  0.49906315  0.16665794
   0.50434129  0.49902952  0.49912203
   0.50166976  0.49862228  0.83216618
   0.50000295  0.83133709  0.16665187
   0.50163933  0.83221530  0.49863627
   0.49993485  0.83183178  0.83181083
   0.83187095  0.16506951  0.16507812
   0.83307915  0.16656649  0.49884294
   0.83180968  0.16519291  0.83144401
   0.83308929  0.49908510  0.16594861
   0.81614872  0.47058844  0.47049440
   0.83421224  0.49894623  0.83493990
   0.83186430  0.83128294  0.16573997
   0.83426433  0.83565341  0.49846299
   0.83228500  0.83622207  0.83573746
   0.16833345  0.99879882  0.99897481
   0.16916046  0.00128014  0.33078807
   0.16887148  0.00117348  0.66783216
   0.16919583  0.33069550  0.00130232
   0.16883581  0.33639102  0.33638669
   0.17514807  0.32889444  0.66407554
   0.16865663  0.66779476  0.00108722
   0.17477419  0.66413447  0.32926895
   0.16794586  0.66459986  0.66414623
   0.49952648  0.99921599  0.99926977
   0.50003941  0.99906225  0.33150304
   0.49928469  0.99989521  0.66666965
   0.50001930  0.33143132  0.99904046
   0.49888244  0.33173001  0.33158978
   0.49934181  0.33246206  0.66693983
   0.49940372  0.66663149  0.99906668
   0.49937877  0.66686527  0.33218730
   0.49964575  0.66619199  0.66615631
   0.83173113  0.99883464  0.99961703
   0.83207343  0.00074613  0.33120503
   0.83243439  0.00058312  0.66679600
   0.83204521  0.33088280  0.99994385
   0.83461363  0.32475995  0.32340661
   0.83567511  0.33127344  0.66599791
   0.83255719  0.66695774  0.99974423
   0.83576144  0.66586650  0.33144550
   0.82129950  0.68456705  0.68150538
 
 position of ions in cartesian coordinates  (Angst):
   0.00073418 12.07541376 12.07761125
   0.00263725  0.00692642  3.94469131
   0.00422631  0.00302606  8.11302294
   0.00257909  3.94288607  0.00557124
  12.07606351  3.94246312  3.94076267
   0.01647003  3.94768739  8.14219959
   0.00217575  8.11272839  0.00033904
   0.01672973  8.14190491  3.95076584
  12.07881319  8.11942318  8.05294238
   3.97337963 12.07526065 12.07555353
   3.97481267  0.00279620  3.95855813
   3.97731698  0.00387094  8.11229393
   3.97447569  3.95802809  0.00297528
   4.02608138  3.96726756  3.96739795
   4.02839148  3.97356821  8.11393621
   3.97318542  8.11182810  0.00229605
   4.03176458  8.11350308  3.97181651
   3.97291753  8.09473924  8.09453918
   8.10098343 12.07288480 12.07510721
   8.10550654 12.07132501  3.96324065
   8.09704347 12.07648128  8.10646114
   8.10587159  3.96098247 12.06957087
   8.11508316  3.97001762  3.96688633
   8.11808647  3.97998714  8.09428183
   8.10327421  8.10623760 12.07270042
   8.11613866  8.09354734  3.97832151
   8.11137916  8.10409332  8.09992780
  12.07768184  2.05245283  2.05274052
   0.00109116  2.05354488  6.03571800
   0.00150572  1.99129771 10.01909166
   0.00093243  6.03572701  2.05321521
  11.73887086  5.76525267  5.76613025
   0.00300944  6.03367812 10.24786785
   0.00137997 10.01821952  1.99168370
   0.00280345 10.25233881  6.03035297
  12.07657574 10.00529954 10.00586401
   3.97624887  2.05859414  2.05906098
   4.03009954  2.06271567  6.03729029
   3.97933212  2.05939184 10.01098874
   4.03020751  6.03700348  2.06308308
   4.24807480  6.04382346  6.04387054
   4.17100543  6.03582953 10.23133106
   3.97922495 10.01062556  2.05983411
   4.17150721 10.23140271  6.03582383
   4.02539968 10.01023572 10.01035684
   8.10373548  2.05648807  2.05661911
   8.09959592  2.00466810  6.03483740
   8.10501567  2.06034781 10.00972604
   8.09983195  6.03480627  2.00314566
   8.10841878  6.03770032  6.03753448
   8.12504620  6.03653690  9.99410757
   8.10498348 10.00895603  2.06051963
   8.12476386  9.99427197  6.03634779
   8.10716124 10.00698420 10.00678745
   2.06413823 12.07609458  2.05849413
   2.08790130  0.01807982  6.03504173
   2.07187719 12.07314434 10.01166876
   2.06937595  3.96856704  2.05643492
   2.08131469  3.87936747  6.04824438
   2.06512625  3.96378261 10.01758630
   2.07583915  8.10536412  2.05371798
   2.09433648  8.41465323  6.02950379
   2.07329786  8.10294331 10.02106006
   6.03916756 12.07507250  2.05944346
   6.05532734  0.01050301  6.03576065
   6.04079802 12.07710298 10.00800841
   6.04300204  3.96427998  2.05631541
   6.05760921  3.95368094  6.03535839
   6.04838298  3.95762867 10.01078664
   6.04236582  8.10390489  2.01194976
   6.05429390  8.11262257  6.03654557
   6.04719756  8.11054150 10.00757818
  10.01136910 12.07367760  2.05781466
  10.00175379  0.00240403  6.03191388
  10.00475757 12.07508163 10.01486314
  10.00847811  3.95581482  1.99526856
   9.96403109  3.92166636  6.03352255
  10.07303693  3.96152885 10.01359049
  10.01304139  8.10367689  2.05842089
  10.26219079  8.13587944  6.04916957
  10.00430034  8.11769964 10.03392475
   2.06410831  2.05754018 12.07637209
   2.06939280  2.05667720  3.96916949
   2.07645013  2.05323472  8.10618132
   2.08737049  6.03473120  0.01783810
   2.08143620  6.04778660  3.87985727
   2.09188888  6.03039542  8.41465859
   2.07149337 10.01117118 12.07336196
   2.06595991 10.01821930  3.96383946
   2.07619679 10.02408026  8.10334174
   6.03915268  2.05841128 12.07536661
   6.04300981  2.05723183  3.96447825
   6.04276364  2.05831735  8.10404415
   6.05549410  6.03370975  0.00923232
   6.05775868  6.03722934  3.95217355
   6.05421386  6.03745936  8.11253779
   6.04085035 10.01090018 12.07532502
   6.04861832 10.00753933  3.95622591
   6.04692025 10.00909826  8.11044263
  10.01132024  2.00597007 12.07448384
  10.00866036  2.04272070  3.95575765
  10.01255963  2.05931517  8.10461022
  10.00236293  6.03518511 12.07792689
   9.96390785  6.03100467  3.91940906
  10.26573086  6.04483204  8.13637150
  10.00501879 10.01342709 12.07487820
  10.07232621 10.01148184  3.96348906
   9.99910625 10.08301094  8.11555853
   0.00577359  1.98280448  0.01967055
   0.02687275  2.01968945  4.00312765
   0.01566116  2.01236074  8.05387129
   0.00989098  6.02637477  0.04713591
   0.09606549  6.01971805  4.00667151
   0.31130184  5.70269362  8.50998152
   0.01097630 10.04672451 12.06834108
   0.00493518 10.16290137  3.88389952
   0.03035337 10.08613174  8.05346420
   4.01565082  2.01477325 12.07570177
   4.01883992  2.03418726  4.00802760
   4.03728477  2.02185123  8.05509580
   4.07120218  6.02852683  0.05459267
   3.99576577  6.02017123  4.06939049
   3.99515085  6.02947351  8.00434905
   4.02174322 10.04411949 12.06855791
   4.04338255 10.06241082  4.00674196
   4.04424559 10.04949632  8.05545571
   8.05826171  2.00953044 12.06526038
   8.05404024  2.00395223  3.99558175
   8.06490721  2.01156250  8.05871471
   8.06122852  6.02479429 12.07344878
   8.00583881  6.03399133  3.91814075
   8.10293133  6.02388924  8.04996317
   8.05375600 10.04517944 12.07500319
   8.07506255 10.03916106  4.00059222
   8.01926763 10.09449429  8.05492398
   0.00633636  0.01688263  1.98964060
   0.01024837  0.05043054  6.02654537
   0.00983417 12.06766408 10.04744944
   0.02849432  4.00336574  2.01487696
   0.09403515  4.00506430  6.01755061
   0.00459546  3.87569574 10.16573706
   0.01535384  8.05363922  2.01385096
   0.30715932  8.51022548  5.72138008
   0.02702112  8.05807703 10.07233347
   4.01565382 12.07422028  2.01579045
   4.07094866  0.05467903  6.02812310
   4.02183378 12.06822300 10.04583996
   4.01876362  4.00776940  2.03436297
   3.99636348  4.06991615  6.01965368
   4.04372339  4.00704291 10.06349750
   4.03626476  8.05443361  2.01792016
   3.99594138  8.00404171  6.02894605
   4.04334044  8.05547696 10.04862112
   8.05774624 12.06423481  2.01498121
   8.06100410 12.07687510  6.02461106
   8.05467370 12.07603105 10.04652976
   8.05328449  3.99558105  1.99726346
   8.00615444  3.92071062  6.03449547
   8.07403328  4.00073606 10.03878066
   8.06523043  8.05822471  2.00585114
   8.09942378  8.05060468  6.02113421
   8.02494580  8.05588001 10.08368887
   2.03710464  2.03025842  2.03135067
   2.05260215  2.00701774  6.02158733
   2.04668257  2.00770275 10.04663423
   2.05250655  6.02212584  2.00748230
  11.30764206  6.93648888  6.94451693
   2.18755103  6.04617774 10.22098258
   2.04598791 10.04509914  2.00965096
   2.18664554 10.22084123  6.04506470
   2.04645167 10.03649941 10.03610732
   6.03222135  2.01613780  2.01673247
   6.02526428  2.01837400  6.02735475
   6.03981942  2.01745510 10.04326413
   6.02539172  6.02813404  2.01304470
   6.09188816  6.02772789  6.02884520
   6.05961900  6.02280879 10.05165231
   6.03948580 10.04163782  2.01297134
   6.05925153 10.05224562  6.02297777
   6.03866327 10.04761312 10.04736014
  10.04808635  1.99385819  1.99396213
  10.06268007  2.01194005  6.02547412
  10.04734620  1.99534872 10.04292932
  10.06280249  6.02839919  2.00447671
   9.85817902  5.68419082  5.68305502
  10.07636645  6.02672174 10.08515582
  10.04800600 10.04098375  2.00195654
  10.07699569 10.09377431  6.02088476
  10.05308757 10.10064298 10.09478943
   2.03328295 12.06439144 12.06651721
   2.04327238  0.01546273  3.99555610
   2.03978183  0.01417438  8.06667811
   2.04369956  3.99443804  0.01573064
   2.03935094  4.06323359  4.06318136
   2.11559603  3.97268313  8.02130225
   2.03718657  8.06622630  0.01313243
   2.11107996  8.02201408  3.97720684
   2.02860128  8.02763547  8.02215609
   6.03373060 12.06943035 12.07007999
   6.03992618 12.06757336  4.00419220
   6.03081007 12.07763460  8.05263627
   6.03968333  4.00332594 12.06731011
   6.02595130  4.00693370  4.00523991
   6.03149999  4.01577605  8.05589973
   6.03224771  8.05217535 12.06762685
   6.03194635  8.05499919  4.01245733
   6.03517120  8.04686666  8.04643563
  10.04639744 12.06482404 12.07427442
  10.05053205  0.00901238  4.00059257
  10.05489203  0.00704340  8.05416245
  10.05019118  3.99670038 12.07822215
  10.08121481  3.92274310  3.90639619
  10.09403636  4.00141884  8.04452235
  10.05637535  8.05611607 12.07581097
  10.09507918  8.04293514  4.00349719
   9.92039477  8.26881717  8.23183556
 


--------------------------------------------------------------------------------------------------------


 k-point   1 :   0.0000 0.0000 0.0000  plane waves:   31919

 maximum and minimum number of plane-waves per node :     31919    31919

 maximum number of plane-waves:     31919
 maximum index in each direction: 
   IXMAX=   19   IYMAX=   19   IZMAX=   19
   IXMIN=  -19   IYMIN=  -19   IZMIN=  -19


 serial   3D FFT for wavefunctions
 parallel 3D FFT for charge:
    minimum data exchange during FFTs selected (reduces bandwidth)


 FFT grid for exact exchange (Hartree Fock) 
  NGX = 40; NGY = 40; NGZ = 40

 
 Radii for the augmentation spheres in the non-local exchange
 for species   1 augmentation radius   0.956 (default was   0.708)
       energy cutoff for augmentation   1600.0
 for species   2 augmentation radius   0.968 (default was   0.717)
       energy cutoff for augmentation   1600.0
 Maximum index for augmentation-charges in exchange           147
  SETUP_FOCK is finished

 total amount of memory used by VASP MPI-rank0  1353888. kBytes
=======================================================================

   base      :      30000. kBytes
[...]
      3.98447      6.01738      4.07369        -0.000858      0.000057      0.001189
      3.99434      6.02598      8.00563        -0.000499      0.000027      0.001112
      4.02652     10.04102     12.06802         0.000318     -0.000309      0.000682
      4.04349     10.05976      4.00671        -0.001493     -0.000026      0.000606
      4.04691     10.04601      8.05565        -0.000189     -0.000309      0.000421
      8.06745      2.01287     12.06500         0.000339      0.000114      0.000324
      8.05980      2.01037      3.99562        -0.000160      0.000978      0.000241
      8.07272      2.01707      8.05787        -0.000176      0.000709      0.000911
      8.07057      6.02241     12.08023         0.000365     -0.000028     -0.000032
      8.01122      6.03045      3.93162        -0.000272     -0.000269      0.000307
      8.12235      6.02769      8.05053         0.003293      0.001609      0.000505
      8.05865     10.04217     12.07393        -0.001231     -0.000077      0.000242
      8.08145     10.03828      4.00043        -0.001388      0.000145      0.000299
      8.02095     10.10929      8.05515        -0.001849      0.004319      0.000731
      0.01359      0.01632      1.97593        -0.001005     -0.000667     -0.001541
      0.01659      0.04634      6.02404        -0.001222     -0.000134     -0.000551
      0.01970     12.04389     10.04569         0.000148     -0.003962      0.000302
      0.03692      3.99881      2.00197         0.000126     -0.000440     -0.002012
      0.10121      4.00499      6.01819        -0.000591     -0.000426      0.000651
      0.03876      3.83044     10.16302         0.006704     -0.009239     -0.000606
      0.02104      8.04744      1.99565        -0.001269     -0.000782     -0.002500
      0.30561      8.51309      5.70452        -0.002961     -0.000503     -0.000066
      0.03576      8.05545     10.07248        -0.000618     -0.000160     -0.000424
      4.02232     12.07123      2.01597        -0.000589     -0.000046      0.000979
      4.07306      0.05321      6.02839        -0.000765     -0.000082      0.000815
      4.02742     12.06169     10.04656         0.000834     -0.001616      0.000946
      4.01540      4.00484      2.03553        -0.000208      0.000120      0.001452
      3.98549      4.06985      6.02061        -0.000343     -0.000115      0.000522
      4.04431      4.00265     10.06329        -0.000909     -0.000402      0.000919
      4.03368      8.05121      2.02291        -0.000792     -0.000054      0.000986
      3.99359      8.00050      6.03041        -0.000934     -0.000081      0.001048
      4.04766      8.05221     10.04976        -0.000057     -0.000032      0.000814
      8.06415     12.06399      2.01557        -0.000687      0.000433      0.000552
      8.06665     12.08712      6.02565        -0.000633      0.001624      0.000978
      8.06127     12.07740     10.04584        -0.000701      0.001520      0.001086
      8.06062      3.99640      1.98748         0.000276      0.000368     -0.003409
      8.01526      3.93285      6.03529         0.000435      0.000617      0.001654
      8.09208      4.00123     10.04045         0.001328      0.000207      0.000656
      8.07141      8.05421      2.01665        -0.000560     -0.000242      0.000513
      8.10602      8.05149      6.02144        -0.001067      0.000512      0.000898
      8.03512      8.05348     10.08134         0.001173     -0.000167     -0.000608
      2.04286      2.02516      2.02948        -0.000332     -0.000487      0.001405
      2.05195      2.00386      6.02074        -0.000649     -0.000152      0.000324
      2.05744      1.98686     10.04809         0.001111     -0.003881      0.001134
      2.05206      6.01811      2.00716        -0.000719      0.000330      0.001202
     11.33304      6.94155      6.96622        -0.001763     -0.004447      0.001175
      2.19514      6.04465     10.22183        -0.000475      0.000156      0.000987
      2.05336     10.04329      1.99573        -0.000551     -0.000240     -0.001948
      2.19205     10.21719      6.04539        -0.001660     -0.000336      0.000275
      2.05037     10.03140     10.03588         0.000366     -0.000591      0.000547
      6.03793      2.01540      2.01870        -0.000037      0.000250      0.000814
      6.02403      2.02331      6.02820        -0.000135      0.000417      0.001042
      6.04590      2.01564     10.04326        -0.000713      0.000486      0.001164
      6.02384      6.02493      2.02465        -0.000209     -0.000001      0.000632
      6.09348      6.02659      6.03190        -0.000054     -0.000114      0.001590
      6.06654      6.02123     10.05260        -0.000065      0.000036      0.000732
      6.04567     10.03849      2.01880        -0.000903     -0.000057      0.000850
      6.06439     10.05123      6.02295        -0.000878      0.000259      0.000863
      6.04054     10.04444     10.04854         0.000324     -0.000337      0.000776
     10.05484      1.99832      1.98104        -0.000127      0.000332     -0.002576
     10.07022      2.01912      6.02244         0.000111      0.001362      0.000006
     10.06738      1.98441     10.04241         0.003161     -0.003359      0.000990
     10.06939      6.02662      1.99636         0.000060      0.000220     -0.002700
      9.87347      5.69353      5.69307         0.001889      0.000369      0.000313
     10.09868      6.02937     10.08135         0.003560      0.001116     -0.000444
     10.04884     10.03898      1.98555        -0.001785     -0.000067     -0.002257
     10.08023     10.10903      6.01583        -0.001147      0.004124     -0.001512
     10.05865     10.11249     10.09793        -0.001479      0.003515      0.001247
      2.03921     12.05752     12.06290        -0.000211     -0.001650      0.000723
      2.04763      0.01172      3.99475        -0.001192     -0.000389      0.000564
      2.04675      0.00952      8.06713         0.000542     -0.000762      0.000508
      2.05217      3.99012      0.01592         0.000199     -0.000872      0.000934
      2.03644      4.05739      4.05979        -0.001130      0.000060      0.000714
      2.11241      3.96253      8.02094         0.000056     -0.001447      0.000556
      2.04290      8.06299      0.01058        -0.000658      0.000086      0.000573
      2.10770      8.02002      3.97169        -0.001407      0.000106      0.000922
      2.03093      8.02543      8.02848        -0.000908     -0.000142      0.000426
      6.04205     12.06768     12.07235        -0.000003      0.000401      0.001179
      6.04536     12.06620      4.00535        -0.000726      0.000246      0.000882
      6.03421     12.07911      8.05311        -0.000747      0.001234      0.000960
      6.04310      4.00169     12.06735        -0.000924      0.000215      0.000359
      6.02317      4.00687      4.00771         0.000522      0.000200      0.000556
      6.03208      4.01676      8.05632        -0.000174      0.000669      0.001229
      6.03910      8.04846     12.07733         0.000165     -0.000352      0.000663
      6.02964      8.05211      4.01832        -0.001039     -0.000193      0.000947
      6.04219      8.04479      8.04630         0.000190      0.000104      0.000948
     10.05453     12.06857     12.07098        -0.000180     -0.000271      0.000478
     10.05389      0.01405      3.99525        -0.001197      0.001186     -0.000570
     10.06227      0.02329      8.05577        -0.000549      0.004753      0.000870
     10.07129      3.99507     12.05610         0.003615     -0.000748     -0.004948
     10.08686      3.93209      3.88601        -0.000181      0.001854     -0.005517
     10.11595      3.99756      8.04507         0.003469     -0.001023      0.000882
     10.06426      8.05543     12.07033        -0.000124      0.000254     -0.000922
     10.09664      8.03896      4.00041        -0.001523     -0.000158     -0.000019
      9.93647      8.31957      8.22143         0.000747      0.014039     -0.002372
 -----------------------------------------------------------------------------------
    total drift:                               -0.569694      3.653169      2.131872


--------------------------------------------------------------------------------------------------------



  FREE ENERGIE OF THE ION-ELECTRON SYSTEM (eV)
  ---------------------------------------------------
  free  energy   TOTEN  =     -1239.10853616 eV

  energy  without entropy=    -1239.10853616  energy(sigma->0) =    -1239.10853616
 
 d Force = 0.7034764E-04[ 0.316E-04, 0.109E-03]  d Energy = 0.2185863E-03-0.148E-03
 d Force =-0.2556514E-01[-0.263E-01,-0.248E-01]  d Ewald  =-0.2556547E-01 0.328E-06


--------------------------------------------------------------------------------------------------------


    POTLOK:  cpu time     10.0701: real time     10.0916


--------------------------------------------------------------------------------------------------------


 NEB: the previous image is higher in energy:  F
 NEB: the next image is higher in energy    :  F
 NEB: image is at an extrema
 NEB: diff energy (min, max):     0.033666 1239.108536

 NEB: Tangent
 ----------------------------------------------
     -0.01269      0.00268     -0.00578
     -0.01008      0.01672      0.01265
     -0.02517      0.00824      0.02405
     -0.03721      0.01818      0.00867
      0.00204      0.00091      0.01194
     -0.02990      0.02677      0.00577
     -0.00997      0.02443      0.01318
     -0.00890     -0.01348      0.01555
      0.00689     -0.02347      0.00251
     -0.01800      0.00341     -0.00153
     -0.01470      0.00370     -0.00131
     -0.02006      0.00256     -0.00038
     -0.01752      0.00417     -0.00032
     -0.01745      0.00434     -0.00083
     -0.02516      0.00548     -0.00220
     -0.01817      0.00594     -0.00082
     -0.02078      0.00237     -0.00150
     -0.01457      0.00568     -0.00115
     -0.01008      0.00314     -0.00164
     -0.01938      0.00283      0.00048
      0.01258     -0.01248     -0.00148
     -0.01108      0.00450      0.02945
     -0.03001      0.00117      0.01882
     -0.02834      0.00310     -0.03042
     -0.01733      0.00505      0.00123
     -0.01616      0.00144     -0.00131
     -0.04200     -0.01827      0.00533
     -0.01055      0.00819     -0.00113
     -0.01111      0.00549      0.00369
     -0.02368      0.36617      0.00366
     -0.01056      0.00488     -0.00044
     -0.01327     -0.00115     -0.00135
     -0.02081     -0.01868      0.00248
     -0.01107      0.00894      0.33159
     -0.00841      0.00508      0.00083
     -0.01031      0.01207      0.00988
     -0.01684      0.00519     -0.00170
     -0.02223      0.00427     -0.00121
     -0.02217      0.00759     -0.00139
     -0.02191      0.00329     -0.00129
     -0.01334      0.00392     -0.00087
     -0.02020      0.00405     -0.00101
     -0.01858      0.00450     -0.00020
     -0.01771      0.00357      0.00022
     -0.02506      0.00570     -0.00012
     -0.01629      0.00244     -0.00131
     -0.01598     -0.00093      0.00046
     -0.03299     -0.02268     -0.00147
     -0.01711      0.00325     -0.00029
     -0.02222      0.00282      0.00058
     -0.02539      0.01864     -0.00029
     -0.01709      0.00422     -0.00213
     -0.01619      0.00230      0.00188
     -0.01215      0.00457      0.00193
     -0.01587      0.00451     -0.00250
     -0.01170      0.00466      0.00123
     -0.03641      0.01549      0.00059
     -0.01674      0.00483     -0.00087
     -0.01464      0.00664      0.00071
     -0.00733      0.02115      0.00367
     -0.01340      0.00447     -0.00259
     -0.00960      0.00490      0.00140
     -0.01585      0.00527      0.00126
     -0.01135      0.00291     -0.00227
     -0.01138      0.00192     -0.00015
     -0.01169      0.00165     -0.00248
     -0.01195      0.00397      0.00249
     -0.01502      0.00223     -0.00079
     -0.01788      0.00368     -0.00235
     -0.01215      0.00479     -0.00100
     -0.01125      0.00317     -0.00149
     -0.01468      0.00499      0.00043
     -0.01409      0.00326     -0.00122
     -0.01096     -0.00812      0.01714
      0.00713      0.00150     -0.02121
     -0.01444      0.00288      0.34094
     -0.01023      0.00230      0.00117
     -0.44464      0.02331      0.00850
     -0.01496      0.00437      0.00006
     -0.01081     -0.00809     -0.02057
     -0.01252     -0.01438      0.04579
     -0.01878      0.00692     -0.00004
     -0.01456      0.00463     -0.00088
     -0.01768      0.00939     -0.00122
     -0.01348      0.00470     -0.00053
     -0.01324      0.00368      0.00014
     -0.01336      0.00400     -0.00241
     -0.03323      0.00713      0.00907
      0.00430      0.00571      0.01520
     -0.01517      0.00382      0.00015
     -0.01170      0.00461     -0.00037
     -0.01220      0.00327     -0.00097
     -0.01221      0.00164     -0.00356
     -0.01277      0.00356     -0.00046
     -0.01275      0.00373     -0.00110
     -0.01259      0.00171     -0.00129
     -0.01148      0.00442     -0.00102
     -0.01225      0.00269     -0.00058
     -0.01155      0.00204     -0.00094
     -0.01331      0.03968      0.01201
     -0.01442     -0.02958      0.01603
     -0.01173     -0.00382     -0.00128
     -0.01141     -0.01162      0.01291
     -0.01025      0.01761      0.01285
     -0.00328      0.01631      0.00173
      0.00647      0.00668      0.01003
     -0.06030      0.00359      0.01403
     -0.00563     -0.31879     -0.00021
     -0.03400      0.04874      0.00772
     -0.03116      0.00777      0.00812
     -0.04064      0.05444      0.00525
     -0.03652      0.02960      0.02011
     -0.03560      0.00703      0.00392
     -0.02900      0.05275     -0.02633
     -0.03463      0.01470      0.05915
     -0.03681      0.02842      0.10068
     -0.05141     -0.03461      0.00844
     -0.03103      0.01265     -0.00417
     -0.03083      0.00850     -0.00174
     -0.03522      0.00974     -0.00157
     -0.03185      0.00778     -0.00232
     -0.03112      0.00881     -0.00186
     -0.03037      0.00792     -0.00453
     -0.03766      0.01097      0.00346
     -0.02668      0.00808      0.00269
     -0.03211      0.01026     -0.00009
     -0.03662      0.00997      0.00392
     -0.02993      0.00239      0.00537
     -0.03268      0.00444     -0.00147
     -0.03726      0.00707      0.00894
     -0.02642      0.00767      0.00302
     -0.07213     -0.00984      0.00152
     -0.02149      0.00881      0.00622
     -0.04050      0.00445      0.00457
     -0.01301     -0.04559      0.00206
     -0.03153      0.01182      0.03642
     -0.03243      0.01147      0.01112
     -0.03650      0.07294      0.00560
     -0.04070      0.01344      0.03915
     -0.03345      0.00686      0.00009
     -0.11281      0.13362      0.01526
     -0.03146      0.01830      0.04790
     -0.00348      0.00474      0.00416
     -0.03638      0.00778      0.01207
     -0.02980      0.00963     -0.00073
     -0.03007      0.00724     -0.00075
     -0.03969      0.01930     -0.00285
     -0.03141      0.00858     -0.00196
     -0.03341      0.00838     -0.00032
     -0.02844      0.01356     -0.00141
     -0.03109      0.00924     -0.00077
     -0.02859      0.00900     -0.00383
     -0.03378      0.00919      0.00009
     -0.02938      0.00813      0.00216
     -0.02869     -0.00400     -0.00187
     -0.02721      0.00075     -0.00109
     -0.03177      0.00549      0.05052
     -0.03540      0.00226     -0.00476
     -0.06384      0.00474     -0.00218
     -0.02982      0.00839      0.00327
     -0.03645      0.00113      0.00179
     -0.04384      0.00755      0.01334
     -0.03089      0.01230      0.00098
     -0.03105      0.01052      0.00120
     -0.04560      0.06249     -0.00171
     -0.03129      0.00882      0.00159
     -0.01862      0.01733     -0.03819
     -0.03632      0.00525     -0.00060
     -0.03662      0.01062      0.04093
     -0.02957      0.01105      0.00172
     -0.03924      0.01353      0.00190
     -0.03222      0.00798     -0.00111
     -0.03348      0.00425     -0.00146
     -0.03233      0.00668     -0.00335
     -0.03301      0.00756     -0.00042
     -0.02669      0.00660     -0.00696
     -0.03230      0.00792      0.00150
     -0.03181      0.00892     -0.00211
     -0.02749      0.00626      0.00218
     -0.03442      0.00965     -0.00106
     -0.02942      0.00807      0.04393
     -0.03150     -0.00309      0.01070
     -0.06856      0.04931     -0.00046
     -0.02970      0.00348      0.04489
     -0.03395      0.00768      0.00740
     -0.07532     -0.00558      0.01430
     -0.02798      0.00885      0.04477
     -0.03485     -0.04415      0.02177
     -0.02237     -0.03615     -0.00632
     -0.02729      0.02141      0.00765
     -0.02754      0.01090      0.00290
     -0.03512      0.01118     -0.00117
     -0.03745      0.01488     -0.00023
     -0.02963      0.00930      0.00215
     -0.03945      0.02026      0.00443
     -0.02674      0.00968      0.00686
     -0.02918      0.00818     -0.00191
     -0.02265      0.01130      0.00270
     -0.03181      0.00832     -0.00385
     -0.03217      0.00836     -0.00200
     -0.02519     -0.00057     -0.00170
     -0.02729      0.00783      0.00388
     -0.03731      0.00693      0.00330
     -0.03787      0.00271     -0.00426
     -0.03578      0.01021      0.00124
     -0.03244      0.00676     -0.00264
     -0.03966      0.00465     -0.00050
     -0.03129      0.01535      0.00814
     -0.03389     -0.00618      0.01423
     -0.02963     -0.04612     -0.00114
     -0.07204      0.01652      0.07248
     -0.02744     -0.01308      0.08584
     -0.07190      0.01846     -0.00338
     -0.03400      0.00143      0.02146
     -0.02963      0.01175      0.01041
     -0.05765     -0.16544      0.04615

 NEB: forces: par spring, perp REAL, dneb     0.002447    0.029687    0.000000
 NEB: distance to prev, next image, angle between     0.455441    0.455930   96.782131
 NEB: projections on to tangent (spring, REAL)     0.002447   -0.051369

 stress matrix after NEB project (eV)
      0.00000      0.00000      0.00000
      0.00000      0.00000      0.00000
      0.00000      0.00000      0.00000
  FORCES: max atom, RMS     0.005652    0.002027
  FORCE total and by dimension    0.029788    0.005389
  Stress total and by dimension    0.000000    0.000000
 OPT: skip step - force has converged


--------------------------------------------------------------------------------------------------------


  
 reached required accuracy - stopping structural energy minimisation
 writing wavefunctions
     LOOP+:  cpu time   1156.6769: real time   1160.6611
    4ORBIT:  cpu time      0.0000: real time      0.0000

 total amount of memory used by VASP MPI-rank0  1633270. kBytes
=======================================================================

   base      :      30000. kBytes
   nonl-proj :     114397. kBytes
   fftplans  :     141100. kBytes
   grid      :     372121. kBytes
   one-center:       1327. kBytes
   HF        :          9. kBytes
   nonlr-proj:      82946. kBytes
   wavefun   :     692052. kBytes
   fock_wrk  :     199318. kBytes
 
  
  
 General timing and accounting informations for this job:
 ========================================================
  
                  Total CPU time used (sec):    55476.836
                            User time (sec):    55352.126
                          System time (sec):      124.711
                         Elapsed time (sec):    55689.429
  
                   Maximum memory used (kb):     3921860.
                   Average memory used (kb):          N/A
  
                          Minor page faults:      1427670
                          Major page faults:            0
                 Voluntary context switches:      2531103
