 vasp.6.4.2 20Jul23 (build May 29 2025 16:14:50) complex                         
 executed on              LinuxNV date 2025.11.04  23:35:14
 running    2 mpi-ranks, with    1 threads/rank, on    1 nodes
 distrk:  each k-point on    2 cores,    1 groups
 distr:  one band on NCORE=   1 cores,    2 groups
 OpenACC runtime initialized ...    2 GPUs detected


--------------------------------------------------------------------------------------------------------


 INCAR:
   SYSTEM = Si
   ISTART = 1
   ICHARG = 1
   ISPIN = 2
   NELM = 200
   ENCUT = 400
   PREC = Accurate
   ISMEAR = 0
   SIGMA = 0.01
   EDIFF = 1E-10
   IBRION = 2
   NSW = 500
   POTIM = 0.1
   ISIF = 2
   EDIFFG = -0.010
   ISYM = 0
   LSUBROT = .TRUE.
   LHFCALC = .TRUE.
   HFSCREEN = 0.2
   AEXX = 0.25
   PRECFOCK = Fast

 POTCAR:    PAW_PBE Li_sv 10Sep2004               
 POTCAR:    PAW_PBE F 08Apr2002                   
 -----------------------------------------------------------------------------
|                                                                             |
|           W    W    AA    RRRRR   N    N  II  N    N   GGGG   !!!           |
|           W    W   A  A   R    R  NN   N  II  NN   N  G    G  !!!           |
|           W    W  A    A  R    R  N N  N  II  N N  N  G       !!!           |
|           W WW W  AAAAAA  RRRRR   N  N N  II  N  N N  G  GGG   !            |
|           WW  WW  A    A  R   R   N   NN  II  N   NN  G    G                |
|           W    W  A    A  R    R  N    N  II  N    N   GGGG   !!!           |
|                                                                             |
|     You use a magnetic or noncollinear calculation, but did not specify     |
|     the initial magnetic moment with the MAGMOM tag. Note that a            |
|     default of 1 will be used for all atoms. This ferromagnetic setup       |
|     may break the symmetry of the crystal, in particular it may rule        |
|     out finding an antiferromagnetic solution. Thence, we recommend         |
|     setting the initial magnetic moment manually or verifying carefully     |
|     that this magnetic setup is desired.                                    |
|                                                                             |
 -----------------------------------------------------------------------------

 POTCAR:    PAW_PBE Li_sv 10Sep2004               
   SHA256 =  7e51fe1804c037e1dccc81a9c376d94d693a7559600c847f4b41960edb8ab895 Li_sv/POTCAR          
   COPYR  = (c) Copyright 10Sep2004 Georg Kresse                                                    
   COPYR  = This file is part of the software VASP. Any use, copying, and all other rights are regul
   COPYR  = If you do not have a valid VASP license, you may not use, copy or distribute this file. 
   VRHFIN =Li: 1s2s2p                                                                               
   LEXCH  = PE                                                                                      
   EATOM  =   202.7858 eV,   14.9043 Ry                                                             
                                                                                                    
   TITEL  = PAW_PBE Li_sv 10Sep2004                                                                 
   LULTRA =        F    use ultrasoft PP ?                                                          
   IUNSCR =        0    unscreen: 0-lin 1-nonlin 2-no                                               
   RPACOR =    0.000    partial core radius                                                         
   POMASS =    7.010; ZVAL   =    3.000    mass and valenz                                          
   RCORE  =    1.700    outmost cutoff radius                                                       
   RWIGS  =    2.050; RWIGS  =    1.085    wigner-seitz radius (au A)                               
   ENMAX  =  499.034; ENMIN  =  374.276 eV                                                          
   ICORE  =        2    local potential                                                             
   LCOR   =        T    correct aug charges                                                         
   LPAW   =        T    paw PP                                                                      
   EAUG   =  628.945                                                                                
   RMAX   =    1.732    core radius for proj-oper                                                   
   RAUG   =    1.300    factor for augmentation sphere                                              
   RDEP   =    1.728    radius for radial grids                                                     
   RDEPT  =    1.329    core radius for aug-charge                                                  
                                                                                                    
   Atomic configuration                                                                             
    4 entries                                                                                       
     n  l   j            E        occ.                                                              
     1  0  0.50       -51.8549   2.0000                                                             
     2  0  0.50        -2.8742   1.0000                                                             
     2  1  0.50        -1.3606   0.0000                                                             
     3  2  1.50        -1.3606   0.0000                                                             
   Description                                                                                      
     l       E           TYP  RCUT    TYP  RCUT                                                     
     0    -51.8548813     23  1.400                                                                 
     0     -2.8742052     23  1.700                                                                 
     1     -1.3605826     23  1.400                                                                 
     2     -1.3605826     23  1.400                                                                 
  local pseudopotential read in
  atomic valenz-charges read in
  non local Contribution for L=            0  read in
    real space projection operators read in
  non local Contribution for L=            0  read in
    real space projection operators read in
  non local Contribution for L=            1  read in
    real space projection operators read in
    PAW grid and wavefunctions read in
 
   number of l-projection  operators is LMAX  =            3
   number of lm-projection operators is LMMAX =            5
 
 POTCAR:    PAW_PBE F 08Apr2002                   
   SHA256 =  53c630871ac675939349fc2b976745ee17808dedc90b5bdde026bc81f0faf456 F/POTCAR              
   COPYR  = (c) Copyright 08Apr2002 Georg Kresse                                                    
   COPYR  = This file is part of the software VASP. Any use, copying, and all other rights are regul
   COPYR  = If you do not have a valid VASP license, you may not use, copy or distribute this file. 
   VRHFIN =F: s2p5                                                                                  
   LEXCH  = PE                                                                                      
   EATOM  =   659.6475 eV,   48.4827 Ry                                                             
                                                                                                    
   TITEL  = PAW_PBE F 08Apr2002                                                                     
   LULTRA =        F    use ultrasoft PP ?                                                          
   IUNSCR =        1    unscreen: 0-lin 1-nonlin 2-no                                               
   RPACOR =    1.200    partial core radius                                                         
   POMASS =   18.998; ZVAL   =    7.000    mass and valenz                                          
   RCORE  =    1.520    outmost cutoff radius                                                       
   RWIGS  =    1.500; RWIGS  =    0.794    wigner-seitz radius (au A)                               
   ENMAX  =  400.000; ENMIN  =  300.000 eV                                                          
   ICORE  =        2    local potential                                                             
   LCOR   =        T    correct aug charges                                                         
   LPAW   =        T    paw PP                                                                      
   EAUG   =  613.614                                                                                
   RMAX   =    1.555    core radius for proj-oper                                                   
   RAUG   =    1.300    factor for augmentation sphere                                              
   RDEP   =    1.539    radius for radial grids                                                     
   RDEPT  =    1.299    core radius for aug-charge                                                  
                                                                                                    
   Atomic configuration                                                                             
    4 entries                                                                                       
     n  l   j            E        occ.                                                              
     1  0  0.50      -663.3661   2.0000                                                             
     2  0  0.50       -29.8995   2.0000                                                             
     2  1  0.50       -11.1114   5.0000                                                             
     3  2  1.50       -10.8847   0.0000                                                             
   Description                                                                                      
     l       E           TYP  RCUT    TYP  RCUT                                                     
     0    -29.8995018     23  1.200                                                                 
     0     -9.5240782     23  1.200                                                                 
     1    -11.1113914     23  1.520                                                                 
     1      1.3605826     23  1.520                                                                 
     2    -10.8846608      7  1.500                                                                 
  local pseudopotential read in
  partial core-charges read in
  partial kinetic energy density read in
  atomic valenz-charges read in
  non local Contribution for L=            0  read in
    real space projection operators read in
  non local Contribution for L=            0  read in
    real space projection operators read in
  non local Contribution for L=            1  read in
    real space projection operators read in
  non local Contribution for L=            1  read in
    real space projection operators read in
    PAW grid and wavefunctions read in
 
   number of l-projection  operators is LMAX  =            4
   number of lm-projection operators is LMMAX =            8
 
 -----------------------------------------------------------------------------
|                                                                             |
|               ----> ADVICE to this user running VASP <----                  |
|                                                                             |
|     You have a (more or less) 'large supercell' and for larger cells it     |
|     might be more efficient to use real-space projection operators.         |
|     Therefore, try LREAL= Auto in the INCAR file.                           |
|     Mind: For very accurate calculation, you might also keep the            |
|     reciprocal projection scheme (i.e. LREAL=.FALSE.).                      |
|                                                                             |
 -----------------------------------------------------------------------------

  PAW_PBE Li_sv 10Sep2004               :
 energy of atom  1       EATOM= -202.7858
 kinetic energy error for atom=    0.0926 (will be added to EATOM!!)
  PAW_PBE F 08Apr2002                   :
 energy of atom  2       EATOM= -659.6475
 kinetic energy error for atom=    0.1978 (will be added to EATOM!!)
 
 
 POSCAR: Li   F
  positions in direct lattice
  velocities in cartesian coordinates
 exchange correlation table for  LEXCH =        8
   RHO(1)=    0.500       N(1)  =     2000
   RHO(2)=  100.500       N(2)  =     4000
 


--------------------------------------------------------------------------------------------------------


 ion  position               nearest neighbor table
   1  0.001  0.999  0.000- 109 1.96 136 1.98 208 2.03 115 2.03 138 2.03 190 2.04
   2  0.001  0.000  0.326- 116 1.95 136 1.96 209 2.01 110 2.01 191 2.05 137 2.08
   3  0.002  0.000  0.671- 138 1.94 117 1.97 111 1.99 210 2.02 192 2.05 137 2.09
   4  0.001  0.326  0.000- 141 1.93 109 1.98 139 2.00 211 2.01 193 2.06 112 2.08
   5  0.000  0.326  0.326- 110 1.93 139 1.94 212 1.98 140 2.08 113 2.08 194 2.10  32 2.59
   6  0.003  0.326  0.674- 114 1.81 111 1.95 213 1.99 141 2.02 140 2.13 195 2.15
   7  0.001  0.671  0.999- 115 1.94 214 2.01 142 2.01 144 2.02 196 2.05 112 2.09
   8  0.003  0.674  0.327- 143 1.87 142 1.95 215 1.98 116 2.00 113 2.12 197 2.13
   9  0.001  0.674  0.652- 167 1.77 117 1.97 198 2.05 143 2.16 216 2.17 144 2.18  80 2.59
  10  0.330  1.000  1.000- 190 1.93 118 2.02 145 2.02 147 2.03 124 2.04 199 2.07
  11  0.330  0.000  0.328- 191 1.92 145 1.94 125 2.02 119 2.03 146 2.07 200 2.08
  12  0.330  0.000  0.672- 192 1.92 147 1.94 120 2.02 126 2.04 201 2.07 146 2.09
  13  0.330  0.328  0.000- 193 1.92 118 1.95 150 2.02 148 2.03 121 2.08 202 2.08
  14  0.346  0.328  0.328- 203 1.91 148 1.94 119 1.94 149 2.05 122 2.06 194 2.09
  15  0.345  0.329  0.672- 204 1.92 150 1.95 120 1.96 195 1.99 123 2.07 149 2.10
  16  0.329  0.671  1.000- 196 1.92 124 1.93 151 2.01 153 2.03 121 2.09 205 2.09
  17  0.346  0.672  0.328- 206 1.90 125 1.95 151 1.96 197 2.02 152 2.07 122 2.10
  18  0.330  0.670  0.670- 198 1.94 153 1.95 126 1.96 123 2.07 152 2.07 207 2.08
  19  0.671  0.999  1.000- 208 1.97 127 2.00 154 2.01 133 2.02 156 2.03 199 2.05
  20  0.672  0.998  0.328- 154 1.95 209 1.97 128 2.00 134 2.02 200 2.05 155 2.07
  21  0.670  1.000  0.672- 156 1.94 135 1.97 210 1.98 129 1.99 201 2.04 155 2.09
  22  0.672  0.327  0.998- 127 1.96 211 1.96 157 1.98 159 2.02 202 2.06 130 2.08
  23  0.673  0.329  0.328- 212 1.97 128 1.99 157 2.00 203 2.05 131 2.07 158 2.08
  24  0.673  0.329  0.670- 159 1.94 129 1.98 213 1.99 204 2.05 132 2.06 158 2.06
  25  0.672  0.672  0.999- 133 1.93 214 1.96 160 1.99 162 1.99 205 2.06 130 2.09
  26  0.673  0.670  0.328- 134 1.94 160 2.00 215 2.01 206 2.04 161 2.05 131 2.06
  27  0.673  0.672  0.670- 216 1.84 162 1.98 135 2.00 207 2.07 161 2.08 132 2.09
  28  0.001  0.170  0.170- 110 1.95 139 1.95 181 2.02 109 2.04 136 2.05 163 2.06
  29  0.001  0.170  0.500- 140 1.95 137 2.00 182 2.01 111 2.02 110 2.03 164 2.09
  30  0.001  0.154  0.829- 138 1.90 111 1.97 141 1.97 183 2.01 165 2.07 109 2.08
  31  0.001  0.499  0.170- 113 1.96 184 2.01 142 2.01 112 2.02 139 2.04 166 2.09
  32  0.972  0.476  0.477- 167 1.71 140 1.83 113 1.83 185 1.89  77 2.58 104 2.59   5 2.59
  33  0.001  0.500  0.848- 114 1.81 112 1.88 186 1.99 144 2.02 168 2.20 141 2.22
  34  0.001  0.829  0.155- 115 1.90 142 1.97 116 2.00 187 2.01 169 2.06 136 2.07
  35  0.001  0.849  0.499- 143 1.81 137 1.87 188 1.98 117 2.01 116 2.17 170 2.20
  36  0.000  0.827  0.828- 144 1.94 117 1.96 189 2.02 138 2.05 115 2.05 171 2.08
  37  0.330  0.170  0.171- 163 1.93 148 1.95 119 1.95 118 2.06 145 2.07 172 2.07
  38  0.345  0.171  0.500- 173 1.90 149 2.00 146 2.01 120 2.02 119 2.03 164 2.08
  39  0.331  0.170  0.829- 165 1.92 150 1.95 120 1.96 118 2.07 174 2.07 147 2.08
  40  0.346  0.500  0.171- 175 1.90 122 2.00 121 2.01 151 2.02 148 2.03 166 2.08
  41  0.353  0.500  0.500- 176 1.86 152 1.97 123 1.98 149 1.99 122 1.99
  42  0.346  0.500  0.847- 121 1.90 177 1.91 168 1.97 153 2.03 150 2.04 123 2.23
  43  0.331  0.829  0.171- 169 1.92 125 1.95 151 1.96 145 2.06 178 2.07 124 2.07
  44  0.346  0.847  0.500- 146 1.90 179 1.91 170 1.97 126 2.03 125 2.04 152 2.23
  45  0.345  0.829  0.829- 180 1.91 126 1.96 153 1.96 147 2.06 124 2.06 171 2.08
  46  0.672  0.170  0.170- 128 1.94 157 1.94 181 1.96 172 2.06 127 2.07 154 2.08
  47  0.672  0.156  0.500- 155 1.91 182 1.97 158 2.00 129 2.03 173 2.04 128 2.05
  48  0.672  0.171  0.829- 159 1.93 129 1.95 183 1.96 127 2.05 174 2.06 156 2.08
  49  0.672  0.499  0.155- 130 1.92 184 1.97 131 2.00 160 2.03 175 2.04 157 2.05
  50  0.672  0.500  0.500- 185 1.82 176 2.00 132 2.01 161 2.01 158 2.16 131 2.16
  51  0.674  0.499  0.827- 132 1.95 186 1.98 162 2.03 159 2.04 130 2.05 177 2.06
  52  0.672  0.828  0.171- 134 1.93 160 1.95 187 1.96 154 2.05 178 2.06 133 2.08
  53  0.674  0.827  0.499- 161 1.94 188 1.98 135 2.03 134 2.03 179 2.06 155 2.06
  54  0.672  0.828  0.828- 162 1.95 189 1.95 135 1.96 180 2.04 133 2.07 156 2.07
  55  0.172  1.000  0.171- 191 1.93 145 1.96 163 2.03 169 2.04 136 2.05 190 2.07
  56  0.174  0.002  0.500- 170 1.89 164 1.98 146 2.01 192 2.03 191 2.04 137 2.06
  57  0.173  0.999  0.829- 192 1.94 147 1.97 165 2.00 171 2.03 190 2.06 138 2.06
  58  0.173  0.329  0.171- 163 1.95 148 1.98 194 2.01 139 2.03 166 2.05 193 2.05
  59  0.174  0.320  0.501- 164 1.87 195 1.97 149 1.98 194 1.99 140 1.99
  60  0.172  0.328  0.829- 165 1.97 195 1.99 150 2.00 141 2.03 193 2.09 168 2.10
  61  0.173  0.670  0.171- 197 1.93 169 1.94 151 1.99 142 2.05 196 2.05 166 2.07
  62  0.175  0.696  0.498- 170 1.81 143 1.82 152 1.97 198 2.02 197 2.06
  63  0.172  0.671  0.829- 171 1.92 153 2.00 198 2.02 144 2.03 196 2.08 168 2.08
  64  0.501  1.000  0.170- 200 1.94 145 2.01 172 2.01 154 2.03 178 2.04 199 2.07
  65  0.502  1.000  0.500- 146 1.96 173 2.00 201 2.02 155 2.02 179 2.03 200 2.03
  66  0.501  0.000  0.829- 201 1.96 147 1.99 174 2.01 156 2.02 180 2.04 199 2.06
  67  0.502  0.327  0.169- 172 1.95 203 1.95 148 1.99 157 2.02 202 2.06 175 2.07
  68  0.504  0.327  0.500- 158 1.94 173 1.96 149 2.01 204 2.03 203 2.04 176 2.07
  69  0.502  0.327  0.830- 174 1.94 204 1.96 150 1.98 202 2.04 159 2.04 177 2.06
  70  0.502  0.672  0.154- 205 1.91 178 1.93 151 1.98 160 2.03 175 2.09 206 2.14
  71  0.502  0.672  0.500- 179 1.94 207 2.01 152 2.03 206 2.04 161 2.06 176 2.09
  72  0.502  0.671  0.828- 180 1.94 207 1.96 153 1.99 162 2.00 205 2.03 177 2.09
  73  0.830  0.999  0.171- 209 1.93 154 1.94 181 1.98 187 2.04 208 2.07 136 2.09
  74  0.829  0.000  0.499- 155 1.93 188 1.97 182 2.00 210 2.03 209 2.03 137 2.10
  75  0.828  0.999  0.829- 156 1.93 189 1.96 210 1.97 183 1.97 208 2.06 138 2.10
  76  0.829  0.327  0.154- 211 1.90 157 1.95 181 1.98 212 1.99 184 2.08 139 2.12
  77  0.825  0.324  0.500- 185 1.78 182 1.92 158 1.94 213 2.02 212 2.19 140 2.24  32 2.58
  78  0.847  0.327  0.829- 141 1.91 213 1.97 183 1.99 211 2.03 186 2.08 159 2.12
  79  0.830  0.671  0.170- 187 1.94 160 1.94 215 1.95 214 2.07 184 2.07 142 2.10
  80  0.849  0.674  0.501- 167 1.83 188 1.97 215 2.06 161 2.12 216 2.18 143 2.19   9 2.59
  81  0.830  0.673  0.828- 216 1.82 162 1.97 189 1.99 214 2.06 186 2.10 144 2.11
  82  0.172  0.170  1.000- 193 1.93 118 1.96 165 2.03 163 2.04 109 2.05 190 2.08
  83  0.173  0.171  0.329- 163 1.94 119 1.98 194 2.00 110 2.04 164 2.05 191 2.06
  84  0.174  0.171  0.670- 195 1.92 165 1.95 120 2.00 192 2.05 111 2.05 164 2.08
  85  0.174  0.499  0.002- 168 1.89 166 1.98 121 2.01 196 2.03 193 2.05 112 2.06
  86  0.174  0.500  0.321- 166 1.87 122 1.97 197 1.98 113 1.98 194 1.99
  87  0.174  0.499  0.697- 114 1.81 168 1.81 123 1.98 198 2.04 195 2.09
  88  0.173  0.828  0.999- 196 1.95 124 1.97 169 2.01 171 2.03 190 2.05 115 2.06
  89  0.172  0.829  0.328- 169 1.96 197 1.99 125 2.00 116 2.03 191 2.08 170 2.10
  90  0.173  0.830  0.672- 171 1.92 126 1.99 198 2.01 117 2.03 192 2.07 170 2.08
  91  0.501  0.170  1.000- 202 1.94 118 2.01 172 2.02 174 2.03 127 2.04 199 2.07
  92  0.502  0.169  0.328- 172 1.95 203 1.96 119 1.99 128 2.02 200 2.06 173 2.07
  93  0.502  0.169  0.672- 174 1.93 204 1.96 120 1.97 129 2.03 201 2.05 173 2.09
  94  0.502  0.499  1.000- 121 1.96 175 1.98 130 2.02 205 2.02 177 2.03 202 2.03
  95  0.504  0.500  0.327- 131 1.94 175 1.97 206 2.01 122 2.02 203 2.05 176 2.08
  96  0.502  0.500  0.672- 177 1.93 207 2.01 123 2.03 204 2.03 132 2.08 176 2.08
  97  0.501  0.830  1.000- 205 1.97 124 1.99 178 2.00 133 2.02 180 2.03 199 2.04
  98  0.502  0.828  0.327- 206 1.95 178 1.95 125 1.99 134 2.05 200 2.06 179 2.07
  99  0.502  0.829  0.671- 180 1.94 207 1.96 135 1.98 126 1.98 201 2.07 179 2.08
 100  0.830  0.154  0.999- 208 1.90 127 1.94 181 1.98 183 2.03 109 2.09 211 2.12
 101  0.829  0.170  0.327- 212 1.87 128 1.94 181 1.98 209 2.05 182 2.07 110 2.11
 102  0.830  0.170  0.671- 213 1.93 129 1.94 183 1.94 210 2.04 182 2.09 111 2.10
 103  0.830  0.500  0.999- 130 1.94 184 1.98 186 1.99 214 2.02 211 2.06 112 2.09
 104  0.825  0.499  0.323- 185 1.79 131 1.94 184 1.94 215 2.02 212 2.12 113 2.25  32 2.59
 105  0.850  0.500  0.674- 167 1.79 186 1.94 213 2.05 132 2.12 114 2.20
 106  0.828  0.829  0.999- 133 1.94 214 1.95 189 1.98 187 2.00 208 2.03 115 2.11
 107  0.847  0.829  0.328- 116 1.92 215 1.97 187 1.97 188 2.05 209 2.08 134 2.12
 108  0.828  0.844  0.672- 216 1.86 210 1.91 135 1.98 189 1.98 188 2.11 117 2.14
 109  0.002  0.162  0.001-   1 1.96   4 1.98  28 2.04  82 2.05  30 2.08 100 2.09
 110  0.004  0.167  0.331-   5 1.93  28 1.95   2 2.01  29 2.03  83 2.04 101 2.11
 111  0.004  0.165  0.666-   6 1.95  30 1.97   3 1.99  29 2.02  84 2.05 102 2.10
 112  0.003  0.498  0.003-  33 1.88  31 2.02  85 2.06   4 2.08   7 2.09 103 2.09
 113  0.010  0.499  0.332-  32 1.83  31 1.96  86 1.98   5 2.08   8 2.12 104 2.25
 114  0.028  0.471  0.703-  87 1.81  33 1.81   6 1.81 105 2.20
 115  0.003  0.831  0.997-  34 1.90   7 1.94   1 2.03  36 2.05  88 2.06 106 2.11
 116  0.005  0.839  0.320- 107 1.92   2 1.95  34 2.00   8 2.00  89 2.03  35 2.17
 117  0.005  0.837  0.666-  36 1.96   3 1.97   9 1.97  35 2.01  90 2.03 108 2.14
 118  0.334  0.166  1.000-  13 1.95  82 1.96  91 2.01  10 2.02  37 2.06  39 2.07
 119  0.337  0.168  0.332-  14 1.94  37 1.95  83 1.98  92 1.99  11 2.03  38 2.03
 120  0.339  0.167  0.667-  15 1.96  39 1.96  93 1.97  84 2.00  12 2.02  38 2.02
 121  0.340  0.499  0.004-  42 1.90  94 1.96  85 2.01  40 2.01  13 2.08  16 2.09
 122  0.337  0.498  0.336-  86 1.97  41 1.99  40 2.00  95 2.02  14 2.06  17 2.10
 123  0.334  0.499  0.663-  87 1.98  41 1.98  96 2.03  15 2.07  18 2.07  42 2.23
 124  0.336  0.831  0.999-  16 1.93  88 1.97  97 1.99  10 2.04  45 2.06  43 2.07
 125  0.338  0.833  0.331-  43 1.95  17 1.95  98 1.99  89 2.00  11 2.02  44 2.04
 126  0.338  0.832  0.667-  18 1.96  45 1.96  99 1.98  90 1.99  44 2.03  12 2.04
 127  0.669  0.164  0.998- 100 1.94  22 1.96  19 2.00  91 2.04  48 2.05  46 2.07
 128  0.669  0.164  0.330-  46 1.94 101 1.94  23 1.99  20 2.00  92 2.02  47 2.05
 129  0.669  0.165  0.668- 102 1.94  48 1.95  24 1.98  21 1.99  93 2.03  47 2.03
 130  0.669  0.499  0.997-  49 1.92 103 1.94  94 2.02  51 2.05  22 2.08  25 2.09
 131  0.664  0.500  0.321- 104 1.94  95 1.94  49 2.00  26 2.06  23 2.07  50 2.16
 132  0.674  0.499  0.666-  51 1.95  50 2.01  24 2.06  96 2.08  27 2.09 105 2.12
 133  0.668  0.831  0.999-  25 1.93 106 1.94  97 2.02  19 2.02  54 2.07  52 2.08
 134  0.672  0.831  0.331-  52 1.93  26 1.94  20 2.02  53 2.03  98 2.05 107 2.12
 135  0.665  0.837  0.667-  54 1.96  21 1.97 108 1.98  99 1.98  27 2.00  53 2.03
 136  0.002  0.000  0.164-   2 1.96   1 1.98  55 2.05  28 2.05  34 2.07  73 2.09
 137  0.003  0.004  0.498-  35 1.87  29 2.00  56 2.06   2 2.08   3 2.09  74 2.10
 138  0.002  0.997  0.832-  30 1.90   3 1.94   1 2.03  36 2.05  57 2.06  75 2.10
 139  0.005  0.331  0.166-   5 1.94  28 1.95   4 2.00  58 2.03  31 2.04  76 2.12
 140  0.010  0.331  0.498-  32 1.83  29 1.95  59 1.99   5 2.08   6 2.13  77 2.24
 141  0.005  0.317  0.841-  78 1.91   4 1.93  30 1.97   6 2.02  60 2.03  33 2.22
 142  0.003  0.666  0.166-   8 1.95  34 1.97   7 2.01  31 2.01  61 2.05  79 2.10
 143  0.026  0.703  0.477-  35 1.81  62 1.82   8 1.87   9 2.16  80 2.19
 144  0.004  0.667  0.832-  36 1.94   7 2.02  33 2.02  63 2.03  81 2.11   9 2.18
 145  0.334  0.999  0.167-  11 1.94  55 1.96  64 2.01  10 2.02  43 2.06  37 2.07
 146  0.340  0.004  0.499-  44 1.90  65 1.96  56 2.01  38 2.01  11 2.07  12 2.09
 147  0.336  0.999  0.832-  12 1.94  57 1.97  66 1.99  10 2.03  45 2.06  39 2.08
 148  0.337  0.332  0.168-  14 1.94  37 1.95  58 1.98  67 1.99  13 2.03  40 2.03
 149  0.337  0.336  0.498-  59 1.98  41 1.99  38 2.00  68 2.01  14 2.05  15 2.10
 150  0.338  0.331  0.833-  39 1.95  15 1.95  69 1.98  60 2.00  13 2.02  42 2.04
 151  0.338  0.667  0.166-  43 1.96  17 1.96  70 1.98  61 1.99  16 2.01  40 2.02
 152  0.335  0.663  0.499-  62 1.97  41 1.97  71 2.03  18 2.07  17 2.07  44 2.23
 153  0.337  0.667  0.832-  18 1.95  45 1.96  72 1.99  63 2.00  42 2.03  16 2.03
 154  0.669  0.998  0.166-  73 1.94  20 1.95  19 2.01  64 2.03  52 2.05  46 2.08
 155  0.669  0.998  0.499-  47 1.91  74 1.93  65 2.02  53 2.06  20 2.07  21 2.09
 156  0.668  0.999  0.832-  75 1.93  21 1.94  66 2.02  19 2.03  54 2.07  48 2.08
 157  0.668  0.330  0.162-  46 1.94  76 1.95  22 1.98  23 2.00  67 2.02  49 2.05
 158  0.665  0.321  0.500-  77 1.94  68 1.94  47 2.00  24 2.06  23 2.08  50 2.16
 159  0.671  0.331  0.831-  48 1.93  24 1.94  22 2.02  51 2.04  69 2.04  78 2.12
 160  0.670  0.667  0.163-  79 1.94  52 1.95  25 1.99  26 2.00  49 2.03  70 2.03
 161  0.673  0.666  0.498-  53 1.94  50 2.01  26 2.05  71 2.06  27 2.08  80 2.12
 162  0.667  0.667  0.834-  54 1.95  81 1.97  27 1.98  25 1.99  72 2.00  51 2.03
 163  0.171  0.168  0.169-  37 1.93  83 1.94  58 1.95  55 2.03  82 2.04  28 2.06
 164  0.174  0.166  0.499-  59 1.87  56 1.98  83 2.05  84 2.08  38 2.08  29 2.09
 165  0.172  0.164  0.832-  39 1.92  84 1.95  60 1.97  57 2.00  82 2.03  30 2.07
 166  0.174  0.499  0.166-  86 1.87  85 1.98  58 2.05  61 2.07  40 2.08  31 2.09
 167  0.932  0.571  0.574-  32 1.71   9 1.77 105 1.79  80 1.83
 168  0.183  0.500  0.846-  87 1.81  85 1.89  42 1.97  63 2.08  60 2.10  33 2.20
 169  0.172  0.831  0.165-  43 1.92  61 1.94  89 1.96  88 2.01  55 2.04  34 2.06
 170  0.183  0.846  0.500-  62 1.81  56 1.89  44 1.97  90 2.08  89 2.10  35 2.20
 171  0.173  0.831  0.831-  90 1.92  63 1.92  57 2.03  88 2.03  45 2.08  36 2.08
 172  0.502  0.166  0.167-  92 1.95  67 1.95  64 2.01  91 2.02  46 2.06  37 2.07
 173  0.503  0.165  0.499-  38 1.90  68 1.96  65 2.00  47 2.04  92 2.07  93 2.09
 174  0.502  0.167  0.832-  93 1.93  69 1.94  66 2.01  91 2.03  48 2.06  39 2.07
 175  0.503  0.499  0.164-  40 1.90  95 1.97  94 1.98  49 2.04  67 2.07  70 2.09
 176  0.507  0.499  0.499-  41 1.86  50 2.00  68 2.07  95 2.08  96 2.08  71 2.09
 177  0.504  0.498  0.832-  42 1.91  96 1.93  94 2.03  51 2.06  69 2.06  72 2.09
 178  0.502  0.831  0.165-  70 1.93  98 1.95  97 2.00  64 2.04  52 2.06  43 2.07
 179  0.503  0.832  0.498-  44 1.91  71 1.94  65 2.03  53 2.06  98 2.07  99 2.08
 180  0.503  0.832  0.832-  45 1.91  72 1.94  99 1.94  97 2.03  66 2.04  54 2.04
 181  0.834  0.163  0.163-  46 1.96 101 1.98  76 1.98 100 1.98  73 1.98  28 2.02
 182  0.835  0.165  0.498-  77 1.92  47 1.97  74 2.00  29 2.01 101 2.07 102 2.09
 183  0.835  0.162  0.832- 102 1.94  48 1.96  75 1.97  78 1.99  30 2.01 100 2.03
 184  0.835  0.499  0.163- 104 1.94  49 1.97 103 1.98  31 2.01  79 2.07  76 2.08
 185  0.816  0.467  0.467-  77 1.78 104 1.79  50 1.82  32 1.89
 186  0.837  0.499  0.834- 105 1.94  51 1.98  33 1.99 103 1.99  78 2.08  81 2.10
 187  0.835  0.831  0.165-  79 1.94  52 1.96 107 1.97 106 2.00  34 2.01  73 2.04
 188  0.837  0.837  0.497-  74 1.97  80 1.97  53 1.98  35 1.98 107 2.05 108 2.11
 189  0.833  0.837  0.836-  54 1.95  75 1.96 106 1.98 108 1.98  81 1.99  36 2.02
 190  0.170  0.998  0.999-  10 1.93   1 2.04  88 2.05  57 2.06  55 2.07  82 2.08
 191  0.171  0.001  0.331-  11 1.92  55 1.93  56 2.04   2 2.05  83 2.06  89 2.08
 192  0.171  0.001  0.668-  12 1.92  57 1.94  56 2.03  84 2.05   3 2.05  90 2.07
 193  0.171  0.330  0.001-  13 1.92  82 1.93  85 2.05  58 2.05   4 2.06  60 2.09
 194  0.173  0.337  0.337-  86 1.99  59 1.99  83 2.00  58 2.01  14 2.09   5 2.10
 195  0.180  0.329  0.664-  84 1.92  59 1.97  15 1.99  60 1.99  87 2.09   6 2.15
 196  0.170  0.668  0.001-  16 1.92  88 1.95  85 2.03   7 2.05  61 2.05  63 2.08
 197  0.179  0.664  0.331-  61 1.93  86 1.98  89 1.99  17 2.02  62 2.06   8 2.13
 198  0.170  0.664  0.662-  18 1.94  90 2.01  63 2.02  62 2.02  87 2.04   9 2.05
 199  0.501  0.999  0.999-  97 2.04  19 2.05  66 2.06  91 2.07  64 2.07  10 2.07
 200  0.502  0.998  0.331-  64 1.94  65 2.03  20 2.05  98 2.06  92 2.06  11 2.08
 201  0.501  1.000  0.667-  66 1.96  65 2.02  21 2.04  93 2.05  99 2.07  12 2.07
 202  0.502  0.331  0.999-  91 1.94  94 2.03  69 2.04  67 2.06  22 2.06  13 2.08
 203  0.504  0.331  0.331-  14 1.91  67 1.95  92 1.96  68 2.04  95 2.05  23 2.05
 204  0.503  0.332  0.667-  15 1.92  69 1.96  93 1.96  68 2.03  96 2.03  24 2.05
 205  0.502  0.666  0.997-  70 1.91  97 1.97  94 2.02  72 2.03  25 2.06  16 2.09
 206  0.504  0.667  0.331-  17 1.90  98 1.95  95 2.01  71 2.04  26 2.04  70 2.14
 207  0.502  0.666  0.666-  72 1.96  99 1.96  96 2.01  71 2.01  27 2.07  18 2.08
 208  0.833  0.996  1.000- 100 1.90  19 1.97 106 2.03   1 2.03  75 2.06  73 2.07
 209  0.835  0.000  0.331-  73 1.93  20 1.97   2 2.01  74 2.03 101 2.05 107 2.08
 210  0.834  0.002  0.667- 108 1.91  75 1.97  21 1.98   3 2.02  74 2.03 102 2.04
 211  0.835  0.329  0.997-  76 1.90  22 1.96   4 2.01  78 2.03 103 2.06 100 2.12
 212  0.836  0.324  0.319- 101 1.87  23 1.97   5 1.98  76 1.99 104 2.12  77 2.19
 213  0.838  0.330  0.666- 102 1.93  78 1.97   6 1.99  24 1.99  77 2.02 105 2.05
 214  0.834  0.667  0.999- 106 1.95  25 1.96   7 2.01 103 2.02  81 2.06  79 2.07
 215  0.839  0.666  0.331-  79 1.95 107 1.97   8 1.98  26 2.01 104 2.02  80 2.06
 216  0.824  0.691  0.679-  81 1.82  27 1.84 108 1.86   9 2.17  80 2.18
 

IMPORTANT INFORMATION: All symmetrisations will be switched off!
NOSYMM: (Re-)initialisation of all symmetry stuff for point group C_1.


----------------------------------------------------------------------------------------

                                     Primitive cell                                     

  volume of cell :    1762.3095

  direct lattice vectors                    reciprocal lattice vectors
    12.078900337  0.000000000  0.000000000     0.082788993  0.000000000  0.000000000
     0.000000000 12.078900337  0.000000000     0.000000000  0.082788993  0.000000000
     0.000000000  0.000000000 12.078900337     0.000000000  0.000000000  0.082788993

  length of vectors
    12.078900337 12.078900337 12.078900337     0.082788993  0.082788993  0.082788993

  position of ions in fractional coordinates (direct lattice)
     0.001136054  0.999185650  0.000000336
     0.001257180  0.000473877  0.326325675
     0.001502361  0.000104713  0.671007919
     0.001235003  0.325648339  0.000105058
     0.000120689  0.326339517  0.325853901
     0.002527859  0.326124524  0.673806913
     0.000837008  0.670827515  0.999306808
     0.002618490  0.673646902  0.327255287
     0.000796506  0.673946380  0.652031070
     0.329709333  0.999598334  0.999771024
     0.330017706  0.000117141  0.327793973
     0.330227934  0.000249866  0.671665610
     0.329902757  0.327534250  0.000247489
     0.345798424  0.328307135  0.328449113
     0.344973350  0.328740538  0.671840361
     0.328860164  0.671418425  0.999807514
     0.346092842  0.671604442  0.328276525
     0.329869112  0.670037892  0.670111067
     0.670584672  0.998937167  0.999751272
     0.672349098  0.998436137  0.327618466
     0.670440522  0.999816544  0.671742659
     0.672478918  0.326776581  0.997937260
     0.673362355  0.328661365  0.327738258
     0.673317251  0.328710609  0.670481094
     0.672474305  0.671554860  0.998663579
     0.672670964  0.670097425  0.328304268
     0.673286589  0.671565165  0.670317807
     0.000528828  0.169891616  0.170126709
     0.000928006  0.169841211  0.499570268
     0.001154338  0.154242588  0.829250196
     0.000878407  0.499497363  0.169864973
     0.972119468  0.476300086  0.476687843
     0.001231395  0.500497852  0.847590413
     0.001112315  0.828848444  0.154608034
     0.001168638  0.848974868  0.499457124
     0.000499013  0.827222418  0.827509945
     0.330112472  0.170311828  0.170580009
     0.345498948  0.170553414  0.499886188
     0.330592836  0.170293781  0.828833812
     0.345532062  0.499713717  0.170773130
     0.352986250  0.500212831  0.500311307
     0.346263092  0.499591987  0.846872487
     0.330559316  0.828612662  0.170556583
     0.346429882  0.846822303  0.499668041
     0.345116441  0.828546921  0.828682795
     0.671839633  0.169944004  0.170110866
     0.671714828  0.155714742  0.499567031
     0.672363942  0.171113786  0.828854188
     0.671792210  0.499479198  0.155384036
     0.672459966  0.499691935  0.499709417
     0.673801608  0.499129927  0.827167160
     0.672352128  0.828494401  0.171303116
     0.673705234  0.827142664  0.499144780
     0.672095091  0.828250943  0.828283693
     0.171746139  0.999659529  0.170644706
     0.173804079  0.001807538  0.499639441
     0.173162860  0.998654184  0.828764757
     0.172970025  0.329056466  0.171170440
     0.174389967  0.320403661  0.500671993
     0.172077817  0.327582457  0.828552647
     0.173303804  0.670083279  0.170962208
     0.175150534  0.696470585  0.498469741
     0.172100306  0.671334309  0.829020028
     0.500544795  0.999516027  0.170483224
     0.501883504  0.999938010  0.499665605
     0.500954585  0.000207799  0.828650389
     0.501769680  0.327477954  0.168811690
     0.503860312  0.327242504  0.499689529
     0.501982035  0.327447765  0.829517498
     0.501518407  0.671540584  0.154155864
     0.502190607  0.671548677  0.499933077
     0.501765826  0.670689408  0.828148836
     0.829548664  0.999054175  0.171070332
     0.829385001  0.000015391  0.498835292
     0.828392644  0.999254733  0.829097522
     0.829367198  0.326841691  0.154246924
     0.824789752  0.323619489  0.499621548
     0.847043284  0.326887797  0.829354237
     0.829810304  0.670672274  0.170319951
     0.848587218  0.673891625  0.500984764
     0.829957140  0.672539906  0.828381646
     0.171732240  0.170208138  0.999826535
     0.172975275  0.171126665  0.329355922
     0.173503373  0.170635900  0.670455493
     0.173626821  0.499462417  0.001815688
     0.174434474  0.500437731  0.320682341
     0.174335841  0.498702514  0.696586592
     0.173028439  0.828496480  0.998806784
     0.172371910  0.828662472  0.327702487
     0.173063291  0.829883053  0.671586689
     0.500540350  0.170022998  0.999689666
     0.501771210  0.169007812  0.327641265
     0.501650912  0.169397681  0.671703177
     0.501941805  0.498908705  0.999593047
     0.503902202  0.500230513  0.326825384
     0.502166539  0.500151398  0.671614934
     0.500972450  0.829514910  0.999697355
     0.502060186  0.828343491  0.327068917
     0.501673887  0.828552109  0.670746672
     0.829535313  0.153776017  0.999403628
     0.829427626  0.169749322  0.326915441
     0.829655657  0.170486148  0.671091463
     0.829581788  0.499821797  0.998990198
     0.824749673  0.498721549  0.322972627
     0.849731738  0.499508068  0.674156207
     0.828481642  0.828531651  0.999288849
     0.846789435  0.828553600  0.327635169
     0.828238235  0.844226085  0.671929027
     0.002107541  0.161516428  0.001345046
     0.004343501  0.166970248  0.331174583
     0.003514578  0.165102256  0.666494121
     0.002831394  0.498026009  0.002978911
     0.010484051  0.498501029  0.331507249
     0.027582157  0.471001212  0.703403145
     0.002870416  0.831188005  0.997164649
     0.004778972  0.839443352  0.319944583
     0.005267400  0.836798004  0.665569739
     0.334171063  0.166379640  0.999970372
     0.337126072  0.168098753  0.331840334
     0.338664598  0.166993056  0.666996196
     0.339994023  0.498998046  0.004208987
     0.337134340  0.498099216  0.336044021
     0.334394898  0.499144893  0.662868308
     0.336035485  0.831069367  0.998886504
     0.337741702  0.832800326  0.331416671
     0.337793651  0.831692214  0.666866039
     0.668999254  0.164408874  0.998492789
     0.668745423  0.164040014  0.330173338
     0.669447068  0.164664629  0.667548499
     0.669279529  0.498578274  0.996852407
     0.664451639  0.499560054  0.320688675
     0.674179266  0.498882583  0.666136901
     0.667980401  0.831379659  0.999240061
     0.671526218  0.830846634  0.330728233
     0.664963981  0.837200067  0.666569586
     0.002292251  0.000199253  0.164001777
     0.002945092  0.003891628  0.498295246
     0.002497133  0.996714219  0.831621173
     0.004875553  0.331043639  0.165581174
     0.009790883  0.330815715  0.498018361
     0.004670140  0.316974187  0.840557495
     0.003420271  0.666221626  0.165820969
     0.026207387  0.703305371  0.477383112
     0.004186324  0.666892604  0.832475952
     0.334171215  0.999264412  0.166923925
     0.339910515  0.004070375  0.499080513
     0.336070888  0.998553115  0.831829429
     0.337101192  0.331555229  0.168354765
     0.337337594  0.336012899  0.498159918
     0.337851744  0.331294988  0.833358135
     0.338321629  0.666572264  0.165909694
     0.334639706  0.662507943  0.499200371
     0.337496590  0.666675818  0.831623089
     0.668829017  0.997927182  0.166428407
     0.669208077  0.997741388  0.498726214
     0.668282291  0.999336699  0.832036102
     0.668499179  0.329963581  0.162061295
     0.664567923  0.321321744  0.499931716
     0.671189073  0.330557635  0.830933367
     0.669552843  0.667179830  0.163008809
     0.673033422  0.666153930  0.498205435
     0.666813633  0.666680725  0.833891484
     0.170718430  0.167957258  0.168526116
     0.173610632  0.165752523  0.498595854
     0.171934730  0.164315778  0.831584409
     0.173580666  0.498563321  0.166098531
     0.931948980  0.571045457  0.573862625
     0.183332696  0.500340679  0.846041524
     0.171700408  0.830871220  0.165198839
     0.183036127  0.845830025  0.500188654
     0.172894171  0.830646381  0.830720939
     0.501632734  0.166193437  0.166599708
     0.502923741  0.165390566  0.498955280
     0.502182487  0.166718158  0.831852712
     0.502958419  0.499004216  0.163824510
     0.506969357  0.498564059  0.499152178
     0.503609137  0.498117457  0.831760609
     0.502067854  0.831110223  0.165443830
     0.503475950  0.831757986  0.498397012
     0.503367801  0.831527683  0.831637544
     0.833525231  0.163048204  0.163312302
     0.834772605  0.165132732  0.498384978
     0.834598047  0.162325820  0.831626157
     0.834817150  0.499132404  0.162881586
     0.816197184  0.467398441  0.467169740
     0.837199728  0.498920130  0.834266759
     0.834824607  0.830777920  0.164745036
     0.837407667  0.836863312  0.497252540
     0.833436897  0.837374312  0.835672643
     0.169953031  0.998081945  0.999008221
     0.171196080  0.000976840  0.330658766
     0.171118255  0.001063989  0.667851438
     0.171333244  0.330084564  0.001281499
     0.172914525  0.336789572  0.336986056
     0.180407176  0.329121573  0.663663302
     0.170264017  0.667501316  0.000944786
     0.178918467  0.663703773  0.330854232
     0.169931732  0.663867159  0.662271638
     0.501062932  0.998707977  0.999140819
     0.502331455  0.998456030  0.331442153
     0.501294168  0.999593622  0.666743750
     0.502261084  0.330951431  0.998590484
     0.503798236  0.330960553  0.330603301
     0.503485338  0.331910110  0.667317616
     0.501752959  0.666397863  0.996515619
     0.503624268  0.666816720  0.331031381
     0.502393582  0.666181568  0.666246744
     0.833254631  0.996166757  0.999514504
     0.835076018  0.000195191  0.330921056
     0.833957965  0.001771092  0.666526640
     0.834963718  0.329415572  0.997230180
     0.836317665  0.323919317  0.318749492
     0.838374549  0.330141539  0.666245259
     0.834447793  0.666965586  0.998674605
     0.838728814  0.665523173  0.331033851
     0.823834912  0.690694727  0.678864584

  ion indices of the primitive-cell ions
   primitive index   ion index
                 1           1
                 2           2
                 3           3
                 4           4
                 5           5
                 6           6
                 7           7
                 8           8
                 9           9
                10          10
                11          11
                12          12
                13          13
                14          14
                15          15
                16          16
                17          17
                18          18
                19          19
                20          20
                21          21
                22          22
                23          23
                24          24
                25          25
                26          26
                27          27
                28          28
                29          29
                30          30
                31          31
                32          32
                33          33
                34          34
                35          35
                36          36
                37          37
                38          38
                39          39
                40          40
                41          41
                42          42
                43          43
                44          44
                45          45
                46          46
                47          47
                48          48
                49          49
                50          50
                51          51
                52          52
                53          53
                54          54
                55          55
                56          56
                57          57
                58          58
                59          59
                60          60
                61          61
                62          62
                63          63
                64          64
                65          65
                66          66
                67          67
                68          68
                69          69
                70          70
                71          71
                72          72
                73          73
                74          74
                75          75
                76          76
                77          77
                78          78
                79          79
                80          80
                81          81
                82          82
                83          83
                84          84
                85          85
                86          86
                87          87
                88          88
                89          89
                90          90
                91          91
                92          92
                93          93
                94          94
                95          95
                96          96
                97          97
                98          98
                99          99
               100         100
               101         101
               102         102
               103         103
               104         104
               105         105
               106         106
               107         107
               108         108
               109         109
               110         110
               111         111
               112         112
               113         113
               114         114
               115         115
               116         116
               117         117
               118         118
               119         119
               120         120
               121         121
               122         122
               123         123
               124         124
               125         125
               126         126
               127         127
               128         128
               129         129
               130         130
               131         131
               132         132
               133         133
               134         134
               135         135
               136         136
               137         137
               138         138
               139         139
               140         140
               141         141
               142         142
               143         143
               144         144
               145         145
               146         146
               147         147
               148         148
               149         149
               150         150
               151         151
               152         152
               153         153
               154         154
               155         155
               156         156
               157         157
               158         158
               159         159
               160         160
               161         161
               162         162
               163         163
               164         164
               165         165
               166         166
               167         167
               168         168
               169         169
               170         170
               171         171
               172         172
               173         173
               174         174
               175         175
               176         176
               177         177
               178         178
               179         179
               180         180
               181         181
               182         182
               183         183
               184         184
               185         185
               186         186
               187         187
               188         188
               189         189
               190         190
               191         191
               192         192
               193         193
               194         194
               195         195
               196         196
               197         197
               198         198
               199         199
               200         200
               201         201
               202         202
               203         203
               204         204
               205         205
               206         206
               207         207
               208         208
               209         209
               210         210
               211         211
               212         212
               213         213
               214         214
               215         215
               216         216

----------------------------------------------------------------------------------------

 
 
 KPOINTS: Gamma-point only                        

Automatic generation of k-mesh.
 Grid dimensions read from file:
 generate k-points for:    1    1    1

 Generating k-lattice:

  Cartesian coordinates                     Fractional coordinates (reciprocal lattice)
     0.082788993  0.000000000  0.000000000     1.000000000  0.000000000  0.000000000
     0.000000000  0.082788993  0.000000000     0.000000000  1.000000000  0.000000000
     0.000000000  0.000000000  0.082788993     0.000000000  0.000000000  1.000000000

  Length of vectors
     0.082788993  0.082788993  0.082788993

  Shift w.r.t. Gamma in fractional coordinates (k-lattice)
     0.000000000  0.000000000  0.000000000

 
 Subroutine IBZKPT returns following result:
 ===========================================
 
 Found      1 irreducible k-points:
 
 Following reciprocal coordinates:
            Coordinates               Weight
  0.000000  0.000000  0.000000      1.000000
 
 Following cartesian coordinates:
            Coordinates               Weight
  0.000000  0.000000  0.000000      1.000000
 
 
 Subroutine IBZKPT_HF returns following result:
 ==============================================
 
 Found      1 k-points in 1st BZ
 the following      1 k-points will be used (e.g. in the exchange kernel)
 Following reciprocal coordinates:   # in IRBZ
  0.000000  0.000000  0.000000    1.00000000   1 t-inv F


--------------------------------------------------------------------------------------------------------




 Dimension of arrays:
   k-points           NKPTS =      1   k-points in BZ     NKDIM =      1   number of bands    NBANDS=    758
   number of dos      NEDOS =    301   number of ions     NIONS =    216
   non local maximal  LDIM  =      4   non local SUM 2l+1 LMDIM =      8
   total plane-waves  NPLWV = 512000
   max r-space proj   IRMAX =      1   max aug-charges    IRDMAX=   3893
   dimension x,y,z NGX =    80 NGY =   80 NGZ =   80
   dimension x,y,z NGXF=   160 NGYF=  160 NGZF=  160
   support grid    NGXF=   160 NGYF=  160 NGZF=  160
   ions per type =             108 108
   NGX,Y,Z   is equivalent  to a cutoff of  11.01, 11.01, 11.01 a.u.
   NGXF,Y,Z  is equivalent  to a cutoff of  22.02, 22.02, 22.02 a.u.

 SYSTEM =  Si                                      
 POSCAR =  Li   F                                  

 Startparameter for this run:
   NWRITE =      2    write-flag & timer
   PREC   = accura    normal or accurate (medium, high low for compatibility)
   ISTART =      0    job   : 0-new  1-cont  2-samecut
   ICHARG =      1    charge: 1-file 2-atom 10-const
   ISPIN  =      2    spin polarized calculation?
   LNONCOLLINEAR =      F non collinear calculations
   LSORBIT =      F    spin-orbit coupling
   INIWAV =      1    electr: 0-lowe 1-rand  2-diag
   LASPH  =      F    aspherical Exc in radial PAW
 Electronic Relaxation 1
   ENCUT  =  400.0 eV  29.40 Ry    5.42 a.u.  19.70 19.70 19.70*2*pi/ulx,y,z
   ENINI  =  400.0     initial cutoff
   ENAUG  =  628.9 eV  augmentation charge cutoff
   NELM   =    200;   NELMIN=  2; NELMDL=  0     # of ELM steps 
   EDIFF  = 0.1E-09   stopping-criterion for ELM
   LREAL  =      F    real-space projection
   NLSPLINE    = F    spline interpolate recip. space projectors
   LCOMPAT=      F    compatible to vasp.4.4
   GGA_COMPAT  = T    GGA compatible to vasp.4.4-vasp.4.6
   LMAXPAW     = -100 max onsite density
   LMAXMIX     =    2 max onsite mixed and CHGCAR
   VOSKOWN=      0    Vosko Wilk Nusair interpolation
   ROPT   =    0.00000   0.00000
 Ionic relaxation
   EDIFFG = -.1E-01   stopping-criterion for IOM
   NSW    =    500    number of steps for IOM
   NBLOCK =      1;   KBLOCK =    500    inner block; outer block 
   IBRION =      2    ionic relax: 0-MD 1-quasi-New 2-CG
   NFREE  =      1    steps in history (QN), initial steepest desc. (CG)
   ISIF   =      2    stress and relaxation
   IWAVPR =     11    prediction:  0-non 1-charg 2-wave 3-comb
   ISYM   =      0    0-nonsym 1-usesym 2-fastsym
   LCORR  =      T    Harris-Foulkes like correction to forces

   POTIM  = 0.1000    time-step for ionic-motion
   TEIN   =    0.0    initial temperature
   TEBEG  =    0.0;   TEEND  =   0.0 temperature during run
   SMASS  =  -3.00    Nose mass-parameter (am)
   estimated Nose-frequenzy (Omega)   =  0.10E-29 period in steps = 0.63E+47 mass=  -0.333E-26a.u.
   SCALEE = 1.0000    scale energy and forces
   NPACO  =    256;   APACO  = 10.0  distance and # of slots for P.C.
   PSTRESS=    0.0 pullay stress

  Mass of Ions in am
   POMASS =   7.01 19.00
  Ionic Valenz
   ZVAL   =   3.00  7.00
  Atomic Wigner-Seitz radii
   RWIGS  =  -1.00 -1.00
  virtual crystal weights 
   VCA    =   1.00  1.00
   NELECT =    1080.0000    total number of electrons
   NUPDOWN=      -1.0000    fix difference up-down

 DOS related values:
   EMIN   =  10.00;   EMAX   =-10.00  energy-range for DOS
   EFERMI =   0.00;   METHOD = LEGACY      
   ISMEAR =     0;   SIGMA  =   0.01  broadening in eV -4-tet -1-fermi 0-gaus

 Electronic relaxation 2 (details)
   IALGO  =     38    algorithm
   LDIAG  =      T    sub-space diagonalisation (order eigenvalues)
   LSUBROT=      T    optimize rotation matrix (better conditioning)
   TURBO    =      0    0=normal 1=particle mesh
   IRESTART =      0    0=no restart 2=restart with 2 vectors
   NREBOOT  =      0    no. of reboots
   NMIN     =      0    reboot dimension
   EREF     =   0.00    reference energy to select bands
   IMIX   =      1    mixing-type and parameters
     AMIX     =   0.40;   BMIX     =  1.00
     AMIX_MAG =   1.60;   BMIX_MAG =  1.00
     AMIN     =   0.10
     WC   =   100.;   INIMIX=   1;  MIXPRE=   1;  MAXMIX= -45

 Intra band minimization:
   WEIMIN = 0.0010     energy-eigenvalue tresh-hold
   EBREAK =  0.33E-13  absolut break condition
   DEPER  =   0.30     relativ break condition  

   TIME   =   0.40     timestep for ELM

  volume/ion in A,a.u.               =       8.16        55.06
  Fermi-wavevector in a.u.,A,eV,Ry     =   1.390557  2.627771 26.308875  1.933648
  Thomas-Fermi vector in A             =   2.514480
 
 Write flags
   LWAVE        =      T    write WAVECAR
   LDOWNSAMPLE  =      F    k-point downsampling of WAVECAR
   LCHARG       =      T    write CHGCAR
   LVTOT        =      F    write LOCPOT, total local potential
   LVHAR        =      F    write LOCPOT, Hartree potential only
   LELF         =      F    write electronic localiz. function (ELF)
   LORBIT       =      0    0 simple, 1 ext, 2 COOP (PROOUT), +10 PAW based schemes


 Dipole corrections
   LMONO  =      F    monopole corrections only (constant potential shift)
   LDIPOL =      F    correct potential (dipole corrections)
   IDIPOL =      0    1-x, 2-y, 3-z, 4-all directions 
   EPSILON=  1.0000000 bulk dielectric constant

 Exchange correlation treatment:
   GGA     =    --    GGA type
   LEXCH   =     8    internal setting for exchange type
   LIBXC   =     F    Libxc                    
   VOSKOWN =     0    Vosko Wilk Nusair interpolation
   EXXOEP  =     0    0=HF, 1=EXX-LHF (local Hartree Fock) 2=EXX OEP
   LHFCALC =     T    Hartree Fock is set to
   LSYMGRAD=     F    symmetrize gradient (conserves proper symmetry)
   PRECFOCK=fast      Normal, Fast or Accurate (Low or Medium for compatibility)
   LRHFCALC=     F    long range Hartree Fock
   LRSCOR  =     F    long range correlation only (use DFT for short range part)
   LTHOMAS =     F    Thomas Fermi screening in HF
   LMODELHF=     F    short range full HF, long range fraction AEXX
   FOCKCORR=     1    mode to apply convergence corrections
   LFOCKACE=     T    use Adeptively-Compressed-Exchange operator
   ENCUT4O =  -1.0   cutoff for four orbital integrals eV
   LMAXFOCK=     4    L truncation for augmentation on plane wave grid
   LMAXFOCKAE=  -1    L truncation for all-electron charge restoration on plane wave grid
   NMAXFOCKAE=   1    number of basis functions for all-electron charge restoration
   LFOCKAEDFT=     F  apply the AE augmentation even for DFT
   NKREDX  =     1    reduce k-point grid by
   NKREDY  =     1    reduce k-point grid by
   NKREDZ  =     1    reduce k-point grid by
   SHIFTRED=     F    shift reduced grid of Gamma
   HFKIDENT=     F    idential grid for each k-point
   ODDONLY =     F    use only odd q-grid points
   EVENONLY=     F    use only even q-grid points
   HFALPHA =   -1.0000 decay constant for conv. correction
   MCALPHA =    0.0000 extent of test-charge in conv. correction in multipole expansion
   AEXX    =    0.2500 exact exchange contribution
   HFSCREEN=    0.2000 screening length (either q_TF or 0.3 A-1)
   HFSCREENC=   0.2000 screening length for correlation (either q_TF or 0.3 A-1)
   HFRCUT  =    0.0000 spherical cutoff for potential kernel
   ALDAX   =    0.7500 LDA exchange part
   AGGAX   =    0.7500 GGA exchange part
   ALDAC   =    1.0000 LDA correlation
   AGGAC   =    1.0000 GGA correlation
   ENCUTFOCK=  -1.0 apply spherical cutoff to Coloumb kernel
   NBANDSGWLOW=     1    first orbital included in HF term
   NBLOCK_FOCK=    64    blocking factor in FOCK_ACC

 Linear response parameters
   LEPSILON=     F    determine dielectric tensor
   LRPA    =     F    only Hartree local field effects (RPA)
   LNABLA  =     F    use nabla operator in PAW spheres
   LVEL    =     F    velocity operator in full k-point grid
   CSHIFT  =0.1000    complex shift for real part using Kramers Kronig
   OMEGAMAX=  -1.0    maximum frequency
   DEG_THRESHOLD= 0.2000000E-02 threshold for treating states as degnerate
   RTIME   =   -0.100 relaxation time in fs
  (WPLASMAI=    0.000 imaginary part of plasma frequency in eV, 0.658/RTIME)
   DFIELD  = 0.0000000 0.0000000 0.0000000 field for delta impulse in time
 
  Optional k-point grid parameters
   LKPOINTS_OPT  =     F    use optional k-point grid
   KPOINTS_OPT_MODE=     1    mode for optional k-point grid
 
 Orbital magnetization related:
   ORBITALMAG=     F  switch on orbital magnetization
   LCHIMAG   =     F  perturbation theory with respect to B field
   DQ        =  0.001000  dq finite difference perturbation B field
   LLRAUG    =     F  two centre corrections for induced B field
   LBONE     =     F  B-component reconstruction in AE one-centre
   LVGVCALC  =     T  calculate vGv susceptibility
   LVGVAPPL  =     F  apply vGv susceptibility instead of pGv for G=0

 Random number generation:
   RANDOM_GENERATOR = DEFAULT
   PCG_SEED         = not used


--------------------------------------------------------------------------------------------------------


 conjugate gradient relaxation of ions
 charge density and potential will be updated during run
 spin polarized calculation
 Variant of blocked Davidson
 Davidson routine will perform the subspace rotation
 perform sub-space diagonalisation
    after iterative eigenvector-optimisation
 Kerker-like  mixing scheme
 using additional bands           218
 reciprocal scheme for non local part
 use partial core corrections
 calculate Harris-corrections to forces 
   (improved forces if not selfconsistent)
 use gradient corrections 
 use of overlap-Matrix (Vanderbilt PP)
 Gauss-broadening in eV      SIGMA  =   0.01


--------------------------------------------------------------------------------------------------------


  energy-cutoff  :      400.00
  volume of cell :     1762.31
      direct lattice vectors                 reciprocal lattice vectors
    12.078900337  0.000000000  0.000000000     0.082788993  0.000000000  0.000000000
     0.000000000 12.078900337  0.000000000     0.000000000  0.082788993  0.000000000
     0.000000000  0.000000000 12.078900337     0.000000000  0.000000000  0.082788993

  length of vectors
    12.078900337 12.078900337 12.078900337     0.082788993  0.082788993  0.082788993


 
 k-points in units of 2pi/SCALE and weight: Gamma-point only                        
   0.00000000  0.00000000  0.00000000       1.000
 
 k-points in reciprocal lattice and weights: Gamma-point only                        
   0.00000000  0.00000000  0.00000000       1.000
 
 position of ions in fractional coordinates (direct lattice) 
   0.00113605  0.99918565  0.00000034
   0.00125718  0.00047388  0.32632568
   0.00150236  0.00010471  0.67100792
   0.00123500  0.32564834  0.00010506
   0.00012069  0.32633952  0.32585390
   0.00252786  0.32612452  0.67380691
   0.00083701  0.67082751  0.99930681
   0.00261849  0.67364690  0.32725529
   0.00079651  0.67394638  0.65203107
   0.32970933  0.99959833  0.99977102
   0.33001771  0.00011714  0.32779397
   0.33022793  0.00024987  0.67166561
   0.32990276  0.32753425  0.00024749
   0.34579842  0.32830714  0.32844911
   0.34497335  0.32874054  0.67184036
   0.32886016  0.67141842  0.99980751
   0.34609284  0.67160444  0.32827652
   0.32986911  0.67003789  0.67011107
   0.67058467  0.99893717  0.99975127
   0.67234910  0.99843614  0.32761847
   0.67044052  0.99981654  0.67174266
   0.67247892  0.32677658  0.99793726
   0.67336236  0.32866137  0.32773826
   0.67331725  0.32871061  0.67048109
   0.67247431  0.67155486  0.99866358
   0.67267096  0.67009742  0.32830427
   0.67328659  0.67156516  0.67031781
   0.00052883  0.16989162  0.17012671
   0.00092801  0.16984121  0.49957027
   0.00115434  0.15424259  0.82925020
   0.00087841  0.49949736  0.16986497
   0.97211947  0.47630009  0.47668784
   0.00123139  0.50049785  0.84759041
   0.00111231  0.82884844  0.15460803
   0.00116864  0.84897487  0.49945712
   0.00049901  0.82722242  0.82750994
   0.33011247  0.17031183  0.17058001
   0.34549895  0.17055341  0.49988619
   0.33059284  0.17029378  0.82883381
   0.34553206  0.49971372  0.17077313
   0.35298625  0.50021283  0.50031131
   0.34626309  0.49959199  0.84687249
   0.33055932  0.82861266  0.17055658
   0.34642988  0.84682230  0.49966804
   0.34511644  0.82854692  0.82868279
   0.67183963  0.16994400  0.17011087
   0.67171483  0.15571474  0.49956703
   0.67236394  0.17111379  0.82885419
   0.67179221  0.49947920  0.15538404
   0.67245997  0.49969194  0.49970942
   0.67380161  0.49912993  0.82716716
   0.67235213  0.82849440  0.17130312
   0.67370523  0.82714266  0.49914478
   0.67209509  0.82825094  0.82828369
   0.17174614  0.99965953  0.17064471
   0.17380408  0.00180754  0.49963944
   0.17316286  0.99865418  0.82876476
   0.17297002  0.32905647  0.17117044
   0.17438997  0.32040366  0.50067199
   0.17207782  0.32758246  0.82855265
   0.17330380  0.67008328  0.17096221
   0.17515053  0.69647058  0.49846974
   0.17210031  0.67133431  0.82902003
   0.50054479  0.99951603  0.17048322
   0.50188350  0.99993801  0.49966560
   0.50095459  0.00020780  0.82865039
   0.50176968  0.32747795  0.16881169
   0.50386031  0.32724250  0.49968953
   0.50198203  0.32744776  0.82951750
   0.50151841  0.67154058  0.15415586
   0.50219061  0.67154868  0.49993308
   0.50176583  0.67068941  0.82814884
   0.82954866  0.99905417  0.17107033
   0.82938500  0.00001539  0.49883529
   0.82839264  0.99925473  0.82909752
   0.82936720  0.32684169  0.15424692
   0.82478975  0.32361949  0.49962155
   0.84704328  0.32688780  0.82935424
   0.82981030  0.67067227  0.17031995
   0.84858722  0.67389162  0.50098476
   0.82995714  0.67253991  0.82838165
   0.17173224  0.17020814  0.99982654
   0.17297527  0.17112667  0.32935592
   0.17350337  0.17063590  0.67045549
   0.17362682  0.49946242  0.00181569
   0.17443447  0.50043773  0.32068234
   0.17433584  0.49870251  0.69658659
   0.17302844  0.82849648  0.99880678
   0.17237191  0.82866247  0.32770249
   0.17306329  0.82988305  0.67158669
   0.50054035  0.17002300  0.99968967
   0.50177121  0.16900781  0.32764126
   0.50165091  0.16939768  0.67170318
   0.50194180  0.49890871  0.99959305
   0.50390220  0.50023051  0.32682538
   0.50216654  0.50015140  0.67161493
   0.50097245  0.82951491  0.99969735
   0.50206019  0.82834349  0.32706892
   0.50167389  0.82855211  0.67074667
   0.82953531  0.15377602  0.99940363
   0.82942763  0.16974932  0.32691544
   0.82965566  0.17048615  0.67109146
   0.82958179  0.49982180  0.99899020
   0.82474967  0.49872155  0.32297263
   0.84973174  0.49950807  0.67415621
   0.82848164  0.82853165  0.99928885
   0.84678943  0.82855360  0.32763517
   0.82823824  0.84422609  0.67192903
   0.00210754  0.16151643  0.00134505
   0.00434350  0.16697025  0.33117458
   0.00351458  0.16510226  0.66649412
   0.00283139  0.49802601  0.00297891
   0.01048405  0.49850103  0.33150725
   0.02758216  0.47100121  0.70340315
   0.00287042  0.83118801  0.99716465
   0.00477897  0.83944335  0.31994458
   0.00526740  0.83679800  0.66556974
   0.33417106  0.16637964  0.99997037
   0.33712607  0.16809875  0.33184033
   0.33866460  0.16699306  0.66699620
   0.33999402  0.49899805  0.00420899
   0.33713434  0.49809922  0.33604402
   0.33439490  0.49914489  0.66286831
   0.33603549  0.83106937  0.99888650
   0.33774170  0.83280033  0.33141667
   0.33779365  0.83169221  0.66686604
   0.66899925  0.16440887  0.99849279
   0.66874542  0.16404001  0.33017334
   0.66944707  0.16466463  0.66754850
   0.66927953  0.49857827  0.99685241
   0.66445164  0.49956005  0.32068867
   0.67417927  0.49888258  0.66613690
   0.66798040  0.83137966  0.99924006
   0.67152622  0.83084663  0.33072823
   0.66496398  0.83720007  0.66656959
   0.00229225  0.00019925  0.16400178
   0.00294509  0.00389163  0.49829525
   0.00249713  0.99671422  0.83162117
   0.00487555  0.33104364  0.16558117
   0.00979088  0.33081571  0.49801836
   0.00467014  0.31697419  0.84055749
   0.00342027  0.66622163  0.16582097
   0.02620739  0.70330537  0.47738311
   0.00418632  0.66689260  0.83247595
   0.33417122  0.99926441  0.16692393
   0.33991052  0.00407037  0.49908051
   0.33607089  0.99855311  0.83182943
   0.33710119  0.33155523  0.16835476
   0.33733759  0.33601290  0.49815992
   0.33785174  0.33129499  0.83335814
   0.33832163  0.66657226  0.16590969
   0.33463971  0.66250794  0.49920037
   0.33749659  0.66667582  0.83162309
   0.66882902  0.99792718  0.16642841
   0.66920808  0.99774139  0.49872621
   0.66828229  0.99933670  0.83203610
   0.66849918  0.32996358  0.16206129
   0.66456792  0.32132174  0.49993172
   0.67118907  0.33055763  0.83093337
   0.66955284  0.66717983  0.16300881
   0.67303342  0.66615393  0.49820544
   0.66681363  0.66668072  0.83389148
   0.17071843  0.16795726  0.16852612
   0.17361063  0.16575252  0.49859585
   0.17193473  0.16431578  0.83158441
   0.17358067  0.49856332  0.16609853
   0.93194898  0.57104546  0.57386262
   0.18333270  0.50034068  0.84604152
   0.17170041  0.83087122  0.16519884
   0.18303613  0.84583003  0.50018865
   0.17289417  0.83064638  0.83072094
   0.50163273  0.16619344  0.16659971
   0.50292374  0.16539057  0.49895528
   0.50218249  0.16671816  0.83185271
   0.50295842  0.49900422  0.16382451
   0.50696936  0.49856406  0.49915218
   0.50360914  0.49811746  0.83176061
   0.50206785  0.83111022  0.16544383
   0.50347595  0.83175799  0.49839701
   0.50336780  0.83152768  0.83163754
   0.83352523  0.16304820  0.16331230
   0.83477261  0.16513273  0.49838498
   0.83459805  0.16232582  0.83162616
   0.83481715  0.49913240  0.16288159
   0.81619718  0.46739844  0.46716974
   0.83719973  0.49892013  0.83426676
   0.83482461  0.83077792  0.16474504
   0.83740767  0.83686331  0.49725254
   0.83343690  0.83737431  0.83567264
   0.16995303  0.99808194  0.99900822
   0.17119608  0.00097684  0.33065877
   0.17111825  0.00106399  0.66785144
   0.17133324  0.33008456  0.00128150
   0.17291452  0.33678957  0.33698606
   0.18040718  0.32912157  0.66366330
   0.17026402  0.66750132  0.00094479
   0.17891847  0.66370377  0.33085423
   0.16993173  0.66386716  0.66227164
   0.50106293  0.99870798  0.99914082
   0.50233146  0.99845603  0.33144215
   0.50129417  0.99959362  0.66674375
   0.50226108  0.33095143  0.99859048
   0.50379824  0.33096055  0.33060330
   0.50348534  0.33191011  0.66731762
   0.50175296  0.66639786  0.99651562
   0.50362427  0.66681672  0.33103138
   0.50239358  0.66618157  0.66624674
   0.83325463  0.99616676  0.99951450
   0.83507602  0.00019519  0.33092106
   0.83395797  0.00177109  0.66652664
   0.83496372  0.32941557  0.99723018
   0.83631766  0.32391932  0.31874949
   0.83837455  0.33014154  0.66624526
   0.83444779  0.66696559  0.99867461
   0.83872881  0.66552317  0.33103385
   0.82383491  0.69069473  0.67886458
 
 position of ions in cartesian coordinates  (Angst):
   0.01372228 12.06906389  0.00000406
   0.01518535  0.00572392  3.94165531
   0.01814687  0.00126482  8.10503778
   0.01491748  3.93347384  0.00126898
   0.00145778  3.94182250  3.93595680
   0.03053376  3.93922562  8.13884655
   0.01011014  8.10285870 12.07052734
   0.03162848  8.13691379  3.95288400
   0.00962092  8.14053115  7.87581831
   3.98252618 12.07404865 12.07613455
   3.98625098  0.00141493  3.95939073
   3.98879030  0.00301810  8.11298196
   3.98486252  3.95625356  0.00298939
   4.17686470  3.96558917  3.96730410
   4.16689871  3.97082419  8.11509276
   3.97226915  8.10999624 12.07657532
   4.18042095  8.11224312  3.96521943
   3.98445613  8.09332092  8.09420479
   8.09992542 12.06606249 12.07589598
   8.12123774 12.06001059  3.95727080
   8.09818425 12.07668439  8.11391263
   8.12280583  3.94710176 12.05398470
   8.13347678  3.96986787  3.95871776
   8.13293197  3.97046269  8.09867432
   8.12275011  8.11164423 12.06275784
   8.12512554  8.09404001  3.96555453
   8.13256161  8.11176869  8.09670198
   0.00638766  2.05210390  2.05494356
   0.01120929  2.05149506  6.03425948
   0.01394314  1.86308085 10.01643047
   0.01061019  6.03337886  2.05178208
  11.74213417  5.75318127  5.75786495
   0.01487390  6.04546367 10.23796013
   0.01343554 10.01157775  1.86749503
   0.01411586 10.25468281  6.03289283
   0.00602753  9.99193715  9.99541015
   3.98739565  2.05717959  2.06041893
   4.17324736  2.06009769  6.03807544
   3.99319792  2.05696160 10.01140101
   4.17364734  6.03599218  2.06275162
   4.26368573  6.04202093  6.04321041
   4.18247738  6.03452182 10.22928837
   3.99279303 10.00872976  2.06013597
   4.18449202 10.22868220  6.03544047
   4.16862710 10.00793568 10.00957689
   8.11508397  2.05273669  2.05475220
   8.11357646  1.88086285  6.03422038
   8.12141704  2.06686637 10.01164713
   8.11451115  6.03315945  1.87686829
   8.12257691  6.03572909  6.03594025
   8.13878247  6.02894064  9.99126969
   8.12127434 10.00730130  2.06915327
   8.13761837  9.99097380  6.02912006
   8.11816962 10.00436059 10.00475618
   2.07450449 12.07478783  2.06120040
   2.09936214  0.02183307  6.03509502
   2.09161693 12.06264436 10.01056690
   2.08928769  3.97464026  2.06755068
   2.10643903  3.87012388  6.04756710
   2.07851080  3.95683585 10.00800484
   2.09331938  8.09386914  2.06503547
   2.11562584  8.41259878  6.02096632
   2.07878244  8.10898021 10.01365030
   6.04603069 12.07305447  2.05924988
   6.06220083 12.07815156  6.03541104
   6.05098051  0.00250999 10.00918547
   6.06082596  3.95557357  2.03905958
   6.08607849  3.95272960  6.03570002
   6.06339097  3.95520892 10.01965919
   6.05779085  8.11147179  1.86203332
   6.06591029  8.11156954  6.03864181
   6.06077940  8.10119052 10.00312726
  10.02003564 12.06747581  2.06634149
  10.01805876  0.00018591  6.02538177
  10.00607219 12.06989833 10.01458634
  10.01784372  3.94788821  1.86313322
   9.96255321  3.90896756  6.03487888
  10.23135140  3.94844512 10.01768717
  10.02319596  8.10098355  2.05727771
  10.25000043  8.13986978  6.05134504
  10.02496958  8.12354250 10.00593935
   2.07433661  2.05592713 12.07680507
   2.08935110  2.06702194  3.97825735
   2.09572995  2.06109403  8.09836508
   2.09722107  6.03295676  0.02193151
   2.10697663  6.04473747  3.87349004
   2.10578525  6.02377797  8.41400003
   2.08999327 10.00732641 12.06448760
   2.08206312 10.00933142  3.95828567
   2.09041424 10.02407469  8.11202869
   6.04597701  2.05369085 12.07515185
   6.06084444  2.04142851  3.95754618
   6.05939138  2.04613771  8.11343573
   6.06290503  6.02626853 12.07398479
   6.08658448  6.04223451  3.94769124
   6.06561957  6.04127890  8.11236986
   6.05119629 10.01962792 12.07524472
   6.06433495 10.00547847  3.95063285
   6.05966888 10.00799835  8.10188220
  10.01987437  1.85744518 12.07169681
  10.01857364  2.05038514  3.94877903
  10.02132799  2.05928519  8.10604690
  10.02043574  6.03729767 12.06670304
   9.96206911  6.02400789  3.90115417
  10.26382498  6.03350818  8.14306564
  10.00714719 10.00775124 12.07031042
  10.22828519 10.00801635  3.95747256
  10.00420710 10.19732275  8.11616375
   0.02545677  1.95094083  0.01624667
   0.05246471  2.01681698  4.00022478
   0.04245224  1.99425370  8.05051606
   0.03420013  6.01560652  0.03598197
   0.12663581  6.02134424  4.00424302
   0.33316212  5.68917670  8.49633649
   0.03467147 10.03983708 12.04465241
   0.05772473 10.13955259  3.86457873
   0.06362440 10.10759970  8.03935055
   4.03641896  2.00968310 12.07854247
   4.07211223  2.03044808  4.00826633
   4.09069593  2.01709247  8.05658057
   4.10675391  6.02734767  0.05083993
   4.07221209  6.01649079  4.05904224
   4.03912265  6.02912141  8.00672023
   4.05893914 10.03840406 12.06545052
   4.07954836 10.05931213  4.00314894
   4.08017585 10.04592736  8.05500842
   8.08077532  1.98587841 12.06069489
   8.07770932  1.98142298  3.98813085
   8.08618442  1.98896765  8.06325179
   8.08416073  6.02227728 12.04088088
   8.02584512  6.03413611  3.87356654
   8.14334417  6.02595299  8.04620123
   8.06846869 10.04215204 12.06972111
   8.11129826 10.03571369  3.99483337
   8.03203365 10.11245617  8.05142760
   0.02768787  0.00240675  1.98096112
   0.03557347  0.04700658  6.01885861
   0.03016262 12.03921172 10.04506927
   0.05889132  3.99864312  2.00003850
   0.11826310  3.99589005  6.01551415
   0.05641016  3.82869961 10.15301021
   0.04131311  8.04722462  2.00293496
   0.31655642  8.49515548  5.76626304
   0.05056619  8.05532929 10.05539405
   4.03642080 12.07001524  2.01625746
   4.10574524  0.04916565  6.02834377
   4.05936676 12.06142355 10.04758477
   4.07181170  4.00482257  2.03354042
   4.07466718  4.05866632  6.01722400
   4.08087755  4.00167914 10.06604986
   4.08655324  8.05145995  2.00400666
   4.04207966  8.00236741  6.02979153
   4.07658768  8.05271076 10.04509242
   8.07871904 12.05386298  2.01027214
   8.08329766 12.05161879  6.02406423
   8.07211518 12.07088839 10.05008115
   8.07473496  3.98559721  1.95752223
   8.02724971  3.88121332  6.03862537
   8.10722592  3.99277273 10.03676132
   8.08746206  8.05879867  1.96896716
   8.12950363  8.04640692  6.01777380
   8.05437541  8.05277003 10.07249213
   2.06209090  2.02873898  2.03561016
   2.09702552  2.00210821  6.02248963
   2.07678247  1.98475391 10.04462520
   2.09666356  6.02209666  2.00628760
  11.25691885  6.89760116  6.93162945
   2.21445737  6.04356519 10.21925125
   2.07395212 10.03601066  1.99542031
   2.21087513 10.21669658  6.04172890
   2.08837146 10.03329485 10.03419544
   6.05917180  2.00743397  2.01234126
   6.07476575  1.99773616  6.02683110
   6.06581221  2.01377202 10.04786600
   6.07518461  6.02742219  1.97881993
   6.12363234  6.02210558  6.02920941
   6.08304458  6.01671112 10.04675351
   6.06442757 10.03889755  1.99837953
   6.08143582 10.04672181  6.02008784
   6.08012950 10.04394001 10.04526701
  10.06806819  1.96944301  1.97263302
  10.08313510  1.99462181  6.01994248
  10.08102663  1.96071740 10.04512946
  10.08367316  6.02897056  1.96743044
   9.85876444  5.64565919  5.64289673
  10.11245208  6.02640653 10.07702504
  10.08376323 10.03488370  1.98993887
  10.11496375 10.10838854  6.00626387
  10.06700121 10.11456085 10.09400657
   2.05284573 12.05573234 12.06692073
   2.06786038  0.01179915  3.99399428
   2.06692035  0.01285181  8.06691096
   2.06951718  3.98705856  0.01547910
   2.08861731  4.06804767  4.07042098
   2.17912030  3.97542667  8.01632288
   2.05660209  8.06268187  0.01141198
   2.16113833  8.01681172  3.99635529
   2.05258846  8.01878525  7.99951311
   6.05228922 12.06329412 12.06852238
   6.06761159 12.06025087  4.00345673
   6.05508230 12.07399174  8.05353130
   6.06676158  3.99752935 12.06187494
   6.08532868  3.99763954  3.99332432
   6.08154922  4.00910914  8.06046298
   6.06062399  8.04935337 12.03681284
   6.08322734  8.05441270  3.99849506
   6.06836201  8.04674077  8.04752802
  10.06479964 12.03259898 12.07303608
  10.08680000  0.00235769  3.99716245
  10.07329515  0.02139284  8.05090885
  10.08544354  3.97897787 12.04544396
  10.10179773  3.91258915  3.85014335
  10.12664263  3.98774675  8.04751009
  10.07921172  8.05621084 12.06289102
  10.13092175  8.03878808  3.99852489
   9.95101979  8.34283278  8.19993766
 


--------------------------------------------------------------------------------------------------------


 k-point   1 :   0.0000 0.0000 0.0000  plane waves:   31919

 maximum and minimum number of plane-waves per node :     31919    31919

 maximum number of plane-waves:     31919
 maximum index in each direction: 
   IXMAX=   19   IYMAX=   19   IZMAX=   19
   IXMIN=  -19   IYMIN=  -19   IZMIN=  -19


 serial   3D FFT for wavefunctions
 parallel 3D FFT for charge:
    minimum data exchange during FFTs selected (reduces bandwidth)


 FFT grid for exact exchange (Hartree Fock) 
  NGX = 40; NGY = 40; NGZ = 40

 
 Radii for the augmentation spheres in the non-local exchange
 for species   1 augmentation radius   0.956 (default was   0.708)
       energy cutoff for augmentation   1600.0
 for species   2 augmentation radius   0.968 (default was   0.717)
       energy cutoff for augmentation   1600.0
 Maximum index for augmentation-charges in exchange           145
  SETUP_FOCK is finished

 total amount of memory used by VASP MPI-rank0   831014. kBytes
=======================================================================

   base      :      30000. kBytes
   nonl-proj :     114401. kBytes
   fftplans  :      71598. kBytes
   grid      :     206643. kBytes
   one-center:       1327. kBytes
   HF        :          9. kBytes
   nonlr-proj:       2883. kBytes
   wavefun   :     404153. kBytes
 
     INWAV:  cpu time      0.0000: real time      0.0003
 initial charge density was supplied:
 charge density of overlapping atoms calculated
 number of electron    1080.0000000 magnetization     216.0000000
 keeping initial charge density in first step


--------------------------------------------------------------------------------------------------------


 Maximum index for augmentation-charges          1820 (set IRDMAX)


--------------------------------------------------------------------------------------------------------


 First call to EWALD:  gamma=   0.147
 Maximum number of real-space cells 3x 3x 3
 Maximum number of reciprocal cells 3x 3x 3

    FEWALD:  cpu time      0.1290: real time      0.1293


--------------------------------------- Ionic step        1  -------------------------------------------




--------------------------------------- Iteration      1(   1)  ---------------------------------------


    POTLOK:  cpu time      0.1536: real time      0.1715
    SETDIJ:  cpu time      0.4724: real time      0.4739
     EDDAV:  cpu time      5.9524: real time      6.2008
       DOS:  cpu time      0.0007: real time      0.0007
    --------------------------------------------
      LOOP:  cpu time      6.5791: real time      6.8469

 eigenvalue-minimisations  :  3032
 total energy-change (2. order) : 0.6076313E+04  (-0.4508602E+05)
 number of electron    1080.0000000 magnetization     216.0000000
 augmentation part     1080.0000000 magnetization     216.0000000

 Free energy of the ion-electron system (eV)
  ---------------------------------------------------
  alpha Z        PSCENC =      2168.48047769
  Ewald energy   TEWEN  =    -59697.63667586
  -Hartree energ DENC   =    -23425.59546831
  -exchange      EXHF   =         0.00000000
  -V(xc)+E(xc)   XCENC  =      5435.91679655
  PAW double counting   =     66806.42260033   -72789.03182600
  entropy T*S    EENTRO =        -0.00006282
  eigenvalues    EBANDS =     -5270.98595925
  atomic energy  EATOM  =     92848.74296340
  Solvation  Ediel_sol  =         0.00000000
  ---------------------------------------------------
  free energy    TOTEN  =      6076.31284573 eV

  energy without entropy =     6076.31290854  energy(sigma->0) =     6076.31287714
  exchange ACFDT corr.  =         0.00000000  see jH, gK, PRB 81, 115126


--------------------------------------------------------------------------------------------------------




--------------------------------------- Iteration      1(   2)  ---------------------------------------


[...]
      0.03163      8.13691      3.95288         0.000019      0.000005     -0.000086
      0.00962      8.14053      7.87582         0.000200      0.000224     -0.000226
      3.98253     12.07405     12.07613         0.000017      0.000085      0.000052
      3.98625      0.00141      3.95939        -0.000331      0.000083     -0.000004
      3.98879      0.00302      8.11298        -0.000333      0.000056     -0.000043
      3.98486      3.95625      0.00299        -0.000101      0.000006      0.000062
      4.17686      3.96559      3.96730        -0.000064     -0.000005      0.000017
      4.16690      3.97082      8.11509        -0.000110      0.000001     -0.000030
      3.97227      8.11000     12.07658        -0.000083     -0.000037      0.000033
      4.18042      8.11224      3.96522        -0.000029     -0.000028     -0.000022
      3.98446      8.09332      8.09420        -0.000113     -0.000057     -0.000019
      8.09993     12.06606     12.07590         0.000027      0.000097      0.000064
      8.12124     12.06001      3.95727         0.000039      0.000054      0.000008
      8.09818     12.07668      8.11391         0.000068      0.000047     -0.000017
      8.12281      3.94710     12.05398         0.000057     -0.000005      0.000080
      8.13348      3.96987      3.95872         0.000035     -0.000011      0.000012
      8.13293      3.97046      8.09867         0.000007     -0.000007     -0.000036
      8.12275      8.11164     12.06276         0.000069     -0.000039      0.000037
      8.12513      8.09404      3.96555         0.000029     -0.000058     -0.000001
      8.13256      8.11177      8.09670         0.000050     -0.000058     -0.000047
      0.00639      2.05210      2.05494         0.000054     -0.000032      0.000026
      0.01121      2.05150      6.03426         0.000034      0.000027     -0.000062
      0.01394      1.86308     10.01643         0.000044     -0.000010      0.000015
      0.01061      6.03338      2.05178         0.000017     -0.000065      0.000004
     11.74213      5.75318      5.75786         0.000082     -0.000069     -0.000121
      0.01487      6.04546     10.23796         0.000001     -0.000011      0.000205
      0.01344     10.01158      1.86750         0.000041      0.000017      0.000033
      0.01412     10.25468      6.03289        -0.000007      0.000114     -0.000032
      0.00603      9.99194      9.99541         0.000062     -0.000019      0.000015
      3.98740      2.05718      2.06042        -0.000328      0.000029      0.000026
      4.17325      2.06010      6.03808        -0.000017      0.000035     -0.000061
      3.99320      2.05696     10.01140        -0.000373      0.000016      0.000012
      4.17365      6.03599      2.06275        -0.000042     -0.000085      0.000023
      4.26369      6.04202      6.04321        -0.000064     -0.000075     -0.000051
      4.18248      6.03452     10.22929        -0.000108     -0.000072      0.000004
      3.99279     10.00873      2.06014        -0.000326      0.000004      0.000009
      4.18449     10.22868      6.03544        -0.000042      0.000048     -0.000048
      4.16863     10.00794     10.00958        -0.000007      0.000008     -0.000015
      8.11508      2.05274      2.05475         0.000033      0.000075      0.000040
      8.11358      1.88086      6.03422         0.000042     -0.000230     -0.000037
      8.12142      2.06687     10.01165         0.000044      0.000021     -0.000005
      8.11451      6.03316      1.87687         0.000059     -0.000068     -0.000200
      8.12258      6.03573      6.03594        -0.000067     -0.000033     -0.000021
      8.13878      6.02894      9.99127         0.000037     -0.000073     -0.000021
      8.12127     10.00730      2.06915         0.000050     -0.000014      0.000041
      8.13762      9.99097      6.02912         0.000047     -0.000027     -0.000047
      8.11817     10.00436     10.00476         0.000026      0.000001      0.000011
      2.07450     12.07479      2.06120        -0.000042      0.000073      0.000002
      2.09936      0.02183      6.03510        -0.000017      0.000097     -0.000074
      2.09162     12.06264     10.01057        -0.000041      0.000040      0.000026
      2.08929      3.97464      2.06755        -0.000049     -0.000014      0.000006
      2.10644      3.87012      6.04757         0.000028     -0.000006     -0.000065
      2.07851      3.95684     10.00800        -0.000063     -0.000018      0.000011
      2.09332      8.09387      2.06504        -0.000035     -0.000060     -0.000006
      2.11563      8.41260      6.02097         0.000008      0.000017     -0.000056
      2.07878      8.10898     10.01365        -0.000036     -0.000060      0.000016
      6.04603     12.07305      2.05925        -0.000057      0.000089      0.000047
      6.06220     12.07815      6.03541        -0.000057      0.000064     -0.000036
      6.05098      0.00251     10.00919        -0.000043      0.000108      0.000005
      6.06083      3.95557      2.03906        -0.000040      0.000030      0.000485
      6.08608      3.95273      6.03570        -0.000024      0.000007     -0.000038
      6.06339      3.95521     10.01966        -0.000070     -0.000001     -0.000011
      6.05779      8.11147      1.86203        -0.000041     -0.000023     -0.000262
      6.06591      8.11157      6.03864        -0.000053     -0.000046     -0.000037
      6.06078      8.10119     10.00313        -0.000061     -0.000042     -0.000019
     10.02004     12.06748      2.06634        -0.000215      0.000087      0.000038
     10.01806      0.00019      6.02538         0.000096      0.000057     -0.000048
     10.00607     12.06990     10.01459         0.000078      0.000064      0.000007
     10.01784      3.94789      1.86313         0.000117      0.000010      0.000054
      9.96255      3.90897      6.03488         0.000011      0.000088     -0.000085
     10.23135      3.94845     10.01769         0.000075     -0.000006     -0.000005
     10.02320      8.10098      2.05728         0.000036     -0.000045      0.000044
     10.25000      8.13987      6.05135         0.000137     -0.000121     -0.000003
     10.02497      8.12354     10.00594         0.000112     -0.000067     -0.000098
      2.07434      2.05593     12.07681        -0.000044     -0.000008      0.000050
      2.08935      2.06702      3.97826        -0.000034      0.000046     -0.000020
      2.09573      2.06109      8.09837        -0.000034      0.000044     -0.000064
      2.09722      6.03296      0.02193        -0.000042     -0.000076      0.000071
      2.10698      6.04474      3.87349         0.000001     -0.000061     -0.000019
      2.10579      6.02378      8.41400        -0.000050     -0.000053      0.000001
      2.08999     10.00733     12.06449        -0.000029      0.000010      0.000046
      2.08206     10.00933      3.95829        -0.000053     -0.000011     -0.000020
      2.09041     10.02407      8.11203        -0.000022     -0.000005     -0.000015
      6.04598      2.05369     12.07515        -0.000048      0.000440      0.000077
      6.06084      2.04143      3.95755        -0.000066     -0.000001      0.000009
      6.05939      2.04614      8.11344        -0.000069      0.000017      0.000012
      6.06291      6.02627     12.07398        -0.000050     -0.000092      0.000057
      6.08658      6.04223      3.94769        -0.000018     -0.000037      0.000008
      6.06562      6.04128      8.11237        -0.000059     -0.000067     -0.000040
      6.05120     10.01963     12.07524        -0.000044      0.000040      0.000054
      6.06433     10.00548      3.95063        -0.000051      0.000000     -0.000006
      6.05967     10.00800      8.10188        -0.000050     -0.000009     -0.000018
     10.01987      1.85745     12.07170         0.000075      0.000046      0.000061
     10.01857      2.05039      3.94878         0.000072      0.000103     -0.000003
     10.02133      2.05929      8.10605         0.000023      0.000030     -0.000022
     10.02044      6.03730     12.06670         0.000103     -0.000069      0.000080
      9.96207      6.02401      3.90115         0.000024     -0.000050      0.000046
     10.26382      6.03351      8.14307         0.000236      0.000106     -0.000169
     10.00715     10.00775     12.07031         0.000085     -0.000007      0.000072
     10.22829     10.00802      3.95747         0.000070     -0.000006      0.000010
     10.00421     10.19732      8.11616         0.000101      0.000024     -0.000058
      0.02546      1.95094      0.01625         0.000034     -0.000136     -0.000039
      0.05246      2.01682      4.00022        -0.000035      0.000033      0.000063
      0.04245      1.99425      8.05052        -0.000045     -0.000036     -0.000024
      0.03420      6.01561      0.03598        -0.000048     -0.000066     -0.000035
      0.12664      6.02134      4.00424         0.000002      0.000061      0.000011
      0.33316      5.68918      8.49634        -0.000225     -0.000259      0.000409
      0.03467     10.03984     12.04465         0.000015      0.000003     -0.000057
      0.05772     10.13955      3.86458        -0.000052      0.000118     -0.000230
      0.06362     10.10760      8.03935        -0.000092     -0.000023      0.000038
      4.03642      2.00968     12.07854         0.000005      0.000006     -0.000058
      4.07211      2.03045      4.00827        -0.000028     -0.000042     -0.000019
      4.09070      2.01709      8.05658        -0.000058     -0.000062      0.000038
      4.10675      6.02735      0.05084        -0.000001      0.000030     -0.000032
      4.07221      6.01649      4.05904         0.000032      0.000023     -0.000059
      4.03912      6.02912      8.00672        -0.000111      0.000019      0.000020
      4.05894     10.03840     12.06545         0.000096     -0.000009     -0.000025
      4.07955     10.05931      4.00315        -0.000003      0.000050     -0.000034
      4.08018     10.04593      8.05501         0.000027      0.000007      0.000054
      8.08078      1.98588     12.06069        -0.000002      0.000029     -0.000031
      8.07771      1.98142      3.98813         0.000003      0.000008      0.000030
      8.08618      1.98897      8.06325        -0.000025     -0.000070      0.000014
      8.08416      6.02228     12.04088         0.000048      0.000042     -0.000112
      8.02585      6.03414      3.87357         0.000054     -0.000004      0.000016
      8.14334      6.02595      8.04620        -0.000204      0.000033      0.000066
      8.06847     10.04215     12.06972         0.000028      0.000004     -0.000017
      8.11130     10.03571      3.99483         0.000073      0.000002     -0.000002
      8.03203     10.11246      8.05143         0.000112     -0.000148      0.000073
      0.02769      0.00241      1.98096        -0.000028      0.000019     -0.000083
      0.03557      0.04701      6.01886         0.000053     -0.000022     -0.000004
      0.03016     12.03921     10.04507        -0.000045     -0.000157      0.000023
      0.05889      3.99864      2.00004        -0.000105     -0.000030      0.000020
      0.11826      3.99589      6.01551         0.000017      0.000031      0.000051
      0.05641      3.82870     10.15301        -0.000047     -0.000298      0.000074
      0.04131      8.04722      2.00293        -0.000009     -0.000017     -0.000025
      0.31656      8.49516      5.76626         0.000130      0.000570     -0.000350
      0.05057      8.05533     10.05539        -0.000069      0.000011      0.000024
      4.03642     12.07002      2.01626        -0.000022     -0.000005      0.000006
      4.10575      0.04917      6.02834         0.000010      0.000027      0.000034
      4.05937     12.06142     10.04758         0.000024     -0.000068     -0.000075
      4.07181      4.00482      2.03354         0.000002      0.000002      0.000035
      4.07467      4.05867      6.01722         0.000001     -0.000004      0.000004
      4.08088      4.00168     10.06605        -0.000069     -0.000051      0.000013
      4.08655      8.05146      2.00401         0.000077      0.000060     -0.000114
      4.04208      8.00237      6.02979        -0.000013     -0.000029      0.000016
      4.07659      8.05271     10.04509        -0.000012      0.000045      0.000022
      8.07872     12.05386      2.01027        -0.000029      0.000023      0.000019
      8.08330     12.05162      6.02406         0.000045     -0.000145      0.000082
      8.07212     12.07089     10.05008         0.000026     -0.000106     -0.000016
      8.07473      3.98560      1.95752         0.000065      0.000029      0.000094
      8.02725      3.88121      6.03863         0.000048      0.000060     -0.000010
      8.10723      3.99277     10.03676        -0.000018     -0.000019     -0.000034
      8.08746      8.05880      1.96897        -0.000054      0.000016     -0.000085
      8.12950      8.04641      6.01777        -0.000088      0.000039      0.000060
      8.05438      8.05277     10.07249         0.000108      0.000047     -0.000075
      2.06209      2.02874      2.03561        -0.000027     -0.000029     -0.000052
      2.09703      2.00211      6.02249         0.000058     -0.000031      0.000037
      2.07678      1.98475     10.04463        -0.000074     -0.000126     -0.000093
      2.09666      6.02210      2.00629        -0.000016     -0.000016     -0.000059
     11.25692      6.89760      6.93163         0.001206     -0.000231     -0.000290
      2.21446      6.04357     10.21925        -0.000035      0.000041      0.000019
      2.07395     10.03601      1.99542        -0.000029     -0.000012     -0.000060
      2.21088     10.21670      6.04173         0.000258      0.000060      0.000092
      2.08837     10.03329     10.03420         0.000002     -0.000049     -0.000024
      6.05917      2.00743      2.01234         0.000015      0.000078      0.000049
      6.07477      1.99774      6.02683         0.000062     -0.000058     -0.000002
      6.06581      2.01377     10.04787         0.000007      0.000022      0.000030
      6.07518      6.02742      1.97882         0.000062      0.000099     -0.000042
      6.12363      6.02211      6.02921         0.000001      0.000043      0.000008
      6.08304      6.01671     10.04675        -0.000077      0.000010     -0.000004
      6.06443     10.03890      1.99838         0.000041      0.000029     -0.000038
      6.08144     10.04672      6.02009         0.000020     -0.000002      0.000076
      6.08013     10.04394     10.04527         0.000063     -0.000001      0.000003
     10.06807      1.96944      1.97263        -0.000031      0.000040      0.000077
     10.08314      1.99462      6.01994        -0.000013     -0.000027      0.000079
     10.08103      1.96072     10.04513        -0.000043     -0.000105     -0.000042
     10.08367      6.02897      1.96743        -0.000036      0.000021      0.000001
      9.85876      5.64566      5.64290         0.000066      0.000566      0.000660
     10.11245      6.02641     10.07703        -0.000066      0.000042     -0.000037
     10.08376     10.03488      1.98994        -0.000061      0.000039     -0.000029
     10.11496     10.10839      6.00626         0.000006     -0.000008      0.000119
     10.06700     10.11456     10.09401         0.000013     -0.000175     -0.000120
      2.05285     12.05573     12.06692         0.000133     -0.000114     -0.000089
      2.06786      0.01180      3.99399        -0.000032     -0.000016      0.000008
      2.06692      0.01285      8.06691        -0.000097     -0.000104      0.000008
      2.06952      3.98706      0.01548         0.000015     -0.000060     -0.000060
      2.08862      4.06805      4.07042        -0.000028     -0.000006      0.000016
      2.17912      3.97543      8.01632        -0.000059      0.000032     -0.000010
      2.05660      8.06268      0.01141         0.000056      0.000006     -0.000007
      2.16114      8.01681      3.99636         0.000130      0.000019     -0.000110
      2.05259      8.01879      7.99951        -0.000104      0.000020     -0.000008
      6.05229     12.06329     12.06852         0.000054      0.000027     -0.000034
      6.06761     12.06025      4.00346         0.000027     -0.000009      0.000050
      6.05508     12.07399      8.05353         0.000048     -0.000049      0.000034
      6.06676      3.99753     12.06187         0.000052      0.000144      0.000066
      6.08533      3.99764      3.99332         0.000018      0.000011      0.000116
      6.08155      4.00911      8.06046        -0.000059     -0.000044     -0.000030
      6.06062      8.04935     12.03681         0.000062      0.000020     -0.000167
      6.08323      8.05441      3.99850         0.000031      0.000069      0.000013
      6.06836      8.04674      8.04753        -0.000076      0.000037      0.000082
     10.06480     12.03260     12.07304        -0.000055     -0.000096     -0.000037
     10.08680      0.00236      3.99716        -0.000037      0.000005      0.000034
     10.07330      0.02139      8.05091         0.000001     -0.000119      0.000043
     10.08544      3.97898     12.04544        -0.000012     -0.000088     -0.000032
     10.10180      3.91259      3.85014         0.000061      0.000244      0.000402
     10.12664      3.98775      8.04751        -0.000062      0.000015     -0.000013
     10.07921      8.05621     12.06289         0.000008      0.000040      0.000022
     10.13092      8.03879      3.99852         0.000002      0.000009      0.000053
      9.95102      8.34283      8.19994         0.000147     -0.000398     -0.000272
 -----------------------------------------------------------------------------------
    total drift:                               -1.523188      3.409326      1.610950


--------------------------------------------------------------------------------------------------------



  FREE ENERGIE OF THE ION-ELECTRON SYSTEM (eV)
  ---------------------------------------------------
  free  energy   TOTEN  =     -1239.13415308 eV

  energy  without entropy=    -1239.13415308  energy(sigma->0) =    -1239.13415308
 


--------------------------------------------------------------------------------------------------------


    POTLOK:  cpu time      5.1097: real time      5.1247


--------------------------------------------------------------------------------------------------------




--------------------------------------------------------------------------------------------------------


  
 reached required accuracy - stopping structural energy minimisation
 writing wavefunctions
     LOOP+:  cpu time   1984.8115: real time   1998.5312
    4ORBIT:  cpu time      0.0000: real time      0.0000

 total amount of memory used by VASP MPI-rank0  1035275. kBytes
=======================================================================

   base      :      30000. kBytes
   nonl-proj :     114401. kBytes
   fftplans  :      71598. kBytes
   grid      :     206643. kBytes
   one-center:       1327. kBytes
   HF        :          9. kBytes
   nonlr-proj:       7824. kBytes
   wavefun   :     404153. kBytes
   fock_wrk  :     199320. kBytes
 
  
  
 General timing and accounting informations for this job:
 ========================================================
  
                  Total CPU time used (sec):     2003.439
                            User time (sec):     1997.313
                          System time (sec):        6.126
                         Elapsed time (sec):     2018.140
  
                   Maximum memory used (kb):     2798416.
                   Average memory used (kb):          N/A
  
                          Minor page faults:       560051
                          Major page faults:           85
                 Voluntary context switches:       100376
