 vasp.6.3.2 27Jun22 (build Aug 05 2024 15:42:26) complex                        
  
 executed on             LinuxIFC date 2025.06.04  20:33:56
 running  294 mpi-ranks, with    1 threads/rank
 each image running on   42 cores
 distrk:  each k-point on   42 cores,    1 groups
 distr:  one band on NCORE=   1 cores,   42 groups


--------------------------------------------------------------------------------------------------------


 INCAR:
   ADDGRID = True
   ALGO = Fast
   EDIFF = 1e-06
   EDIFFG = -0.05
   ENCUT = 520.0
   IBRION = 1
   ISIF = 2
   ISMEAR = 0
   ISPIN = 2
   ISYM = 0
   LASPH = True
   LDAU = True
   LDAUJ = 0 0 0 0
   LDAUL = 0 0 2 0
   LDAUPRINT = 1
   LDAUTYPE = 2
   LDAUU = 0 0 4.38 0
   LMAXMIX = 4
   LORBIT = 11
   LREAL = False
   LWAVE = False
   MAGMOM = 93*0.6
   NELM = 100
   NELMIN = 3
   NSW = 450
   POTIM = 0.2
   PREC = Accurate
   SIGMA = 0.05
   IMAGES = 7
   SPRING = -5.0
   ICHAIN = 0
   LCLIMB = .TRUE.
   LNEBCELL = .FALSE.
   IOPT = 3

 POTCAR:   PAW_PBE Li_sv 23Jan2001                
 POTCAR:   PAW_PBE Nb_pv 08Apr2002                
 POTCAR:   PAW_PBE Mo_pv 08Apr2002                
 POTCAR:   PAW_PBE O 08Apr2002                    
 POTCAR:   PAW_PBE Li_sv 23Jan2001                
   VRHFIN =Li: 1s2s2p                                                                               
   LEXCH  = PE                                                                                      
   EATOM  =   202.7858 eV,   14.9043 Ry                                                             
                                                                                                    
   TITEL  = PAW_PBE Li_sv 23Jan2001                                                                 
   LULTRA =        F    use ultrasoft PP ?                                                          
   IUNSCR =        0    unscreen: 0-lin 1-nonlin 2-no                                               
   RPACOR =     .000    partial core radius                                                         
   POMASS =    7.010; ZVAL   =    3.000    mass and valenz                                          
   RCORE  =    2.050    outmost cutoff radius                                                       
   RWIGS  =    2.050; RWIGS  =    1.085    wigner-seitz radius (au A)                               
   ENMAX  =  271.649; ENMIN  =  203.737 eV                                                          
   ICORE  =        2    local potential                                                             
   LCOR   =        T    correct aug charges                                                         
   LPAW   =        T    paw PP                                                                      
   EAUG   =  428.394                                                                                
   RMAX   =    2.797    core radius for proj-oper                                                   
   RAUG   =    1.300    factor for augmentation sphere                                              
   RDEP   =    2.094    radius for radial grids                                                     
   RDEPT  =    1.550    core radius for aug-charge                                                  
   QCUT   =   -4.468; QGAM   =    8.937    optimization parameters                                  
                                                                                                    
   Description                                                                                      
     l     E      TYP  RCUT    TYP  RCUT                                                            
     0   .000     23  1.550                                                                         
     0   .000     23  2.050                                                                         
     0   .000     23  1.550                                                                         
     0   .000     23  2.050                                                                         
     1  -.200     23  2.050                                                                         
     1  1.500     23  2.050                                                                         
     2   .000      7  1.550                                                                         
  local pseudopotential read in
  atomic valenz-charges read in
  non local Contribution for L=           0  read in
    real space projection operators read in
  non local Contribution for L=           0  read in
    real space projection operators read in
  non local Contribution for L=           1  read in
    real space projection operators read in
  non local Contribution for L=           1  read in
    real space projection operators read in
    PAW grid and wavefunctions read in
 
   number of l-projection  operators is LMAX  =           4
   number of lm-projection operators is LMMAX =           8
 
 POTCAR:   PAW_PBE Nb_pv 08Apr2002                
   VRHFIN =Nb: 4p5s4d                                                                               
   LEXCH  = PE                                                                                      
   EATOM  =  1043.3919 eV,   76.6871 Ry                                                             
                                                                                                    
   TITEL  = PAW_PBE Nb_pv 08Apr2002                                                                 
   LULTRA =        F    use ultrasoft PP ?                                                          
   IUNSCR =        1    unscreen: 0-lin 1-nonlin 2-no                                               
   RPACOR =    2.200    partial core radius                                                         
   POMASS =   92.000; ZVAL   =   11.000    mass and valenz                                          
   RCORE  =    2.750    outmost cutoff radius                                                       
   RWIGS  =    2.840; RWIGS  =    1.503    wigner-seitz radius (au A)                               
   ENMAX  =  208.608; ENMIN  =  156.456 eV                                                          
   RCLOC  =    2.201    cutoff for local pot                                                        
   LCOR   =        T    correct aug charges                                                         
   LPAW   =        T    paw PP                                                                      
   EAUG   =  355.067                                                                                
   DEXC   =    -.005                                                                                
   RMAX   =    3.192    core radius for proj-oper                                                   
   RAUG   =    1.300    factor for augmentation sphere                                              
   RDEP   =    2.776    radius for radial grids                                                     
   QCUT   =   -3.916; QGAM   =    7.831    optimization parameters                                  
                                                                                                    
   Description                                                                                      
     l     E      TYP  RCUT    TYP  RCUT                                                            
     1   .000     23  2.600                                                                         
     1  -.100     23  2.600                                                                         
     2   .000     23  2.600                                                                         
     2   .000     23  2.600                                                                         
     0   .000     23  2.750                                                                         
     0  1.500     23  2.750                                                                         
     3   .000      7   .000                                                                         
  local pseudopotential read in
  partial core-charges read in
  atomic valenz-charges read in
  non local Contribution for L=           1  read in
    real space projection operators read in
  non local Contribution for L=           1  read in
    real space projection operators read in
  non local Contribution for L=           2  read in
    real space projection operators read in
  non local Contribution for L=           2  read in
    real space projection operators read in
  non local Contribution for L=           0  read in
    real space projection operators read in
  non local Contribution for L=           0  read in
    real space projection operators read in
    PAW grid and wavefunctions read in
 
   number of l-projection  operators is LMAX  =           6
   number of lm-projection operators is LMMAX =          18
 
 POTCAR:   PAW_PBE Mo_pv 08Apr2002                
   VRHFIN =Mo: 4p5s4d                                                                               
   LEXCH  = PE                                                                                      
   EATOM  =  1284.3009 eV,   94.3935 Ry                                                             
                                                                                                    
   TITEL  = PAW_PBE Mo_pv 08Apr2002                                                                 
   LULTRA =        F    use ultrasoft PP ?                                                          
   IUNSCR =        1    unscreen: 0-lin 1-nonlin 2-no                                               
   RPACOR =    2.200    partial core radius                                                         
   POMASS =   95.940; ZVAL   =   12.000    mass and valenz                                          
   RCORE  =    2.600    outmost cutoff radius                                                       
   RWIGS  =    2.750; RWIGS  =    1.455    wigner-seitz radius (au A)                               
   ENMAX  =  224.584; ENMIN  =  168.438 eV                                                          
   RCLOC  =    1.902    cutoff for local pot                                                        
   LCOR   =        T    correct aug charges                                                         
   LPAW   =        T    paw PP                                                                      
   EAUG   =  392.427                                                                                
   DEXC   =    -.006                                                                                
   RMAX   =    3.077    core radius for proj-oper                                                   
   RAUG   =    1.300    factor for augmentation sphere                                              
   RDEP   =    2.641    radius for radial grids                                                     
   QCUT   =   -4.063; QGAM   =    8.126    optimization parameters                                  
                                                                                                    
   Description                                                                                      
     l     E      TYP  RCUT    TYP  RCUT                                                            
     1   .000     23  2.500                                                                         
     1  -.200     23  2.500                                                                         
     2   .000     23  2.500                                                                         
     2   .000     23  2.500                                                                         
     0   .000     23  2.600                                                                         
     0  1.000     23  2.600                                                                         
     3   .000      7   .000                                                                         
  local pseudopotential read in
  partial core-charges read in
  atomic valenz-charges read in
  non local Contribution for L=           1  read in
    real space projection operators read in
  non local Contribution for L=           1  read in
    real space projection operators read in
  non local Contribution for L=           2  read in
    real space projection operators read in
  non local Contribution for L=           2  read in
    real space projection operators read in
  non local Contribution for L=           0  read in
    real space projection operators read in
  non local Contribution for L=           0  read in
    real space projection operators read in
    PAW grid and wavefunctions read in
 
   number of l-projection  operators is LMAX  =           6
   number of lm-projection operators is LMMAX =          18
 
 POTCAR:   PAW_PBE O 08Apr2002                    
   VRHFIN =O: s2p4                                                                                  
   LEXCH  = PE                                                                                      
   EATOM  =   432.3788 eV,   31.7789 Ry                                                             
                                                                                                    
   TITEL  = PAW_PBE O 08Apr2002                                                                     
   LULTRA =        F    use ultrasoft PP ?                                                          
   IUNSCR =        0    unscreen: 0-lin 1-nonlin 2-no                                               
   RPACOR =     .000    partial core radius                                                         
   POMASS =   16.000; ZVAL   =    6.000    mass and valenz                                          
   RCORE  =    1.520    outmost cutoff radius                                                       
   RWIGS  =    1.550; RWIGS  =     .820    wigner-seitz radius (au A)                               
   ENMAX  =  400.000; ENMIN  =  300.000 eV                                                          
   ICORE  =        2    local potential                                                             
   LCOR   =        T    correct aug charges                                                         
   LPAW   =        T    paw PP                                                                      
   EAUG   =  605.392                                                                                
   DEXC   =     .000                                                                                
   RMAX   =    2.264    core radius for proj-oper                                                   
   RAUG   =    1.300    factor for augmentation sphere                                              
   RDEP   =    1.550    radius for radial grids                                                     
   QCUT   =   -5.520; QGAM   =   11.041    optimization parameters                                  
                                                                                                    
   Description                                                                                      
     l     E      TYP  RCUT    TYP  RCUT                                                            
     0   .000     23  1.200                                                                         
     0  -.700     23  1.200                                                                         
     1   .000     23  1.520                                                                         
     1   .600     23  1.520                                                                         
     2   .000      7  1.500                                                                         
  local pseudopotential read in
  atomic valenz-charges read in
  non local Contribution for L=           0  read in
    real space projection operators read in
  non local Contribution for L=           0  read in
    real space projection operators read in
  non local Contribution for L=           1  read in
    real space projection operators read in
  non local Contribution for L=           1  read in
    real space projection operators read in
    PAW grid and wavefunctions read in
 
   number of l-projection  operators is LMAX  =           4
   number of lm-projection operators is LMMAX =           8
 
 -----------------------------------------------------------------------------
|                                                                             |
|               ----> ADVICE to this user running VASP <----                  |
|                                                                             |
|     You have a (more or less) 'large supercell' and for larger cells it     |
|     might be more efficient to use real-space projection operators.         |
|     Therefore, try LREAL= Auto in the INCAR file.                           |
|     Mind: If you want to do very accurate calculations, keep the            |
|     reciprocal projection scheme (i.e. LREAL=.FALSE.).                      |
|                                                                             |
 -----------------------------------------------------------------------------

 PAW_PBE Li_sv 23Jan2001                :
 energy of atom  1       EATOM= -202.7858
 kinetic energy error for atom=    0.0020 (will be added to EATOM!!)
 PAW_PBE Nb_pv 08Apr2002                :
 energy of atom  2       EATOM=-1043.3919
 kinetic energy error for atom=    0.0011 (will be added to EATOM!!)
 PAW_PBE Mo_pv 08Apr2002                :
 energy of atom  3       EATOM=-1284.3009
 kinetic energy error for atom=    0.0019 (will be added to EATOM!!)
 PAW_PBE O 08Apr2002                    :
 energy of atom  4       EATOM= -432.3788
 kinetic energy error for atom=    0.0208 (will be added to EATOM!!)
 
 
 POSCAR: Li   Nb   Mo   O
  positions in direct lattice
  No initial velocities read in
 exchange correlation table for  LEXCH =        8
   RHO(1)=    0.500       N(1)  =     2000
   RHO(2)=  100.500       N(2)  =     4000
 
 POSCAR: Li   Nb   Mo   O
  positions in direct lattice
  No initial velocities read in
 
 POSCAR: Li   Nb   Mo   O
  positions in direct lattice
  No initial velocities read in
 


--------------------------------------------------------------------------------------------------------


 ion  position               nearest neighbor table
   1  0.323  0.876  0.631-  74 1.68  65 1.71  70 2.09  82 2.13  13 2.65  18 2.73  22 2.80  21 2.82

   2  0.367  0.008  0.046-  42 1.84  34 1.89  33 2.00  33 2.03  90 2.20  86 2.33   9 3.46   9 3.48

   3  0.634  0.008  0.954-  43 1.86  35 1.87  32 2.00  32 2.03  91 2.21  87 2.32   8 3.46   8 3.48

   4  0.865  0.508  0.044-  44 1.86  36 1.87  31 2.00  31 2.03  92 2.19  88 2.30   7 3.45   7 3.47

   5  0.131  0.509  0.955-  45 1.83  37 1.91  30 2.00  30 2.03  93 2.15  89 2.34   6 3.46   6 3.49

   6  0.249  0.004  0.138-  54 1.81  34 1.99  89 2.01  89 2.02  46 2.06  30 2.36   5 3.46   5 3.49

   7  0.752  0.003  0.861-  55 1.81  88 2.02  35 2.02  88 2.02  47 2.02  31 2.35   4 3.45   4 3.47

   8  0.748  0.503  0.138-  56 1.81  36 2.01  87 2.02  87 2.02  48 2.03  32 2.36   3 3.46   3 3.48

   9  0.250  0.503  0.865-  57 1.81  37 1.95  86 2.02  86 2.02  49 2.09  33 2.35   2 3.46   2 3.48

  10  0.130  0.997  0.231-  46 1.85  62 1.88  85 2.01  85 2.03  38 2.18  50 2.32  25 3.44  25 3.46

  11  0.869  0.999  0.767-  63 1.85  47 1.87  84 2.01  84 2.03  39 2.21  51 2.30  24 3.42  24 3.44

  12  0.632  0.498  0.233-  64 1.85  48 1.86  83 2.01  83 2.03  40 2.21  52 2.29  23 3.41  23 3.43

  13  0.372  0.496  0.776-  49 1.83  65 1.91  82 2.00  82 2.03  41 2.11  53 2.38   1 2.65  22 3.52
                            22 3.54
  14  0.419  0.967  0.379-  81 1.85  29 1.93  58 2.01  81 2.05  66 2.07  54 2.13
  15  0.584  0.967  0.617-  80 1.85  29 1.93  67 2.01  80 2.05  59 2.09  55 2.14
  16  0.917  0.467  0.382-  79 1.85  28 1.93  68 2.03  79 2.05  60 2.06  56 2.15
  17  0.082  0.467  0.620-  78 1.85  28 1.94  61 2.03  78 2.05  69 2.06  57 2.14
  18  0.297  0.003  0.468-  66 1.83  62 2.00  73 2.02  74 2.02  73 2.02  70 2.39   1 2.73  21 3.51
                            21 3.51
  19  0.702  0.003  0.526-  67 1.86  75 1.95  72 2.01  72 2.01  63 2.06  71 2.29  20 3.44  20 3.44

  20  0.799  0.504  0.473-  68 1.85  76 1.95  71 2.01  71 2.02  64 2.06  72 2.31  19 3.44  19 3.44

  21  0.198  0.503  0.523-  69 1.84  77 1.88  70 2.02  70 2.02  65 2.19  73 2.36   1 2.82  18 3.51
                            18 3.51
  22  0.467  0.001  0.713-  59 1.82  74 1.98  53 2.02  53 2.02  43 2.06  82 2.40   1 2.80  13 3.52
                            13 3.54
  23  0.537  0.002  0.287-  58 1.86  75 1.93  52 2.01  52 2.01  42 2.10  83 2.28  12 3.41  12 3.43

  24  0.964  0.502  0.712-  61 1.86  76 1.93  51 2.01  51 2.02  45 2.10  84 2.30  11 3.42  11 3.44

  25  0.032  0.501  0.283-  60 1.84  77 2.00  50 2.01  50 2.01  44 2.04  85 2.31  10 3.44  10 3.46

  26  0.999  0.252  0.000-  39 1.79  92 1.79  38 1.80  93 1.80
  27  0.501  0.753  0.001-  40 1.78  91 1.79  90 1.79  41 1.81
  28  0.000  0.491  0.500-  16 1.93  17 1.94
  29  0.501  0.991  0.499-  15 1.93  14 1.93
  30  0.149  0.004  0.991-   5 2.00   5 2.03   6 2.36
  31  0.850  0.004  0.008-   4 2.00   4 2.03   7 2.35
  32  0.649  0.504  0.990-   3 2.00   3 2.03   8 2.36
  33  0.351  0.504  0.010-   2 2.00   2 2.03   9 2.35
  34  0.303  0.003  0.082-   2 1.89   6 1.99
  35  0.696  0.004  0.917-   3 1.87   7 2.02
  36  0.803  0.503  0.081-   4 1.87   8 2.01
  37  0.196  0.502  0.920-   5 1.91   9 1.95
  38  0.034  0.999  0.099-  26 1.80  10 2.18
  39  0.966  1.000  0.902-  26 1.79  11 2.21
  40  0.534  0.502  0.099-  27 1.78  12 2.21
  41  0.467  0.500  0.902-  27 1.81  13 2.11
  42  0.450  0.004  0.156-   2 1.84  23 2.10
  43  0.550  0.003  0.844-   3 1.86  22 2.06
  44  0.949  0.503  0.155-   4 1.86  25 2.04
  45  0.050  0.505  0.845-   5 1.83  24 2.10
  46  0.180  0.002  0.178-  10 1.85   6 2.06
  47  0.820  0.003  0.822-  11 1.87   7 2.02
  48  0.680  0.503  0.177-  12 1.86   8 2.03
  49  0.320  0.500  0.825-  13 1.83   9 2.09
  50  0.049  0.001  0.270-  25 2.01  25 2.01  10 2.32
  51  0.951  0.002  0.730-  24 2.01  24 2.02  11 2.30
  52  0.550  0.502  0.270-  23 2.01  23 2.01  12 2.29
  53  0.451  0.501  0.729-  22 2.02  22 2.02  13 2.38
  54  0.325  1.000  0.250-   6 1.81  14 2.13
  55  0.674  1.000  0.750-   7 1.81  15 2.14
  56  0.825  0.499  0.249-   8 1.81  16 2.15
  57  0.175  0.500  0.751-   9 1.81  17 2.14
  58  0.476  0.998  0.326-  23 1.86  14 2.01
  59  0.523  0.999  0.670-  22 1.82  15 2.09
  60  0.976  0.500  0.327-  25 1.84  16 2.06
  61  0.024  0.499  0.674-  24 1.86  17 2.03
  62  0.207  0.002  0.349-  10 1.88  18 2.00
  63  0.793  0.002  0.651-  11 1.85  19 2.06
  64  0.708  0.502  0.349-  12 1.85  20 2.06
  65  0.296  0.501  0.654-   1 1.71  13 1.91  21 2.19
  66  0.354  0.001  0.427-  18 1.83  14 2.07
  67  0.648  0.999  0.574-  19 1.86  15 2.01
  68  0.853  0.500  0.425-  20 1.85  16 2.03
  69  0.148  0.500  0.575-  21 1.84  17 2.06
  70  0.223  0.002  0.523-  21 2.02  21 2.02   1 2.09  18 2.39
  71  0.779  0.003  0.481-  20 2.01  20 2.02  19 2.29
  72  0.722  0.503  0.519-  19 2.01  19 2.01  20 2.31
  73  0.279  0.503  0.481-  18 2.02  18 2.02  21 2.36
  74  0.375  0.002  0.598-   1 1.68  22 1.98  18 2.02
  75  0.622  0.003  0.404-  23 1.93  19 1.95
  76  0.879  0.503  0.596-  24 1.93  20 1.95
  77  0.121  0.502  0.404-  21 1.88  25 2.00
  78  0.091  0.993  0.631-  17 1.85  17 2.05
  79  0.910  0.993  0.369-  16 1.85  16 2.05
  80  0.590  0.493  0.631-  15 1.85  15 2.05
  81  0.409  0.493  0.369-  14 1.85  14 2.05
  82  0.392  1.000  0.768-  13 2.00  13 2.03   1 2.13  22 2.40
  83  0.606  0.001  0.232-  12 2.01  12 2.03  23 2.28
  84  0.895  0.501  0.768-  11 2.01  11 2.03  24 2.30
  85  0.106  0.500  0.232-  10 2.01  10 2.03  25 2.31
  86  0.275  0.003  0.897-   9 2.02   9 2.02   2 2.33
  87  0.724  0.004  0.103-   8 2.02   8 2.02   3 2.32
  88  0.775  0.504  0.896-   7 2.02   7 2.02   4 2.30
  89  0.224  0.504  0.104-   6 2.01   6 2.02   5 2.34
  90  0.430  0.004  0.988-  27 1.79   2 2.20
  91  0.572  0.005  0.014-  27 1.79   3 2.21
  92  0.928  0.502  0.987-  26 1.79   4 2.19
  93  0.071  0.504  0.014-  26 1.80   5 2.15
 

IMPORTANT INFORMATION: All symmetrisations will be switched off!
NOSYMM: (Re-)initialisation of all symmetry stuff for point group C_1.


----------------------------------------------------------------------------------------

                                     Primitive cell                                     

  volume of cell :    1336.3476

  direct lattice vectors                    reciprocal lattice vectors
    22.785142899  0.000000000  0.000000000     0.043888248  0.000000000  0.028932614
     0.000000000  3.876850367  0.000000000     0.000000000  0.257941346 -0.000000041
    -9.973051630  0.000002413 15.128248185     0.000000000  0.000000000  0.066101507

  length of vectors
    22.785142899  3.876850367 18.119758606     0.052566857  0.257941346  0.066101507

  position of ions in fractional coordinates (direct lattice)
     0.322855032  0.875948430  0.631488219
     0.367033406  0.007502456  0.046183441
     0.633959023  0.007715729  0.954130423
     0.864764265  0.507777304  0.044080204
     0.131438985  0.509496728  0.955236636
     0.248610576  0.003632251  0.137520859
     0.751968216  0.003234580  0.861305556
     0.747615814  0.503111165  0.137874022
     0.249725770  0.503352866  0.864838146
     0.129955242  0.997484917  0.230740297
     0.869051007  0.998554015  0.767269738
     0.631547897  0.498436396  0.233216440
     0.371517488  0.496107928  0.775705965
     0.418902468  0.966585682  0.379445425
     0.583877440  0.967227948  0.617305612
     0.917383307  0.467269255  0.381558965
     0.082291308  0.467428539  0.619998462
     0.297204113  0.003293648  0.468149089
     0.702457193  0.003493269  0.526277384
     0.798734313  0.503681672  0.473264356
     0.197658831  0.502736355  0.522646565
     0.466840064  0.001028045  0.713434843
     0.536704136  0.001726143  0.287072255
     0.963804778  0.501650665  0.712422315
     0.032301796  0.501447933  0.283033213
     0.999370711  0.251808530  0.000277594
     0.500924079  0.752919776  0.001254732
     0.000190326  0.490855189  0.500310734
     0.500867574  0.991290803  0.498943108
     0.148745247  0.004471933  0.991425658
     0.849716310  0.003915765  0.008226042
     0.649019596  0.504358634  0.990381425
     0.350911903  0.504021633  0.009565869
     0.303359060  0.003140122  0.081992987
     0.696168120  0.003817337  0.917397079
     0.802743651  0.503274489  0.081152403
     0.196260669  0.501985693  0.919882202
     0.033910828  0.999296520  0.098932513
     0.965540708  0.999800931  0.902367119
     0.534411943  0.501640341  0.098955646
     0.466742230  0.500379506  0.901507307
     0.449784981  0.003773403  0.155801647
     0.549861856  0.003016534  0.843763467
     0.948769784  0.503309947  0.154949925
     0.050150451  0.505173135  0.844657151
     0.179911038  0.002050001  0.177934883
     0.819869243  0.003078527  0.822444110
     0.679796519  0.502915437  0.177125374
     0.320118763  0.500436167  0.825211596
     0.048634577  0.001287067  0.270156679
     0.950547719  0.001832720  0.730212370
     0.549955026  0.501645536  0.269850443
     0.451020082  0.500963083  0.728967741
     0.325359533  0.999725585  0.250054126
     0.674308753  0.999534211  0.749631893
     0.825255065  0.499218736  0.249481552
     0.174629381  0.499759950  0.751133539
     0.476206959  0.998441549  0.325938536
     0.522561615  0.999455961  0.670162982
     0.976026284  0.499504698  0.326602431
     0.024133083  0.498577320  0.673677874
     0.206739550  0.001695505  0.349298804
     0.792988907  0.001903148  0.651128843
     0.707673484  0.502081765  0.349150884
     0.296130886  0.501479119  0.653655801
     0.354289543  0.000760158  0.426684162
     0.648231423  0.999252469  0.574418272
     0.852720616  0.500246693  0.425422796
     0.147717638  0.499891748  0.575117228
     0.223001725  0.002387503  0.523289481
     0.778790417  0.003057097  0.481237861
     0.721958241  0.502919789  0.518544155
     0.279077999  0.502607971  0.480969849
     0.375060668  0.001940005  0.597813908
     0.621813721  0.002553024  0.404019626
     0.878559061  0.502752145  0.596007229
     0.121438482  0.502146449  0.403656701
     0.091114236  0.992869893  0.631262571
     0.909980505  0.992995383  0.368634637
     0.589853677  0.492870646  0.631016271
     0.409354740  0.492530629  0.369046288
     0.391727968  0.999712149  0.767785810
     0.605929322  0.001062859  0.232019506
     0.894512153  0.500979251  0.768297150
     0.105702413  0.500415433  0.232103439
     0.275446259  0.003033477  0.897304524
     0.723947191  0.003581168  0.102639392
     0.775328602  0.503614847  0.896404991
     0.224237034  0.503710195  0.104203911
     0.429508335  0.004391736  0.987517013
     0.571547697  0.005117149  0.013718100
     0.928106030  0.502399809  0.987070123
     0.071025254  0.503690155  0.013531344

  ion indices of the primitive-cell ions
   primitive index   ion index
                 1           1
                 2           2
                 3           3
                 4           4
                 5           5
                 6           6
                 7           7
                 8           8
                 9           9
                10          10
                11          11
                12          12
                13          13
                14          14
                15          15
                16          16
                17          17
                18          18
                19          19
                20          20
                21          21
                22          22
                23          23
                24          24
                25          25
                26          26
                27          27
                28          28
                29          29
                30          30
                31          31
                32          32
                33          33
                34          34
                35          35
                36          36
                37          37
                38          38
                39          39
                40          40
                41          41
                42          42
                43          43
                44          44
                45          45
                46          46
                47          47
                48          48
                49          49
                50          50
                51          51
                52          52
                53          53
                54          54
                55          55
                56          56
                57          57
                58          58
                59          59
                60          60
                61          61
                62          62
                63          63
                64          64
                65          65
                66          66
                67          67
                68          68
                69          69
                70          70
                71          71
                72          72
                73          73
                74          74
                75          75
                76          76
                77          77
                78          78
                79          79
                80          80
                81          81
                82          82
                83          83
                84          84
                85          85
                86          86
                87          87
                88          88
                89          89
                90          90
                91          91
                92          92
                93          93

----------------------------------------------------------------------------------------

 
 
 KPOINTS: pymatgen with grid density = 1000 / numb

Automatic generation of k-mesh.
 Grid dimensions read from file:
 generate k-points for:    1    6    1

 Generating k-lattice:

  Cartesian coordinates                     Fractional coordinates (reciprocal lattice)
     0.043888248  0.000000000  0.028932614     1.000000000  0.000000000 -0.000000000
     0.000000000  0.042990224 -0.000000007     0.000000000  0.166666667  0.000000000
     0.000000000  0.000000000  0.066101507     0.000000000  0.000000000  1.000000000

  Length of vectors
     0.052566857  0.042990224  0.066101507

  Shift w.r.t. Gamma in fractional coordinates (k-lattice)
     0.000000000  0.000000000  0.000000000

 
 Subroutine IBZKPT returns following result:
 ===========================================
 
 Found      4 irreducible k-points:
 
 Following reciprocal coordinates:
            Coordinates               Weight
  0.000000  0.000000  0.000000      1.000000
  0.000000  0.166667  0.000000      2.000000
  0.000000  0.333333  0.000000      2.000000
  0.000000  0.500000  0.000000      1.000000
 
 Following cartesian coordinates:
            Coordinates               Weight
  0.000000  0.000000  0.000000      1.000000
  0.000000  0.042990 -0.000000      2.000000
  0.000000  0.085980 -0.000000      2.000000
  0.000000  0.128971 -0.000000      1.000000
 


--------------------------------------------------------------------------------------------------------




 Dimension of arrays:
   k-points           NKPTS =      4   k-points in BZ     NKDIM =      4   number of bands    NBANDS=    462
   number of dos      NEDOS =    301   number of ions     NIONS =     93
   non local maximal  LDIM  =      6   non local SUM 2l+1 LMDIM =     18
   total plane-waves  NPLWV = 756000
   max r-space proj   IRMAX =      1   max aug-charges    IRDMAX= 278808
   dimension x,y,z NGX =   180 NGY =   30 NGZ =  140
   dimension x,y,z NGXF=   360 NGYF=   60 NGZF=  280
   support grid    NGXF=   720 NGYF=  120 NGZF=  560
   ions per type =               1  24   2  66
   NGX,Y,Z   is equivalent  to a cutoff of  13.13, 12.86, 12.84 a.u.
   NGXF,Y,Z  is equivalent  to a cutoff of  26.27, 25.73, 25.69 a.u.

 SYSTEM =  unknown system                          
 POSCAR =  Li   Nb   Mo   O                        

 Startparameter for this run:
   NWRITE =      2    write-flag & timer
   PREC   = accura    normal or accurate (medium, high low for compatibility)
   ISTART =      0    job   : 0-new  1-cont  2-samecut
   ICHARG =      2    charge: 1-file 2-atom 10-const
   ISPIN  =      2    spin polarized calculation?
   LNONCOLLINEAR =      F non collinear calculations
   LSORBIT =      F    spin-orbit coupling
   INIWAV =      1    electr: 0-lowe 1-rand  2-diag
   LASPH  =      T    aspherical Exc in radial PAW
 Electronic Relaxation 1
   ENCUT  =  520.0 eV  38.22 Ry    6.18 a.u.  42.37  7.21 33.69*2*pi/ulx,y,z
   ENINI  =  520.0     initial cutoff
   ENAUG  =  605.4 eV  augmentation charge cutoff
   NELM   =    100;   NELMIN=  3; NELMDL= -5     # of ELM steps 
   EDIFF  = 0.1E-05   stopping-criterion for ELM
   LREAL  =      F    real-space projection
   NLSPLINE    = F    spline interpolate recip. space projectors
   LCOMPAT=      F    compatible to vasp.4.4
   GGA_COMPAT  = T    GGA compatible to vasp.4.4-vasp.4.6
   LMAXPAW     = -100 max onsite density
   LMAXMIX     =    4 max onsite mixed and CHGCAR
   VOSKOWN=      0    Vosko Wilk Nusair interpolation
   ROPT   =    0.00000   0.00000   0.00000   0.00000
 Ionic relaxation
   EDIFFG = -.5E-01   stopping-criterion for IOM
   NSW    =    450    number of steps for IOM
   NBLOCK =      1;   KBLOCK =    450    inner block; outer block 
   IBRION =      1    ionic relax: 0-MD 1-quasi-New 2-CG
   NFREE  =      0    steps in history (QN), initial steepest desc. (CG)
   ISIF   =      2    stress and relaxation
   IWAVPR =     11    prediction:  0-non 1-charg 2-wave 3-comb
   ISYM   =      0    0-nonsym 1-usesym 2-fastsym
   LCORR  =      T    Harris-Foulkes like correction to forces

   POTIM  = 0.2000    time-step for ionic-motion
   TEIN   =    0.0    initial temperature
   TEBEG  =    0.0;   TEEND  =   0.0 temperature during run
   SMASS  =  -3.00    Nose mass-parameter (am)
   estimated Nose-frequenzy (Omega)   =  0.10E-29 period in steps = 0.31E+47 mass=  -0.119E-25a.u.
   SCALEE = 1.0000    scale energy and forces
   NPACO  =    256;   APACO  = 10.0  distance and # of slots for P.C.
   PSTRESS=    0.0 pullay stress

  Mass of Ions in am
   POMASS =   7.01 92.00 95.94 16.00
  Ionic Valenz
   ZVAL   =   3.00 11.00 12.00  6.00
  Atomic Wigner-Seitz radii
   RWIGS  =  -1.00 -1.00 -1.00 -1.00
  virtual crystal weights 
   VCA    =   1.00  1.00  1.00  1.00
   NELECT =     687.0000    total number of electrons
   NUPDOWN=      -1.0000    fix difference up-down

 DOS related values:
   EMIN   =  10.00;   EMAX   =-10.00  energy-range for DOS
   EFERMI =   0.00
   ISMEAR =     0;   SIGMA  =   0.05  broadening in eV -4-tet -1-fermi 0-gaus

 Electronic relaxation 2 (details)
   IALGO  =     68    algorithm
   LDIAG  =      T    sub-space diagonalisation (order eigenvalues)
   LSUBROT=      F    optimize rotation matrix (better conditioning)
   TURBO    =      0    0=normal 1=particle mesh
   IRESTART =      0    0=no restart 2=restart with 2 vectors
   NREBOOT  =      0    no. of reboots
   NMIN     =      0    reboot dimension
   EREF     =   0.00    reference energy to select bands
   IMIX   =      4    mixing-type and parameters
     AMIX     =   0.40;   BMIX     =  1.00
     AMIX_MAG =   1.60;   BMIX_MAG =  1.00
     AMIN     =   0.10
     WC   =   100.;   INIMIX=   1;  MIXPRE=   1;  MAXMIX= -45

 Intra band minimization:
   WEIMIN = 0.0010     energy-eigenvalue tresh-hold
   EBREAK =  0.54E-09  absolut break condition
   DEPER  =   0.30     relativ break condition  

   TIME   =   0.40     timestep for ELM

  volume/ion in A,a.u.               =      14.37        96.97
  Fermi-wavevector in a.u.,A,eV,Ry     =   1.311457  2.478294 23.400912  1.719918
  Thomas-Fermi vector in A             =   2.441917
 
 Write flags
   LWAVE        =      F    write WAVECAR
   LDOWNSAMPLE  =      F    k-point downsampling of WAVECAR
   LCHARG       =      T    write CHGCAR
   LVTOT        =      F    write LOCPOT, total local potential
   LVHAR        =      F    write LOCPOT, Hartree potential only
   LELF         =      F    write electronic localiz. function (ELF)
   LORBIT       =     11    0 simple, 1 ext, 2 COOP (PROOUT), +10 PAW based schemes


 Dipole corrections
   LMONO  =      F    monopole corrections only (constant potential shift)
   LDIPOL =      F    correct potential (dipole corrections)
   IDIPOL =      0    1-x, 2-y, 3-z, 4-all directions 
   EPSILON=  1.0000000 bulk dielectric constant

 LDA+U is selected, type is set to LDAUTYPE =  2
   angular momentum for each species LDAUL =     0    0    2    0
   U (eV)           for each species LDAUU =   0.0  0.0  4.4  0.0
   J (eV)           for each species LDAUJ =   0.0  0.0  0.0  0.0
 Exchange correlation treatment:
   GGA     =    --    GGA type
   LEXCH   =     8    internal setting for exchange type
   LIBXC   =     F    Libxc                    
   VOSKOWN =     0    Vosko Wilk Nusair interpolation
   LHFCALC =     F    Hartree Fock is set to
   LHFONE  =     F    Hartree Fock one center treatment
   AEXX    =    0.0000 exact exchange contribution

 Linear response parameters
   LEPSILON=     F    determine dielectric tensor
   LRPA    =     F    only Hartree local field effects (RPA)
   LNABLA  =     F    use nabla operator in PAW spheres
   LVEL    =     F    velocity operator in full k-point grid
   CSHIFT  =0.1000    complex shift for real part using Kramers Kronig
   OMEGAMAX=  -1.0    maximum frequency
   DEG_THRESHOLD= 0.2000000E-02 threshold for treating states as degnerate
   RTIME   =   -0.100 relaxation time in fs
  (WPLASMAI=    0.000 imaginary part of plasma frequency in eV, 0.658/RTIME)
   DFIELD  = 0.0000000 0.0000000 0.0000000 field for delta impulse in time
 
  Optional k-point grid parameters
   LKPOINTS_OPT  =     F    use optional k-point grid
   KPOINTS_OPT_MODE=     1    mode for optional k-point grid
 
 Orbital magnetization related:
   ORBITALMAG=     F  switch on orbital magnetization
   LCHIMAG   =     F  perturbation theory with respect to B field
   DQ        =  0.001000  dq finite difference perturbation B field
   LLRAUG    =     F  two centre corrections for induced B field



--------------------------------------------------------------------------------------------------------


 quasi-Newton-method for relaxation of ions
 charge density and potential will be updated during run
 spin polarized calculation
 RMM-DIIS sequential band-by-band and
  variant of blocked Davidson during initial phase
 perform sub-space diagonalisation
    before iterative eigenvector-optimisation
 modified Broyden-mixing scheme, WC =      100.0
 initial mixing is a Kerker type mixing with AMIX =  0.4000 and BMIX =      1.0000
 Hartree-type preconditioning will be used
 using additional bands          118
 reciprocal scheme for non local part
 use partial core corrections
 calculate Harris-corrections to forces 
   (improved forces if not selfconsistent)
 use gradient corrections 
 use of overlap-Matrix (Vanderbilt PP)
 Gauss-broadening in eV      SIGMA  =   0.05


--------------------------------------------------------------------------------------------------------


  energy-cutoff  :      520.00
  volume of cell :     1336.35
      direct lattice vectors                 reciprocal lattice vectors
    22.785142899  0.000000000  0.000000000     0.043888248  0.000000000  0.028932614
     0.000000000  3.876850367  0.000000000     0.000000000  0.257941346 -0.000000041
    -9.973051630  0.000002413 15.128248185     0.000000000  0.000000000  0.066101507

  length of vectors
    22.785142899  3.876850367 18.119758606     0.052566857  0.257941346  0.066101507


 
 k-points in units of 2pi/SCALE and weight: pymatgen with grid density = 1000 / numb
   0.00000000  0.00000000  0.00000000       0.167
   0.00000000  0.04299022 -0.00000001       0.333
   0.00000000  0.08598045 -0.00000001       0.333
   0.00000000  0.12897067 -0.00000002       0.167
 
 k-points in reciprocal lattice and weights: pymatgen with grid density = 1000 / numb
   0.00000000  0.00000000  0.00000000       0.167
   0.00000000  0.16666667  0.00000000       0.333
   0.00000000  0.33333333  0.00000000       0.333
   0.00000000  0.50000000  0.00000000       0.167
 
 position of ions in fractional coordinates (direct lattice) 
   0.32285503  0.87594843  0.63148822
   0.36703341  0.00750246  0.04618344
   0.63395902  0.00771573  0.95413042
   0.86476427  0.50777730  0.04408020
   0.13143899  0.50949673  0.95523664
   0.24861058  0.00363225  0.13752086
   0.75196822  0.00323458  0.86130556
   0.74761581  0.50311116  0.13787402
   0.24972577  0.50335287  0.86483815
   0.12995524  0.99748492  0.23074030
   0.86905101  0.99855402  0.76726974
   0.63154790  0.49843640  0.23321644
   0.37151749  0.49610793  0.77570596
   0.41890247  0.96658568  0.37944543
   0.58387744  0.96722795  0.61730561
   0.91738331  0.46726925  0.38155897
   0.08229131  0.46742854  0.61999846
   0.29720411  0.00329365  0.46814909
   0.70245719  0.00349327  0.52627738
   0.79873431  0.50368167  0.47326436
   0.19765883  0.50273636  0.52264656
   0.46684006  0.00102805  0.71343484
   0.53670414  0.00172614  0.28707226
   0.96380478  0.50165066  0.71242232
   0.03230180  0.50144793  0.28303321
   0.99937071  0.25180853  0.00027759
   0.50092408  0.75291978  0.00125473
   0.00019033  0.49085519  0.50031073
   0.50086757  0.99129080  0.49894311
   0.14874525  0.00447193  0.99142566
   0.84971631  0.00391577  0.00822604
   0.64901960  0.50435863  0.99038143
   0.35091190  0.50402163  0.00956587
   0.30335906  0.00314012  0.08199299
   0.69616812  0.00381734  0.91739708
   0.80274365  0.50327449  0.08115240
   0.19626067  0.50198569  0.91988220
   0.03391083  0.99929652  0.09893251
   0.96554071  0.99980093  0.90236712
   0.53441194  0.50164034  0.09895565
   0.46674223  0.50037951  0.90150731
   0.44978498  0.00377340  0.15580165
   0.54986186  0.00301653  0.84376347
   0.94876978  0.50330995  0.15494993
   0.05015045  0.50517314  0.84465715
   0.17991104  0.00205000  0.17793488
   0.81986924  0.00307853  0.82244411
   0.67979652  0.50291544  0.17712537
   0.32011876  0.50043617  0.82521160
   0.04863458  0.00128707  0.27015668
   0.95054772  0.00183272  0.73021237
   0.54995503  0.50164554  0.26985044
   0.45102008  0.50096308  0.72896774
   0.32535953  0.99972558  0.25005413
   0.67430875  0.99953421  0.74963189
   0.82525506  0.49921874  0.24948155
   0.17462938  0.49975995  0.75113354
   0.47620696  0.99844155  0.32593854
   0.52256162  0.99945596  0.67016298
   0.97602628  0.49950470  0.32660243
   0.02413308  0.49857732  0.67367787
   0.20673955  0.00169551  0.34929880
   0.79298891  0.00190315  0.65112884
   0.70767348  0.50208176  0.34915088
   0.29613089  0.50147912  0.65365580
   0.35428954  0.00076016  0.42668416
   0.64823142  0.99925247  0.57441827
   0.85272062  0.50024669  0.42542280
   0.14771764  0.49989175  0.57511723
   0.22300172  0.00238750  0.52328948
   0.77879042  0.00305710  0.48123786
   0.72195824  0.50291979  0.51854415
   0.27907800  0.50260797  0.48096985
   0.37506067  0.00194001  0.59781391
   0.62181372  0.00255302  0.40401963
   0.87855906  0.50275215  0.59600723
   0.12143848  0.50214645  0.40365670
   0.09111424  0.99286989  0.63126257
   0.90998050  0.99299538  0.36863464
   0.58985368  0.49287065  0.63101627
   0.40935474  0.49253063  0.36904629
   0.39172797  0.99971215  0.76778581
   0.60592932  0.00106286  0.23201951
   0.89451215  0.50097925  0.76829715
   0.10570241  0.50041543  0.23210344
   0.27544626  0.00303348  0.89730452
   0.72394719  0.00358117  0.10263939
   0.77532860  0.50361485  0.89640499
   0.22423703  0.50371020  0.10420391
   0.42950833  0.00439174  0.98751701
   0.57154770  0.00511715  0.01371810
   0.92810603  0.50239981  0.98707012
   0.07102525  0.50369015  0.01353134
 
 position of ions in cartesian coordinates  (Angst):
   1.05843343  3.39592252  9.55331051
   7.90231876  0.02908601  0.69867456
   4.92925497  0.02991503 14.43432183
  19.26416321  1.96857673  0.66685627
  -6.53176823  1.97524488 14.45105691
   4.29312488  0.01408202  2.08044968
   8.54385848  0.01254206 13.03004422
  15.65950842  1.95048704  2.08579243
  -2.93503812  1.95142583 13.08348612
   0.65986386  3.86710032  3.49069648
  12.14943066  3.87124635 11.60744703
  12.06402948  1.93236389  3.52815619
   0.72892341  1.92333807 11.73507235
   5.76052377  3.74730897  5.74034456
   7.14731018  3.74979951  9.33875250
  17.09740249  1.81153390  5.77231872
  -4.30825747  1.81215200  9.37949061
   2.10296314  0.01277011  7.08227560
  10.75699600  0.01354415  7.96165488
  13.47938560  1.95269962  7.15966063
  -0.70869646  1.94903488  7.90672694
   3.52189504  0.00398730 10.79301938
   9.36589401  0.00669269  4.34290033
  14.85540506  1.94482628 10.77770160
  -2.08670380  1.94403929  4.28179669
  22.76803599  0.97622399  0.00419952
  11.40111321  2.91895731  0.01898189
  -4.98528819  1.90297333  7.56882496
   6.43635388  3.84308732  7.54813517
  -6.49835756  0.01733941 14.99853342
  19.27886880  0.01518086  0.12444561
   4.91087916  1.95532534 14.98273600
   7.90017694  1.95401647  0.14471484
   6.09435924  0.01217398  1.24041026
   6.71304166  0.01480146 13.87861069
  17.48129170  1.95112008  1.22769369
  -4.70220531  1.94612564 13.91620625
  -0.21399600  3.87412332  1.49667562
  13.00062914  3.87608078 13.65123373
  11.18976272  1.94478478  1.49702556
   1.64400950  1.93989865 13.63822628
   8.69459719  0.01462930  2.35700599
   4.11378435  0.01169669 12.76466314
  20.07253149  1.95125772  2.34412092
  -7.28112419  1.95848269 12.77818301
   2.32474494  0.00794797  2.69184307
  10.47856028  0.01193697 12.44213861
  13.72278034  1.94972832  2.67959662
  -0.93592609  1.94011813 12.48400584
  -1.58614072  0.00499042  4.08699729
  14.37591995  0.00710694 11.04683397
   9.83957146  1.94480533  4.08236447
   3.00652411  1.94216067 11.02800490
   4.91956073  3.87578710  3.78288088
   7.88810371  3.87504638 11.34061732
  16.31546218  1.93539694  3.77421884
  -3.51213816  1.93749636 11.36333460
   7.59984176  3.87080927  4.93087906
   5.22307105  3.87474283 10.13839192
  18.98167544  1.93650576  4.94092263
  -6.16874849  1.93291129 10.19156607
   1.22701517  0.00657406  5.28427900
  11.57462400  0.00737979  9.85043873
  12.64234168  1.94649672  5.28204123
   0.22844150  1.94416108  9.88866719
   3.81719469  0.00294805  6.45498390
   9.04134251  3.87395369  8.68994218
  15.18659757  1.93938260  6.43590164
  -2.36990632  1.93800689  8.70051616
  -0.13766685  0.00925725  7.91645314
  12.94544091  0.01185307  7.28028579
  11.27845407  1.94974602  7.84466467
   1.56209495  1.94853706  7.27623124
   2.58378194  0.00752255  9.04387717
  10.13880591  0.00989867  6.11210917
  14.07408288  1.94909628  9.01654527
  -1.25869595  1.94674762  6.10661876
  -4.21956332  3.84920953  9.54989685
  17.05762356  3.84969541  5.57679628
   7.14674246  1.91078727  9.54617076
   5.64668858  1.90946844  5.58302383
   1.26841021  3.87573626 11.61525428
  11.49224368  0.00412110  3.51004867
  12.71932009  1.94222344 11.62298997
   0.09366500  1.94003632  3.51131844
  -2.67278197  0.01176250 13.57464554
  15.47161225  0.01388390  1.55275419
   8.72607974  1.95244157 13.56103717
   4.07004187  1.95280931  1.57642263
  -0.06214938  0.01702849 14.93940246
  12.88598462  0.01983846  0.20753081
  11.30292722  1.94773126 14.93264180
   1.48337177  1.95273139  0.20470553
 


--------------------------------------------------------------------------------------------------------


 k-point   1 :   0.0000 0.0000 0.0000  plane waves:   36029
 k-point   2 :   0.0000 0.1667 0.0000  plane waves:   35947
 k-point   3 :   0.0000 0.3333 0.0000  plane waves:   35982
 k-point   4 :   0.0000 0.5000 0.0000  plane waves:   36018

 maximum and minimum number of plane-waves per node :     36029    35947

 maximum number of plane-waves:     36029
 maximum index in each direction: 
   IXMAX=   42   IYMAX=    7   IZMAX=   33
   IXMIN=  -42   IYMIN=   -7   IZMIN=  -33


 serial   3D FFT for wavefunctions
 parallel 3D FFT for charge:
    minimum data exchange during FFTs selected (reduces bandwidth)


 total amount of memory used by VASP MPI-rank0   321868. kBytes
=======================================================================

   base      :      30000. kBytes
   nonl-proj :     136648. kBytes
   fftplans  :      24917. kBytes
   grid      :      75254. kBytes
   one-center:       2892. kBytes
   wavefun   :      52157. kBytes
 
     INWAV:  cpu time      0.0001: real time      0.0002
 Broyden mixing: mesh for mixing (old mesh)
   NGX = 85   NGY = 15   NGZ = 67
  (NGX  =360   NGY  = 60   NGZ  =280)
  gives a total of  85425 points

 initial charge density was supplied:
 charge density of overlapping atoms calculated
 number of electron     687.0000000 magnetization      55.8000000
 keeping initial charge density in first step


--------------------------------------------------------------------------------------------------------


 Maximum index for augmentation-charges         9972 (set IRDMAX)


--------------------------------------------------------------------------------------------------------


 First call to EWALD:  gamma=   0.161
 Maximum number of real-space cells 2x 7x 2
 Maximum number of reciprocal cells 5x 1x 4

    FEWALD:  cpu time      0.0036: real time      0.0036


--------------------------------------- Iteration      1(   1)  ---------------------------------------


    POTLOK:  cpu time      0.2114: real time      0.2129
    SETDIJ:  cpu time      0.9519: real time      0.9565
atom =   1  type =  1  l = 0
 
 onsite density matrix
 
spin component  1
 
  1.2642
 
spin component  2
 
  0.8428
 
 occupancies and eigenvectors
 
  o =  0.8428  v =  0.0000  1.0000      0.0000  0.0000
  o =  1.2642  v =  1.0000  0.0000      0.0000  0.0000
 
atom =   2  type =  2  l = 0
 
 onsite density matrix
 
spin component  1
 
  0.1347
 
spin component  2
 
  0.1207
 
 occupancies and eigenvectors
 
  o =  0.1207  v =  0.0000  1.0000      0.0000  0.0000
  o =  0.1347  v =  1.0000  0.0000      0.0000  0.0000
 
atom =   3  type =  2  l = 0
 
 onsite density matrix
 
spin component  1
 
  0.1347
 
spin component  2
 
  0.1207
 
 occupancies and eigenvectors
 
  o =  0.1207  v =  0.0000  1.0000      0.0000  0.0000
  o =  0.1347  v =  1.0000  0.0000      0.0000  0.0000
 
atom =   4  type =  2  l = 0
 
 onsite density matrix
 
spin component  1
 
  0.1347
 
spin component  2
 
  0.1207
 
 occupancies and eigenvectors
 
  o =  0.1207  v =  0.0000  1.0000      0.0000  0.0000
  o =  0.1347  v =  1.0000  0.0000      0.0000  0.0000
 
atom =   5  type =  2  l = 0
 
 onsite density matrix
 
spin component  1
 
  0.1347
 
spin component  2
 
  0.1207
 
 occupancies and eigenvectors
 
  o =  0.1207  v =  0.0000  1.0000      0.0000  0.0000
  o =  0.1347  v =  1.0000  0.0000      0.0000  0.0000
 
atom =   6  type =  2  l = 0
 
 onsite density matrix
 
spin component  1
 
  0.1347
 
spin component  2
 
  0.1207
 
 occupancies and eigenvectors
 
  o =  0.1207  v =  0.0000  1.0000      0.0000  0.0000
  o =  0.1347  v =  1.0000  0.0000      0.0000  0.0000
 
atom =   7  type =  2  l = 0
 
 onsite density matrix
 
spin component  1
 
  0.1347
 
spin component  2
 
  0.1207
 
 occupancies and eigenvectors
 
  o =  0.1207  v =  0.0000  1.0000      0.0000  0.0000
  o =  0.1347  v =  1.0000  0.0000      0.0000  0.0000
 
atom =   8  type =  2  l = 0
 
 onsite density matrix
 
spin component  1
 
  0.1347
 
spin component  2
 
  0.1207
 
 occupancies and eigenvectors
 
  o =  0.1207  v =  0.0000  1.0000      0.0000  0.0000
  o =  0.1347  v =  1.0000  0.0000      0.0000  0.0000
 
atom =   9  type =  2  l = 0
 
 onsite density matrix
 
spin component  1
 
  0.1347
 
spin component  2
 
  0.1207
 
 occupancies and eigenvectors
 
  o =  0.1207  v =  0.0000  1.0000      0.0000  0.0000
  o =  0.1347  v =  1.0000  0.0000      0.0000  0.0000
 
atom =  10  type =  2  l = 0
 
 onsite density matrix
 
spin component  1
 
  0.1347
 
spin component  2
 
  0.1207
 
 occupancies and eigenvectors
 
  o =  0.1207  v =  0.0000  1.0000      0.0000  0.0000
  o =  0.1347  v =  1.0000  0.0000      0.0000  0.0000
 
atom =  11  type =  2  l = 0
 
 onsite density matrix
 
spin component  1
 
  0.1347
 
spin component  2
 
  0.1207
 
 occupancies and eigenvectors
 
  o =  0.1207  v =  0.0000  1.0000      0.0000  0.0000
  o =  0.1347  v =  1.0000  0.0000      0.0000  0.0000
 
atom =  12  type =  2  l = 0
 
 onsite density matrix
 
spin component  1
 
  0.1347
 
spin component  2
 
  0.1207
 
 occupancies and eigenvectors
 
  o =  0.1207  v =  0.0000  1.0000      0.0000  0.0000
  o =  0.1347  v =  1.0000  0.0000      0.0000  0.0000
 
atom =  13  type =  2  l = 0
 
 onsite density matrix
 
spin component  1
 
  0.1347
 
spin component  2
 
  0.1207
 
 occupancies and eigenvectors
 
  o =  0.1207  v =  0.0000  1.0000      0.0000  0.0000
  o =  0.1347  v =  1.0000  0.0000      0.0000  0.0000
 
atom =  14  type =  2  l = 0
 
 onsite density matrix
 
spin component  1
 
  0.1347
 
spin component  2
 
  0.1207
 
 occupancies and eigenvectors
 
  o =  0.1207  v =  0.0000  1.0000      0.0000  0.0000
  o =  0.1347  v =  1.0000  0.0000      0.0000  0.0000
 
atom =  15  type =  2  l = 0
 
 onsite density matrix
 
spin component  1
 
  0.1347
 
spin component  2
 
  0.1207
 
 occupancies and eigenvectors
 
  o =  0.1207  v =  0.0000  1.0000      0.0000  0.0000
  o =  0.1347  v =  1.0000  0.0000      0.0000  0.0000
 
atom =  16  type =  2  l = 0
 
 onsite density matrix
 
spin component  1
 
  0.1347
 
spin component  2
 
  0.1207
 
 occupancies and eigenvectors
 
  o =  0.1207  v =  0.0000  1.0000      0.0000  0.0000
  o =  0.1347  v =  1.0000  0.0000      0.0000  0.0000
 
atom =  17  type =  2  l = 0
 
 onsite density matrix
 
spin component  1
 
  0.1347
 
spin component  2
 
  0.1207
 
 occupancies and eigenvectors
 
  o =  0.1207  v =  0.0000  1.0000      0.0000  0.0000
  o =  0.1347  v =  1.0000  0.0000      0.0000  0.0000
 
atom =  18  type =  2  l = 0
 
 onsite density matrix
 
spin component  1
 
  0.1347
 
spin component  2
 
  0.1207
 
 occupancies and eigenvectors
 
  o =  0.1207  v =  0.0000  1.0000      0.0000  0.0000
  o =  0.1347  v =  1.0000  0.0000      0.0000  0.0000
 
atom =  19  type =  2  l = 0
 
 onsite density matrix
 
spin component  1
 
  0.1347
 
spin component  2
 
  0.1207
 
 occupancies and eigenvectors
 
  o =  0.1207  v =  0.0000  1.0000      0.0000  0.0000
  o =  0.1347  v =  1.0000  0.0000      0.0000  0.0000
 
atom =  20  type =  2  l = 0
 
 onsite density matrix
 
spin component  1
 
  0.1347
 
spin component  2
 
  0.1207
 
 occupancies and eigenvectors
 
  o =  0.1207  v =  0.0000  1.0000      0.0000  0.0000
  o =  0.1347  v =  1.0000  0.0000      0.0000  0.0000
 
atom =  21  type =  2  l = 0
 
 onsite density matrix
 
spin component  1
 
  0.1347
 
spin component  2
 
  0.1207
 
 occupancies and eigenvectors
 
  o =  0.1207  v =  0.0000  1.0000      0.0000  0.0000
  o =  0.1347  v =  1.0000  0.0000      0.0000  0.0000
 
atom =  22  type =  2  l = 0
 
 onsite density matrix
 
spin component  1
 
  0.1347
 
spin component  2
 
  0.1207
 
 occupancies and eigenvectors
 
  o =  0.1207  v =  0.0000  1.0000      0.0000  0.0000
  o =  0.1347  v =  1.0000  0.0000      0.0000  0.0000
 
atom =  23  type =  2  l = 0
 
 onsite density matrix
 
spin component  1
 
  0.1347
 
spin component  2
 
  0.1207
 
 occupancies and eigenvectors
 
  o =  0.1207  v =  0.0000  1.0000      0.0000  0.0000
  o =  0.1347  v =  1.0000  0.0000      0.0000  0.0000
 
atom =  24  type =  2  l = 0
 
 onsite density matrix
 
spin component  1
 
  0.1347
 
spin component  2
 
  0.1207
 
 occupancies and eigenvectors
 
  o =  0.1207  v =  0.0000  1.0000      0.0000  0.0000
  o =  0.1347  v =  1.0000  0.0000      0.0000  0.0000
 
atom =  25  type =  2  l = 0
 
 onsite density matrix
 
spin component  1
 
  0.1347
 
spin component  2
 
  0.1207
 
 occupancies and eigenvectors
 
  o =  0.1207  v =  0.0000  1.0000      0.0000  0.0000
  o =  0.1347  v =  1.0000  0.0000      0.0000  0.0000
 
atom =  26  type =  3  l = 2
 
 onsite density matrix
 
spin component  1
 
  0.4151  0.0000  0.0000  0.0000  0.0000
  0.0000  0.4151  0.0000  0.0000  0.0000
  0.0000  0.0000  0.4151  0.0000 -0.0000
  0.0000  0.0000  0.0000  0.4151  0.0000
  0.0000  0.0000 -0.0000  0.0000  0.4151
 
spin component  2
 
  0.3756  0.0000  0.0000  0.0000  0.0000
  0.0000  0.3756  0.0000  0.0000  0.0000
  0.0000  0.0000  0.3756  0.0000 -0.0000
  0.0000  0.0000  0.0000  0.3756  0.0000
  0.0000  0.0000 -0.0000  0.0000  0.3756
 
 occupancies and eigenvectors
 
  o =  0.3756  v =  0.0000  0.0000  0.0000  0.0000  0.0000  0.0000  0.0000  1.0000  0.0000  0.0000      0.0000  0.0000  0.0000  0.0000  0.0000  0.0000  0.0000  0.0000  0.0000  0.0000
  o =  0.3756  v =  0.0000  0.0000  0.0000  0.0000  0.0000  1.0000  0.0000  0.0000  0.0000  0.0000      0.0000  0.0000  0.0000  0.0000  0.0000  0.0000  0.0000  0.0000  0.0000  0.0000
  o =  0.3756  v =  0.0000  0.0000  0.0000  0.0000  0.0000  0.0000  1.0000  0.0000  0.0000  0.0000      0.0000  0.0000  0.0000  0.0000  0.0000  0.0000  0.0000  0.0000  0.0000  0.0000
  o =  0.3756  v =  0.0000  0.0000  0.0000  0.0000  0.0000  0.0000  0.0000  0.0000  1.0000  0.0000      0.0000  0.0000  0.0000  0.0000  0.0000  0.0000  0.0000  0.0000  0.0000  0.0000
  o =  0.3756  v =  0.0000  0.0000  0.0000  0.0000  0.0000  0.0000  0.0000  0.0000  0.0000  1.0000      0.0000  0.0000  0.0000  0.0000  0.0000  0.0000  0.0000  0.0000  0.0000  0.0000
  o =  0.4151  v =  0.0000  0.0000  1.0000  0.0000  0.0000  0.0000  0.0000  0.0000  0.0000  0.0000      0.0000  0.0000  0.0000  0.0000  0.0000  0.0000  0.0000  0.0000  0.0000  0.0000
  o =  0.4151  v =  0.0000  1.0000  0.0000  0.0000  0.0000  0.0000  0.0000  0.0000  0.0000  0.0000      0.0000  0.0000  0.0000  0.0000  0.0000  0.0000  0.0000  0.0000  0.0000  0.0000
  o =  0.4151  v =  1.0000  0.0000  0.0000  0.0000  0.0000  0.0000  0.0000  0.0000  0.0000  0.0000      0.0000  0.0000  0.0000  0.0000  0.0000  0.0000  0.0000  0.0000  0.0000  0.0000
  o =  0.4151  v =  0.0000  0.0000  0.0000  1.0000  0.0000  0.0000  0.0000  0.0000  0.0000  0.0000      0.0000  0.0000  0.0000  0.0000  0.0000  0.0000  0.0000  0.0000  0.0000  0.0000
  o =  0.4151  v =  0.0000  0.0000  0.0000  0.0000  1.0000  0.0000  0.0000  0.0000  0.0000  0.0000      0.0000  0.0000  0.0000  0.0000  0.0000  0.0000  0.0000  0.0000  0.0000  0.0000
 
atom =  27  type =  3  l = 2
 
 onsite density matrix
 
spin component  1
 
  0.4151  0.0000  0.0000  0.0000  0.0000
  0.0000  0.4151  0.0000  0.0000  0.0000
  0.0000  0.0000  0.4151  0.0000 -0.0000
  0.0000  0.0000  0.0000  0.4151  0.0000
  0.0000  0.0000 -0.0000  0.0000  0.4151
 
spin component  2
 
  0.3756  0.0000  0.0000  0.0000  0.0000
  0.0000  0.3756  0.0000  0.0000  0.0000
  0.0000  0.0000  0.3756  0.0000 -0.0000
  0.0000  0.0000  0.0000  0.3756  0.0000
  0.0000  0.0000 -0.0000  0.0000  0.3756
 
 occupancies and eigenvectors
 
  o =  0.3756  v =  0.0000  0.0000  0.0000  0.0000  0.0000  0.0000  0.0000  1.0000  0.0000  0.0000      0.0000  0.0000  0.0000  0.0000  0.0000  0.0000  0.0000  0.0000  0.0000  0.0000
  o =  0.3756  v =  0.0000  0.0000  0.0000  0.0000  0.0000  1.0000  0.0000  0.0000  0.0000  0.0000      0.0000  0.0000  0.0000  0.0000  0.0000  0.0000  0.0000  0.0000  0.0000  0.0000
  o =  0.3756  v =  0.0000  0.0000  0.0000  0.0000  0.0000  0.0000  1.0000  0.0000  0.0000  0.0000      0.0000  0.0000  0.0000  0.0000  0.0000  0.0000  0.0000  0.0000  0.0000  0.0000
  o =  0.3756  v =  0.0000  0.0000  0.0000  0.0000  0.0000  0.0000  0.0000  0.0000  1.0000  0.0000      0.0000  0.0000  0.0000  0.0000  0.0000  0.0000  0.0000  0.0000  0.0000  0.0000
  o =  0.3756  v =  0.0000  0.0000  0.0000  0.0000  0.0000  0.0000  0.0000  0.0000  0.0000  1.0000      0.0000  0.0000  0.0000  0.0000  0.0000  0.0000  0.0000  0.0000  0.0000  0.0000
  o =  0.4151  v =  0.0000  0.0000  1.0000  0.0000  0.0000  0.0000  0.0000  0.0000  0.0000  0.0000      0.0000  0.0000  0.0000  0.0000  0.0000  0.0000  0.0000  0.0000  0.0000  0.0000
  o =  0.4151  v =  0.0000  1.0000  0.0000  0.0000  0.0000  0.0000  0.0000  0.0000  0.0000  0.0000      0.0000  0.0000  0.0000  0.0000  0.0000  0.0000  0.0000  0.0000  0.0000  0.0000
  o =  0.4151  v =  1.0000  0.0000  0.0000  0.0000  0.0000  0.0000  0.0000  0.0000  0.0000  0.0000      0.0000  0.0000  0.0000  0.0000  0.0000  0.0000  0.0000  0.0000  0.0000  0.0000
  o =  0.4151  v =  0.0000  0.0000  0.0000  1.0000  0.0000  0.0000  0.0000  0.0000  0.0000  0.0000      0.0000  0.0000  0.0000  0.0000  0.0000  0.0000  0.0000  0.0000  0.0000  0.0000
  o =  0.4151  v =  0.0000  0.0000  0.0000  0.0000  1.0000  0.0000  0.0000  0.0000  0.0000  0.0000      0.0000  0.0000  0.0000  0.0000  0.0000  0.0000  0.0000  0.0000  0.0000  0.0000
 
atom =  28  type =  4  l = 0
 
 onsite density matrix
 
spin component  1
 
  0.8936
 
spin component  2
 
  0.7311
 
 occupancies and eigenvectors
 
  o =  0.7311  v =  0.0000  1.0000      0.0000  0.0000
  o =  0.8936  v =  1.0000  0.0000      0.0000  0.0000
 
atom =  29  type =  4  l = 0
 
 onsite density matrix
 
spin component  1
 
  0.8936
 
spin component  2
 
  0.7311
 
 occupancies and eigenvectors
 
  o =  0.7311  v =  0.0000  1.0000      0.0000  0.0000
  o =  0.8936  v =  1.0000  0.0000      0.0000  0.0000
 
atom =  30  type =  4  l = 0
 
 onsite density matrix
 
spin component  1
 
  0.8936
 
spin component  2
 
  0.7311
 
 occupancies and eigenvectors
 
  o =  0.7311  v =  0.0000  1.0000      0.0000  0.0000
  o =  0.8936  v =  1.0000  0.0000      0.0000  0.0000
 
atom =  31  type =  4  l = 0
 
 onsite density matrix
 
spin component  1
 
  0.8936
 
spin component  2
 
  0.7311
 
 occupancies and eigenvectors
 
  o =  0.7311  v =  0.0000  1.0000      0.0000  0.0000
  o =  0.8936  v =  1.0000  0.0000      0.0000  0.0000
 
atom =  32  type =  4  l = 0
 
 onsite density matrix
 
spin component  1
 
  0.8936
 
spin component  2
 
  0.7311
 
 occupancies and eigenvectors
 
  o =  0.7311  v =  0.0000  1.0000      0.0000  0.0000
  o =  0.8936  v =  1.0000  0.0000      0.0000  0.0000
 
atom =  33  type =  4  l = 0
 
 onsite density matrix
 
spin component  1
 
  0.8936
 
spin component  2
 
  0.7311
 
 occupancies and eigenvectors
 
  o =  0.7311  v =  0.0000  1.0000      0.0000  0.0000
  o =  0.8936  v =  1.0000  0.0000      0.0000  0.0000
 
atom =  34  type =  4  l = 0
 
 onsite density matrix
 
spin component  1
 
  0.8936
 
spin component  2
 
  0.7311
 
 occupancies and eigenvectors
 
  o =  0.7311  v =  0.0000  1.0000      0.0000  0.0000
  o =  0.8936  v =  1.0000  0.0000      0.0000  0.0000
 
atom =  35  type =  4  l = 0
 
 onsite density matrix
 
spin component  1
 
  0.8936
 
spin component  2
 
  0.7311
 
 occupancies and eigenvectors
 
  o =  0.7311  v =  0.0000  1.0000      0.0000  0.0000
  o =  0.8936  v =  1.0000  0.0000      0.0000  0.0000
 
atom =  36  type =  4  l = 0
 
 onsite density matrix
 
spin component  1
 
  0.8936
 
spin component  2
 
  0.7311
 
 occupancies and eigenvectors
 
  o =  0.7311  v =  0.0000  1.0000      0.0000  0.0000
  o =  0.8936  v =  1.0000  0.0000      0.0000  0.0000
 
atom =  37  type =  4  l = 0
 
 onsite density matrix
 
spin component  1
 
  0.8936
 
spin component  2
 
  0.7311
 
 occupancies and eigenvectors
 
  o =  0.7311  v =  0.0000  1.0000      0.0000  0.0000
  o =  0.8936  v =  1.0000  0.0000      0.0000  0.0000
 
atom =  38  type =  4  l = 0
 
 onsite density matrix
 
spin component  1
 
  0.8936
 
spin component  2
 
  0.7311
 
 occupancies and eigenvectors
 
  o =  0.7311  v =  0.0000  1.0000      0.0000  0.0000
  o =  0.8936  v =  1.0000  0.0000      0.0000  0.0000
 
atom =  39  type =  4  l = 0
 
 onsite density matrix
 
spin component  1
 
  0.8936
 
spin component  2
 
  0.7311
 
 occupancies and eigenvectors
 
  o =  0.7311  v =  0.0000  1.0000      0.0000  0.0000
  o =  0.8936  v =  1.0000  0.0000      0.0000  0.0000
 
atom =  40  type =  4  l = 0
 
 onsite density matrix
 
spin component  1
 
  0.8936
 
spin component  2
 
  0.7311
 
 occupancies and eigenvectors
 
  o =  0.7311  v =  0.0000  1.0000      0.0000  0.0000
  o =  0.8936  v =  1.0000  0.0000      0.0000  0.0000
 
atom =  41  type =  4  l = 0
 
 onsite density matrix
 
spin component  1
 
  0.8936
 
spin component  2
 
  0.7311
 
 occupancies and eigenvectors
 
  o =  0.7311  v =  0.0000  1.0000      0.0000  0.0000
  o =  0.8936  v =  1.0000  0.0000      0.0000  0.0000
 
atom =  42  type =  4  l = 0
 
 onsite density matrix
 
spin component  1
 
  0.8936
 
spin component  2
 
  0.7311
 
 occupancies and eigenvectors
 
  o =  0.7311  v =  0.0000  1.0000      0.0000  0.0000
  o =  0.8936  v =  1.0000  0.0000      0.0000  0.0000
 
atom =  43  type =  4  l = 0
 
 onsite density matrix
 
spin component  1
 
  0.8936
 
spin component  2
 
  0.7311
 
 occupancies and eigenvectors
 
  o =  0.7311  v =  0.0000  1.0000      0.0000  0.0000
  o =  0.8936  v =  1.0000  0.0000      0.0000  0.0000
 
atom =  44  type =  4  l = 0
 
 onsite density matrix
 
spin component  1
 
  0.8936
 
spin component  2
 
  0.7311
 
 occupancies and eigenvectors
 
  o =  0.7311  v =  0.0000  1.0000      0.0000  0.0000
  o =  0.8936  v =  1.0000  0.0000      0.0000  0.0000
 
atom =  45  type =  4  l = 0
 
 onsite density matrix
 
spin component  1
 
  0.8936
 
spin component  2
 
  0.7311
 
 occupancies and eigenvectors
 
  o =  0.7311  v =  0.0000  1.0000      0.0000  0.0000
  o =  0.8936  v =  1.0000  0.0000      0.0000  0.0000
 
atom =  46  type =  4  l = 0
 
 onsite density matrix
 
spin component  1
 
  0.8936
 
spin component  2
 
  0.7311
 
 occupancies and eigenvectors
 
  o =  0.7311  v =  0.0000  1.0000      0.0000  0.0000
  o =  0.8936  v =  1.0000  0.0000      0.0000  0.0000
 
atom =  47  type =  4  l = 0
 
 onsite density matrix
 
spin component  1
 
  0.8936
 
spin component  2
 
  0.7311
 
 occupancies and eigenvectors
 
  o =  0.7311  v =  0.0000  1.0000      0.0000  0.0000
  o =  0.8936  v =  1.0000  0.0000      0.0000  0.0000
 
atom =  48  type =  4  l = 0
 
 onsite density matrix
 
spin component  1
 
  0.8936
 
spin component  2
 
  0.7311
 
 occupancies and eigenvectors
 
  o =  0.7311  v =  0.0000  1.0000      0.0000  0.0000
  o =  0.8936  v =  1.0000  0.0000      0.0000  0.0000
 
atom =  49  type =  4  l = 0
 
 onsite density matrix
 
spin component  1
 
  0.8936
 
spin component  2
 
  0.7311
 
 occupancies and eigenvectors
 
  o =  0.7311  v =  0.0000  1.0000      0.0000  0.0000
  o =  0.8936  v =  1.0000  0.0000      0.0000  0.0000
 
atom =  50  type =  4  l = 0
 
 onsite density matrix
 
spin component  1
 
  0.8936
 
spin component  2
 
  0.7311
 
 occupancies and eigenvectors
 
  o =  0.7311  v =  0.0000  1.0000      0.0000  0.0000
  o =  0.8936  v =  1.0000  0.0000      0.0000  0.0000
 
atom =  51  type =  4  l = 0
 
 onsite density matrix
 
spin component  1
 
  0.8936
 
spin component  2
 
  0.7311
 
 occupancies and eigenvectors
 
  o =  0.7311  v =  0.0000  1.0000      0.0000  0.0000
  o =  0.8936  v =  1.0000  0.0000      0.0000  0.0000
 
atom =  52  type =  4  l = 0
 
 onsite density matrix
 
spin component  1
 
  0.8936
 
spin component  2
 
  0.7311
 
 occupancies and eigenvectors
 
  o =  0.7311  v =  0.0000  1.0000      0.0000  0.0000
  o =  0.8936  v =  1.0000  0.0000      0.0000  0.0000
 
atom =  53  type =  4  l = 0
 
 onsite density matrix
 
spin component  1
 
  0.8936
 
spin component  2
 
  0.7311
 
 occupancies and eigenvectors
 
  o =  0.7311  v =  0.0000  1.0000      0.0000  0.0000
  o =  0.8936  v =  1.0000  0.0000      0.0000  0.0000
 
atom =  54  type =  4  l = 0
 
 onsite density matrix
 
spin component  1
 
  0.8936
 
spin component  2
 
  0.7311
 
 occupancies and eigenvectors
 
  o =  0.7311  v =  0.0000  1.0000      0.0000  0.0000
  o =  0.8936  v =  1.0000  0.0000      0.0000  0.0000
 
atom =  55  type =  4  l = 0
 
 onsite density matrix
 
spin component  1
 
  0.8936
 
spin component  2
 
  0.7311
 
 occupancies and eigenvectors
 
  o =  0.7311  v =  0.0000  1.0000      0.0000  0.0000
  o =  0.8936  v =  1.0000  0.0000      0.0000  0.0000
 
atom =  56  type =  4  l = 0
 
 onsite density matrix
 
spin component  1
 
  0.8936
 
spin component  2
 
  0.7311
 
 occupancies and eigenvectors
 
  o =  0.7311  v =  0.0000  1.0000      0.0000  0.0000
  o =  0.8936  v =  1.0000  0.0000      0.0000  0.0000
 
atom =  57  type =  4  l = 0
 
 onsite density matrix
 
spin component  1
 
  0.8936
 
spin component  2
 
  0.7311
 
 occupancies and eigenvectors
 
  o =  0.7311  v =  0.0000  1.0000      0.0000  0.0000
  o =  0.8936  v =  1.0000  0.0000      0.0000  0.0000
 
atom =  58  type =  4  l = 0
 
 onsite density matrix
 
spin component  1
 
  0.8936
 
spin component  2
 
  0.7311
 
 occupancies and eigenvectors
 
  o =  0.7311  v =  0.0000  1.0000      0.0000  0.0000
  o =  0.8936  v =  1.0000  0.0000      0.0000  0.0000
 
atom =  59  type =  4  l = 0
 
 onsite density matrix
 
spin component  1
 
  0.8936
 
spin component  2
 
  0.7311
 
 occupancies and eigenvectors
 
  o =  0.7311  v =  0.0000  1.0000      0.0000  0.0000
  o =  0.8936  v =  1.0000  0.0000      0.0000  0.0000
 
atom =  60  type =  4  l = 0
 
 onsite density matrix
 
spin component  1
 
  0.8936
 
spin component  2
 
  0.7311
 
 occupancies and eigenvectors
 
  o =  0.7311  v =  0.0000  1.0000      0.0000  0.0000
  o =  0.8936  v =  1.0000  0.0000      0.0000  0.0000
 
atom =  61  type =  4  l = 0
 
 onsite density matrix
 
spin component  1
 
  0.8936
 
spin component  2
 
  0.7311
 
 occupancies and eigenvectors
 
  o =  0.7311  v =  0.0000  1.0000      0.0000  0.0000
  o =  0.8936  v =  1.0000  0.0000      0.0000  0.0000
 
atom =  62  type =  4  l = 0
 
 onsite density matrix
 
spin component  1
 
  0.8936
 
spin component  2
 
  0.7311
 
 occupancies and eigenvectors
 
  o =  0.7311  v =  0.0000  1.0000      0.0000  0.0000
  o =  0.8936  v =  1.0000  0.0000      0.0000  0.0000
 
atom =  63  type =  4  l = 0
 
 onsite density matrix
 
spin component  1
 
  0.8936
 
spin component  2
 
  0.7311
 
 occupancies and eigenvectors
 
  o =  0.7311  v =  0.0000  1.0000      0.0000  0.0000
  o =  0.8936  v =  1.0000  0.0000      0.0000  0.0000
 
atom =  64  type =  4  l = 0
 
 onsite density matrix
 
spin component  1
 
  0.8936
 
spin component  2
 
  0.7311
 
 occupancies and eigenvectors
 
  o =  0.7311  v =  0.0000  1.0000      0.0000  0.0000
  o =  0.8936  v =  1.0000  0.0000      0.0000  0.0000
 
atom =  65  type =  4  l = 0
 
 onsite density matrix
 
spin component  1
 
  0.8936
 
spin component  2
 
  0.7311
 
 occupancies and eigenvectors
 
  o =  0.7311  v =  0.0000  1.0000      0.0000  0.0000
  o =  0.8936  v =  1.0000  0.0000      0.0000  0.0000
 
atom =  66  type =  4  l = 0
 
 onsite density matrix
 
spin component  1
 
  0.8936
 
spin component  2
 
  0.7311
 
 occupancies and eigenvectors
 
  o =  0.7311  v =  0.0000  1.0000      0.0000  0.0000
  o =  0.8936  v =  1.0000  0.0000      0.0000  0.0000
 
atom =  67  type =  4  l = 0
 
 onsite density matrix
 
spin component  1
 
  0.8936
 
spin component  2
 
  0.7311
 
 occupancies and eigenvectors
 
  o =  0.7311  v =  0.0000  1.0000      0.0000  0.0000
  o =  0.8936  v =  1.0000  0.0000      0.0000  0.0000
 
atom =  68  type =  4  l = 0
 
 onsite density matrix
 
spin component  1
 
  0.8936
 
spin component  2
 
  0.7311
 
 occupancies and eigenvectors
 
  o =  0.7311  v =  0.0000  1.0000      0.0000  0.0000
  o =  0.8936  v =  1.0000  0.0000      0.0000  0.0000
 
atom =  69  type =  4  l = 0
 
 onsite density matrix
 
spin component  1
 
  0.8936
 
spin component  2
 
  0.7311
 
 occupancies and eigenvectors
 
  o =  0.7311  v =  0.0000  1.0000      0.0000  0.0000
  o =  0.8936  v =  1.0000  0.0000      0.0000  0.0000
 
atom =  70  type =  4  l = 0
 
 onsite density matrix
 
spin component  1
 
  0.8936
 
spin component  2
 
  0.7311
 
 occupancies and eigenvectors
 
  o =  0.7311  v =  0.0000  1.0000      0.0000  0.0000
  o =  0.8936  v =  1.0000  0.0000      0.0000  0.0000
 
atom =  71  type =  4  l = 0
 
 onsite density matrix
 
spin component  1
 
  0.8936
 
spin component  2
 
  0.7311
 
 occupancies and eigenvectors
 
  o =  0.7311  v =  0.0000  1.0000      0.0000  0.0000
  o =  0.8936  v =  1.0000  0.0000      0.0000  0.0000
 
atom =  72  type =  4  l = 0
 
 onsite density matrix
 
spin component  1
 
  0.8936
 
spin component  2
 
  0.7311
 
 occupancies and eigenvectors
 
  o =  0.7311  v =  0.0000  1.0000      0.0000  0.0000
  o =  0.8936  v =  1.0000  0.0000      0.0000  0.0000
 
atom =  73  type =  4  l = 0
 
 onsite density matrix
 
spin component  1
 
  0.8936
 
spin component  2
 
  0.7311
 
 occupancies and eigenvectors
 
  o =  0.7311  v =  0.0000  1.0000      0.0000  0.0000
  o =  0.8936  v =  1.0000  0.0000      0.0000  0.0000
 
atom =  74  type =  4  l = 0
 
 onsite density matrix
 
spin component  1
 
  0.8936
 
spin component  2
 
  0.7311
 
 occupancies and eigenvectors
 
  o =  0.7311  v =  0.0000  1.0000      0.0000  0.0000
  o =  0.8936  v =  1.0000  0.0000      0.0000  0.0000
 
atom =  75  type =  4  l = 0
 
 onsite density matrix
 
spin component  1
 
  0.8936
 
spin component  2
 
  0.7311
 
 occupancies and eigenvectors
 
  o =  0.7311  v =  0.0000  1.0000      0.0000  0.0000
  o =  0.8936  v =  1.0000  0.0000      0.0000  0.0000
 
atom =  76  type =  4  l = 0
 
 onsite density matrix
 
spin component  1
 
  0.8936
 
spin component  2
 
  0.7311
 
 occupancies and eigenvectors
 
  o =  0.7311  v =  0.0000  1.0000      0.0000  0.0000
  o =  0.8936  v =  1.0000  0.0000      0.0000  0.0000
 
atom =  77  type =  4  l = 0
 
 onsite density matrix
 
spin component  1
 
  0.8936
 
spin component  2
 
  0.7311
 
 occupancies and eigenvectors
 
  o =  0.7311  v =  0.0000  1.0000      0.0000  0.0000
  o =  0.8936  v =  1.0000  0.0000      0.0000  0.0000
 
atom =  78  type =  4  l = 0
 
 onsite density matrix
 
spin component  1
 
  0.8936
 
spin component  2
 
  0.7311
 
 occupancies and eigenvectors
 
  o =  0.7311  v =  0.0000  1.0000      0.0000  0.0000
  o =  0.8936  v =  1.0000  0.0000      0.0000  0.0000
 
atom =  79  type =  4  l = 0
 
 onsite density matrix
 
spin component  1
 
  0.8936
 
spin component  2
 
  0.7311
 
 occupancies and eigenvectors
 
  o =  0.7311  v =  0.0000  1.0000      0.0000  0.0000
  o =  0.8936  v =  1.0000  0.0000      0.0000  0.0000
 
atom =  80  type =  4  l = 0
 
 onsite density matrix
 
spin component  1
 
  0.8936
 
spin component  2
 
  0.7311
 
 occupancies and eigenvectors
 
  o =  0.7311  v =  0.0000  1.0000      0.0000  0.0000
  o =  0.8936  v =  1.0000  0.0000      0.0000  0.0000
 
atom =  81  type =  4  l = 0
 
 onsite density matrix
 
spin component  1
 
  0.8936
 
spin component  2
 
  0.7311
 
 occupancies and eigenvectors
 
  o =  0.7311  v =  0.0000  1.0000      0.0000  0.0000
  o =  0.8936  v =  1.0000  0.0000      0.0000  0.0000
 
atom =  82  type =  4  l = 0
 
 onsite density matrix
 
spin component  1
 
  0.8936
 
spin component  2
 
  0.7311
 
 occupancies and eigenvectors
 
  o =  0.7311  v =  0.0000  1.0000      0.0000  0.0000
  o =  0.8936  v =  1.0000  0.0000      0.0000  0.0000
 
atom =  83  type =  4  l = 0
 
 onsite density matrix
 
spin component  1
 
  0.8936
 
spin component  2
 
  0.7311
 
 occupancies and eigenvectors
 
  o =  0.7311  v =  0.0000  1.0000      0.0000  0.0000
  o =  0.8936  v =  1.0000  0.0000      0.0000  0.0000
 
atom =  84  type =  4  l = 0
 
 onsite density matrix
 
spin component  1
 
  0.8936
 
spin component  2
 
  0.7311
 
 occupancies and eigenvectors
 
  o =  0.7311  v =  0.0000  1.0000      0.0000  0.0000
  o =  0.8936  v =  1.0000  0.0000      0.0000  0.0000
 
atom =  85  type =  4  l = 0
 
 onsite density matrix
 
spin component  1
 
  0.8936
 
spin component  2
 
  0.7311
 
 occupancies and eigenvectors
 
  o =  0.7311  v =  0.0000  1.0000      0.0000  0.0000
  o =  0.8936  v =  1.0000  0.0000      0.0000  0.0000
 
atom =  86  type =  4  l = 0
 
 onsite density matrix
 
spin component  1
 
  0.8936
 
spin component  2
 
  0.7311
 
 occupancies and eigenvectors
 
  o =  0.7311  v =  0.0000  1.0000      0.0000  0.0000
  o =  0.8936  v =  1.0000  0.0000      0.0000  0.0000
 
atom =  87  type =  4  l = 0
 
 onsite density matrix
 
spin component  1
 
  0.8936
 
spin component  2
 
  0.7311
 
 occupancies and eigenvectors
 
  o =  0.7311  v =  0.0000  1.0000      0.0000  0.0000
  o =  0.8936  v =  1.0000  0.0000      0.0000  0.0000
 
atom =  88  type =  4  l = 0
 
 onsite density matrix
 
spin component  1
 
  0.8936
 
spin component  2
 
  0.7311
 
 occupancies and eigenvectors
 
  o =  0.7311  v =  0.0000  1.0000      0.0000  0.0000
  o =  0.8936  v =  1.0000  0.0000      0.0000  0.0000
 
atom =  89  type =  4  l = 0
 
 onsite density matrix
 
spin component  1
 
  0.8936
 
spin component  2
 
  0.7311
 
 occupancies and eigenvectors
 
  o =  0.7311  v =  0.0000  1.0000      0.0000  0.0000
  o =  0.8936  v =  1.0000  0.0000      0.0000  0.0000
 
atom =  90  type =  4  l = 0
 
 onsite density matrix
 
[...]
     -0.00666      0.00289      0.00663        -0.005273      0.002287      0.005254
     -0.02814      0.00294      0.00711        -0.022288      0.002329      0.005634
     -0.00632      0.01601      0.01963        -0.005003      0.012679      0.015548
     -0.00887      0.00291      0.00018        -0.007027      0.002303      0.000141
     -0.00534      0.01289     -0.00267        -0.004231      0.010209     -0.002114
     -0.03767      0.00180      0.00880        -0.029839      0.001429      0.006972
     -0.02659      0.00854      0.00983        -0.021065      0.006762      0.007790
     -0.01875      0.00385      0.00741        -0.014852      0.003047      0.005869
     -0.00339      0.00537      0.00643        -0.002683      0.004250      0.005094
     -0.00433      0.01810     -0.00097        -0.003426      0.014337     -0.000766
     -0.01706      0.00687      0.01654        -0.013516      0.005438      0.013098
     -0.00705      0.00412      0.00330        -0.005583      0.003263      0.002618
     -0.01112      0.00540     -0.00018        -0.008810      0.004274     -0.000145
     -0.00443      0.00569      0.00390        -0.003510      0.004504      0.003090
     -0.01879      0.00502      0.00902        -0.014880      0.003979      0.007146
     -0.01061      0.01331      0.01333        -0.008402      0.010546      0.010557
     -0.00367      0.00339      0.00177        -0.002907      0.002685      0.001405
      0.00036      0.00554     -0.00463         0.000286      0.004386     -0.003665
     -0.01112      0.01803      0.00064        -0.008805      0.014280      0.000508
     -0.00864      0.00410      0.00725        -0.006842      0.003247      0.005744
     -0.01629      0.07226      0.00364        -0.012904      0.057239      0.002883
     -0.00004      0.01179      0.00709        -0.000033      0.009339      0.005614
     -0.01632     -0.00056      0.00524        -0.012925     -0.000446      0.004151
     -0.00757      0.00324      0.01396        -0.005998      0.002567      0.011061
     -0.00703      0.00167      0.00831        -0.005571      0.001319      0.006583
     -0.00536      0.00449      0.00451        -0.004249      0.003557      0.003571
     -0.02074     -0.00330      0.08410        -0.016428     -0.002612      0.066617
     -0.00946      0.01719      0.00583        -0.007492      0.013618      0.004617
     -0.01940      0.00137      0.00677        -0.015370      0.001087      0.005359
     -0.00895      0.00216      0.00302        -0.007090      0.001709      0.002394
     -0.05879      0.08442     -0.05700        -0.046564      0.066869     -0.045148
     -0.00025      0.00561     -0.00410        -0.000198      0.004442     -0.003246
      0.00363      0.00718      0.00399         0.002874      0.005691      0.003157
     -0.00695      0.00737      0.00103        -0.005502      0.005839      0.000815
     -0.00532      0.00454      0.00188        -0.004211      0.003592      0.001492
     -0.00877      0.00969      0.00364        -0.006949      0.007679      0.002887
      0.02465      0.05295      0.05906         0.019523      0.041942      0.046782
     -0.00679      0.00686      0.00980        -0.005381      0.005435      0.007764
     -0.02403      0.00641      0.01303        -0.019037      0.005078      0.010324
     -0.02066      0.07808      0.01343        -0.016366      0.061849      0.010635
     -0.01099      0.00008      0.00357        -0.008706      0.000064      0.002826
     -0.01529      0.00074      0.00051        -0.012113      0.000583      0.000402
     -0.18705     -0.03151      0.06420        -0.148155     -0.024957      0.050854
     -0.01507      0.06630     -0.06250        -0.011936      0.052519     -0.049508
     -0.01484      0.01119      0.00473        -0.011754      0.008865      0.003744
     -0.01840      0.00160     -0.00424        -0.014574      0.001270     -0.003357
     -0.06604      0.01075     -0.03638        -0.052310      0.008515     -0.028813
      0.01888      0.01021      0.05536         0.014954      0.008085      0.043852
     -0.01319      0.00082      0.00300        -0.010446      0.000646      0.002375
     -0.01566      0.00150      0.00562        -0.012403      0.001191      0.004452
      0.00585      0.11100      0.10683         0.004634      0.087919      0.084619
      0.16550      0.13421     -0.06021         0.131093      0.106304     -0.047691
     -0.01138      0.00047      0.00448        -0.009011      0.000370      0.003545
     -0.01274     -0.00020      0.00273        -0.010094     -0.000161      0.002162
      0.00419      0.01399      0.01073         0.003318      0.011083      0.008495
     -0.03093      0.00366      0.01293        -0.024501      0.002897      0.010241
     -0.00528      0.00435     -0.00119        -0.004183      0.003444     -0.000944
     -0.01184      0.01499      0.00349        -0.009378      0.011875      0.002764
     -0.01190      0.01543      0.00630        -0.009425      0.012220      0.004990
     -0.00442     -0.00925     -0.05069        -0.003501     -0.007327     -0.040151
     -0.01027      0.00207      0.00113        -0.008135      0.001643      0.000894
     -0.01390      0.00113      0.00566        -0.011009      0.000891      0.004486
      0.00406      0.02402      0.01099         0.003218      0.019028      0.008702
     -0.03247      0.00568      0.01363        -0.025716      0.004496      0.010794
     -0.00434      0.01217      0.00035        -0.003440      0.009642      0.000280
     -0.00592      0.00418      0.00572        -0.004686      0.003313      0.004528
     -0.01394      0.00343      0.00327        -0.011039      0.002720      0.002591
     -0.01343      0.00907      0.00713        -0.010636      0.007182      0.005649
     -0.00013      0.00850      0.00330        -0.000103      0.006735      0.002616
     -0.00298      0.00773     -0.00104        -0.002358      0.006123     -0.000821
     -0.01917      0.00982      0.00598        -0.015182      0.007781      0.004736
 -----------------------------------------------------------------------------------
 CHAIN + TOTAL  (eV/Angst)
 ----------------------------------------------
     -0.01934      0.03132      0.00877
     -0.00547     -0.00027      0.00300
     -0.00837      0.00715      0.00133
     -0.00586      0.00636      0.00287
     -0.00658      0.00196      0.00185
     -0.00563      0.00487      0.00202
     -0.00663      0.00644      0.00171
     -0.00396      0.00613      0.00002
     -0.00518     -0.00080      0.00171
     -0.00613      0.00605      0.00380
     -0.00642      0.00154      0.00427
     -0.00474      0.00345      0.00010
     -0.00252      0.00828      0.00120
     -0.00427      0.01555      0.00172
     -0.00499      0.01105      0.00167
     -0.00495      0.00313      0.00185
     -0.00654      0.00180      0.00219
     -0.00523      0.01073      0.00336
     -0.00534      0.00297      0.00279
     -0.00586      0.00202      0.00132
     -0.00573      0.01036      0.00160
     -0.00724      0.00621      0.00240
     -0.00382      0.00504      0.00260
     -0.00811      0.00122      0.00281
     -0.00562      0.00669      0.00350
     -0.00359      0.00372      0.00340
     -0.00257      0.00285      0.00188
     -0.01281      0.00083      0.00490
     -0.00970      0.01259      0.00329
     -0.00523      0.00157      0.00251
     -0.00498      0.00491      0.00116
     -0.00553      0.00681      0.00035
     -0.00490     -0.00159      0.00230
     -0.00502     -0.00062      0.00058
     -0.00705      0.00473     -0.00185
     -0.00518      0.00464     -0.00115
     -0.00635     -0.00003     -0.00245
     -0.00515      0.00417      0.00296
     -0.00453      0.00253      0.00316
     -0.00316      0.00179     -0.00008
     -0.00303      0.00595     -0.00021
     -0.00616     -0.00130      0.00198
     -0.00813      0.00793      0.00266
     -0.00704      0.00631      0.00296
     -0.00965      0.00066      0.00428
     -0.00336      0.00264      0.00554
     -0.00473      0.00203      0.00528
     -0.00360      0.00465      0.00198
     -0.00410      0.00170      0.00176
     -0.00572      0.00778      0.00159
     -0.00817      0.00081      0.00309
     -0.00387      0.00266      0.00183
     -0.00463      0.00715      0.00290
     -0.00204      0.00997      0.00036
     -0.00216      0.00799      0.00057
     -0.00181      0.00438      0.00145
     -0.00104     -0.00114      0.00033
     -0.00177      0.01209      0.00644
     -0.00532      0.00914      0.00342
     -0.00421      0.00426      0.00702
     -0.00443      0.00111      0.00846
     -0.00871      0.00775      0.00347
     -0.00834      0.00084      0.00373
     -0.00589      0.00160      0.00243
     -0.00101      0.01185     -0.00135
     -0.00589      0.01764     -0.00022
     -0.00626      0.00752     -0.00240
     -0.00658      0.00219     -0.00249
     -0.00941      0.00556     -0.00273
     -0.01081      0.01370      0.00018
     -0.00505      0.00169      0.00280
     -0.00503      0.00183      0.00388
     -0.00535      0.00989     -0.00120
     -0.01140      0.00670      0.00320
     -0.00053      0.00095      0.00183
     -0.00245      0.00095      0.00061
     -0.00186      0.01045      0.00002
     -0.00830      0.00092      0.00345
     -0.00394      0.00210      0.00028
     -0.00663      0.00732      0.00131
     -0.00350      0.01042      0.00098
     -0.00714      0.01163      0.00296
     -0.00386      0.00271     -0.00012
     -0.00690      0.00106      0.00299
     -0.00544      0.00683      0.00168
     -0.00477     -0.00143      0.00166
     -0.00449      0.00650     -0.00000
     -0.00616      0.00466      0.00122
     -0.00475      0.00215      0.00235
     -0.00576      0.00231      0.00157
     -0.00568      0.00444      0.00195
     -0.00541      0.00450      0.00296
     -0.00520      0.00239      0.00492
 ----------------------------------------------
 Quasi-Newton relaxation of ions (Broydens 2nd method)
  g(Force)  = 0.733E-03   g(Stress)= 0.000E+00

 retain information from N=  4 steps
 eigenvalues of (default step * inverse Hessian matrix)
  average eigenvalue of G=   5.2160
 eigenvalue spectrum of G is  6.2957  6.2957  6.2562  2.0167


--------------------------------------------------------------------------------------------------------


  
 reached required accuracy - stopping structural energy minimisation
     LOOP+:  cpu time    431.6746: real time    435.5143
    4ORBIT:  cpu time      0.0000: real time      0.0000



 total charge

# of ion       s       p       d       tot
------------------------------------------
    1        2.108   0.319   0.000   2.428
    2        0.424   6.571   2.838   9.833
    3        0.423   6.568   2.831   9.823
    4        0.424   6.575   2.825   9.824
    5        0.425   6.576   2.827   9.828
    6        0.422   6.576   2.810   9.808
    7        0.422   6.577   2.810   9.810
    8        0.422   6.577   2.810   9.808
    9        0.424   6.579   2.821   9.823
   10        0.423   6.571   2.835   9.829
   11        0.424   6.571   2.848   9.844
   12        0.426   6.574   2.860   9.860
   13        0.428   6.580   2.867   9.875
   14        0.423   6.615   2.756   9.794
   15        0.422   6.613   2.753   9.788
   16        0.419   6.607   2.742   9.768
   17        0.418   6.606   2.736   9.760
   18        0.420   6.567   2.826   9.813
   19        0.419   6.581   2.779   9.779
   20        0.419   6.580   2.788   9.788
   21        0.421   6.563   2.849   9.833
   22        0.418   6.562   2.812   9.792
   23        0.419   6.579   2.785   9.783
   24        0.419   6.576   2.788   9.782
   25        0.417   6.573   2.783   9.773
   26        0.489   6.631   3.926  11.046
   27        0.488   6.630   3.925  11.043
   28        1.574   3.476   0.000   5.050
   29        1.574   3.477   0.000   5.050
   30        1.565   3.490   0.000   5.055
   31        1.565   3.492   0.000   5.057
   32        1.565   3.490   0.000   5.054
   33        1.565   3.490   0.000   5.055
   34        1.574   3.478   0.000   5.052
   35        1.575   3.475   0.000   5.049
   36        1.575   3.476   0.000   5.051
   37        1.574   3.481   0.000   5.056
   38        1.582   3.452   0.000   5.034
   39        1.584   3.446   0.000   5.029
   40        1.585   3.445   0.000   5.030
   41        1.580   3.462   0.000   5.041
   42        1.577   3.461   0.000   5.038
   43        1.575   3.465   0.000   5.040
   44        1.575   3.469   0.000   5.044
   45        1.577   3.461   0.000   5.038
   46        1.576   3.467   0.000   5.043
   47        1.575   3.473   0.000   5.048
   48        1.575   3.474   0.000   5.049
   49        1.578   3.466   0.000   5.044
   50        1.566   3.489   0.000   5.055
   51        1.565   3.494   0.000   5.059
   52        1.565   3.496   0.000   5.061
   53        1.565   3.475   0.000   5.040
   54        1.580   3.455   0.000   5.035
   55        1.580   3.454   0.000   5.034
   56        1.580   3.451   0.000   5.031
   57        1.579   3.452   0.000   5.031
   58        1.576   3.474   0.000   5.050
   59        1.578   3.469   0.000   5.046
   60        1.577   3.464   0.000   5.041
   61        1.576   3.468   0.000   5.044
   62        1.575   3.475   0.000   5.050
   63        1.577   3.468   0.000   5.044
   64        1.577   3.469   0.000   5.046
   65        1.568   3.486   0.000   5.054
   66        1.578   3.470   0.000   5.048
   67        1.576   3.475   0.000   5.051
   68        1.576   3.472   0.000   5.047
   69        1.576   3.465   0.000   5.041
   70        1.561   3.506   0.000   5.068
   71        1.565   3.495   0.000   5.060
   72        1.566   3.495   0.000   5.060
   73        1.564   3.478   0.000   5.042
   74        1.567   3.488   0.000   5.055
   75        1.575   3.472   0.000   5.046
   76        1.575   3.473   0.000   5.048
   77        1.575   3.470   0.000   5.046
   78        1.580   3.468   0.000   5.049
   79        1.580   3.468   0.000   5.049
   80        1.581   3.470   0.000   5.050
   81        1.581   3.470   0.000   5.051
   82        1.563   3.509   0.000   5.071
   83        1.564   3.498   0.000   5.062
   84        1.564   3.496   0.000   5.060
   85        1.564   3.493   0.000   5.057
   86        1.565   3.489   0.000   5.054
   87        1.565   3.488   0.000   5.053
   88        1.565   3.490   0.000   5.055
   89        1.565   3.488   0.000   5.053
   90        1.582   3.447   0.000   5.029
   91        1.583   3.446   0.000   5.029
   92        1.583   3.450   0.000   5.032
   93        1.581   3.455   0.000   5.037
--------------------------------------------------
tot        117.051 400.784  75.231 593.066



 magnetization (x)

# of ion       s       p       d       tot
------------------------------------------
    1        0.000  -0.000   0.000  -0.000
    2       -0.000   0.000  -0.000  -0.000
    3        0.000  -0.000  -0.000  -0.000
    4       -0.000   0.000  -0.000  -0.000
    5        0.000   0.000  -0.000  -0.000
    6        0.000   0.000  -0.000  -0.000
    7        0.000   0.000  -0.000  -0.000
    8       -0.000   0.000  -0.000   0.000
    9        0.000  -0.000   0.000   0.000
   10       -0.000   0.000  -0.000  -0.000
   11       -0.000  -0.000  -0.000  -0.000
   12       -0.000  -0.000  -0.000  -0.000
   13       -0.000   0.000  -0.000  -0.000
   14       -0.000   0.000  -0.000  -0.000
   15       -0.000   0.000  -0.000  -0.000
   16        0.000  -0.000   0.000   0.000
   17       -0.000   0.000  -0.000   0.000
   18        0.000  -0.000   0.000   0.000
   19       -0.000  -0.000   0.000  -0.000
   20        0.000   0.000  -0.000  -0.000
   21       -0.000  -0.000   0.000   0.000
   22       -0.000   0.000  -0.000  -0.000
   23       -0.000  -0.000  -0.000  -0.000
   24       -0.000   0.000   0.000   0.000
   25       -0.000  -0.000   0.000  -0.000
   26        0.000  -0.000  -0.000  -0.000
   27       -0.000   0.000  -0.000  -0.000
   28       -0.000  -0.000   0.000  -0.000
   29        0.000  -0.000   0.000  -0.000
   30        0.000   0.000   0.000   0.000
   31        0.000   0.000   0.000   0.000
   32       -0.000   0.000   0.000   0.000
   33       -0.000   0.000   0.000   0.000
   34        0.000  -0.000   0.000  -0.000
   35        0.000   0.000   0.000   0.000
   36        0.000  -0.000   0.000  -0.000
   37        0.000   0.000   0.000   0.000
   38       -0.000   0.000   0.000   0.000
   39        0.000   0.000   0.000   0.000
   40        0.000   0.000   0.000   0.000
   41        0.000   0.000   0.000   0.000
   42        0.000   0.000   0.000   0.000
   43       -0.000  -0.000   0.000  -0.000
   44        0.000   0.000   0.000   0.000
   45       -0.000  -0.000   0.000  -0.000
   46        0.000   0.000   0.000   0.000
   47       -0.000  -0.000   0.000  -0.000
   48       -0.000   0.000   0.000   0.000
   49       -0.000  -0.000   0.000  -0.000
   50        0.000   0.000   0.000   0.000
   51       -0.000  -0.000   0.000  -0.000
   52        0.000   0.000   0.000   0.000
   53       -0.000   0.000   0.000  -0.000
   54       -0.000  -0.000   0.000  -0.000
   55       -0.000  -0.000   0.000  -0.000
   56        0.000   0.000   0.000   0.000
   57        0.000  -0.000   0.000   0.000
   58        0.000   0.000   0.000   0.000
   59       -0.000   0.000   0.000   0.000
   60       -0.000   0.000   0.000   0.000
   61        0.000   0.000   0.000   0.000
   62       -0.000  -0.000   0.000  -0.000
   63        0.000   0.000   0.000   0.000
   64       -0.000  -0.000   0.000  -0.000
   65       -0.000   0.000   0.000   0.000
   66        0.000   0.000   0.000   0.000
   67        0.000   0.000   0.000   0.000
   68       -0.000  -0.000   0.000  -0.000
   69       -0.000  -0.000   0.000  -0.000
   70        0.000  -0.000   0.000  -0.000
   71       -0.000  -0.000   0.000  -0.000
   72       -0.000   0.000   0.000   0.000
   73        0.000   0.000   0.000   0.000
   74       -0.000  -0.000   0.000  -0.000
   75       -0.000   0.000   0.000   0.000
   76        0.000   0.000   0.000   0.000
   77        0.000  -0.000   0.000  -0.000
   78       -0.000   0.000   0.000   0.000
   79       -0.000   0.000   0.000   0.000
   80        0.000   0.000   0.000   0.000
   81        0.000   0.000   0.000   0.000
   82        0.000   0.000   0.000   0.000
   83       -0.000  -0.000   0.000  -0.000
   84       -0.000  -0.000   0.000  -0.000
   85        0.000   0.000   0.000   0.000
   86       -0.000   0.000   0.000  -0.000
   87        0.000   0.000   0.000   0.000
   88       -0.000   0.000   0.000   0.000
   89       -0.000  -0.000   0.000  -0.000
   90        0.000   0.000   0.000   0.000
   91        0.000  -0.000   0.000  -0.000
   92       -0.000   0.000   0.000   0.000
   93        0.000  -0.000   0.000  -0.000
--------------------------------------------------
tot         -0.000   0.000  -0.000  -0.000
 

 total amount of memory used by VASP MPI-rank0   321868. kBytes
=======================================================================

   base      :      30000. kBytes
   nonl-proj :     136648. kBytes
   fftplans  :      24917. kBytes
   grid      :      75254. kBytes
   one-center:       2892. kBytes
   wavefun   :      52157. kBytes
 
  
  
 General timing and accounting informations for this job:
 ========================================================
  
                  Total CPU time used (sec):    25641.260
                            User time (sec):    25529.957
                          System time (sec):      111.303
                         Elapsed time (sec):    25832.678
  
                   Maximum memory used (kb):      702800.
                   Average memory used (kb):          N/A
  
                          Minor page faults:       952317
                          Major page faults:         2086
                 Voluntary context switches:         8280
