<?xml version="1.0" encoding="ISO-8859-1"?>
<modeling>
 <generator>
  <i name="program" type="string">vasp </i>
  <i name="version" type="string">6.3.2  </i>
  <i name="subversion" type="string">27Jun22 (build Aug 05 2024 15:42:26) complex                          parallel </i>
  <i name="platform" type="string">LinuxIFC </i>
  <i name="date" type="string">2025 06 04 </i>
  <i name="time" type="string">20:33:56 </i>
 </generator>
 <incar>
  <i type="string" name="PREC">Accurate</i>
  <i type="string" name="ALGO">Fast</i>
  <i type="logical" name="ADDGRID"> T  </i>
  <i type="int" name="ISPIN">     2</i>
  <i type="int" name="NELM">   100</i>
  <i type="int" name="NELMIN">     3</i>
  <i type="int" name="IBRION">     1</i>
  <i name="EDIFF">      0.00000100</i>
  <i name="EDIFFG">     -0.05000000</i>
  <i type="int" name="NSW">   450</i>
  <i type="int" name="ISIF">     2</i>
  <i type="int" name="ISYM">     0</i>
  <i name="ENCUT">    520.00000000</i>
  <i name="POTIM">      0.20000000</i>
  <v name="MAGMOM">      0.60000000      0.60000000      0.60000000      0.60000000      0.60000000      0.60000000      0.60000000      0.60000000      0.60000000      0.60000000      0.60000000      0.60000000      0.60000000      0.60000000      0.60000000      0.60000000      0.60000000      0.60000000      0.60000000      0.60000000
      0.60000000      0.60000000      0.60000000      0.60000000      0.60000000      0.60000000      0.60000000      0.60000000      0.60000000      0.60000000      0.60000000      0.60000000      0.60000000      0.60000000      0.60000000      0.60000000      0.60000000      0.60000000      0.60000000      0.60000000
      0.60000000      0.60000000      0.60000000      0.60000000      0.60000000      0.60000000      0.60000000      0.60000000      0.60000000      0.60000000      0.60000000      0.60000000      0.60000000      0.60000000      0.60000000      0.60000000      0.60000000      0.60000000      0.60000000      0.60000000
      0.60000000      0.60000000      0.60000000      0.60000000      0.60000000      0.60000000      0.60000000      0.60000000      0.60000000      0.60000000      0.60000000      0.60000000      0.60000000      0.60000000      0.60000000      0.60000000      0.60000000      0.60000000      0.60000000      0.60000000
      0.60000000      0.60000000      0.60000000      0.60000000      0.60000000      0.60000000      0.60000000      0.60000000      0.60000000      0.60000000      0.60000000      0.60000000      0.60000000</v>
  <i type="logical" name="LREAL"> F  </i>
  <i type="int" name="ISMEAR">     0</i>
  <i name="SIGMA">      0.05000000</i>
  <i type="int" name="LMAXMIX">     4</i>
  <i type="logical" name="LWAVE"> F  </i>
  <i type="int" name="LORBIT">    11</i>
  <i type="logical" name="LASPH"> T  </i>
  <i type="logical" name="LDAU"> T  </i>
  <i type="int" name="LDAUTYPE">     2</i>
  <v type="int" name="LDAUL">     0     0     2     0</v>
  <v name="LDAUU">      0.00000000      0.00000000      4.38000000      0.00000000</v>
  <v name="LDAUJ">      0.00000000      0.00000000      0.00000000      0.00000000</v>
  <i type="int" name="LDAUPRINT">     1</i>
  <i name="SPRING">     -5.00000000</i>
 </incar>
 <primitive_cell>
  <structure name="primitive_cell" >
   <crystal>
    <varray name="basis" >
     <v>      22.78514290       0.00000000       0.00000000 </v>
     <v>       0.00000000       3.87685037       0.00000000 </v>
     <v>      -9.97305163       0.00000241      15.12824818 </v>
    </varray>
    <i name="volume">   1336.34759474 </i>
    <varray name="rec_basis" >
     <v>       0.04388825       0.00000000       0.02893261 </v>
     <v>       0.00000000       0.25794135      -0.00000004 </v>
     <v>       0.00000000       0.00000000       0.06610151 </v>
    </varray>
   </crystal>
   <varray name="positions" >
    <v>       0.32285503       0.87594843       0.63148822 </v>
    <v>       0.36703341       0.00750246       0.04618344 </v>
    <v>       0.63395902       0.00771573       0.95413042 </v>
    <v>       0.86476427       0.50777730       0.04408020 </v>
    <v>       0.13143899       0.50949673       0.95523664 </v>
    <v>       0.24861058       0.00363225       0.13752086 </v>
    <v>       0.75196822       0.00323458       0.86130556 </v>
    <v>       0.74761581       0.50311116       0.13787402 </v>
    <v>       0.24972577       0.50335287       0.86483815 </v>
    <v>       0.12995524       0.99748492       0.23074030 </v>
    <v>       0.86905101       0.99855402       0.76726974 </v>
    <v>       0.63154790       0.49843640       0.23321644 </v>
    <v>       0.37151749       0.49610793       0.77570596 </v>
    <v>       0.41890247       0.96658568       0.37944543 </v>
    <v>       0.58387744       0.96722795       0.61730561 </v>
    <v>       0.91738331       0.46726925       0.38155897 </v>
    <v>       0.08229131       0.46742854       0.61999846 </v>
    <v>       0.29720411       0.00329365       0.46814909 </v>
    <v>       0.70245719       0.00349327       0.52627738 </v>
    <v>       0.79873431       0.50368167       0.47326436 </v>
    <v>       0.19765883       0.50273636       0.52264656 </v>
    <v>       0.46684006       0.00102805       0.71343484 </v>
    <v>       0.53670414       0.00172614       0.28707226 </v>
    <v>       0.96380478       0.50165066       0.71242232 </v>
    <v>       0.03230180       0.50144793       0.28303321 </v>
    <v>       0.99937071       0.25180853       0.00027759 </v>
    <v>       0.50092408       0.75291978       0.00125473 </v>
    <v>       0.00019033       0.49085519       0.50031073 </v>
    <v>       0.50086757       0.99129080       0.49894311 </v>
    <v>       0.14874525       0.00447193       0.99142566 </v>
    <v>       0.84971631       0.00391577       0.00822604 </v>
    <v>       0.64901960       0.50435863       0.99038143 </v>
    <v>       0.35091190       0.50402163       0.00956587 </v>
    <v>       0.30335906       0.00314012       0.08199299 </v>
    <v>       0.69616812       0.00381734       0.91739708 </v>
    <v>       0.80274365       0.50327449       0.08115240 </v>
    <v>       0.19626067       0.50198569       0.91988220 </v>
    <v>       0.03391083       0.99929652       0.09893251 </v>
    <v>       0.96554071       0.99980093       0.90236712 </v>
    <v>       0.53441194       0.50164034       0.09895565 </v>
    <v>       0.46674223       0.50037951       0.90150731 </v>
    <v>       0.44978498       0.00377340       0.15580165 </v>
    <v>       0.54986186       0.00301653       0.84376347 </v>
    <v>       0.94876978       0.50330995       0.15494993 </v>
    <v>       0.05015045       0.50517314       0.84465715 </v>
    <v>       0.17991104       0.00205000       0.17793488 </v>
    <v>       0.81986924       0.00307853       0.82244411 </v>
    <v>       0.67979652       0.50291544       0.17712537 </v>
    <v>       0.32011876       0.50043617       0.82521160 </v>
    <v>       0.04863458       0.00128707       0.27015668 </v>
    <v>       0.95054772       0.00183272       0.73021237 </v>
    <v>       0.54995503       0.50164554       0.26985044 </v>
    <v>       0.45102008       0.50096308       0.72896774 </v>
    <v>       0.32535953       0.99972558       0.25005413 </v>
    <v>       0.67430875       0.99953421       0.74963189 </v>
    <v>       0.82525506       0.49921874       0.24948155 </v>
    <v>       0.17462938       0.49975995       0.75113354 </v>
    <v>       0.47620696       0.99844155       0.32593854 </v>
    <v>       0.52256162       0.99945596       0.67016298 </v>
    <v>       0.97602628       0.49950470       0.32660243 </v>
    <v>       0.02413308       0.49857732       0.67367787 </v>
    <v>       0.20673955       0.00169551       0.34929880 </v>
    <v>       0.79298891       0.00190315       0.65112884 </v>
    <v>       0.70767348       0.50208176       0.34915088 </v>
    <v>       0.29613089       0.50147912       0.65365580 </v>
    <v>       0.35428954       0.00076016       0.42668416 </v>
    <v>       0.64823142       0.99925247       0.57441827 </v>
    <v>       0.85272062       0.50024669       0.42542280 </v>
    <v>       0.14771764       0.49989175       0.57511723 </v>
    <v>       0.22300172       0.00238750       0.52328948 </v>
    <v>       0.77879042       0.00305710       0.48123786 </v>
    <v>       0.72195824       0.50291979       0.51854415 </v>
    <v>       0.27907800       0.50260797       0.48096985 </v>
    <v>       0.37506067       0.00194001       0.59781391 </v>
    <v>       0.62181372       0.00255302       0.40401963 </v>
    <v>       0.87855906       0.50275215       0.59600723 </v>
    <v>       0.12143848       0.50214645       0.40365670 </v>
    <v>       0.09111424       0.99286989       0.63126257 </v>
    <v>       0.90998050       0.99299538       0.36863464 </v>
    <v>       0.58985368       0.49287065       0.63101627 </v>
    <v>       0.40935474       0.49253063       0.36904629 </v>
    <v>       0.39172797       0.99971215       0.76778581 </v>
    <v>       0.60592932       0.00106286       0.23201951 </v>
    <v>       0.89451215       0.50097925       0.76829715 </v>
    <v>       0.10570241       0.50041543       0.23210344 </v>
    <v>       0.27544626       0.00303348       0.89730452 </v>
    <v>       0.72394719       0.00358117       0.10263939 </v>
    <v>       0.77532860       0.50361485       0.89640499 </v>
    <v>       0.22423703       0.50371020       0.10420391 </v>
    <v>       0.42950833       0.00439174       0.98751701 </v>
    <v>       0.57154770       0.00511715       0.01371810 </v>
    <v>       0.92810603       0.50239981       0.98707012 </v>
    <v>       0.07102525       0.50369015       0.01353134 </v>
   </varray>
  </structure>
  <varray name="primitive_index" >
   <v type="int" >        1 </v>
   <v type="int" >        2 </v>
   <v type="int" >        3 </v>
   <v type="int" >        4 </v>
   <v type="int" >        5 </v>
   <v type="int" >        6 </v>
   <v type="int" >        7 </v>
   <v type="int" >        8 </v>
   <v type="int" >        9 </v>
   <v type="int" >       10 </v>
   <v type="int" >       11 </v>
   <v type="int" >       12 </v>
   <v type="int" >       13 </v>
   <v type="int" >       14 </v>
   <v type="int" >       15 </v>
   <v type="int" >       16 </v>
   <v type="int" >       17 </v>
   <v type="int" >       18 </v>
   <v type="int" >       19 </v>
   <v type="int" >       20 </v>
   <v type="int" >       21 </v>
   <v type="int" >       22 </v>
   <v type="int" >       23 </v>
   <v type="int" >       24 </v>
   <v type="int" >       25 </v>
   <v type="int" >       26 </v>
   <v type="int" >       27 </v>
   <v type="int" >       28 </v>
   <v type="int" >       29 </v>
   <v type="int" >       30 </v>
   <v type="int" >       31 </v>
   <v type="int" >       32 </v>
   <v type="int" >       33 </v>
   <v type="int" >       34 </v>
   <v type="int" >       35 </v>
   <v type="int" >       36 </v>
   <v type="int" >       37 </v>
   <v type="int" >       38 </v>
   <v type="int" >       39 </v>
   <v type="int" >       40 </v>
   <v type="int" >       41 </v>
   <v type="int" >       42 </v>
   <v type="int" >       43 </v>
   <v type="int" >       44 </v>
   <v type="int" >       45 </v>
   <v type="int" >       46 </v>
   <v type="int" >       47 </v>
   <v type="int" >       48 </v>
   <v type="int" >       49 </v>
   <v type="int" >       50 </v>
   <v type="int" >       51 </v>
   <v type="int" >       52 </v>
   <v type="int" >       53 </v>
   <v type="int" >       54 </v>
   <v type="int" >       55 </v>
   <v type="int" >       56 </v>
   <v type="int" >       57 </v>
   <v type="int" >       58 </v>
   <v type="int" >       59 </v>
   <v type="int" >       60 </v>
   <v type="int" >       61 </v>
   <v type="int" >       62 </v>
   <v type="int" >       63 </v>
   <v type="int" >       64 </v>
   <v type="int" >       65 </v>
   <v type="int" >       66 </v>
   <v type="int" >       67 </v>
   <v type="int" >       68 </v>
   <v type="int" >       69 </v>
   <v type="int" >       70 </v>
   <v type="int" >       71 </v>
   <v type="int" >       72 </v>
   <v type="int" >       73 </v>
   <v type="int" >       74 </v>
   <v type="int" >       75 </v>
   <v type="int" >       76 </v>
   <v type="int" >       77 </v>
   <v type="int" >       78 </v>
   <v type="int" >       79 </v>
   <v type="int" >       80 </v>
   <v type="int" >       81 </v>
   <v type="int" >       82 </v>
   <v type="int" >       83 </v>
   <v type="int" >       84 </v>
   <v type="int" >       85 </v>
   <v type="int" >       86 </v>
   <v type="int" >       87 </v>
   <v type="int" >       88 </v>
   <v type="int" >       89 </v>
   <v type="int" >       90 </v>
   <v type="int" >       91 </v>
   <v type="int" >       92 </v>
   <v type="int" >       93 </v>
  </varray>
 </primitive_cell>
 <kpoints>
  <generation param="Gamma">
   <v type="int" name="divisions">       1        6        1 </v>
   <v name="usershift">      0.00000000       0.00000000       0.00000000 </v>
   <v name="genvec1">      1.00000000       0.00000000      -0.00000000 </v>
   <v name="genvec2">      0.00000000       0.16666667       0.00000000 </v>
   <v name="genvec3">      0.00000000       0.00000000       1.00000000 </v>
   <v name="shift">      0.00000000       0.00000000       0.00000000 </v>
  </generation>
  <varray name="kpointlist" >
   <v>       0.00000000       0.00000000       0.00000000 </v>
   <v>       0.00000000       0.16666667       0.00000000 </v>
   <v>       0.00000000       0.33333333       0.00000000 </v>
   <v>       0.00000000       0.50000000       0.00000000 </v>
  </varray>
  <varray name="weights" >
   <v>       0.16666667 </v>
   <v>       0.33333333 </v>
   <v>       0.33333333 </v>
   <v>       0.16666667 </v>
  </varray>
 </kpoints>
 <parameters>
  <separator name="general" >
   <i type="string" name="SYSTEM">unknown system</i>
   <i type="logical" name="LCOMPAT"> F  </i>
  </separator>
  <separator name="electronic" >
   <i type="string" name="PREC">accura</i>
   <i name="ENMAX">    520.00000000</i>
   <i name="ENAUG">    605.39200000</i>
   <i name="EDIFF">      0.00000100</i>
   <i type="int" name="IALGO">    68</i>
   <i type="int" name="IWAVPR">    11</i>
   <i type="int" name="NBANDS">   462</i>
   <i type="int" name="NBANDSLOW">    -1</i>
   <i type="int" name="NBANDSHIGH">    -1</i>
   <i name="NELECT">    687.00000000</i>
   <i type="int" name="TURBO">     0</i>
   <i type="int" name="IRESTART">     0</i>
   <i type="int" name="NREBOOT">     0</i>
   <i type="int" name="NMIN">     0</i>
   <i name="EREF">      0.00000000</i>
   <separator name="electronic smearing" >
    <i type="int" name="ISMEAR">     0</i>
    <i name="SIGMA">      0.05000000</i>
    <i name="KSPACING">      0.50000000</i>
    <i type="logical" name="KGAMMA"> T  </i>
    <i type="logical" name="KBLOWUP"> T  </i>
   </separator>
   <separator name="electronic projectors" >
    <i type="logical" name="LREAL"> F  </i>
    <v name="ROPT">      0.00000000      0.00000000      0.00000000      0.00000000</v>
    <i type="int" name="LMAXPAW">  -100</i>
    <i type="int" name="LMAXMIX">     4</i>
    <i type="logical" name="NLSPLINE"> F  </i>
   </separator>
   <separator name="electronic startup" >
    <i type="int" name="ISTART">     0</i>
    <i type="int" name="ICHARG">     2</i>
    <i type="int" name="INIWAV">     1</i>
   </separator>
   <separator name="electronic spin" >
    <i type="int" name="ISPIN">     2</i>
    <i type="logical" name="LNONCOLLINEAR"> F  </i>
    <v name="MAGMOM">      0.60000000      0.60000000      0.60000000      0.60000000      0.60000000      0.60000000      0.60000000      0.60000000      0.60000000      0.60000000      0.60000000      0.60000000      0.60000000      0.60000000      0.60000000      0.60000000      0.60000000      0.60000000      0.60000000      0.60000000
      0.60000000      0.60000000      0.60000000      0.60000000      0.60000000      0.60000000      0.60000000      0.60000000      0.60000000      0.60000000      0.60000000      0.60000000      0.60000000      0.60000000      0.60000000      0.60000000      0.60000000      0.60000000      0.60000000      0.60000000
      0.60000000      0.60000000      0.60000000      0.60000000      0.60000000      0.60000000      0.60000000      0.60000000      0.60000000      0.60000000      0.60000000      0.60000000      0.60000000      0.60000000      0.60000000      0.60000000      0.60000000      0.60000000      0.60000000      0.60000000
      0.60000000      0.60000000      0.60000000      0.60000000      0.60000000      0.60000000      0.60000000      0.60000000      0.60000000      0.60000000      0.60000000      0.60000000      0.60000000      0.60000000      0.60000000      0.60000000      0.60000000      0.60000000      0.60000000      0.60000000
      0.60000000      0.60000000      0.60000000      0.60000000      0.60000000      0.60000000      0.60000000      0.60000000      0.60000000      0.60000000      0.60000000      0.60000000      0.60000000</v>
    <i name="NUPDOWN">     -1.00000000</i>
    <i type="logical" name="LSORBIT"> F  </i>
    <v name="SAXIS">      0.00000000      0.00000000      1.00000000</v>
    <i type="logical" name="LSPIRAL"> F  </i>
    <v name="QSPIRAL">      0.00000000      0.00000000      0.00000000</v>
    <i type="logical" name="LZEROZ"> F  </i>
   </separator>
   <separator name="electronic exchange-correlation" >
    <i type="logical" name="LASPH"> T  </i>
    <i type="logical" name="LMETAGGA"> F  </i>
   </separator>
   <separator name="electronic convergence" >
    <i type="int" name="NELM">   100</i>
    <i type="int" name="NELMDL">    -5</i>
    <i type="int" name="NELMIN">     3</i>
    <i name="ENINI">    520.00000000</i>
    <separator name="electronic convergence detail" >
     <i type="logical" name="LDIAG"> T  </i>
     <i type="logical" name="LSUBROT"> F  </i>
     <i name="WEIMIN">      0.00100000</i>
     <i name="EBREAK">      0.00000000</i>
     <i name="DEPER">      0.30000000</i>
     <i type="int" name="NRMM">     4</i>
     <i name="TIME">      0.40000000</i>
    </separator>
   </separator>
   <separator name="electronic mixer" >
    <i name="AMIX">      0.40000000</i>
    <i name="BMIX">      1.00000000</i>
    <i name="AMIN">      0.10000000</i>
    <i name="AMIX_MAG">      1.60000000</i>
    <i name="BMIX_MAG">      1.00000000</i>
    <separator name="electronic mixer details" >
     <i type="int" name="IMIX">     4</i>
     <i type="logical" name="MIXFIRST"> F  </i>
     <i type="int" name="MAXMIX">   -45</i>
     <i name="WC">    100.00000000</i>
     <i type="int" name="INIMIX">     1</i>
     <i type="int" name="MIXPRE">     1</i>
     <i type="int" name="MREMOVE">     5</i>
    </separator>
   </separator>
   <separator name="electronic dipolcorrection" >
    <i type="logical" name="LDIPOL"> F  </i>
    <i type="logical" name="LMONO"> F  </i>
    <i type="int" name="IDIPOL">     0</i>
    <i name="EPSILON">      1.00000000</i>
    <v name="DIPOL">   -100.00000000   -100.00000000   -100.00000000</v>
    <i name="EFIELD">      0.00000000</i>
   </separator>
  </separator>
  <separator name="grids" >
   <i type="int" name="NGX">   180</i>
   <i type="int" name="NGY">    30</i>
   <i type="int" name="NGZ">   140</i>
   <i type="int" name="NGXF">   360</i>
   <i type="int" name="NGYF">    60</i>
   <i type="int" name="NGZF">   280</i>
   <i type="logical" name="ADDGRID"> T  </i>
  </separator>
  <separator name="ionic" >
   <i type="int" name="NSW">   450</i>
   <i type="int" name="IBRION">     1</i>
   <i type="int" name="MDALGO">     0</i>
   <i type="int" name="ISIF">     2</i>
   <i name="PSTRESS">      0.00000000</i>
   <i name="EDIFFG">     -0.05000000</i>
   <i type="int" name="NFREE">     0</i>
   <i name="POTIM">      0.20000000</i>
   <i name="SMASS">     -3.00000000</i>
   <i name="SCALEE">      1.00000000</i>
  </separator>
  <separator name="ionic md" >
   <i name="TEBEG">      0.00010000</i>
   <i name="TEEND">      0.00010000</i>
   <i type="int" name="NBLOCK">     1</i>
   <i type="int" name="KBLOCK">   450</i>
   <i type="int" name="NPACO">   256</i>
   <i name="APACO">     10.00000000</i>
  </separator>
  <separator name="symmetry" >
   <i type="int" name="ISYM">     0</i>
   <i name="SYMPREC">      0.00001000</i>
  </separator>
  <separator name="dos" >
   <i type="int" name="LORBIT">    11</i>
   <v name="RWIGS">     -1.00000000     -1.00000000     -1.00000000     -1.00000000</v>
   <i type="int" name="NEDOS">   301</i>
   <i name="EMIN">     10.00000000</i>
   <i name="EMAX">    -10.00000000</i>
   <i name="EFERMI">      0.00000000</i>
  </separator>
  <separator name="writing" >
   <i type="int" name="NWRITE">     2</i>
   <i type="logical" name="LWAVE"> F  </i>
   <i type="logical" name="LDOWNSAMPLE"> F  </i>
   <i type="logical" name="LCHARG"> T  </i>
   <i type="logical" name="LPARD"> F  </i>
   <i type="logical" name="LVTOT"> F  </i>
   <i type="logical" name="LVHAR"> F  </i>
   <i type="logical" name="LELF"> F  </i>
   <i type="logical" name="LOPTICS"> F  </i>
   <v name="STM">      0.00000000      0.00000000      0.00000000      0.00000000      0.00000000      0.00000000      0.00000000</v>
  </separator>
  <separator name="performance" >
   <i type="int" name="NPAR">    42</i>
   <i type="int" name="NSIM">     4</i>
   <i type="int" name="NBLK">    -1</i>
   <i type="logical" name="LPLANE"> T  </i>
   <i type="logical" name="LSCALAPACK"> T  </i>
   <i type="logical" name="LSCAAWARE"> F  </i>
   <i type="logical" name="LSCALU"> F  </i>
   <i type="logical" name="LASYNC"> F  </i>
   <i type="logical" name="LORBITALREAL"> F  </i>
  </separator>
  <separator name="miscellaneous" >
   <i type="int" name="IDIOT">     3</i>
   <i type="int" name="PHON_NSTRUCT">    -1</i>
   <i type="logical" name="LMUSIC"> F  </i>
   <v name="POMASS">      7.01000000     92.00000000     95.94000000     16.00000000</v>
   <v name="DARWINR">      0.00000000      0.00000000      0.00000000      0.00000000</v>
   <v name="DARWINV">      1.00000000      1.00000000      1.00000000      1.00000000</v>
   <i type="logical" name="LCORR"> T  </i>
  </separator>
  <i type="logical" name="GGA_COMPAT"> T  </i>
  <i type="logical" name="LBERRY"> F  </i>
  <i type="int" name="ICORELEVEL">     0</i>
  <i type="logical" name="LDAU"> T  </i>
  <v type="int" name="LDAUTYPE">     2</v>
  <v type="int" name="LDAUL">     0</v>
  <v name="LDAUU">      0.00000000</v>
  <v name="LDAUJ">      0.00000000</v>
  <i type="int" name="LDAUPRINT">     1</i>
  <i type="int" name="I_CONSTRAINED_M">     0</i>
  <separator name="electronic exchange-correlation" >
   <i type="string" name="GGA">--</i>
   <i type="int" name="VOSKOWN">     0</i>
   <i type="logical" name="LHFCALC"> F  </i>
   <i type="string" name="PRECFOCK"></i>
   <i type="logical" name="LSYMGRAD"> F  </i>
   <i type="logical" name="LHFONE"> F  </i>
   <i type="logical" name="LRHFCALC"> F  </i>
   <i type="logical" name="LTHOMAS"> F  </i>
   <i type="logical" name="LMODELHF"> F  </i>
   <i type="logical" name="LFOCKACE"> F  </i>
   <i name="ENCUT4O">     -1.00000000</i>
   <i type="int" name="EXXOEP">     0</i>
   <i type="int" name="FOURORBIT">     0</i>
   <i name="AEXX">      0.00000000</i>
   <i name="HFALPHA">      0.00000000</i>
   <i name="MCALPHA">      0.00000000</i>
   <i name="ALDAX">      1.00000000</i>
   <i name="AGGAX">      1.00000000</i>
   <i name="ALDAC">      1.00000000</i>
   <i name="AGGAC">      1.00000000</i>
   <i type="int" name="NKREDX">     1</i>
   <i type="int" name="NKREDY">     1</i>
   <i type="int" name="NKREDZ">     1</i>
   <i type="logical" name="SHIFTRED"> F  </i>
   <i type="logical" name="ODDONLY"> F  </i>
   <i type="logical" name="EVENONLY"> F  </i>
   <i type="int" name="LMAXFOCK">     0</i>
   <i type="int" name="NMAXFOCKAE">     0</i>
   <i type="logical" name="LFOCKAEDFT"> F  </i>
   <i name="HFSCREEN">      0.00000000</i>
   <i name="HFSCREENC">      0.00000000</i>
   <i type="int" name="NBANDSGWLOW">     0</i>
  </separator>
  <separator name="vdW DFT" >
   <i type="logical" name="LUSE_VDW"> F  </i>
   <i name="Zab_VDW">     -0.84910000</i>
   <i name="PARAM1">      0.12340000</i>
   <i name="PARAM2">      1.00000000</i>
   <i name="PARAM3">      0.00000000</i>
  </separator>
  <separator name="model GW" >
   <i type="int" name="MODEL_GW">     0</i>
   <i name="MODEL_EPS0">      8.62159739</i>
   <i name="MODEL_ALPHA">      1.00000000</i>
  </separator>
  <separator name="linear response parameters" >
   <i type="logical" name="LEPSILON"> F  </i>
   <i type="logical" name="LRPA"> F  </i>
   <i type="logical" name="LNABLA"> F  </i>
   <i type="logical" name="LVEL"> F  </i>
   <i name="CSHIFT">      0.10000000</i>
   <i name="OMEGAMAX">     -1.00000000</i>
   <i name="DEG_THRESHOLD">      0.00200000</i>
   <i name="RTIME">     -0.10000000</i>
   <i name="WPLASMAI">      0.00000000</i>
   <v name="DFIELD">      0.00000000      0.00000000      0.00000000</v>
   <v name="WPLASMA">      0.00000000      0.00000000      0.00000000      0.00000000      0.00000000      0.00000000      0.00000000      0.00000000      0.00000000</v>
  </separator>
  <separator name="orbital magnetization" >
   <i type="logical" name="NUCIND"> F  </i>
   <v name="MAGPOS">      0.00000000      0.00000000      0.00000000</v>
   <i type="logical" name="LNICSALL"> T  </i>
   <i type="logical" name="ORBITALMAG"> F  </i>
   <i type="logical" name="LMAGBLOCH"> F  </i>
   <i type="logical" name="LCHIMAG"> F  </i>
   <i type="logical" name="LGAUGE"> T  </i>
   <i type="int" name="MAGATOM">     0</i>
   <v name="MAGDIPOL">      0.00000000      0.00000000      0.00000000</v>
   <v name="AVECCONST">      0.00000000      0.00000000      0.00000000</v>
  </separator>
  <separator name="response functions" >
   <i type="logical" name="LFINITE_TEMPERATURE"> F  </i>
   <i type="logical" name="LADDER"> F  </i>
   <i type="logical" name="LRPAFORCE"> F  </i>
   <i type="logical" name="LFXC"> F  </i>
   <i type="logical" name="LHARTREE"> T  </i>
   <i type="int" name="IBSE">     0</i>
   <v type="int" name="KPOINT">    -1     0     0     0</v>
   <i type="logical" name="LTCTC"> F  </i>
   <i type="logical" name="LTCTE"> F  </i>
   <i type="logical" name="LTETE"> F  </i>
   <i type="logical" name="LTRIPLET"> F  </i>
   <i type="logical" name="LFXCEPS"> F  </i>
   <i type="logical" name="LFXHEG"> F  </i>
   <i type="int" name="NATURALO">     2</i>
   <i type="logical" name="LHOLEGF"> F  </i>
   <i type="logical" name="L2ORDER"> F  </i>
   <i type="logical" name="LDMP1"> F  </i>
   <i type="logical" name="LMP2LT"> F  </i>
   <i type="logical" name="LSMP2LT"> F  </i>
   <i type="logical" name="LGWLF"> F  </i>
   <i name="ENCUTGW">     -2.00000000</i>
   <i name="ENCUTGWSOFT">     -2.00000000</i>
   <i name="ENCUTLF">     -1.00000000</i>
   <i type="logical" name="LESF_SPLINES"> F  </i>
   <i type="int" name="LMAXMP2">    -1</i>
   <i name="SCISSOR">      0.00000000</i>
   <i type="int" name="NOMEGA">     0</i>
   <i type="int" name="NOMEGAR">     0</i>
   <i type="int" name="NBANDSGW">    -1</i>
   <i type="int" name="NBANDSO">    -1</i>
   <i type="int" name="NBANDSV">    -1</i>
   <i type="int" name="NELMGW">     1</i>
   <i type="int" name="NELMHF">     1</i>
   <i type="int" name="DIM">     3</i>
   <i type="int" name="IESPILON">     4</i>
   <i type="int" name="ANTIRES">     0</i>
   <i name="OMEGAMAX">    -30.00000000</i>
   <i name="OMEGAMIN">    -30.00000000</i>
   <i name="OMEGATL">   -200.00000000</i>
   <i type="int" name="OMEGAGRID">     0</i>
   <i name="CSHIFT">     -0.10000000</i>
   <i type="logical" name="LSELFENERGY"> F  </i>
   <i type="logical" name="LSPECTRAL"> F  </i>
   <i type="logical" name="LSPECTRALGW"> F  </i>
   <i type="logical" name="LSINGLES"> F  </i>
   <i type="logical" name="LFERMIGW"> F  </i>
   <i type="logical" name="ODDONLYGW"> F  </i>
   <i type="logical" name="EVENONLYGW"> F  </i>
   <i type="int" name="NKREDLFX">     1</i>
   <i type="int" name="NKREDLFY">     1</i>
   <i type="int" name="NKREDLFZ">     1</i>
   <i type="int" name="MAXMEM">  2800</i>
   <i type="int" name="TELESCOPE">     0</i>
   <i type="int" name="NTAUPAR">    -1</i>
   <i type="int" name="NOMEGAPAR">    -1</i>
   <i name="DAMP_NEWTON">      0.80000001</i>
   <i name="LAMBDA">      1.00000000</i>
  </separator>
  <separator name="External order field" >
   <i name="OFIELD_KAPPA">      0.00000000</i>
   <v name="OFIELD_K">      0.00000000      0.00000000      0.00000000</v>
   <i name="OFIELD_Q6_NEAR">      0.00000000</i>
   <i name="OFIELD_Q6_FAR">      0.00000000</i>
   <i name="OFIELD_A">      0.00000000</i>
  </separator>
  <separator name="optional k-points parameters" >
   <i type="int" name="KPOINTS_OPT_MODE">     1</i>
   <i type="logical" name="LKPOINTS_OPT"> F  </i>
  </separator>
 </parameters>
 <atominfo>
  <atoms>      93 </atoms>
  <types>       4 </types>
  <array name="atoms" >
   <dimension dim="1">ion</dimension>
   <field type="string">element</field>
   <field type="int">atomtype</field>
   <set>
    <rc><c>Li</c><c>   1</c></rc>
    <rc><c>Nb</c><c>   2</c></rc>
    <rc><c>Nb</c><c>   2</c></rc>
    <rc><c>Nb</c><c>   2</c></rc>
    <rc><c>Nb</c><c>   2</c></rc>
    <rc><c>Nb</c><c>   2</c></rc>
    <rc><c>Nb</c><c>   2</c></rc>
    <rc><c>Nb</c><c>   2</c></rc>
    <rc><c>Nb</c><c>   2</c></rc>
    <rc><c>Nb</c><c>   2</c></rc>
    <rc><c>Nb</c><c>   2</c></rc>
    <rc><c>Nb</c><c>   2</c></rc>
    <rc><c>Nb</c><c>   2</c></rc>
    <rc><c>Nb</c><c>   2</c></rc>
    <rc><c>Nb</c><c>   2</c></rc>
    <rc><c>Nb</c><c>   2</c></rc>
    <rc><c>Nb</c><c>   2</c></rc>
    <rc><c>Nb</c><c>   2</c></rc>
    <rc><c>Nb</c><c>   2</c></rc>
    <rc><c>Nb</c><c>   2</c></rc>
    <rc><c>Nb</c><c>   2</c></rc>
    <rc><c>Nb</c><c>   2</c></rc>
    <rc><c>Nb</c><c>   2</c></rc>
    <rc><c>Nb</c><c>   2</c></rc>
    <rc><c>Nb</c><c>   2</c></rc>
    <rc><c>Mo</c><c>   3</c></rc>
    <rc><c>Mo</c><c>   3</c></rc>
    <rc><c>O </c><c>   4</c></rc>
    <rc><c>O </c><c>   4</c></rc>
    <rc><c>O </c><c>   4</c></rc>
    <rc><c>O </c><c>   4</c></rc>
    <rc><c>O </c><c>   4</c></rc>
    <rc><c>O </c><c>   4</c></rc>
    <rc><c>O </c><c>   4</c></rc>
    <rc><c>O </c><c>   4</c></rc>
    <rc><c>O </c><c>   4</c></rc>
    <rc><c>O </c><c>   4</c></rc>
    <rc><c>O </c><c>   4</c></rc>
    <rc><c>O </c><c>   4</c></rc>
    <rc><c>O </c><c>   4</c></rc>
    <rc><c>O </c><c>   4</c></rc>
    <rc><c>O </c><c>   4</c></rc>
    <rc><c>O </c><c>   4</c></rc>
    <rc><c>O </c><c>   4</c></rc>
    <rc><c>O </c><c>   4</c></rc>
    <rc><c>O </c><c>   4</c></rc>
    <rc><c>O </c><c>   4</c></rc>
    <rc><c>O </c><c>   4</c></rc>
    <rc><c>O </c><c>   4</c></rc>
    <rc><c>O </c><c>   4</c></rc>
    <rc><c>O </c><c>   4</c></rc>
    <rc><c>O </c><c>   4</c></rc>
    <rc><c>O </c><c>   4</c></rc>
    <rc><c>O </c><c>   4</c></rc>
    <rc><c>O </c><c>   4</c></rc>
    <rc><c>O </c><c>   4</c></rc>
    <rc><c>O </c><c>   4</c></rc>
    <rc><c>O </c><c>   4</c></rc>
    <rc><c>O </c><c>   4</c></rc>
    <rc><c>O </c><c>   4</c></rc>
    <rc><c>O </c><c>   4</c></rc>
    <rc><c>O </c><c>   4</c></rc>
    <rc><c>O </c><c>   4</c></rc>
    <rc><c>O </c><c>   4</c></rc>
    <rc><c>O </c><c>   4</c></rc>
    <rc><c>O </c><c>   4</c></rc>
    <rc><c>O </c><c>   4</c></rc>
    <rc><c>O </c><c>   4</c></rc>
    <rc><c>O </c><c>   4</c></rc>
    <rc><c>O </c><c>   4</c></rc>
    <rc><c>O </c><c>   4</c></rc>
    <rc><c>O </c><c>   4</c></rc>
    <rc><c>O </c><c>   4</c></rc>
    <rc><c>O </c><c>   4</c></rc>
    <rc><c>O </c><c>   4</c></rc>
    <rc><c>O </c><c>   4</c></rc>
    <rc><c>O </c><c>   4</c></rc>
    <rc><c>O </c><c>   4</c></rc>
    <rc><c>O </c><c>   4</c></rc>
    <rc><c>O </c><c>   4</c></rc>
    <rc><c>O </c><c>   4</c></rc>
    <rc><c>O </c><c>   4</c></rc>
    <rc><c>O </c><c>   4</c></rc>
    <rc><c>O </c><c>   4</c></rc>
    <rc><c>O </c><c>   4</c></rc>
    <rc><c>O </c><c>   4</c></rc>
    <rc><c>O </c><c>   4</c></rc>
    <rc><c>O </c><c>   4</c></rc>
    <rc><c>O </c><c>   4</c></rc>
    <rc><c>O </c><c>   4</c></rc>
    <rc><c>O </c><c>   4</c></rc>
    <rc><c>O </c><c>   4</c></rc>
    <rc><c>O </c><c>   4</c></rc>
   </set>
  </array>
  <array name="atomtypes" >
   <dimension dim="1">type</dimension>
   <field type="int">atomspertype</field>
   <field type="string">element</field>
   <field>mass</field>
   <field>valence</field>
   <field type="string">pseudopotential</field>
   <set>
    <rc><c>   1</c><c>Li</c><c>      7.01000000</c><c>      3.00000000</c><c> PAW_PBE Li_sv 23Jan2001                </c></rc>
    <rc><c>  24</c><c>Nb</c><c>     92.00000000</c><c>     11.00000000</c><c> PAW_PBE Nb_pv 08Apr2002                </c></rc>
    <rc><c>   2</c><c>Mo</c><c>     95.94000000</c><c>     12.00000000</c><c> PAW_PBE Mo_pv 08Apr2002                </c></rc>
    <rc><c>  66</c><c>O </c><c>     16.00000000</c><c>      6.00000000</c><c> PAW_PBE O 08Apr2002                    </c></rc>
   </set>
  </array>
 </atominfo>
 <structure name="initialpos" >
  <crystal>
   <varray name="basis" >
    <v>      22.78514290       0.00000000       0.00000000 </v>
    <v>       0.00000000       3.87685037       0.00000000 </v>
    <v>      -9.97305163       0.00000241      15.12824818 </v>
   </varray>
   <i name="volume">   1336.34759474 </i>
   <varray name="rec_basis" >
    <v>       0.04388825       0.00000000       0.02893261 </v>
    <v>       0.00000000       0.25794135      -0.00000004 </v>
    <v>       0.00000000       0.00000000       0.06610151 </v>
   </varray>
  </crystal>
  <varray name="positions" >
   <v>       0.32285503       0.87594843       0.63148822 </v>
   <v>       0.36703341       0.00750246       0.04618344 </v>
   <v>       0.63395902       0.00771573       0.95413042 </v>
   <v>       0.86476427       0.50777730       0.04408020 </v>
   <v>       0.13143899       0.50949673       0.95523664 </v>
   <v>       0.24861058       0.00363225       0.13752086 </v>
   <v>       0.75196822       0.00323458       0.86130556 </v>
   <v>       0.74761581       0.50311116       0.13787402 </v>
   <v>       0.24972577       0.50335287       0.86483815 </v>
   <v>       0.12995524       0.99748492       0.23074030 </v>
   <v>       0.86905101       0.99855402       0.76726974 </v>
   <v>       0.63154790       0.49843640       0.23321644 </v>
   <v>       0.37151749       0.49610793       0.77570596 </v>
   <v>       0.41890247       0.96658568       0.37944543 </v>
   <v>       0.58387744       0.96722795       0.61730561 </v>
   <v>       0.91738331       0.46726925       0.38155897 </v>
   <v>       0.08229131       0.46742854       0.61999846 </v>
   <v>       0.29720411       0.00329365       0.46814909 </v>
   <v>       0.70245719       0.00349327       0.52627738 </v>
   <v>       0.79873431       0.50368167       0.47326436 </v>
   <v>       0.19765883       0.50273636       0.52264656 </v>
   <v>       0.46684006       0.00102805       0.71343484 </v>
   <v>       0.53670414       0.00172614       0.28707226 </v>
   <v>       0.96380478       0.50165066       0.71242232 </v>
   <v>       0.03230180       0.50144793       0.28303321 </v>
   <v>       0.99937071       0.25180853       0.00027759 </v>
   <v>       0.50092408       0.75291978       0.00125473 </v>
   <v>       0.00019033       0.49085519       0.50031073 </v>
   <v>       0.50086757       0.99129080       0.49894311 </v>
   <v>       0.14874525       0.00447193       0.99142566 </v>
   <v>       0.84971631       0.00391577       0.00822604 </v>
   <v>       0.64901960       0.50435863       0.99038143 </v>
   <v>       0.35091190       0.50402163       0.00956587 </v>
   <v>       0.30335906       0.00314012       0.08199299 </v>
   <v>       0.69616812       0.00381734       0.91739708 </v>
   <v>       0.80274365       0.50327449       0.08115240 </v>
   <v>       0.19626067       0.50198569       0.91988220 </v>
   <v>       0.03391083       0.99929652       0.09893251 </v>
   <v>       0.96554071       0.99980093       0.90236712 </v>
   <v>       0.53441194       0.50164034       0.09895565 </v>
   <v>       0.46674223       0.50037951       0.90150731 </v>
   <v>       0.44978498       0.00377340       0.15580165 </v>
   <v>       0.54986186       0.00301653       0.84376347 </v>
   <v>       0.94876978       0.50330995       0.15494993 </v>
   <v>       0.05015045       0.50517314       0.84465715 </v>
   <v>       0.17991104       0.00205000       0.17793488 </v>
   <v>       0.81986924       0.00307853       0.82244411 </v>
   <v>       0.67979652       0.50291544       0.17712537 </v>
   <v>       0.32011876       0.50043617       0.82521160 </v>
   <v>       0.04863458       0.00128707       0.27015668 </v>
   <v>       0.95054772       0.00183272       0.73021237 </v>
   <v>       0.54995503       0.50164554       0.26985044 </v>
   <v>       0.45102008       0.50096308       0.72896774 </v>
   <v>       0.32535953       0.99972558       0.25005413 </v>
   <v>       0.67430875       0.99953421       0.74963189 </v>
   <v>       0.82525506       0.49921874       0.24948155 </v>
   <v>       0.17462938       0.49975995       0.75113354 </v>
   <v>       0.47620696       0.99844155       0.32593854 </v>
   <v>       0.52256162       0.99945596       0.67016298 </v>
   <v>       0.97602628       0.49950470       0.32660243 </v>
   <v>       0.02413308       0.49857732       0.67367787 </v>
   <v>       0.20673955       0.00169551       0.34929880 </v>
   <v>       0.79298891       0.00190315       0.65112884 </v>
   <v>       0.70767348       0.50208176       0.34915088 </v>
   <v>       0.29613089       0.50147912       0.65365580 </v>
   <v>       0.35428954       0.00076016       0.42668416 </v>
   <v>       0.64823142       0.99925247       0.57441827 </v>
   <v>       0.85272062       0.50024669       0.42542280 </v>
   <v>       0.14771764       0.49989175       0.57511723 </v>
   <v>       0.22300172       0.00238750       0.52328948 </v>
   <v>       0.77879042       0.00305710       0.48123786 </v>
   <v>       0.72195824       0.50291979       0.51854415 </v>
   <v>       0.27907800       0.50260797       0.48096985 </v>
   <v>       0.37506067       0.00194001       0.59781391 </v>
   <v>       0.62181372       0.00255302       0.40401963 </v>
   <v>       0.87855906       0.50275215       0.59600723 </v>
   <v>       0.12143848       0.50214645       0.40365670 </v>
   <v>       0.09111424       0.99286989       0.63126257 </v>
   <v>       0.90998050       0.99299538       0.36863464 </v>
   <v>       0.58985368       0.49287065       0.63101627 </v>
   <v>       0.40935474       0.49253063       0.36904629 </v>
   <v>       0.39172797       0.99971215       0.76778581 </v>
   <v>       0.60592932       0.00106286       0.23201951 </v>
   <v>       0.89451215       0.50097925       0.76829715 </v>
   <v>       0.10570241       0.50041543       0.23210344 </v>
   <v>       0.27544626       0.00303348       0.89730452 </v>
   <v>       0.72394719       0.00358117       0.10263939 </v>
   <v>       0.77532860       0.50361485       0.89640499 </v>
   <v>       0.22423703       0.50371020       0.10420391 </v>
   <v>       0.42950833       0.00439174       0.98751701 </v>
   <v>       0.57154770       0.00511715       0.01371810 </v>
   <v>       0.92810603       0.50239981       0.98707012 </v>
   <v>       0.07102525       0.50369015       0.01353134 </v>
  </varray>
 </structure>
 <calculation>
  <scstep>
   <time name="dav">   44.54   44.84</time>
   <time name="total">   45.71   46.02</time>
   <energy>
    <i name="alphaZ">   3514.54571391 </i>
    <i name="ewald"> -36992.74390010 </i>
    <i name="hartreedc"> -17985.93898306 </i>
    <i name="XCdc">   2526.93756059 </i>
    <i name="pawpsdc">  35089.64318688 </i>
    <i name="pawaedc"> -34806.48135010 </i>
    <i name="eentropy">     -0.01825001 </i>
    <i name="bandstr">   2055.43916725 </i>
    <i name="atom">  56348.38862387 </i>
    <i name="e_fr_energy">   9749.77176924 </i>
    <i name="e_wo_entrp">   9749.79001925 </i>
    <i name="e_0_energy">   9749.78089424 </i>
   </energy>
  </scstep>
  <scstep>
   <time name="dav">   44.71   45.02</time>
   <time name="total">   44.71   45.02</time>
   <energy>
    <i name="e_fr_energy">    829.32466295 </i>
    <i name="e_wo_entrp">    829.35949455 </i>
    <i name="e_0_energy">    829.34207875 </i>
   </energy>
  </scstep>
  <scstep>
   <time name="dav">   67.24   67.70</time>
   <time name="total">   67.24   67.70</time>
   <energy>
    <i name="e_fr_energy">   -920.47874358 </i>
    <i name="e_wo_entrp">   -920.46823524 </i>
    <i name="e_0_energy">   -920.47348941 </i>
   </energy>
  </scstep>
  <scstep>
   <time name="dav">   63.18   63.62</time>
   <time name="total">   63.18   63.62</time>
   <energy>
    <i name="e_fr_energy">  -1017.30132648 </i>
    <i name="e_wo_entrp">  -1017.28889401 </i>
    <i name="e_0_energy">  -1017.29511025 </i>
   </energy>
  </scstep>
  <scstep>
   <time name="dav">   66.53   66.99</time>
   <time name="total">   68.72   69.19</time>
   <energy>
    <i name="e_fr_energy">  -1018.80629902 </i>
    <i name="e_wo_entrp">  -1018.79438615 </i>
    <i name="e_0_energy">  -1018.80034258 </i>
   </energy>
  </scstep>
  <scstep>
   <time name="diag">    5.06    5.09</time>
   <time name="diis">   47.90   48.24</time>
   <time name="orth">    0.60    0.61</time>
   <time name="total">   56.93   57.32</time>
   <energy>
    <i name="e_fr_energy">   -754.15917407 </i>
    <i name="e_wo_entrp">   -754.14716266 </i>
    <i name="e_0_energy">   -754.15316837 </i>
   </energy>
  </scstep>
  <scstep>
   <time name="diag">    5.05    5.07</time>
   <time name="diis">   43.24   43.54</time>
   <time name="orth">    0.59    0.59</time>
   <time name="total">   51.99   52.34</time>
   <energy>
    <i name="e_fr_energy">   -750.12084977 </i>
    <i name="e_wo_entrp">   -750.11162664 </i>
    <i name="e_0_energy">   -750.11623820 </i>
   </energy>
  </scstep>
  <scstep>
   <time name="diag">    5.03    5.06</time>
   <time name="diis">   44.21   44.53</time>
   <time name="orth">    0.58    0.58</time>
   <time name="total">   53.08   53.45</time>
   <energy>
    <i name="e_fr_energy">   -761.58929202 </i>
    <i name="e_wo_entrp">   -761.57864498 </i>
    <i name="e_0_energy">   -761.58396850 </i>
   </energy>
  </scstep>
  <scstep>
   <time name="diag">    5.05    5.08</time>
   <time name="diis">   41.73   42.02</time>
   <time name="orth">    0.63    0.63</time>
   <time name="total">   50.45   50.79</time>
   <energy>
    <i name="e_fr_energy">   -782.31915812 </i>
    <i name="e_wo_entrp">   -782.30689079 </i>
    <i name="e_0_energy">   -782.31302445 </i>
   </energy>
  </scstep>
  <scstep>
   <time name="diag">    5.07    5.10</time>
   <time name="diis">   42.28   42.58</time>
   <time name="orth">    0.59    0.59</time>
   <time name="total">   51.00   51.35</time>
   <energy>
    <i name="e_fr_energy">   -794.70205220 </i>
    <i name="e_wo_entrp">   -794.68758258 </i>
    <i name="e_0_energy">   -794.69481739 </i>
   </energy>
  </scstep>
  <scstep>
   <time name="diag">    5.06    5.09</time>
   <time name="diis">   43.44   43.74</time>
   <time name="orth">    0.55    0.55</time>
   <time name="total">   52.27   52.62</time>
   <energy>
    <i name="e_fr_energy">   -804.64094377 </i>
    <i name="e_wo_entrp">   -804.62556916 </i>
    <i name="e_0_energy">   -804.63325647 </i>
   </energy>
  </scstep>
  <scstep>
   <time name="diag">    5.09    5.12</time>
   <time name="diis">   44.15   44.49</time>
   <time name="orth">    0.56    0.57</time>
   <time name="total">   53.00   53.39</time>
   <energy>
    <i name="e_fr_energy">   -812.48195287 </i>
    <i name="e_wo_entrp">   -812.46752352 </i>
    <i name="e_0_energy">   -812.47473819 </i>
   </energy>
  </scstep>
  <scstep>
   <time name="diag">    5.05    5.07</time>
   <time name="diis">   43.53   43.84</time>
   <time name="orth">    0.55    0.56</time>
   <time name="total">   52.38   52.73</time>
   <energy>
    <i name="e_fr_energy">   -813.27970795 </i>
    <i name="e_wo_entrp">   -813.26404489 </i>
    <i name="e_0_energy">   -813.27187642 </i>
   </energy>
  </scstep>
  <scstep>
   <time name="diag">    5.05    5.08</time>
   <time name="diis">   43.78   44.09</time>
   <time name="orth">    0.57    0.57</time>
   <time name="total">   52.64   53.00</time>
   <energy>
    <i name="e_fr_energy">   -813.40479530 </i>
    <i name="e_wo_entrp">   -813.38797580 </i>
    <i name="e_0_energy">   -813.39638555 </i>
   </energy>
  </scstep>
  <scstep>
   <time name="diag">    5.09    5.11</time>
   <time name="diis">   46.36   46.69</time>
   <time name="orth">    0.58    0.58</time>
   <time name="total">   55.25   55.62</time>
   <energy>
    <i name="e_fr_energy">   -813.41634691 </i>
    <i name="e_wo_entrp">   -813.39785862 </i>
    <i name="e_0_energy">   -813.40710276 </i>
   </energy>
  </scstep>
  <scstep>
   <time name="diag">    5.03    5.06</time>
   <time name="diis">   44.90   45.22</time>
   <time name="orth">    0.57    0.57</time>
   <time name="total">   53.73   54.09</time>
   <energy>
    <i name="e_fr_energy">   -813.41290346 </i>
    <i name="e_wo_entrp">   -813.39389929 </i>
    <i name="e_0_energy">   -813.40340137 </i>
   </energy>
  </scstep>
  <scstep>
   <time name="diag">    5.06    5.09</time>
   <time name="diis">   47.68   48.01</time>
   <time name="orth">    0.58    0.58</time>
   <time name="total">   56.52   56.91</time>
   <energy>
    <i name="e_fr_energy">   -813.41205216 </i>
    <i name="e_wo_entrp">   -813.39278471 </i>
    <i name="e_0_energy">   -813.40241844 </i>
   </energy>
  </scstep>
  <scstep>
   <time name="diag">    5.38    5.42</time>
   <time name="diis">   45.93   46.25</time>
   <time name="orth">    0.58    0.58</time>
   <time name="total">   55.09   55.50</time>
   <energy>
    <i name="e_fr_energy">   -813.41220078 </i>
    <i name="e_wo_entrp">   -813.39267949 </i>
    <i name="e_0_energy">   -813.40244013 </i>
   </energy>
  </scstep>
  <scstep>
   <time name="diag">    5.07    5.09</time>
   <time name="diis">   47.71   48.04</time>
   <time name="orth">    0.57    0.58</time>
   <time name="total">   56.57   56.94</time>
   <energy>
    <i name="e_fr_energy">   -813.41238649 </i>
    <i name="e_wo_entrp">   -813.39269219 </i>
    <i name="e_0_energy">   -813.40253934 </i>
   </energy>
  </scstep>
  <scstep>
   <time name="diag">    5.07    5.09</time>
   <time name="diis">   46.09   46.41</time>
   <time name="orth">    0.58    0.58</time>
   <time name="total">   54.93   55.29</time>
   <energy>
    <i name="e_fr_energy">   -813.41247149 </i>
    <i name="e_wo_entrp">   -813.39268033 </i>
    <i name="e_0_energy">   -813.40257591 </i>
   </energy>
  </scstep>
  <scstep>
   <time name="diag">    5.05    5.08</time>
   <time name="diis">   44.22   44.51</time>
   <time name="orth">    0.57    0.58</time>
   <time name="total">   53.07   53.40</time>
   <energy>
    <i name="e_fr_energy">   -813.41251382 </i>
    <i name="e_wo_entrp">   -813.39262819 </i>
    <i name="e_0_energy">   -813.40257101 </i>
   </energy>
  </scstep>
  <scstep>
   <time name="diag">    5.04    5.06</time>
   <time name="diis">   44.74   45.03</time>
   <time name="orth">    0.57    0.57</time>
   <time name="total">   53.53   53.86</time>
   <energy>
    <i name="e_fr_energy">   -813.41253041 </i>
    <i name="e_wo_entrp">   -813.39262071 </i>
    <i name="e_0_energy">   -813.40257556 </i>
   </energy>
  </scstep>
  <scstep>
   <time name="diag">    5.04    5.07</time>
   <time name="diis">   42.98   43.28</time>
   <time name="orth">    0.44    0.44</time>
   <time name="total">   51.53   51.90</time>
   <energy>
    <i name="e_fr_energy">   -813.41253661 </i>
    <i name="e_wo_entrp">   -813.39261278 </i>
    <i name="e_0_energy">   -813.40257469 </i>
   </energy>
  </scstep>
  <scstep>
   <time name="diag">    4.99    5.02</time>
   <time name="diis">   41.31   41.57</time>
   <time name="orth">    0.63    0.63</time>
   <time name="total">   49.71   50.02</time>
   <energy>
    <i name="e_fr_energy">   -813.41254191 </i>
    <i name="e_wo_entrp">   -813.39260855 </i>
    <i name="e_0_energy">   -813.40257523 </i>
   </energy>
  </scstep>
  <scstep>
   <time name="diag">    4.99    5.01</time>
   <time name="diis">   36.05   36.29</time>
   <time name="orth">    0.58    0.58</time>
   <time name="total">   44.78   45.06</time>
   <energy>
    <i name="e_fr_energy">   -813.41254423 </i>
    <i name="e_wo_entrp">   -813.39261049 </i>
    <i name="e_0_energy">   -813.40257736 </i>
   </energy>
  </scstep>
  <scstep>
   <time name="diag">    4.60    4.62</time>
   <time name="diis">   28.93   29.11</time>
   <time name="orth">    0.47    0.47</time>
   <time name="total">   34.88   35.09</time>
   <energy>
    <i name="alphaZ">   3514.54571391 </i>
    <i name="ewald"> -36992.74390010 </i>
    <i name="hartreedc"> -18348.01570749 </i>
    <i name="XCdc">   2568.61448238 </i>
    <i name="pawpsdc">  39647.88870935 </i>
    <i name="pawaedc"> -39529.74664239 </i>
    <i name="eentropy">     -0.01993448 </i>
    <i name="bandstr">  -8022.32388970 </i>
    <i name="atom">  56348.38862387 </i>
    <i name="e_fr_energy">   -813.41254465 </i>
    <i name="e_wo_entrp">   -813.39261017 </i>
    <i name="e_0_energy">   -813.40257741 </i>
   </energy>
  </scstep>
  <structure>
   <crystal>
    <varray name="basis" >
     <v>      22.78514290       0.00000000       0.00000000 </v>
     <v>       0.00000000       3.87685037       0.00000000 </v>
     <v>      -9.97305163       0.00000241      15.12824818 </v>
    </varray>
    <i name="volume">   1336.34759474 </i>
    <varray name="rec_basis" >
     <v>       0.04388825       0.00000000       0.02893261 </v>
     <v>       0.00000000       0.25794135      -0.00000004 </v>
     <v>       0.00000000       0.00000000       0.06610151 </v>
    </varray>
   </crystal>
   <varray name="positions" >
    <v>       0.32285503       0.87594843       0.63148822 </v>
    <v>       0.36703341       0.00750246       0.04618344 </v>
    <v>       0.63395902       0.00771573       0.95413042 </v>
    <v>       0.86476427       0.50777730       0.04408020 </v>
    <v>       0.13143899       0.50949673       0.95523664 </v>
    <v>       0.24861058       0.00363225       0.13752086 </v>
    <v>       0.75196822       0.00323458       0.86130556 </v>
    <v>       0.74761581       0.50311116       0.13787402 </v>
    <v>       0.24972577       0.50335287       0.86483815 </v>
    <v>       0.12995524       0.99748492       0.23074030 </v>
    <v>       0.86905101       0.99855402       0.76726974 </v>
    <v>       0.63154790       0.49843640       0.23321644 </v>
    <v>       0.37151749       0.49610793       0.77570596 </v>
    <v>       0.41890247       0.96658568       0.37944543 </v>
    <v>       0.58387744       0.96722795       0.61730561 </v>
    <v>       0.91738331       0.46726925       0.38155897 </v>
    <v>       0.08229131       0.46742854       0.61999846 </v>
    <v>       0.29720411       0.00329365       0.46814909 </v>
    <v>       0.70245719       0.00349327       0.52627738 </v>
    <v>       0.79873431       0.50368167       0.47326436 </v>
    <v>       0.19765883       0.50273636       0.52264656 </v>
    <v>       0.46684006       0.00102805       0.71343484 </v>
    <v>       0.53670414       0.00172614       0.28707226 </v>
    <v>       0.96380478       0.50165066       0.71242232 </v>
    <v>       0.03230180       0.50144793       0.28303321 </v>
    <v>       0.99937071       0.25180853       0.00027759 </v>
    <v>       0.50092408       0.75291978       0.00125473 </v>
    <v>       0.00019033       0.49085519       0.50031073 </v>
    <v>       0.50086757       0.99129080       0.49894311 </v>
    <v>       0.14874525       0.00447193       0.99142566 </v>
    <v>       0.84971631       0.00391577       0.00822604 </v>
    <v>       0.64901960       0.50435863       0.99038143 </v>
    <v>       0.35091190       0.50402163       0.00956587 </v>
    <v>       0.30335906       0.00314012       0.08199299 </v>
    <v>       0.69616812       0.00381734       0.91739708 </v>
    <v>       0.80274365       0.50327449       0.08115240 </v>
    <v>       0.19626067       0.50198569       0.91988220 </v>
    <v>       0.03391083       0.99929652       0.09893251 </v>
    <v>       0.96554071       0.99980093       0.90236712 </v>
    <v>       0.53441194       0.50164034       0.09895565 </v>
    <v>       0.46674223       0.50037951       0.90150731 </v>
    <v>       0.44978498       0.00377340       0.15580165 </v>
    <v>       0.54986186       0.00301653       0.84376347 </v>
    <v>       0.94876978       0.50330995       0.15494993 </v>
    <v>       0.05015045       0.50517314       0.84465715 </v>
    <v>       0.17991104       0.00205000       0.17793488 </v>
    <v>       0.81986924       0.00307853       0.82244411 </v>
    <v>       0.67979652       0.50291544       0.17712537 </v>
    <v>       0.32011876       0.50043617       0.82521160 </v>
    <v>       0.04863458       0.00128707       0.27015668 </v>
    <v>       0.95054772       0.00183272       0.73021237 </v>
    <v>       0.54995503       0.50164554       0.26985044 </v>
    <v>       0.45102008       0.50096308       0.72896774 </v>
    <v>       0.32535953       0.99972558       0.25005413 </v>
    <v>       0.67430875       0.99953421       0.74963189 </v>
    <v>       0.82525506       0.49921874       0.24948155 </v>
    <v>       0.17462938       0.49975995       0.75113354 </v>
    <v>       0.47620696       0.99844155       0.32593854 </v>
    <v>       0.52256162       0.99945596       0.67016298 </v>
    <v>       0.97602628       0.49950470       0.32660243 </v>
    <v>       0.02413308       0.49857732       0.67367787 </v>
    <v>       0.20673955       0.00169551       0.34929880 </v>
    <v>       0.79298891       0.00190315       0.65112884 </v>
    <v>       0.70767348       0.50208176       0.34915088 </v>
    <v>       0.29613089       0.50147912       0.65365580 </v>
    <v>       0.35428954       0.00076016       0.42668416 </v>
    <v>       0.64823142       0.99925247       0.57441827 </v>
    <v>       0.85272062       0.50024669       0.42542280 </v>
    <v>       0.14771764       0.49989175       0.57511723 </v>
    <v>       0.22300172       0.00238750       0.52328948 </v>
    <v>       0.77879042       0.00305710       0.48123786 </v>
    <v>       0.72195824       0.50291979       0.51854415 </v>
    <v>       0.27907800       0.50260797       0.48096985 </v>
    <v>       0.37506067       0.00194001       0.59781391 </v>
    <v>       0.62181372       0.00255302       0.40401963 </v>
    <v>       0.87855906       0.50275215       0.59600723 </v>
    <v>       0.12143848       0.50214645       0.40365670 </v>
    <v>       0.09111424       0.99286989       0.63126257 </v>
    <v>       0.90998050       0.99299538       0.36863464 </v>
    <v>       0.58985368       0.49287065       0.63101627 </v>
    <v>       0.40935474       0.49253063       0.36904629 </v>
    <v>       0.39172797       0.99971215       0.76778581 </v>
    <v>       0.60592932       0.00106286       0.23201951 </v>
    <v>       0.89451215       0.50097925       0.76829715 </v>
    <v>       0.10570241       0.50041543       0.23210344 </v>
    <v>       0.27544626       0.00303348       0.89730452 </v>
    <v>       0.72394719       0.00358117       0.10263939 </v>
    <v>       0.77532860       0.50361485       0.89640499 </v>
    <v>       0.22423703       0.50371020       0.10420391 </v>
    <v>       0.42950833       0.00439174       0.98751701 </v>
    <v>       0.57154770       0.00511715       0.01371810 </v>
    <v>       0.92810603       0.50239981       0.98707012 </v>
    <v>       0.07102525       0.50369015       0.01353134 </v>
   </varray>
  </structure>
  <varray name="forces" >
   <v>      -1.25803753       1.30002752       0.27826502 </v>
   <v>      -0.00549550       0.00103055      -0.00115332 </v>
   <v>      -0.01024919       0.00029534      -0.02751508 </v>
   <v>       0.00926304       0.00141926       0.02253248 </v>
   <v>       0.00009509       0.00161454      -0.00014284 </v>
   <v>      -0.00559526       0.00123596       0.00493347 </v>
   <v>      -0.00325944       0.00067086      -0.00403301 </v>
   <v>       0.00065535      -0.00012751      -0.00386186 </v>
   <v>      -0.00027851      -0.00125798      -0.01719858 </v>
   <v>       0.01006337       0.00178865       0.03113382 </v>
   <v>       0.00101938       0.00146622      -0.00086619 </v>
   <v>       0.00147994       0.00187146       0.00511922 </v>
   <v>      -0.20165837      -0.33090901       0.13275285 </v>
   <v>      -0.00199918      -0.00581387       0.00886773 </v>
   <v>      -0.01587817      -0.00529576      -0.00499860 </v>
   <v>       0.00090289      -0.00353251       0.00910175 </v>
   <v>       0.02681790      -0.00767018       0.00955615 </v>
   <v>       0.24153630       0.15399340      -0.34234334 </v>
   <v>       0.00001326      -0.00150891       0.00447803 </v>
   <v>       0.00235748      -0.00076177       0.00613571 </v>
   <v>      -0.20016300      -0.20613956      -0.05785509 </v>
   <v>       0.32670640       0.11427545       0.06370930 </v>
   <v>       0.00070793       0.00070927       0.00384324 </v>
   <v>       0.00619774       0.00099749       0.00041031 </v>
   <v>       0.00409274       0.00122632      -0.00089615 </v>
   <v>      -0.00361470      -0.00054317       0.00602521 </v>
   <v>      -0.00000358       0.00140880       0.00068671 </v>
   <v>      -0.00338066      -0.00289466      -0.01055291 </v>
   <v>       0.00524401      -0.00241188      -0.00537632 </v>
   <v>      -0.00404900       0.00108400       0.00303899 </v>
   <v>      -0.00214314       0.00079853      -0.00420707 </v>
   <v>       0.00130536       0.00165161       0.00614356 </v>
   <v>      -0.00000698       0.00104195       0.00411799 </v>
   <v>       0.00042369       0.00154895       0.00360036 </v>
   <v>       0.00080860       0.00173620       0.00128354 </v>
   <v>      -0.00341692       0.00146691      -0.00290526 </v>
   <v>      -0.01270364       0.00184646       0.00756267 </v>
   <v>      -0.00578208       0.00159931       0.00267567 </v>
   <v>      -0.00248220       0.00049711       0.00198826 </v>
   <v>       0.00033068       0.00357539      -0.00324194 </v>
   <v>      -0.00802408      -0.01519051      -0.01237724 </v>
   <v>       0.00414618       0.00078032      -0.00064656 </v>
   <v>       0.00557220       0.00293465       0.01256324 </v>
   <v>      -0.00330998       0.00101665      -0.00245174 </v>
   <v>      -0.00509131       0.00157972       0.00394454 </v>
   <v>       0.00094285       0.00097157      -0.00786589 </v>
   <v>      -0.00179353       0.00146622      -0.00099969 </v>
   <v>       0.00425117       0.00169201      -0.00420066 </v>
   <v>       0.02878544      -0.00396254      -0.00452673 </v>
   <v>      -0.00460727       0.00050960      -0.00186222 </v>
   <v>       0.00172938       0.00036398       0.00058906 </v>
   <v>       0.00437654       0.00088403      -0.00003560 </v>
   <v>      -0.03555678       0.06325881       0.05571888 </v>
   <v>      -0.00563467      -0.00060108      -0.00138311 </v>
   <v>       0.00263022      -0.00134322       0.00169124 </v>
   <v>      -0.00004119      -0.00176198      -0.00057210 </v>
   <v>      -0.01008652      -0.00154757       0.00874161 </v>
   <v>       0.00376641      -0.00116849      -0.00604210 </v>
   <v>      -0.02043081       0.00419174       0.00558369 </v>
   <v>      -0.00762666      -0.00109736       0.00300658 </v>
   <v>      -0.00404223      -0.00027580       0.00451544 </v>
   <v>       0.00177169       0.00558649      -0.00755897 </v>
   <v>       0.00493980       0.00055374      -0.00046761 </v>
   <v>       0.00181469       0.00034114      -0.00394774 </v>
   <v>      -0.47540936      -0.96143750       0.23471909 </v>
   <v>      -0.02454403       0.00157142       0.00989585 </v>
   <v>       0.00830443      -0.00241963       0.00152539 </v>
   <v>       0.00408202      -0.00202671      -0.00157854 </v>
   <v>       0.00799109       0.00191183      -0.01571580 </v>
   <v>       0.29973382      -0.22039945       0.23319400 </v>
   <v>       0.00324930      -0.00108323      -0.00079560 </v>
   <v>       0.00217862      -0.00003893      -0.00244648 </v>
   <v>      -0.07023863       0.09299016       0.03973076 </v>
   <v>       1.28755352       0.29480799      -0.45276021 </v>
   <v>       0.00109756       0.00003085      -0.00098774 </v>
   <v>      -0.00012833       0.00065443      -0.00092520 </v>
   <v>       0.01557457      -0.01494876       0.06513199 </v>
   <v>      -0.00668720       0.00184309       0.00064018 </v>
   <v>       0.00109381      -0.00155600      -0.00148594 </v>
   <v>       0.00735303      -0.00008449      -0.00536016 </v>
   <v>       0.00698715       0.00045385      -0.00676467 </v>
   <v>       0.09063666      -0.28876537      -0.26976327 </v>
   <v>       0.00182793       0.00054040       0.00014233 </v>
   <v>      -0.00075055       0.00069695       0.00072746 </v>
   <v>      -0.00382019      -0.00050743      -0.00731588 </v>
   <v>      -0.00392673      -0.00000037       0.00971949 </v>
   <v>      -0.00109381       0.00128947       0.00127797 </v>
   <v>       0.00084558       0.00108770       0.00047725 </v>
   <v>      -0.00120252       0.00144337       0.00004967 </v>
   <v>       0.00048842       0.00027934      -0.00139927 </v>
   <v>      -0.00421747       0.00068357      -0.00153575 </v>
   <v>      -0.00093177       0.00133906      -0.00343046 </v>
   <v>      -0.00435254       0.00045158       0.00280274 </v>
  </varray>
  <varray name="stress" >
   <v>      10.83276264       3.17618475      -2.62148503 </v>
   <v>       3.17615736       7.81377407      -1.69044144 </v>
   <v>      -2.62146530      -1.69045164       7.28471719 </v>
  </varray>
  <energy>
   <i name="e_fr_energy">   -813.41254465 </i>
   <i name="e_wo_entrp">   -813.39261017 </i>
   <i name="e_0_energy">   -813.40257741 </i>
  </energy>
  <time name="totalsc"> 1472.71 1483.18</time>
 </calculation>
 <calculation>
  <scstep>
   <time name="dav">   52.12   52.53</time>
   <time name="total">   54.95   55.39</time>
   <energy>
    <i name="alphaZ">   3514.54571391 </i>
    <i name="ewald"> -37004.05046565 </i>
    <i name="hartreedc"> -18336.93276284 </i>
    <i name="XCdc">   2568.58917164 </i>
    <i name="pawpsdc">  39647.88965842 </i>
    <i name="pawaedc"> -39529.74729628 </i>
    <i name="eentropy">     -0.02029108 </i>
    <i name="bandstr">  -8022.11897326 </i>
    <i name="atom">  56348.38862387 </i>
    <i name="e_fr_energy">   -813.45662127 </i>
    <i name="e_wo_entrp">   -813.43633019 </i>
    <i name="e_0_energy">   -813.44647573 </i>
   </energy>
  </scstep>
  <scstep>
   <time name="diag">    5.22    5.25</time>
   <time name="diis">   47.93   48.31</time>
   <time name="orth">    0.64    0.64</time>
   <time name="total">   56.44   56.89</time>
   <energy>
    <i name="e_fr_energy">   -813.47960873 </i>
    <i name="e_wo_entrp">   -813.45910868 </i>
    <i name="e_0_energy">   -813.46935871 </i>
   </energy>
  </scstep>
  <scstep>
   <time name="diag">    5.08    5.12</time>
   <time name="diis">   47.82   48.19</time>
   <time name="orth">    0.66    0.67</time>
   <time name="total">   56.21   56.64</time>
   <energy>
    <i name="e_fr_energy">   -813.48453293 </i>
    <i name="e_wo_entrp">   -813.46398997 </i>
    <i name="e_0_energy">   -813.47426145 </i>
   </energy>
  </scstep>
  <scstep>
   <time name="diag">    5.06    5.10</time>
   <time name="diis">   50.76   51.16</time>
   <time name="orth">    0.60    0.61</time>
   <time name="total">   59.34   59.80</time>
   <energy>
    <i name="e_fr_energy">   -813.48469671 </i>
    <i name="e_wo_entrp">   -813.46424314 </i>
    <i name="e_0_energy">   -813.47446993 </i>
   </energy>
  </scstep>
  <scstep>
   <time name="diag">    5.03    5.08</time>
   <time name="diis">   48.62   48.99</time>
   <time name="orth">    0.63    0.63</time>
   <time name="total">   56.87   57.30</time>
   <energy>
    <i name="e_fr_energy">   -813.48450388 </i>
    <i name="e_wo_entrp">   -813.46398298 </i>
    <i name="e_0_energy">   -813.47424343 </i>
   </energy>
  </scstep>
  <scstep>
   <time name="diag">    5.05    5.09</time>
   <time name="diis">   45.48   45.83</time>
   <time name="orth">    0.49    0.50</time>
   <time name="total">   53.93   54.34</time>
   <energy>
    <i name="e_fr_energy">   -813.48445937 </i>
    <i name="e_wo_entrp">   -813.46399169 </i>
    <i name="e_0_energy">   -813.47422553 </i>
   </energy>
  </scstep>
  <scstep>
   <time name="diag">    5.04    5.07</time>
   <time name="diis">   46.36   46.69</time>
   <time name="orth">    0.55    0.55</time>
   <time name="total">   55.06   55.45</time>
   <energy>
    <i name="e_fr_energy">   -813.48445858 </i>
    <i name="e_wo_entrp">   -813.46398462 </i>
    <i name="e_0_energy">   -813.47422160 </i>
   </energy>
  </scstep>
  <scstep>
   <time name="diag">    5.10    5.13</time>
   <time name="diis">   43.44   43.72</time>
   <time name="orth">    0.57    0.58</time>
   <time name="total">   52.58   52.91</time>
   <energy>
    <i name="e_fr_energy">   -813.48445534 </i>
    <i name="e_wo_entrp">   -813.46397214 </i>
    <i name="e_0_energy">   -813.47421374 </i>
   </energy>
  </scstep>
  <scstep>
   <time name="diag">    5.11    5.13</time>
   <time name="diis">   40.34   40.55</time>
   <time name="orth">    0.45    0.45</time>
   <time name="total">   48.63   48.88</time>
   <energy>
    <i name="e_fr_energy">   -813.48445997 </i>
    <i name="e_wo_entrp">   -813.46398358 </i>
    <i name="e_0_energy">   -813.47422177 </i>
   </energy>
  </scstep>
  <scstep>
   <time name="diag">    4.26    4.29</time>
   <time name="diis">   33.91   34.10</time>
   <time name="orth">    0.52    0.52</time>
   <time name="total">   41.20   41.44</time>
   <energy>
    <i name="e_fr_energy">   -813.48446051 </i>
    <i name="e_wo_entrp">   -813.46397922 </i>
    <i name="e_0_energy">   -813.47421987 </i>
   </energy>
  </scstep>
  <scstep>
   <time name="diag">    4.34    4.36</time>
   <time name="diis">   26.74   26.90</time>
   <time name="orth">    0.54    0.54</time>
   <time name="total">   32.63   32.82</time>
   <energy>
    <i name="alphaZ">   3514.54571391 </i>
    <i name="ewald"> -37004.05046565 </i>
    <i name="hartreedc"> -18337.50856992 </i>
    <i name="XCdc">   2568.61255662 </i>
    <i name="pawpsdc">  39650.79274275 </i>
    <i name="pawaedc"> -39532.64625063 </i>
    <i name="eentropy">     -0.02047908 </i>
    <i name="bandstr">  -8021.59833244 </i>
    <i name="atom">  56348.38862387 </i>
    <i name="e_fr_energy">   -813.48446057 </i>
    <i name="e_wo_entrp">   -813.46398149 </i>
    <i name="e_0_energy">   -813.47422103 </i>
   </energy>
  </scstep>
  <structure>
   <crystal>
    <varray name="basis" >
     <v>      22.78514290       0.00000000       0.00000000 </v>
     <v>       0.00000000       3.87685037       0.00000000 </v>
     <v>      -9.97305163       0.00000241      15.12824818 </v>
    </varray>
    <i name="volume">   1336.34759474 </i>
    <varray name="rec_basis" >
     <v>       0.04388825       0.00000000       0.02893261 </v>
     <v>       0.00000000       0.25794135      -0.00000004 </v>
     <v>       0.00000000       0.00000000       0.06610151 </v>
    </varray>
   </crystal>
   <varray name="positions" >
    <v>       0.32261374       0.87568095       0.63138418 </v>
    <v>       0.36703158       0.00751519       0.04616816 </v>
    <v>       0.63395362       0.00772847       0.95411963 </v>
    <v>       0.86482369       0.50778952       0.04415716 </v>
    <v>       0.13143712       0.50949882       0.95522811 </v>
    <v>       0.24861569       0.00363534       0.13751424 </v>
    <v>       0.75197919       0.00323505       0.86131743 </v>
    <v>       0.74763103       0.50311309       0.13787645 </v>
    <v>       0.24971206       0.50334969       0.86480786 </v>
    <v>       0.12995116       0.99747764       0.23072402 </v>
    <v>       0.86904749       0.99856551       0.76726160 </v>
    <v>       0.63154707       0.49845183       0.23320554 </v>
    <v>       0.37138867       0.49444881       0.77582191 </v>
    <v>       0.41890839       0.96655904       0.37946366 </v>
    <v>       0.58387096       0.96719836       0.61731161 </v>
    <v>       0.91740066       0.46724101       0.38157378 </v>
    <v>       0.08231320       0.46736480       0.62002388 </v>
    <v>       0.29716507       0.00406109       0.46763453 </v>
    <v>       0.70245548       0.00348720       0.52627354 </v>
    <v>       0.79873129       0.50367677       0.47325286 </v>
    <v>       0.19751433       0.50172067       0.52267224 </v>
    <v>       0.46718522       0.00161111       0.71356065 </v>
    <v>       0.53670391       0.00173450       0.28707039 </v>
    <v>       0.96379531       0.50165574       0.71241206 </v>
    <v>       0.03237208       0.50144817       0.28312546 </v>
    <v>       0.99936423       0.25181830       0.00027256 </v>
    <v>       0.50091359       0.75292942       0.00123217 </v>
    <v>       0.00019198       0.49084791       0.50030167 </v>
    <v>       0.50085846       0.99126881       0.49895367 </v>
    <v>       0.14873562       0.00447716       0.99142194 </v>
    <v>       0.84972838       0.00392499       0.00824845 </v>
    <v>       0.64903085       0.50436667       0.99039658 </v>
    <v>       0.35091080       0.50402700       0.00955354 </v>
    <v>       0.30335618       0.00314118       0.08197654 </v>
    <v>       0.69617524       0.00382506       0.91740979 </v>
    <v>       0.80274953       0.50328492       0.08116709 </v>
    <v>       0.19625857       0.50199836       0.91989738 </v>
    <v>       0.03389382       0.99929119       0.09892442 </v>
    <v>       0.96554266       0.99981868       0.90236157 </v>
    <v>       0.53440963       0.50165857       0.09893367 </v>
    <v>       0.46671204       0.50028678       0.90148009 </v>
    <v>       0.44978416       0.00378506       0.15579350 </v>
    <v>       0.54988220       0.00303967       0.84378665 </v>
    <v>       0.94878740       0.50332158       0.15497692 </v>
    <v>       0.05014543       0.50517828       0.84465682 </v>
    <v>       0.17989948       0.00204265       0.17790489 </v>
    <v>       0.81987892       0.00308998       0.82245395 </v>
    <v>       0.67980130       0.50292680       0.17711738 </v>
    <v>       0.32008818       0.50040503       0.82512309 </v>
    <v>       0.04864578       0.00128507       0.27016699 </v>
    <v>       0.95054442       0.00183514       0.73021026 </v>
    <v>       0.54995367       0.50165474       0.26984065 </v>
    <v>       0.45098727       0.50129025       0.72896040 </v>
    <v>       0.32535701       0.99971538       0.25003858 </v>
    <v>       0.67432987       0.99951930       0.74964659 </v>
    <v>       0.82526170       0.49920921       0.24949508 </v>
    <v>       0.17460071       0.49975585       0.75115079 </v>
    <v>       0.47621234       0.99844293       0.32593404 </v>
    <v>       0.52259466       0.99947749       0.67022895 </v>
    <v>       0.97603405       0.49949213       0.32662572 </v>
    <v>       0.02412498       0.49856341       0.67367813 </v>
    <v>       0.20672411       0.00172725       0.34926248 </v>
    <v>       0.79298827       0.00190728       0.65112562 </v>
    <v>       0.70766871       0.50208716       0.34913762 </v>
    <v>       0.29589449       0.49670716       0.65389444 </v>
    <v>       0.35423606       0.00076241       0.42663055 </v>
    <v>       0.64823528       0.99924272       0.57441185 </v>
    <v>       0.85272935       0.50023575       0.42542603 </v>
    <v>       0.14775117       0.49990794       0.57515282 </v>
    <v>       0.22336542       0.00129974       0.52352481 </v>
    <v>       0.77879208       0.00305273       0.48123168 </v>
    <v>       0.72195743       0.50292055       0.51853837 </v>
    <v>       0.27909296       0.50307820       0.48105014 </v>
    <v>       0.37594976       0.00341918       0.59719900 </v>
    <v>       0.62181583       0.00255672       0.40401128 </v>
    <v>       0.87855196       0.50275661       0.59600330 </v>
    <v>       0.12151063       0.50207653       0.40377075 </v>
    <v>       0.09110630       0.99286691       0.63125462 </v>
    <v>       0.90998400       0.99298264       0.36864350 </v>
    <v>       0.58986598       0.49286582       0.63101076 </v>
    <v>       0.40936956       0.49253103       0.36903354 </v>
    <v>       0.39171237       0.99828305       0.76749121 </v>
    <v>       0.60592860       0.00107077       0.23200975 </v>
    <v>       0.89451154       0.50098538       0.76829562 </v>
    <v>       0.10569745       0.50040424       0.23208199 </v>
    <v>       0.27544423       0.00303386       0.89730445 </v>
    <v>       0.72394956       0.00359012       0.10264455 </v>
    <v>       0.77533577       0.50362107       0.89641537 </v>
    <v>       0.22423539       0.50371319       0.10419723 </v>
    <v>       0.42949706       0.00438903       0.98750352 </v>
    <v>       0.57153808       0.00509852       0.01369651 </v>
    <v>       0.92809829       0.50242383       0.98705450 </v>
    <v>       0.07101737       0.50370346       0.01353319 </v>
   </varray>
  </structure>
  <varray name="forces" >
   <v>      -1.00529690       1.26075455       0.21522996 </v>
   <v>      -0.00012370       0.00038787       0.00868996 </v>
   <v>       0.00189243       0.00049238      -0.00050950 </v>
   <v>      -0.00784690       0.00092228       0.00090126 </v>
   <v>      -0.00930943       0.00098522       0.00348209 </v>
   <v>       0.00366199       0.00107664      -0.00900765 </v>
   <v>       0.00067661       0.00053245       0.00419301 </v>
   <v>       0.00207933      -0.00020968      -0.00354391 </v>
   <v>      -0.01986520      -0.00046893       0.01743333 </v>
   <v>       0.00191177       0.00084444      -0.01974284 </v>
   <v>      -0.00236389       0.00117962       0.00164569 </v>
   <v>       0.00643188       0.00172413       0.00054019 </v>
   <v>       0.01005137      -0.31349401       0.01782129 </v>
   <v>       0.03655320      -0.00420520      -0.00480863 </v>
   <v>       0.00202356      -0.00469235       0.00032839 </v>
   <v>      -0.01313407      -0.00312619      -0.00180177 </v>
   <v>      -0.00904080      -0.00329156       0.00029260 </v>
   <v>       0.06313116       0.14085270      -0.06369498 </v>
   <v>       0.00037732      -0.00139140       0.00345706 </v>
   <v>       0.00367038      -0.00065683       0.00338014 </v>
   <v>      -0.00812893      -0.20034543      -0.03276134 </v>
   <v>       0.06145722       0.10124736       0.00438922 </v>
   <v>       0.00685205       0.00074484       0.00162295 </v>
   <v>      -0.00175094       0.00100415       0.00283731 </v>
   <v>      -0.02350081       0.00087811      -0.02215965 </v>
   <v>      -0.00487523      -0.00000304      -0.00306175 </v>
   <v>       0.00475690      -0.00902184      -0.00836003 </v>
   <v>       0.00751186      -0.00311098       0.01110285 </v>
   <v>      -0.00149106      -0.00208477      -0.01204092 </v>
   <v>      -0.00341379       0.00137300       0.00294363 </v>
   <v>       0.00165790       0.00110424       0.00005700 </v>
   <v>       0.00208636       0.00135658       0.00252669 </v>
   <v>      -0.00091476       0.00114192      -0.00085252 </v>
   <v>      -0.00274446       0.00165299       0.00514678 </v>
   <v>      -0.00318915       0.00177225       0.00042734 </v>
   <v>       0.00212065       0.00160127      -0.00269156 </v>
   <v>       0.00672771       0.00170691      -0.00195272 </v>
   <v>      -0.00380337      -0.00107780       0.01318274 </v>
   <v>      -0.00226242       0.00213705       0.00519421 </v>
   <v>      -0.00041652       0.00416569      -0.00340938 </v>
   <v>      -0.01066328      -0.01845596       0.01043670 </v>
   <v>       0.00071691       0.00084038      -0.00480164 </v>
   <v>       0.02267932       0.00603170       0.04020070 </v>
   <v>       0.00706984       0.00091436       0.02025261 </v>
   <v>      -0.00372461       0.00156593       0.00299706 </v>
   <v>      -0.01584410       0.00081716       0.00348989 </v>
   <v>       0.00160413       0.00143505      -0.00324648 </v>
   <v>      -0.00334895       0.00162105      -0.00057666 </v>
   <v>      -0.12064077      -0.00837554       0.07908676 </v>
   <v>      -0.00033196      -0.00025046       0.00573518 </v>
   <v>       0.00303889       0.00036299       0.00012693 </v>
   <v>       0.00379336       0.00079653       0.00019743 </v>
   <v>      -0.00776710       0.04978350       0.05554467 </v>
   <v>      -0.00605904      -0.00061101       0.00778755 </v>
   <v>      -0.00166331      -0.00143084      -0.00596841 </v>
   <v>       0.00089478      -0.00179795       0.00024883 </v>
   <v>      -0.00762259      -0.00117882      -0.00227533 </v>
   <v>      -0.00912019      -0.00169623       0.00012919 </v>
   <v>       0.18671543       0.00605006      -0.02885896 </v>
   <v>       0.01624225      -0.00050315      -0.00170160 </v>
   <v>       0.00927113      -0.00083052      -0.00062547 </v>
   <v>      -0.00716534       0.00968099      -0.04625563 </v>
   <v>       0.00461260       0.00065584      -0.00042864 </v>
   <v>       0.00321502       0.00028865      -0.00139926 </v>
   <v>      -0.38506601      -0.76414260       0.18011435 </v>
   <v>       0.16294046       0.00520881      -0.10464708 </v>
   <v>       0.00064923      -0.00259442       0.00221279 </v>
   <v>       0.00057576      -0.00197192       0.00132531 </v>
   <v>      -0.08445497      -0.00152970       0.01370493 </v>
   <v>       0.23219337      -0.21447758       0.22357176 </v>
   <v>       0.00398730      -0.00106781      -0.00156227 </v>
   <v>       0.00280380      -0.00028025      -0.00187180 </v>
   <v>      -0.04508559       0.08040112       0.01417664 </v>
   <v>       0.91028763       0.17940133      -0.34574647 </v>
   <v>      -0.00031579       0.00012999      -0.00060355 </v>
   <v>       0.00174100       0.00057144      -0.00008637 </v>
   <v>      -0.00802620      -0.02517471       0.01175291 </v>
   <v>      -0.00095415      -0.00170140       0.00133549 </v>
   <v>       0.00271386      -0.00249149      -0.00087868 </v>
   <v>       0.00407869      -0.00086042      -0.00465508 </v>
   <v>      -0.00065473      -0.00159271      -0.00437092 </v>
   <v>       0.04508749      -0.28906835      -0.24741316 </v>
   <v>       0.00204726       0.00078498       0.00029576 </v>
   <v>      -0.00013784       0.00084088       0.00031794 </v>
   <v>      -0.00025823       0.00029823      -0.00281748 </v>
   <v>      -0.00217188       0.00021801      -0.00028665 </v>
   <v>      -0.00112401       0.00122171       0.00221268 </v>
   <v>       0.00060526       0.00118308      -0.00028468 </v>
   <v>      -0.00194005       0.00144576       0.00227085 </v>
   <v>      -0.00289098       0.00187226      -0.00365773 </v>
   <v>      -0.00347553       0.00100651      -0.00213365 </v>
   <v>       0.00254859       0.00091445      -0.00246441 </v>
   <v>      -0.00376549       0.00128244       0.00366664 </v>
  </varray>
  <varray name="stress" >
   <v>      11.57320590       2.72920626      -2.73397571 </v>
[...]
        <r>  0.0000  0.0000  0.0000  0.0000  0.0000  0.0000  0.0000  0.0000  0.0000 </r>
        <r>  0.0020  0.0001  0.0144  0.0026  0.0000  0.0000  0.0000  0.0000  0.0000 </r>
        <r>  0.0017  0.0001  0.0144  0.0018  0.0000  0.0000  0.0000  0.0000  0.0000 </r>
        <r>  0.0000  0.0000  0.0001  0.0000  0.0000  0.0000  0.0000  0.0000  0.0000 </r>
        <r>  0.0000  0.0001  0.0000  0.0000  0.0000  0.0000  0.0000  0.0000  0.0000 </r>
        <r>  0.0006  0.0000  0.0056  0.0003  0.0000  0.0000  0.0000  0.0000  0.0000 </r>
        <r>  0.0004  0.0000  0.0036  0.0000  0.0000  0.0000  0.0000  0.0000  0.0000 </r>
        <r>  0.0000  0.0001  0.0001  0.0000  0.0000  0.0000  0.0000  0.0000  0.0000 </r>
        <r>  0.0000  0.0001  0.0001  0.0000  0.0000  0.0000  0.0000  0.0000  0.0000 </r>
        <r>  0.0003  0.0000  0.0042  0.0018  0.0000  0.0000  0.0000  0.0000  0.0000 </r>
        <r>  0.0004  0.0000  0.0052  0.0015  0.0000  0.0000  0.0000  0.0000  0.0000 </r>
        <r>  0.0000  0.0001  0.0000  0.0000  0.0000  0.0000  0.0000  0.0000  0.0000 </r>
        <r>  0.0000  0.0001  0.0000  0.0000  0.0000  0.0000  0.0000  0.0000  0.0000 </r>
        <r>  0.0003  0.0001  0.0001  0.0011  0.0000  0.0000  0.0000  0.0000  0.0000 </r>
        <r>  0.0003  0.0001  0.0002  0.0013  0.0000  0.0000  0.0000  0.0000  0.0000 </r>
        <r>  0.0000  0.0000  0.0000  0.0000  0.0000  0.0000  0.0000  0.0000  0.0000 </r>
        <r>  0.0000  0.0000  0.0000  0.0000  0.0000  0.0000  0.0000  0.0000  0.0000 </r>
        <r>  0.0007  0.0000  0.0049  0.0011  0.0000  0.0000  0.0000  0.0000  0.0000 </r>
        <r>  0.0007  0.0000  0.0056  0.0002  0.0000  0.0000  0.0000  0.0000  0.0000 </r>
        <r>  0.0000  0.0000  0.0000  0.0000  0.0000  0.0000  0.0000  0.0000  0.0000 </r>
        <r>  0.0000  0.0000  0.0000  0.0000  0.0000  0.0000  0.0000  0.0000  0.0000 </r>
        <r>  0.0008  0.0003  0.0041  0.0177  0.0000  0.0000  0.0000  0.0000  0.0000 </r>
        <r>  0.0016  0.0003  0.0041  0.0143  0.0000  0.0000  0.0000  0.0000  0.0000 </r>
        <r>  0.0000  0.0000  0.0000  0.0000  0.0000  0.0000  0.0000  0.0000  0.0000 </r>
        <r>  0.0000  0.0001  0.0000  0.0000  0.0000  0.0000  0.0000  0.0000  0.0000 </r>
        <r>  0.0008  0.0000  0.0220  0.0008  0.0000  0.0000  0.0000  0.0000  0.0000 </r>
        <r>  0.0004  0.0000  0.0213  0.0009  0.0000  0.0000  0.0000  0.0000  0.0000 </r>
        <r>  0.0000  0.0000  0.0001  0.0000  0.0000  0.0000  0.0000  0.0000  0.0000 </r>
        <r>  0.0000  0.0001  0.0000  0.0000  0.0000  0.0000  0.0000  0.0000  0.0000 </r>
        <r>  0.0033  0.0011  0.0011  0.0072  0.0000  0.0000  0.0000  0.0000  0.0000 </r>
        <r>  0.0026  0.0003  0.0006  0.0094  0.0000  0.0000  0.0000  0.0000  0.0000 </r>
        <r>  0.0000  0.0003  0.0000  0.0000  0.0000  0.0000  0.0000  0.0000  0.0000 </r>
        <r>  0.0000  0.0001  0.0000  0.0000  0.0000  0.0000  0.0000  0.0000  0.0000 </r>
        <r>  0.0002  0.0000  0.0000  0.0001  0.0000  0.0000  0.0000  0.0000  0.0000 </r>
        <r>  0.0005  0.0000  0.0000  0.0002  0.0000  0.0000  0.0000  0.0000  0.0000 </r>
        <r>  0.0000  0.0099  0.0000  0.0000  0.0000  0.0000  0.0000  0.0000  0.0000 </r>
        <r>  0.0000  0.0076  0.0000  0.0000  0.0000  0.0000  0.0000  0.0000  0.0000 </r>
        <r>  0.0014  0.0001  0.0001  0.0005  0.0000  0.0000  0.0000  0.0000  0.0000 </r>
        <r>  0.0016  0.0000  0.0000  0.0003  0.0000  0.0000  0.0000  0.0000  0.0000 </r>
        <r>  0.0000  0.0006  0.0000  0.0000  0.0000  0.0000  0.0000  0.0000  0.0000 </r>
        <r>  0.0000  0.0002  0.0000  0.0000  0.0000  0.0000  0.0000  0.0000  0.0000 </r>
        <r>  0.0000  0.0000  0.0000  0.0000  0.0000  0.0000  0.0000  0.0000  0.0000 </r>
        <r>  0.0000  0.0000  0.0000  0.0000  0.0000  0.0000  0.0000  0.0000  0.0000 </r>
        <r>  0.0000  0.0008  0.0000  0.0000  0.0000  0.0000  0.0000  0.0000  0.0000 </r>
        <r>  0.0000  0.0007  0.0001  0.0000  0.0000  0.0000  0.0000  0.0000  0.0000 </r>
        <r>  0.0007  0.0000  0.0002  0.0004  0.0000  0.0000  0.0000  0.0000  0.0000 </r>
        <r>  0.0007  0.0000  0.0005  0.0012  0.0000  0.0000  0.0000  0.0000  0.0000 </r>
        <r>  0.0000  0.0109  0.0000  0.0000  0.0000  0.0000  0.0000  0.0000  0.0000 </r>
        <r>  0.0000  0.0116  0.0000  0.0000  0.0000  0.0000  0.0000  0.0000  0.0000 </r>
        <r>  0.0001  0.0000  0.0005  0.0000  0.0000  0.0000  0.0000  0.0000  0.0000 </r>
        <r>  0.0000  0.0000  0.0002  0.0000  0.0000  0.0000  0.0000  0.0000  0.0000 </r>
        <r>  0.0000  0.0028  0.0000  0.0000  0.0000  0.0000  0.0000  0.0000  0.0000 </r>
        <r>  0.0000  0.0027  0.0000  0.0000  0.0000  0.0000  0.0000  0.0000  0.0000 </r>
        <r>  0.0001  0.0000  0.0001  0.0000  0.0000  0.0000  0.0000  0.0000  0.0000 </r>
        <r>  0.0000  0.0000  0.0000  0.0000  0.0000  0.0000  0.0000  0.0000  0.0000 </r>
        <r>  0.0000  0.0000  0.0006  0.0003  0.0000  0.0000  0.0000  0.0000  0.0000 </r>
        <r>  0.0000  0.0000  0.0005  0.0003  0.0000  0.0000  0.0000  0.0000  0.0000 </r>
       </set>
       <set comment="band 462">
        <r>  0.0008  0.0033  0.0005  0.0071  0.0000  0.0000  0.0000  0.0000  0.0000 </r>
        <r>  0.0001  0.0000  0.0002  0.0003  0.0000  0.0001  0.0008  0.0001  0.0042 </r>
        <r>  0.0000  0.0000  0.0001  0.0002  0.0000  0.0000  0.0000  0.0002  0.0014 </r>
        <r>  0.0005  0.0000  0.0011  0.0003  0.0000  0.0000  0.0000  0.0004  0.0090 </r>
        <r>  0.0000  0.0000  0.0000  0.0022  0.0000  0.0000  0.0019  0.0048  0.0129 </r>
        <r>  0.0000  0.0000  0.0000  0.0000  0.0000  0.0002  0.0003  0.0009  0.0010 </r>
        <r>  0.0001  0.0000  0.0001  0.0000  0.0000  0.0000  0.0000  0.0005  0.0020 </r>
        <r>  0.0001  0.0000  0.0001  0.0001  0.0000  0.0002  0.0001  0.0023  0.0060 </r>
        <r>  0.0003  0.0008  0.0000  0.0011  0.0005  0.0031  0.0000  0.0047  0.0116 </r>
        <r>  0.0002  0.0000  0.0001  0.0002  0.0000  0.0000  0.0000  0.0001  0.0008 </r>
        <r>  0.0001  0.0000  0.0001  0.0002  0.0000  0.0000  0.0000  0.0004  0.0010 </r>
        <r>  0.0003  0.0001  0.0000  0.0005  0.0001  0.0000  0.0006  0.0001  0.0005 </r>
        <r>  0.0002  0.0016  0.0002  0.0002  0.0099  0.0003  0.0000  0.0002  0.0000 </r>
        <r>  0.0011  0.0001  0.0000  0.0001  0.0000  0.0000  0.0001  0.0011  0.0052 </r>
        <r>  0.0008  0.0001  0.0002  0.0000  0.0000  0.0000  0.0014  0.0002  0.0027 </r>
        <r>  0.0000  0.0002  0.0007  0.0001  0.0000  0.0000  0.0033  0.0032  0.0011 </r>
        <r>  0.0007  0.0012  0.0007  0.0003  0.0003  0.0003  0.0041  0.0001  0.0020 </r>
        <r>  0.0000  0.0000  0.0001  0.0002  0.0000  0.0000  0.0000  0.0000  0.0024 </r>
        <r>  0.0000  0.0000  0.0000  0.0000  0.0000  0.0000  0.0000  0.0000  0.0001 </r>
        <r>  0.0002  0.0001  0.0001  0.0003  0.0005  0.0000  0.0011  0.0015  0.0002 </r>
        <r>  0.0005  0.0017  0.0008  0.0002  0.0026  0.0016  0.0035  0.0002  0.0004 </r>
        <r>  0.0000  0.0000  0.0001  0.0000  0.0000  0.0000  0.0007  0.0004  0.0023 </r>
        <r>  0.0002  0.0000  0.0000  0.0005  0.0000  0.0000  0.0004  0.0002  0.0002 </r>
        <r>  0.0000  0.0001  0.0002  0.0000  0.0003  0.0002  0.0006  0.0001  0.0000 </r>
        <r>  0.0002  0.0000  0.0000  0.0006  0.0002  0.0000  0.0056  0.0044  0.0001 </r>
        <r>  0.0003  0.0000  0.0000  0.0005  0.0003  0.0005  0.0000  0.0000  0.0000 </r>
        <r>  0.0000  0.0000  0.0000  0.0000  0.0000  0.0000  0.0001  0.0000  0.0000 </r>
        <r>  0.0001  0.0065  0.0021  0.0005  0.0000  0.0000  0.0000  0.0000  0.0000 </r>
        <r>  0.0002  0.0004  0.0002  0.0000  0.0000  0.0000  0.0000  0.0000  0.0000 </r>
        <r>  0.0001  0.0021  0.0001  0.0000  0.0000  0.0000  0.0000  0.0000  0.0000 </r>
        <r>  0.0000  0.0027  0.0000  0.0000  0.0000  0.0000  0.0000  0.0000  0.0000 </r>
        <r>  0.0000  0.0005  0.0000  0.0000  0.0000  0.0000  0.0000  0.0000  0.0000 </r>
        <r>  0.0000  0.0026  0.0000  0.0000  0.0000  0.0000  0.0000  0.0000  0.0000 </r>
        <r>  0.0001  0.0000  0.0001  0.0004  0.0000  0.0000  0.0000  0.0000  0.0000 </r>
        <r>  0.0000  0.0000  0.0001  0.0006  0.0000  0.0000  0.0000  0.0000  0.0000 </r>
        <r>  0.0000  0.0002  0.0007  0.0022  0.0000  0.0000  0.0000  0.0000  0.0000 </r>
        <r>  0.0000  0.0019  0.0004  0.0068  0.0000  0.0000  0.0000  0.0000  0.0000 </r>
        <r>  0.0001  0.0002  0.0000  0.0001  0.0000  0.0000  0.0000  0.0000  0.0000 </r>
        <r>  0.0000  0.0001  0.0001  0.0001  0.0000  0.0000  0.0000  0.0000  0.0000 </r>
        <r>  0.0000  0.0001  0.0000  0.0000  0.0000  0.0000  0.0000  0.0000  0.0000 </r>
        <r>  0.0001  0.0010  0.0000  0.0001  0.0000  0.0000  0.0000  0.0000  0.0000 </r>
        <r>  0.0000  0.0001  0.0000  0.0000  0.0000  0.0000  0.0000  0.0000  0.0000 </r>
        <r>  0.0001  0.0001  0.0000  0.0000  0.0000  0.0000  0.0000  0.0000  0.0000 </r>
        <r>  0.0005  0.0003  0.0012  0.0000  0.0000  0.0000  0.0000  0.0000  0.0000 </r>
        <r>  0.0000  0.0005  0.0006  0.0006  0.0000  0.0000  0.0000  0.0000  0.0000 </r>
        <r>  0.0001  0.0000  0.0001  0.0003  0.0000  0.0000  0.0000  0.0000  0.0000 </r>
        <r>  0.0000  0.0000  0.0001  0.0004  0.0000  0.0000  0.0000  0.0000  0.0000 </r>
        <r>  0.0002  0.0003  0.0000  0.0010  0.0000  0.0000  0.0000  0.0000  0.0000 </r>
        <r>  0.0002  0.0131  0.0003  0.0013  0.0000  0.0000  0.0000  0.0000  0.0000 </r>
        <r>  0.0001  0.0003  0.0001  0.0002  0.0000  0.0000  0.0000  0.0000  0.0000 </r>
        <r>  0.0001  0.0000  0.0001  0.0008  0.0000  0.0000  0.0000  0.0000  0.0000 </r>
        <r>  0.0000  0.0000  0.0000  0.0000  0.0000  0.0000  0.0000  0.0000  0.0000 </r>
        <r>  0.0001  0.0016  0.0002  0.0000  0.0000  0.0000  0.0000  0.0000  0.0000 </r>
        <r>  0.0001  0.0000  0.0000  0.0000  0.0000  0.0000  0.0000  0.0000  0.0000 </r>
        <r>  0.0003  0.0000  0.0003  0.0000  0.0000  0.0000  0.0000  0.0000  0.0000 </r>
        <r>  0.0003  0.0007  0.0001  0.0000  0.0000  0.0000  0.0000  0.0000  0.0000 </r>
        <r>  0.0006  0.0157  0.0001  0.0003  0.0000  0.0000  0.0000  0.0000  0.0000 </r>
        <r>  0.0002  0.0001  0.0003  0.0011  0.0000  0.0000  0.0000  0.0000  0.0000 </r>
        <r>  0.0002  0.0003  0.0001  0.0000  0.0000  0.0000  0.0000  0.0000  0.0000 </r>
        <r>  0.0000  0.0021  0.0005  0.0017  0.0000  0.0000  0.0000  0.0000  0.0000 </r>
        <r>  0.0000  0.0048  0.0000  0.0002  0.0000  0.0000  0.0000  0.0000  0.0000 </r>
        <r>  0.0001  0.0000  0.0000  0.0000  0.0000  0.0000  0.0000  0.0000  0.0000 </r>
        <r>  0.0000  0.0000  0.0000  0.0000  0.0000  0.0000  0.0000  0.0000  0.0000 </r>
        <r>  0.0001  0.0005  0.0003  0.0003  0.0000  0.0000  0.0000  0.0000  0.0000 </r>
        <r>  0.0000  0.0242  0.0000  0.0007  0.0000  0.0000  0.0000  0.0000  0.0000 </r>
        <r>  0.0004  0.0002  0.0001  0.0005  0.0000  0.0000  0.0000  0.0000  0.0000 </r>
        <r>  0.0001  0.0001  0.0000  0.0001  0.0000  0.0000  0.0000  0.0000  0.0000 </r>
        <r>  0.0001  0.0029  0.0001  0.0015  0.0000  0.0000  0.0000  0.0000  0.0000 </r>
        <r>  0.0003  0.0217  0.0001  0.0000  0.0000  0.0000  0.0000  0.0000  0.0000 </r>
        <r>  0.0034  0.0014  0.0014  0.0038  0.0000  0.0000  0.0000  0.0000  0.0000 </r>
        <r>  0.0002  0.0000  0.0000  0.0003  0.0000  0.0000  0.0000  0.0000  0.0000 </r>
        <r>  0.0000  0.0000  0.0000  0.0001  0.0000  0.0000  0.0000  0.0000  0.0000 </r>
        <r>  0.0001  0.0010  0.0000  0.0000  0.0000  0.0000  0.0000  0.0000  0.0000 </r>
        <r>  0.0002  0.0007  0.0000  0.0000  0.0000  0.0000  0.0000  0.0000  0.0000 </r>
        <r>  0.0000  0.0000  0.0000  0.0002  0.0000  0.0000  0.0000  0.0000  0.0000 </r>
        <r>  0.0002  0.0013  0.0001  0.0001  0.0000  0.0000  0.0000  0.0000  0.0000 </r>
        <r>  0.0002  0.0039  0.0019  0.0008  0.0000  0.0000  0.0000  0.0000  0.0000 </r>
        <r>  0.0040  0.0011  0.0001  0.0020  0.0000  0.0000  0.0000  0.0000  0.0000 </r>
        <r>  0.0008  0.0000  0.0003  0.0000  0.0000  0.0000  0.0000  0.0000  0.0000 </r>
        <r>  0.0000  0.0009  0.0000  0.0000  0.0000  0.0000  0.0000  0.0000  0.0000 </r>
        <r>  0.0000  0.0009  0.0000  0.0000  0.0000  0.0000  0.0000  0.0000  0.0000 </r>
        <r>  0.0026  0.0000  0.0001  0.0038  0.0000  0.0000  0.0000  0.0000  0.0000 </r>
        <r>  0.0001  0.0004  0.0000  0.0000  0.0000  0.0000  0.0000  0.0000  0.0000 </r>
        <r>  0.0000  0.0004  0.0000  0.0000  0.0000  0.0000  0.0000  0.0000  0.0000 </r>
        <r>  0.0000  0.0005  0.0001  0.0003  0.0000  0.0000  0.0000  0.0000  0.0000 </r>
        <r>  0.0014  0.0032  0.0026  0.0001  0.0000  0.0000  0.0000  0.0000  0.0000 </r>
        <r>  0.0001  0.0014  0.0000  0.0000  0.0000  0.0000  0.0000  0.0000  0.0000 </r>
        <r>  0.0000  0.0005  0.0000  0.0000  0.0000  0.0000  0.0000  0.0000  0.0000 </r>
        <r>  0.0000  0.0001  0.0003  0.0000  0.0000  0.0000  0.0000  0.0000  0.0000 </r>
        <r>  0.0000  0.0001  0.0002  0.0000  0.0000  0.0000  0.0000  0.0000  0.0000 </r>
        <r>  0.0000  0.0000  0.0001  0.0001  0.0000  0.0000  0.0000  0.0000  0.0000 </r>
        <r>  0.0000  0.0001  0.0000  0.0011  0.0000  0.0000  0.0000  0.0000  0.0000 </r>
        <r>  0.0007  0.0002  0.0006  0.0021  0.0000  0.0000  0.0000  0.0000  0.0000 </r>
       </set>
      </set>
     </set>
    </set>
   </array>
  </projected>
 </calculation>
 <structure name="finalpos" >
  <crystal>
   <varray name="basis" >
    <v>      22.78514290       0.00000000       0.00000000 </v>
    <v>       0.00000000       3.87685037       0.00000000 </v>
    <v>      -9.97305163       0.00000241      15.12824818 </v>
   </varray>
   <i name="volume">   1336.34759474 </i>
   <varray name="rec_basis" >
    <v>       0.04388825       0.00000000       0.02893261 </v>
    <v>       0.00000000       0.25794135      -0.00000004 </v>
    <v>       0.00000000       0.00000000       0.06610151 </v>
   </varray>
  </crystal>
  <varray name="positions" >
   <v>       0.31958715       0.90509187       0.63246457 </v>
   <v>       0.36710166       0.00527212       0.04623300 </v>
   <v>       0.63371324       0.01044178       0.95402038 </v>
   <v>       0.86516501       0.50807859       0.04465804 </v>
   <v>       0.13103935       0.50914923       0.95548154 </v>
   <v>       0.24866702       0.00405261       0.13728743 </v>
   <v>       0.75209277       0.00374014       0.86175350 </v>
   <v>       0.74772652       0.50477342       0.13780612 </v>
   <v>       0.24943591       0.50182462       0.86515449 </v>
   <v>       0.12979285       0.99802467       0.23057005 </v>
   <v>       0.86895985       0.99893315       0.76761988 </v>
   <v>       0.63166304       0.49955564       0.23292890 </v>
   <v>       0.37086903       0.46800485       0.77563987 </v>
   <v>       0.41967484       0.97085709       0.37888751 </v>
   <v>       0.58432253       0.96882815       0.61722356 </v>
   <v>       0.91723363       0.46713022       0.38168172 </v>
   <v>       0.08175054       0.46576005       0.62031068 </v>
   <v>       0.29785259       0.01944181       0.46607990 </v>
   <v>       0.70285003       0.00452039       0.52635055 </v>
   <v>       0.79868628       0.50400539       0.47324410 </v>
   <v>       0.19762160       0.48711117       0.52313037 </v>
   <v>       0.46791420       0.00532521       0.71251335 </v>
   <v>       0.53745932       0.00361710       0.28692072 </v>
   <v>       0.96341911       0.50158038       0.71275561 </v>
   <v>       0.03261163       0.50201004       0.28361324 </v>
   <v>       0.99926341       0.25195000       0.00061399 </v>
   <v>       0.50039094       0.74742460       0.00015584 </v>
   <v>      -0.00084657       0.48958141       0.50113215 </v>
   <v>       0.50003066       0.99337318       0.49965083 </v>
   <v>       0.14822463       0.00390228       0.99160979 </v>
   <v>       0.85021597       0.00464198       0.00892966 </v>
   <v>       0.64901982       0.50597881       0.99044192 </v>
   <v>       0.35088076       0.50105525       0.00984183 </v>
   <v>       0.30304013       0.00104070       0.08140971 </v>
   <v>       0.69576407       0.00483456       0.91690044 </v>
   <v>       0.80289334       0.50481581       0.08128692 </v>
   <v>       0.19558008       0.49808414       0.91964930 </v>
   <v>       0.03367801       1.00066646       0.09953846 </v>
   <v>       0.96573056       1.00070237       0.90266957 </v>
   <v>       0.53416450       0.49948932       0.09824547 </v>
   <v>       0.46617063       0.49307215       0.90028384 </v>
   <v>       0.44989242       0.00309582       0.15566642 </v>
   <v>       0.54955283       0.00653016       0.84421713 </v>
   <v>       0.94909390       0.50220996       0.15574096 </v>
   <v>       0.04954353       0.50548057       0.84518878 </v>
   <v>       0.18028322       0.00122995       0.17859934 </v>
   <v>       0.82046745       0.00376815       0.82343591 </v>
   <v>       0.67974949       0.50468128       0.17671093 </v>
   <v>       0.32129251       0.48274837       0.82753768 </v>
   <v>       0.04885590       0.00048257       0.27093789 </v>
   <v>       0.95019989       0.00197688       0.73046685 </v>
   <v>       0.55027183       0.50268218       0.26932221 </v>
   <v>       0.45079631       0.49815694       0.72789153 </v>
   <v>       0.32589241       1.00192717       0.24915152 </v>
   <v>       0.67547300       1.00036421       0.74948519 </v>
   <v>       0.82533363       0.49987222       0.24950680 </v>
   <v>       0.17495326       0.49942728       0.75107634 </v>
   <v>       0.47707195       1.00389431       0.32593829 </v>
   <v>       0.52712994       1.00631716       0.67437993 </v>
   <v>       0.97712175       0.50075126       0.32822638 </v>
   <v>       0.02419792       0.49707303       0.67475270 </v>
   <v>       0.20610694       0.00734865       0.34963952 </v>
   <v>       0.79282191       0.00219968       0.65131678 </v>
   <v>       0.70758687       0.50233375       0.34884027 </v>
   <v>       0.29383472       0.47419056       0.65482825 </v>
   <v>       0.35195049       0.01691817       0.42053704 </v>
   <v>       0.64803348       1.00240323       0.57340860 </v>
   <v>       0.85232396       0.50025443       0.42497645 </v>
   <v>       0.14552135       0.49292330       0.57268999 </v>
   <v>       0.22609503      -0.01062105       0.52639683 </v>
   <v>       0.77889136       0.00345202       0.48114912 </v>
   <v>       0.72212019       0.50358979       0.51841002 </v>
   <v>       0.28076969       0.50870400       0.48226193 </v>
   <v>       0.37969921       0.00453964       0.59413310 </v>
   <v>       0.62234263       0.00281556       0.40358863 </v>
   <v>       0.87849044       0.50309441       0.59598435 </v>
   <v>       0.12277915       0.49280881       0.40400061 </v>
   <v>       0.09067873       0.99077910       0.63198326 </v>
   <v>       0.91014301       0.99303244       0.36839540 </v>
   <v>       0.59107498       0.49516876       0.63015427 </v>
   <v>       0.41070987       0.49772145       0.36798047 </v>
   <v>       0.38975935       0.97709141       0.76287328 </v>
   <v>       0.60594068       0.00169096       0.23132258 </v>
   <v>       0.89423444       0.50130565       0.76851146 </v>
   <v>       0.10571502       0.50156090       0.23205987 </v>
   <v>       0.27491372      -0.00134359       0.89761747 </v>
   <v>       0.72397380       0.00534940       0.10263216 </v>
   <v>       0.77561821       0.50427417       0.89703859 </v>
   <v>       0.22398885       0.50330630       0.10411154 </v>
   <v>       0.42910171      -0.00091152       0.98670919 </v>
   <v>       0.57087351       0.00205518       0.01308266 </v>
   <v>       0.92812518       0.50415136       0.98715928 </v>
   <v>       0.07094197       0.50449461       0.01432502 </v>
  </varray>
 </structure>
</modeling>
