       N       E                     dE             d eps       ncg     rms          rms(c)
DAV:   1     0.210030295553E+04    0.21003E+04   -0.15215E+05 10952   0.116E+03
DAV:   2    -0.910330214710E+02   -0.21913E+04   -0.20634E+04 11900   0.293E+02
DAV:   3    -0.208513755189E+03   -0.11748E+03   -0.10602E+03 12320   0.614E+01
DAV:   4    -0.212518554044E+03   -0.40048E+01   -0.39105E+01 12720   0.114E+01
DAV:   5    -0.212647031261E+03   -0.12848E+00   -0.12825E+00 13024   0.206E+00    0.405E+01
DAV:   6    -0.208047499591E+03    0.45995E+01   -0.41830E+01 12792   0.216E+01    0.323E+01
DAV:   7    -0.209141854010E+03   -0.10944E+01   -0.31814E+01 14368   0.127E+01    0.227E+01
DAV:   8    -0.217746896178E+03   -0.86050E+01   -0.19864E+01 11456   0.279E+01    0.432E+01
DAV:   9    -0.208758912467E+03    0.89880E+01   -0.30042E+01 11580   0.212E+01    0.236E+01
DAV:  10    -0.204576128293E+03    0.41828E+01   -0.88080E+00 11920   0.161E+01    0.140E+01
DAV:  11    -0.201730364001E+03    0.28458E+01   -0.56112E+00 16776   0.114E+01    0.822E+00
DAV:  12    -0.201298499998E+03    0.43186E+00   -0.25973E+00 11324   0.634E+00    0.418E+00
DAV:  13    -0.201217182542E+03    0.81317E-01   -0.34651E-01 11380   0.265E+00    0.308E+00
DAV:  14    -0.201196389137E+03    0.20793E-01   -0.26638E-01 11168   0.216E+00    0.235E+00
DAV:  15    -0.201189057309E+03    0.73318E-02   -0.20989E-01 11416   0.219E+00    0.237E+00
DAV:  16    -0.201152327917E+03    0.36729E-01   -0.12108E-01 11352   0.193E+00    0.136E+00
DAV:  17    -0.201143846098E+03    0.84818E-02   -0.40461E-02 11316   0.958E-01    0.947E-01
DAV:  18    -0.201136220795E+03    0.76253E-02   -0.12837E-02 11256   0.617E-01    0.630E-01
DAV:  19    -0.201133302211E+03    0.29186E-02   -0.10054E-02 16228   0.388E-01    0.326E-01
DAV:  20    -0.201133459881E+03   -0.15767E-03   -0.64200E-03 11164   0.289E-01    0.303E-01
DAV:  21    -0.201133253889E+03    0.20599E-03   -0.17492E-03 12356   0.185E-01    0.144E-01
DAV:  22    -0.201133601727E+03   -0.34784E-03   -0.16147E-03 11180   0.158E-01    0.163E-01
DAV:  23    -0.201133697084E+03   -0.95357E-04   -0.73776E-04 12560   0.125E-01    0.937E-02
DAV:  24    -0.201133809121E+03   -0.11204E-03   -0.50122E-04 11412   0.810E-02    0.106E-01
DAV:  25    -0.201133823090E+03   -0.13969E-04   -0.25563E-04 12996   0.600E-02    0.554E-02
DAV:  26    -0.201133909001E+03   -0.85911E-04   -0.20214E-04 11264   0.484E-02    0.560E-02
DAV:  27    -0.201134097742E+03   -0.18874E-03   -0.13531E-04 10088   0.438E-02    0.494E-02
DAV:  28    -0.201134160156E+03   -0.62414E-04   -0.66292E-05 11492   0.254E-02    0.414E-02
DAV:  29    -0.201134222973E+03   -0.62817E-04   -0.21116E-05  7032   0.180E-02    0.120E-02
DAV:  30    -0.201134246236E+03   -0.23262E-04   -0.99949E-06  7188   0.102E-02    0.745E-03
DAV:  31    -0.201134271242E+03   -0.25006E-04   -0.49004E-06  6672   0.734E-03    0.805E-03
DAV:  32    -0.201134281408E+03   -0.10166E-04   -0.24875E-06  6820   0.526E-03    0.527E-03
DAV:  33    -0.201134286745E+03   -0.53369E-05   -0.14967E-06  6560   0.400E-03
   1 F= -.20113429E+03 E0= -.19848953E+03  d E =-.201134E+03
       N       E                     dE             d eps       ncg     rms          rms(c)
DAV:   1    -0.201138616070E+03   -0.43347E-02   -0.56358E-02 11008   0.517E-01    0.628E-02
DAV:   2    -0.201138858315E+03   -0.24224E-03   -0.16891E-03 11212   0.109E-01    0.144E-01
DAV:   3    -0.201138755314E+03    0.10300E-03   -0.30027E-04 11664   0.723E-02    0.633E-02
DAV:   4    -0.201138778627E+03   -0.23313E-04   -0.19659E-04 11540   0.665E-02    0.767E-02
DAV:   5    -0.201138765142E+03    0.13485E-04   -0.11070E-04  8108   0.555E-02    0.661E-02
DAV:   6    -0.201138739075E+03    0.26067E-04   -0.44448E-05  7268   0.393E-02    0.356E-02
DAV:   7    -0.201138736368E+03    0.27070E-05   -0.24738E-05  6936   0.243E-02
   2 F= -.20113874E+03 E0= -.19849456E+03  d E =-.444962E-02
       N       E                     dE             d eps       ncg     rms          rms(c)
DAV:   1    -0.201146827823E+03   -0.80887E-02   -0.22269E-01 10944   0.103E+00    0.128E-01
DAV:   2    -0.201147899234E+03   -0.10714E-02   -0.69303E-03 11200   0.224E-01    0.314E-01
DAV:   3    -0.201147383069E+03    0.51616E-03   -0.13271E-03 11640   0.151E-01    0.135E-01
DAV:   4    -0.201147469607E+03   -0.86538E-04   -0.78411E-04 11832   0.133E-01    0.155E-01
DAV:   5    -0.201147431805E+03    0.37803E-04   -0.46979E-04 12060   0.114E-01    0.137E-01
DAV:   6    -0.201147311518E+03    0.12029E-03   -0.20632E-04 11492   0.841E-02    0.712E-02
DAV:   7    -0.201147305351E+03    0.61671E-05   -0.11218E-04 12012   0.476E-02    0.488E-02
DAV:   8    -0.201147288065E+03    0.17286E-04   -0.59810E-05 10608   0.384E-02    0.200E-02
DAV:   9    -0.201147285291E+03    0.27736E-05   -0.10898E-05  5868   0.169E-02
   3 F= -.20114729E+03 E0= -.19850409E+03  d E =-.854892E-02
       N       E                     dE             d eps       ncg     rms          rms(c)
DAV:   1    -0.201158278009E+03   -0.10990E-01   -0.49173E-01 10944   0.153E+00    0.190E-01
DAV:   2    -0.201160544635E+03   -0.22666E-02   -0.15176E-02 11172   0.329E-01    0.453E-01
DAV:   3    -0.201159494206E+03    0.10504E-02   -0.27169E-03 11612   0.216E-01    0.196E-01
DAV:   4    -0.201159731010E+03   -0.23680E-03   -0.17715E-03 11832   0.199E-01    0.239E-01
DAV:   5    -0.201159594265E+03    0.13674E-03   -0.10352E-03 12192   0.169E-01    0.200E-01
DAV:   6    -0.201159355474E+03    0.23879E-03   -0.44090E-04 11740   0.122E-01    0.110E-01
DAV:   7    -0.201159325657E+03    0.29818E-04   -0.24955E-04 14100   0.717E-02    0.692E-02
DAV:   8    -0.201159296035E+03    0.29622E-04   -0.12279E-04 11232   0.544E-02    0.307E-02
DAV:   9    -0.201159288837E+03    0.71973E-05   -0.24764E-05  7024   0.256E-02
   4 F= -.20115929E+03 E0= -.19851755E+03  d E =-.120035E-01
       N       E                     dE             d eps       ncg     rms          rms(c)
DAV:   1    -0.201172074867E+03   -0.12779E-01   -0.84554E-01 10944   0.201E+00    0.250E-01
DAV:   2    -0.201175811802E+03   -0.37369E-02   -0.25652E-02 11156   0.421E-01    0.576E-01
DAV:   3    -0.201174146216E+03    0.16656E-02   -0.43403E-03 11620   0.273E-01    0.252E-01
DAV:   4    -0.201174633100E+03   -0.48688E-03   -0.31028E-03 11900   0.264E-01    0.323E-01
DAV:   5    -0.201174326858E+03    0.30624E-03   -0.18300E-03 12224   0.224E-01    0.259E-01
DAV:   6    -0.201173931517E+03    0.39534E-03   -0.75122E-04 11752   0.160E-01    0.145E-01
DAV:   7    -0.201173879500E+03    0.52017E-04   -0.42754E-04 14672   0.939E-02    0.898E-02
DAV:   8    -0.201173828499E+03    0.51002E-04   -0.20851E-04 11200   0.710E-02    0.393E-02
DAV:   9    -0.201173817111E+03    0.11388E-04   -0.42104E-05  8696   0.326E-02    0.174E-02
DAV:  10    -0.201173817749E+03   -0.63853E-06   -0.11389E-05  5944   0.146E-02
   5 F= -.20117382E+03 E0= -.19853392E+03  d E =-.145289E-01
       N       E                     dE             d eps       ncg     rms          rms(c)
DAV:   1    -0.201187141177E+03   -0.13324E-01   -0.12634E+00 10944   0.246E+00    0.302E-01
DAV:   2    -0.201192327364E+03   -0.51862E-02   -0.37172E-02 11120   0.493E-01    0.662E-01
DAV:   3    -0.201190194888E+03    0.21325E-02   -0.58267E-03 11652   0.314E-01    0.294E-01
DAV:   4    -0.201191027376E+03   -0.83249E-03   -0.46746E-03 11896   0.324E-01    0.402E-01
DAV:   5    -0.201190459558E+03    0.56782E-03   -0.27593E-03 12232   0.275E-01    0.309E-01
DAV:   6    -0.201189902055E+03    0.55750E-03   -0.10688E-03 11704   0.190E-01    0.173E-01
DAV:   7    -0.201189844569E+03    0.57486E-04   -0.63781E-04 13608   0.116E-01    0.112E-01
DAV:   8    -0.201189758077E+03    0.86492E-04   -0.32834E-04 11184   0.904E-02    0.464E-02
DAV:   9    -0.201189742483E+03    0.15594E-04   -0.57433E-05 10120   0.377E-02    0.205E-02
DAV:  10    -0.201189743495E+03   -0.10119E-05   -0.16584E-05  6388   0.179E-02
   6 F= -.20118974E+03 E0= -.19855205E+03  d E =-.159257E-01
       N       E                     dE             d eps       ncg     rms          rms(c)
DAV:   1    -0.201202503267E+03   -0.12761E-01   -0.17256E+00 10944   0.288E+00    0.346E-01
DAV:   2    -0.201208812448E+03   -0.63092E-02   -0.48323E-02 11088   0.538E-01    0.695E-01
DAV:   3    -0.201206586326E+03    0.22261E-02   -0.68027E-03 11672   0.339E-01    0.314E-01
DAV:   4    -0.201207946325E+03   -0.13600E-02   -0.65111E-03 11960   0.381E-01    0.479E-01
DAV:   5    -0.201206911672E+03    0.10347E-02   -0.37799E-03 12328   0.321E-01    0.339E-01
DAV:   6    -0.201206271149E+03    0.64052E-03   -0.13312E-03 11760   0.210E-01    0.197E-01
DAV:   7    -0.201206192449E+03    0.78701E-04   -0.81489E-04 13208   0.132E-01    0.125E-01
DAV:   8    -0.201206078920E+03    0.11353E-03   -0.41835E-04 11152   0.102E-01    0.500E-02
DAV:   9    -0.201206061535E+03    0.17385E-04   -0.70737E-05 10876   0.412E-02    0.225E-02
DAV:  10    -0.201206062727E+03   -0.11926E-05   -0.20284E-05  6784   0.202E-02
   7 F= -.20120606E+03 E0= -.19857075E+03  d E =-.163192E-01
       N       E                     dE             d eps       ncg     rms          rms(c)
DAV:   1    -0.201217649158E+03   -0.11588E-01   -0.22065E+00 10944   0.325E+00    0.375E-01
DAV:   2    -0.201224530912E+03   -0.68818E-02   -0.57837E-02 11044   0.554E-01    0.656E-01
DAV:   3    -0.201222793712E+03    0.17372E-02   -0.71732E-03 11724   0.347E-01    0.313E-01
DAV:   4    -0.201224745487E+03   -0.19518E-02   -0.86050E-03 11980   0.432E-01    0.545E-01
DAV:   5    -0.201223034725E+03    0.17108E-02   -0.46986E-03 12400   0.356E-01    0.343E-01
DAV:   6    -0.201222443108E+03    0.59162E-03   -0.14439E-03 11824   0.215E-01    0.210E-01
DAV:   7    -0.201222333415E+03    0.10969E-03   -0.92005E-04 12672   0.142E-01    0.128E-01
DAV:   8    -0.201222206649E+03    0.12677E-03   -0.45980E-04 11176   0.108E-01    0.501E-02
DAV:   9    -0.201222190345E+03    0.16304E-04   -0.77284E-05 11204   0.427E-02    0.228E-02
DAV:  10    -0.201222191400E+03   -0.10548E-05   -0.21565E-05  6904   0.215E-02
   8 F= -.20122219E+03 E0= -.19858930E+03  d E =-.161287E-01
       N       E                     dE             d eps       ncg     rms          rms(c)
DAV:   1    -0.201232693620E+03   -0.10503E-01   -0.27230E+00 10944   0.360E+00    0.390E-01
DAV:   2    -0.201239927470E+03   -0.72338E-02   -0.67093E-02 10992   0.556E-01    0.562E-01
DAV:   3    -0.201239230645E+03    0.69683E-03   -0.77431E-03 11864   0.360E-01    0.338E-01
DAV:   4    -0.201241284175E+03   -0.20535E-02   -0.10843E-02 11916   0.472E-01    0.577E-01
DAV:   5    -0.201239004402E+03    0.22798E-02   -0.51039E-03 12264   0.371E-01    0.320E-01
DAV:   6    -0.201238581954E+03    0.42245E-03   -0.14071E-03 11776   0.205E-01    0.211E-01
DAV:   7    -0.201238435031E+03    0.14692E-03   -0.93365E-04 12344   0.147E-01    0.121E-01
DAV:   8    -0.201238315694E+03    0.11934E-03   -0.43506E-04 11176   0.105E-01    0.466E-02
DAV:   9    -0.201238303104E+03    0.12590E-04   -0.75895E-05 11184   0.424E-02    0.221E-02
DAV:  10    -0.201238303585E+03   -0.48081E-06   -0.20501E-05  6780   0.219E-02
   9 F= -.20123830E+03 E0= -.19860775E+03  d E =-.161122E-01
       N       E                     dE             d eps       ncg     rms          rms(c)
DAV:   1    -0.201248922066E+03   -0.10619E-01   -0.31380E+00 10944   0.387E+00    0.390E-01
DAV:   2    -0.201256069232E+03   -0.71472E-02   -0.73269E-02 10968   0.542E-01    0.386E-01
DAV:   3    -0.201256640547E+03   -0.57131E-03   -0.69069E-03 12088   0.354E-01    0.371E-01
DAV:   4    -0.201258179815E+03   -0.15393E-02   -0.11260E-02 12060   0.436E-01    0.576E-01
DAV:   5    -0.201255722676E+03    0.24571E-02   -0.49592E-03 12088   0.340E-01    0.253E-01
DAV:   6    -0.201255606151E+03    0.11652E-03   -0.12039E-03 11896   0.184E-01    0.191E-01
DAV:   7    -0.201255425908E+03    0.18024E-03   -0.93758E-04 11548   0.154E-01    0.108E-01
DAV:   8    -0.201255321736E+03    0.10417E-03   -0.31484E-04 11256   0.918E-02    0.392E-02
DAV:   9    -0.201255318457E+03    0.32792E-05   -0.68526E-05 10668   0.392E-02
  10 F= -.20125532E+03 E0= -.19862687E+03  d E =-.170149E-01
       N       E                     dE             d eps       ncg     rms          rms(c)
DAV:   1    -0.201261657870E+03   -0.63361E-02   -0.30444E+00 10944   0.364E+00    0.428E-01
DAV:   2    -0.201268198472E+03   -0.65406E-02   -0.74718E-02 11048   0.524E-01    0.364E-01
DAV:   3    -0.201271845033E+03   -0.36466E-02   -0.14536E-02 11952   0.511E-01    0.706E-01
DAV:   4    -0.201268962603E+03    0.28824E-02   -0.15076E-02 11848   0.531E-01    0.415E-01
DAV:   5    -0.201267614807E+03    0.13478E-02   -0.32391E-03 11992   0.308E-01    0.227E-01
DAV:   6    -0.201267630441E+03   -0.15635E-04   -0.15015E-03 11892   0.199E-01    0.198E-01
DAV:   7    -0.201267315332E+03    0.31511E-03   -0.87926E-04 11592   0.166E-01    0.923E-02
DAV:   8    -0.201267231826E+03    0.83506E-04   -0.22557E-04 11664   0.792E-02    0.295E-02
DAV:   9    -0.201267237023E+03   -0.51970E-05   -0.65062E-05 10556   0.376E-02
  11 F= -.20126724E+03 E0= -.19864070E+03  d E =-.119186E-01
       N       E                     dE             d eps       ncg     rms          rms(c)
DAV:   1    -0.201276308496E+03   -0.90767E-02   -0.26616E-01 10944   0.839E-01    0.195E-01
DAV:   2    -0.201276883494E+03   -0.57500E-03   -0.68311E-03 11384   0.172E-01    0.193E-01
DAV:   3    -0.201277505721E+03   -0.62223E-03   -0.35756E-03 12200   0.259E-01    0.330E-01
DAV:   4    -0.201276847018E+03    0.65870E-03   -0.24703E-03 12136   0.231E-01    0.183E-01
DAV:   5    -0.201276554767E+03    0.29225E-03   -0.63696E-04 12232   0.137E-01    0.808E-02
DAV:   6    -0.201276539779E+03    0.14988E-04   -0.27615E-04 11672   0.833E-02    0.651E-02
DAV:   7    -0.201276508503E+03    0.31276E-04   -0.10880E-04 10176   0.588E-02    0.405E-02
DAV:   8    -0.201276491761E+03    0.16742E-04   -0.33280E-05  7044   0.330E-02    0.119E-02
DAV:   9    -0.201276491988E+03   -0.22741E-06   -0.90169E-06  5936   0.139E-02
  12 F= -.20127649E+03 E0= -.19864995E+03  d E =-.925496E-02
       N       E                     dE             d eps       ncg     rms          rms(c)
DAV:   1    -0.201284341659E+03   -0.78499E-02   -0.29835E-01 10944   0.116E+00    0.113E-01
DAV:   2    -0.201284978383E+03   -0.63672E-03   -0.68225E-03 11072   0.165E-01    0.846E-02
DAV:   3    -0.201285114677E+03   -0.13629E-03   -0.76905E-04 11632   0.131E-01    0.152E-01
DAV:   4    -0.201285020836E+03    0.93841E-04   -0.66703E-04 11608   0.112E-01    0.107E-01
DAV:   5    -0.201284924072E+03    0.96764E-04   -0.23116E-04 11148   0.761E-02    0.378E-02
DAV:   6    -0.201284952818E+03   -0.28746E-04   -0.10174E-04 10560   0.527E-02    0.648E-02
DAV:   7    -0.201284922647E+03    0.30171E-04   -0.72384E-05  8452   0.462E-02    0.278E-02
DAV:   8    -0.201284915786E+03    0.68609E-05   -0.21370E-05  6188   0.238E-02
  13 F= -.20128492E+03 E0= -.19865892E+03  d E =-.842380E-02
       N       E                     dE             d eps       ncg     rms          rms(c)
DAV:   1    -0.201295072920E+03   -0.10150E-01   -0.45656E-01 10944   0.145E+00    0.134E-01
DAV:   2    -0.201296058033E+03   -0.98511E-03   -0.10509E-02 10984   0.204E-01    0.995E-02
DAV:   3    -0.201296244631E+03   -0.18660E-03   -0.10127E-03 11720   0.152E-01    0.165E-01
DAV:   4    -0.201296152075E+03    0.92556E-04   -0.98330E-04 11692   0.140E-01    0.136E-01
DAV:   5    -0.201295999714E+03    0.15236E-03   -0.30935E-04 11304   0.839E-02    0.417E-02
DAV:   6    -0.201296023932E+03   -0.24217E-04   -0.11843E-04 11288   0.560E-02    0.572E-02
DAV:   7    -0.201296005314E+03    0.18618E-04   -0.80036E-05  8904   0.492E-02    0.365E-02
DAV:   8    -0.201295994112E+03    0.11202E-04   -0.29657E-05  6768   0.280E-02    0.112E-02
DAV:   9    -0.201295994455E+03   -0.34291E-06   -0.72878E-06  5776   0.118E-02
  14 F= -.20129599E+03 E0= -.19867070E+03  d E =-.110787E-01
       N       E                     dE             d eps       ncg     rms          rms(c)
DAV:   1    -0.201308680946E+03   -0.12687E-01   -0.68881E-01 10944   0.176E+00    0.161E-01
DAV:   2    -0.201310172883E+03   -0.14919E-02   -0.15524E-02 11028   0.252E-01    0.134E-01
DAV:   3    -0.201310558303E+03   -0.38542E-03   -0.20199E-03 11652   0.200E-01    0.251E-01
DAV:   4    -0.201310213736E+03    0.34457E-03   -0.15931E-03 11632   0.171E-01    0.140E-01
DAV:   5    -0.201310053162E+03    0.16057E-03   -0.37066E-04 11612   0.102E-01    0.548E-02
DAV:   6    -0.201310096356E+03   -0.43194E-04   -0.18377E-04 11620   0.692E-02    0.843E-02
DAV:   7    -0.201310057352E+03    0.39005E-04   -0.13823E-04 11192   0.628E-02    0.434E-02
DAV:   8    -0.201310039316E+03    0.18036E-04   -0.50325E-05  8656   0.372E-02    0.127E-02
DAV:   9    -0.201310039854E+03   -0.53825E-06   -0.10674E-05  5768   0.150E-02
  15 F= -.20131004E+03 E0= -.19868553E+03  d E =-.140454E-01
       N       E                     dE             d eps       ncg     rms          rms(c)
DAV:   1    -0.201324764864E+03   -0.14726E-01   -0.90319E-01 10944   0.202E+00    0.194E-01
DAV:   2    -0.201326696477E+03   -0.19316E-02   -0.20997E-02 11008   0.290E-01    0.150E-01
DAV:   3    -0.201327047084E+03   -0.35061E-03   -0.20360E-03 11728   0.220E-01    0.233E-01
DAV:   4    -0.201326890718E+03    0.15637E-03   -0.20060E-03 11756   0.202E-01    0.202E-01
DAV:   5    -0.201326554399E+03    0.33632E-03   -0.71354E-04 11556   0.124E-01    0.600E-02
DAV:   6    -0.201326623820E+03   -0.69420E-04   -0.26881E-04 11336   0.806E-02    0.973E-02
DAV:   7    -0.201326564798E+03    0.59022E-04   -0.20648E-04 11680   0.749E-02    0.528E-02
DAV:   8    -0.201326539590E+03    0.25207E-04   -0.69524E-05  9796   0.433E-02    0.155E-02
DAV:   9    -0.201326540136E+03   -0.54621E-06   -0.13813E-05  5968   0.177E-02
  16 F= -.20132654E+03 E0= -.19870305E+03  d E =-.165003E-01
       N       E                     dE             d eps       ncg     rms          rms(c)
DAV:   1    -0.201342323650E+03   -0.15784E-01   -0.11104E+00 10944   0.218E+00    0.218E-01
DAV:   2    -0.201344743411E+03   -0.24198E-02   -0.25205E-02 11112   0.327E-01    0.215E-01
DAV:   3    -0.201345489008E+03   -0.74560E-03   -0.44154E-03 11648   0.286E-01    0.364E-01
DAV:   4    -0.201344726493E+03    0.76251E-03   -0.33147E-03 11628   0.251E-01    0.194E-01
DAV:   5    -0.201344438564E+03    0.28793E-03   -0.71120E-04 11816   0.144E-01    0.931E-02
DAV:   6    -0.201344462721E+03   -0.24157E-04   -0.37826E-04 11772   0.101E-01    0.100E-01
DAV:   7    -0.201344418063E+03    0.44658E-04   -0.24368E-04 11376   0.849E-02    0.633E-02
DAV:   8    -0.201344378472E+03    0.39591E-04   -0.95611E-05 10540   0.524E-02    0.185E-02
DAV:   9    -0.201344379076E+03   -0.60427E-06   -0.22709E-05  6724   0.224E-02
  17 F= -.20134438E+03 E0= -.19872181E+03  d E =-.178389E-01
       N       E                     dE             d eps       ncg     rms          rms(c)
DAV:   1    -0.201358852342E+03   -0.14474E-01   -0.84174E-01 10944   0.188E+00    0.242E-01
DAV:   2    -0.201360561909E+03   -0.17096E-02   -0.20731E-02 11124   0.293E-01    0.206E-01
DAV:   3    -0.201361871478E+03   -0.13096E-02   -0.49906E-03 11912   0.321E-01    0.429E-01
DAV:   4    -0.201360549130E+03    0.13223E-02   -0.43701E-03 11796   0.291E-01    0.191E-01
DAV:   5    -0.201360235459E+03    0.31367E-03   -0.77572E-04 11416   0.159E-01    0.879E-02
DAV:   6    -0.201360289931E+03   -0.54472E-04   -0.44499E-04 11608   0.115E-01    0.113E-01
DAV:   7    -0.201360196632E+03    0.93299E-04   -0.27286E-04 11604   0.913E-02    0.615E-02
DAV:   8    -0.201360162348E+03    0.34284E-04   -0.87838E-05 10192   0.484E-02    0.188E-02
DAV:   9    -0.201360163617E+03   -0.12690E-05   -0.21638E-05  6524   0.219E-02
  18 F= -.20136016E+03 E0= -.19873873E+03  d E =-.157845E-01
       N       E                     dE             d eps       ncg     rms          rms(c)
DAV:   1    -0.201372317187E+03   -0.12155E-01   -0.51088E-01 10944   0.135E+00    0.184E-01
DAV:   2    -0.201373377690E+03   -0.10605E-02   -0.11907E-02 11288   0.223E-01    0.184E-01
DAV:   3    -0.201373856701E+03   -0.47901E-03   -0.29480E-03 11696   0.234E-01    0.298E-01
DAV:   4    -0.201373394452E+03    0.46225E-03   -0.24255E-03 11636   0.219E-01    0.180E-01
DAV:   5    -0.201373132812E+03    0.26164E-03   -0.61595E-04 11880   0.133E-01    0.846E-02
DAV:   6    -0.201373132596E+03    0.21548E-06   -0.29911E-04 11792   0.879E-02    0.790E-02
DAV:   7    -0.201373099333E+03    0.33263E-04   -0.15826E-04 11212   0.701E-02    0.520E-02
DAV:   8    -0.201373072056E+03    0.27277E-04   -0.55062E-05  8540   0.414E-02    0.146E-02
DAV:   9    -0.201373072441E+03   -0.38571E-06   -0.15094E-05  6312   0.187E-02
  19 F= -.20137307E+03 E0= -.19875210E+03  d E =-.129088E-01
       N       E                     dE             d eps       ncg     rms          rms(c)
DAV:   1    -0.201386557980E+03   -0.13486E-01   -0.37528E-01 10944   0.127E+00    0.143E-01
DAV:   2    -0.201387377711E+03   -0.81973E-03   -0.89962E-03 11068   0.201E-01    0.143E-01
DAV:   3    -0.201387708866E+03   -0.33116E-03   -0.17527E-03 11808   0.193E-01    0.234E-01
DAV:   4    -0.201387354860E+03    0.35401E-03   -0.14369E-03 11712   0.167E-01    0.121E-01
DAV:   5    -0.201387238039E+03    0.11682E-03   -0.27652E-04 11316   0.912E-02    0.523E-02
DAV:   6    -0.201387258491E+03   -0.20452E-04   -0.15498E-04 11432   0.676E-02    0.631E-02
DAV:   7    -0.201387233780E+03    0.24711E-04   -0.10032E-04  9500   0.562E-02    0.402E-02
DAV:   8    -0.201387220022E+03    0.13758E-04   -0.37144E-05  6888   0.315E-02    0.148E-02
DAV:   9    -0.201387219830E+03    0.19161E-06   -0.10929E-05  5892   0.158E-02
  20 F= -.20138722E+03 E0= -.19876707E+03  d E =-.141474E-01
       N       E                     dE             d eps       ncg     rms          rms(c)
DAV:   1    -0.201405339644E+03   -0.18120E-01   -0.61899E-01 10944   0.161E+00    0.162E-01
DAV:   2    -0.201406633273E+03   -0.12936E-02   -0.13553E-02 11100   0.246E-01    0.152E-01
DAV:   3    -0.201406598002E+03    0.35271E-04   -0.11923E-03 11608   0.171E-01    0.123E-01
DAV:   4    -0.201406512534E+03    0.85467E-04   -0.37431E-04 11592   0.961E-02    0.744E-02
DAV:   5    -0.201406579591E+03   -0.67057E-04   -0.39887E-04 10900   0.842E-02    0.113E-01
DAV:   6    -0.201406549974E+03    0.29617E-04   -0.38389E-04 11552   0.893E-02    0.878E-02
DAV:   7    -0.201406507185E+03    0.42789E-04   -0.15565E-04 10892   0.673E-02    0.512E-02
DAV:   8    -0.201406483467E+03    0.23718E-04   -0.55606E-05  8628   0.401E-02    0.157E-02
DAV:   9    -0.201406482999E+03    0.46823E-06   -0.12609E-05  5840   0.173E-02
  21 F= -.20140648E+03 E0= -.19878732E+03  d E =-.192632E-01
       N       E                     dE             d eps       ncg     rms          rms(c)
DAV:   1    -0.201430874686E+03   -0.24391E-01   -0.89573E-01 10944   0.196E+00    0.204E-01
DAV:   2    -0.201432789361E+03   -0.19147E-02   -0.19967E-02 11068   0.305E-01    0.209E-01
DAV:   3    -0.201433235268E+03   -0.44591E-03   -0.30863E-03 11736   0.265E-01    0.294E-01
DAV:   4    -0.201432801134E+03    0.43413E-03   -0.27544E-03 11736   0.231E-01    0.193E-01
DAV:   5    -0.201432515935E+03    0.28520E-03   -0.65162E-04 11468   0.132E-01    0.738E-02
DAV:   6    -0.201432569943E+03   -0.54008E-04   -0.29908E-04 11280   0.934E-02    0.890E-02
DAV:   7    -0.201432526821E+03    0.43121E-04   -0.20427E-04 11276   0.799E-02    0.573E-02
DAV:   8    -0.201432499556E+03    0.27265E-04   -0.80749E-05  9496   0.466E-02    0.232E-02
DAV:   9    -0.201432498090E+03    0.14663E-05   -0.20980E-05  6096   0.221E-02
  22 F= -.20143250E+03 E0= -.19881473E+03  d E =-.260151E-01
       N       E                     dE             d eps       ncg     rms          rms(c)
DAV:   1    -0.201463546702E+03   -0.31047E-01   -0.14106E+00 10944   0.242E+00    0.251E-01
DAV:   2    -0.201466538128E+03   -0.29914E-02   -0.31011E-02 11100   0.379E-01    0.251E-01
DAV:   3    -0.201466789493E+03   -0.25136E-03   -0.36495E-03 11680   0.299E-01    0.279E-01
DAV:   4    -0.201466871754E+03   -0.82261E-04   -0.38449E-03 11828   0.274E-01    0.299E-01
DAV:   5    -0.201466155220E+03    0.71653E-03   -0.14840E-03 11716   0.184E-01    0.894E-02
DAV:   6    -0.201466252154E+03   -0.96934E-04   -0.45522E-04 11440   0.115E-01    0.117E-01
DAV:   7    -0.201466187355E+03    0.64799E-04   -0.33244E-04 11672   0.101E-01    0.764E-02
DAV:   8    -0.201466136476E+03    0.50879E-04   -0.13869E-04 11120   0.605E-02    0.276E-02
DAV:   9    -0.201466134814E+03    0.16624E-05   -0.32605E-05  6832   0.270E-02
  23 F= -.20146613E+03 E0= -.19885010E+03  d E =-.336367E-01
       N       E                     dE             d eps       ncg     rms          rms(c)
DAV:   1    -0.201503665427E+03   -0.37529E-01   -0.19093E+00 10944   0.284E+00    0.303E-01
DAV:   2    -0.201507802031E+03   -0.41366E-02   -0.42538E-02 11080   0.454E-01    0.327E-01
DAV:   3    -0.201508629908E+03   -0.82788E-03   -0.68598E-03 11752   0.391E-01    0.428E-01
DAV:   4    -0.201507761911E+03    0.86800E-03   -0.60706E-03 11732   0.343E-01    0.286E-01
DAV:   5    -0.201507186096E+03    0.57582E-03   -0.14477E-03 11492   0.205E-01    0.131E-01
DAV:   6    -0.201507295579E+03   -0.10948E-03   -0.76481E-04 11636   0.153E-01    0.157E-01
DAV:   7    -0.201507170491E+03    0.12509E-03   -0.52805E-04 11616   0.123E-01    0.896E-02
DAV:   8    -0.201507094869E+03    0.75622E-04   -0.20337E-04 11224   0.766E-02    0.287E-02
DAV:   9    -0.201507094543E+03    0.32686E-06   -0.47849E-05  8412   0.326E-02
  24 F= -.20150709E+03 E0= -.19889335E+03  d E =-.409597E-01
       N       E                     dE             d eps       ncg     rms          rms(c)
DAV:   1    -0.201547013105E+03   -0.39918E-01   -0.27179E+00 10944   0.332E+00    0.354E-01
DAV:   2    -0.201552708366E+03   -0.56953E-02   -0.59450E-02 11112   0.524E-01    0.349E-01
DAV:   3    -0.201553166131E+03   -0.45776E-03   -0.69667E-03 11680   0.415E-01    0.384E-01
DAV:   4    -0.201553428195E+03   -0.26206E-03   -0.75560E-03 11852   0.386E-01    0.426E-01
DAV:   5    -0.201551972077E+03    0.14561E-02   -0.30094E-03 11736   0.262E-01    0.125E-01
DAV:   6    -0.201552163461E+03   -0.19138E-03   -0.89366E-04 11400   0.160E-01    0.163E-01
DAV:   7    -0.201552034852E+03    0.12861E-03   -0.64453E-04 11688   0.140E-01    0.104E-01
DAV:   8    -0.201551940174E+03    0.94678E-04   -0.26496E-04 11532   0.841E-02    0.384E-02
DAV:   9    -0.201551936866E+03    0.33081E-05   -0.63677E-05  9740   0.373E-02
  25 F= -.20155194E+03 E0= -.19894057E+03  d E =-.448423E-01
       N       E                     dE             d eps       ncg     rms          rms(c)
DAV:   1    -0.201590544662E+03   -0.38604E-01   -0.27553E+00 10944   0.340E+00    0.411E-01
DAV:   2    -0.201596450385E+03   -0.59057E-02   -0.64096E-02 11112   0.563E-01    0.442E-01
DAV:   3    -0.201598458291E+03   -0.20079E-02   -0.13751E-02 11848   0.536E-01    0.630E-01
DAV:   4    -0.201596116482E+03    0.23418E-02   -0.11144E-02 11768   0.470E-01    0.349E-01
DAV:   5    -0.201595356679E+03    0.75980E-03   -0.25290E-03 11468   0.288E-01    0.213E-01
DAV:   6    -0.201595364985E+03   -0.83053E-05   -0.16135E-03 11908   0.220E-01    0.206E-01
DAV:   7    -0.201595108343E+03    0.25664E-03   -0.92131E-04 11744   0.165E-01    0.110E-01
DAV:   8    -0.201594988293E+03    0.12005E-03   -0.33173E-04 11368   0.102E-01    0.360E-02
DAV:   9    -0.201594989671E+03   -0.13776E-05   -0.75384E-05 10508   0.418E-02
  26 F= -.20159499E+03 E0= -.19898668E+03  d E =-.430528E-01
       N       E                     dE             d eps       ncg     rms          rms(c)
DAV:   1    -0.201619548559E+03   -0.24560E-01   -0.23176E+00 10944   0.270E+00    0.399E-01
DAV:   2    -0.201623771172E+03   -0.42226E-02   -0.51903E-02 11256   0.442E-01    0.333E-01
DAV:   3    -0.201625293723E+03   -0.15226E-02   -0.92568E-03 11656   0.445E-01    0.533E-01
DAV:   4    -0.201624769849E+03    0.52387E-03   -0.10850E-02 11784   0.452E-01    0.457E-01
DAV:   5    -0.201622902473E+03    0.18674E-02   -0.37621E-03 11800   0.315E-01    0.146E-01
DAV:   6    -0.201623056194E+03   -0.15372E-03   -0.12478E-03 11928   0.178E-01    0.187E-01
DAV:   7    -0.201622821422E+03    0.23477E-03   -0.73710E-04 11652   0.148E-01    0.102E-01
DAV:   8    -0.201622723630E+03    0.97792E-04   -0.22668E-04 11756   0.812E-02    0.299E-02
DAV:   9    -0.201622728732E+03   -0.51020E-05   -0.60549E-05  9580   0.388E-02
  27 F= -.20162273E+03 E0= -.19901564E+03  d E =-.277391E-01
       N       E                     dE             d eps       ncg     rms          rms(c)
DAV:   1    -0.201637906012E+03   -0.15182E-01   -0.29468E-01 10944   0.978E-01    0.202E-01
DAV:   2    -0.201638655230E+03   -0.74922E-03   -0.77976E-03 11312   0.222E-01    0.253E-01
DAV:   3    -0.201638747506E+03   -0.92275E-04   -0.33679E-03 12036   0.259E-01    0.271E-01
DAV:   4    -0.201638379338E+03    0.36817E-03   -0.20334E-03 11708   0.215E-01    0.169E-01
DAV:   5    -0.201638173854E+03    0.20548E-03   -0.78041E-04 11600   0.159E-01    0.113E-01
DAV:   6    -0.201638103409E+03    0.70445E-04   -0.37053E-04 11800   0.101E-01    0.727E-02
DAV:   7    -0.201638071592E+03    0.31817E-04   -0.15015E-04 10984   0.677E-02    0.478E-02
DAV:   8    -0.201638048923E+03    0.22669E-04   -0.51722E-05  8456   0.410E-02    0.151E-02
DAV:   9    -0.201638049333E+03   -0.40972E-06   -0.13685E-05  6312   0.181E-02
  28 F= -.20163805E+03 E0= -.19903194E+03  d E =-.153206E-01
       N       E                     dE             d eps       ncg     rms          rms(c)
DAV:   1    -0.201656138115E+03   -0.18089E-01   -0.44766E-01 10944   0.136E+00    0.152E-01
DAV:   2    -0.201657116021E+03   -0.97791E-03   -0.99209E-03 11200   0.225E-01    0.172E-01
DAV:   3    -0.201657320520E+03   -0.20450E-03   -0.17777E-03 11708   0.200E-01    0.220E-01
DAV:   4    -0.201657061422E+03    0.25910E-03   -0.14773E-03 11756   0.170E-01    0.135E-01
DAV:   5    -0.201656937990E+03    0.12343E-03   -0.34114E-04 11424   0.994E-02    0.655E-02
DAV:   6    -0.201656963602E+03   -0.25612E-04   -0.20106E-04 11476   0.782E-02    0.774E-02
DAV:   7    -0.201656931232E+03    0.32370E-04   -0.13795E-04 10152   0.638E-02    0.472E-02
DAV:   8    -0.201656911353E+03    0.19879E-04   -0.54704E-05  8384   0.395E-02    0.163E-02
DAV:   9    -0.201656911368E+03   -0.14556E-07   -0.13770E-05  5836   0.177E-02
  29 F= -.20165691E+03 E0= -.19905186E+03  d E =-.188620E-01
       N       E                     dE             d eps       ncg     rms          rms(c)
DAV:   1    -0.201681970653E+03   -0.25059E-01   -0.85112E-01 10944   0.185E+00    0.204E-01
DAV:   2    -0.201683804089E+03   -0.18334E-02   -0.18650E-02 11180   0.305E-01    0.224E-01
DAV:   3    -0.201684092028E+03   -0.28794E-03   -0.28818E-03 11656   0.259E-01    0.270E-01
DAV:   4    -0.201683805464E+03    0.28656E-03   -0.26425E-03 11772   0.227E-01    0.200E-01
DAV:   5    -0.201683517622E+03    0.28784E-03   -0.69508E-04 11548   0.140E-01    0.863E-02
DAV:   6    -0.201683565470E+03   -0.47848E-04   -0.33900E-04 11592   0.101E-01    0.103E-01
DAV:   7    -0.201683511437E+03    0.54032E-04   -0.24102E-04 11640   0.830E-02    0.610E-02
DAV:   8    -0.201683477291E+03    0.34147E-04   -0.94511E-05  9976   0.526E-02    0.204E-02
DAV:   9    -0.201683476764E+03    0.52656E-06   -0.21147E-05  6088   0.224E-02
  30 F= -.20168348E+03 E0= -.19908001E+03  d E =-.265654E-01
       N       E                     dE             d eps       ncg     rms          rms(c)
DAV:   1    -0.201716141187E+03   -0.32664E-01   -0.13511E+00 10944   0.233E+00    0.264E-01
DAV:   2    -0.201719148310E+03   -0.30071E-02   -0.30047E-02 11168   0.393E-01    0.306E-01
DAV:   3    -0.201719667753E+03   -0.51944E-03   -0.53254E-03 11728   0.343E-01    0.371E-01
DAV:   4    -0.201718974361E+03    0.69339E-03   -0.44502E-03 11728   0.296E-01    0.236E-01
DAV:   5    -0.201718632951E+03    0.34141E-03   -0.10502E-03 11524   0.180E-01    0.131E-01
DAV:   6    -0.201718649851E+03   -0.16900E-04   -0.60621E-04 11708   0.135E-01    0.129E-01
DAV:   7    -0.201718568918E+03    0.80934E-04   -0.37863E-04 11660   0.104E-01    0.736E-02
DAV:   8    -0.201718517008E+03    0.51910E-04   -0.14821E-04 11080   0.678E-02    0.246E-02
DAV:   9    -0.201718516361E+03    0.64654E-06   -0.32067E-05  6624   0.281E-02
  31 F= -.20171852E+03 E0= -.19911717E+03  d E =-.350396E-01
       N       E                     dE             d eps       ncg     rms          rms(c)
DAV:   1    -0.201758709697E+03   -0.40193E-01   -0.20398E+00 10944   0.285E+00    0.326E-01
DAV:   2    -0.201763323833E+03   -0.46141E-02   -0.45564E-02 11164   0.487E-01    0.388E-01
DAV:   3    -0.201764063272E+03   -0.73944E-03   -0.83168E-03 11712   0.427E-01    0.458E-01
DAV:   4    -0.201762982623E+03    0.10806E-02   -0.67813E-03 11728   0.366E-01    0.287E-01
DAV:   5    -0.201762507520E+03    0.47510E-03   -0.15933E-03 11560   0.224E-01    0.169E-01
DAV:   6    -0.201762492726E+03    0.14794E-04   -0.93284E-04 11728   0.167E-01    0.155E-01
DAV:   7    -0.201762384640E+03    0.10809E-03   -0.55995E-04 11564   0.126E-01    0.900E-02
DAV:   8    -0.201762306203E+03    0.78437E-04   -0.22318E-04 11172   0.840E-02    0.299E-02
DAV:   9    -0.201762305272E+03    0.93114E-06   -0.49093E-05  8556   0.345E-02
  32 F= -.20176231E+03 E0= -.19916364E+03  d E =-.437889E-01
       N       E                     dE             d eps       ncg     rms          rms(c)
DAV:   1    -0.201809517387E+03   -0.47211E-01   -0.28701E+00 10944   0.336E+00    0.391E-01
DAV:   2    -0.201816100455E+03   -0.65831E-02   -0.64336E-02 11180   0.582E-01    0.476E-01
DAV:   3    -0.201817096020E+03   -0.99557E-03   -0.12226E-02 11736   0.513E-01    0.550E-01
DAV:   4    -0.201815504860E+03    0.15912E-02   -0.97044E-03 11728   0.438E-01    0.338E-01
DAV:   5    -0.201814903757E+03    0.60110E-03   -0.23121E-03 11592   0.272E-01    0.217E-01
DAV:   6    -0.201814798349E+03    0.10541E-03   -0.13777E-03 11756   0.202E-01    0.179E-01
DAV:   7    -0.201814666938E+03    0.13141E-03   -0.77160E-04 11456   0.149E-01    0.106E-01
DAV:   8    -0.201814557081E+03    0.10986E-03   -0.31398E-04 11140   0.101E-01    0.351E-02
DAV:   9    -0.201814555738E+03    0.13429E-05   -0.68424E-05  9948   0.409E-02
  33 F= -.20181456E+03 E0= -.19921917E+03  d E =-.522505E-01
       N       E                     dE             d eps       ncg     rms          rms(c)
DAV:   1    -0.201865773911E+03   -0.51217E-01   -0.37359E+00 10944   0.383E+00    0.451E-01
DAV:   2    -0.201874248761E+03   -0.84748E-02   -0.83353E-02 11224   0.664E-01    0.547E-01
DAV:   3    -0.201875659060E+03   -0.14103E-02   -0.16467E-02 11744   0.591E-01    0.641E-01
DAV:   4    -0.201873416802E+03    0.22423E-02   -0.12799E-02 11732   0.503E-01    0.381E-01
DAV:   5    -0.201872712215E+03    0.70459E-03   -0.30531E-03 11552   0.315E-01    0.258E-01
DAV:   6    -0.201872547476E+03    0.16474E-03   -0.19350E-03 11780   0.238E-01    0.209E-01
DAV:   7    -0.201872340748E+03    0.20673E-03   -0.10420E-03 11384   0.175E-01    0.120E-01
DAV:   8    -0.201872201423E+03    0.13933E-03   -0.41327E-04 11156   0.116E-01    0.401E-02
DAV:   9    -0.201872199307E+03    0.21155E-05   -0.87336E-05 10956   0.465E-02
  34 F= -.20187220E+03 E0= -.19928062E+03  d E =-.576436E-01
       N       E                     dE             d eps       ncg     rms          rms(c)
DAV:   1    -0.201924638844E+03   -0.52437E-01   -0.49720E+00 10944   0.433E+00    0.511E-01
DAV:   2    -0.201934993883E+03   -0.10355E-01   -0.10614E-01 11216   0.717E-01    0.542E-01
DAV:   3    -0.201937560449E+03   -0.25666E-02   -0.19026E-02 11728   0.647E-01    0.719E-01
DAV:   4    -0.201934932607E+03    0.26278E-02   -0.17317E-02 11780   0.578E-01    0.464E-01
DAV:   5    -0.201933579512E+03    0.13531E-02   -0.40732E-03 11628   0.356E-01    0.253E-01
DAV:   6    -0.201933613900E+03   -0.34388E-04   -0.22538E-03 11748   0.256E-01    0.243E-01
DAV:   7    -0.201933311159E+03    0.30274E-03   -0.13362E-03 11564   0.195E-01    0.130E-01
DAV:   8    -0.201933147183E+03    0.16398E-03   -0.48352E-04 11160   0.124E-01    0.449E-02
DAV:   9    -0.201933143316E+03    0.38663E-05   -0.10391E-04 11224   0.503E-02    0.351E-02
DAV:  10    -0.201933131698E+03    0.11619E-04   -0.29940E-05  6656   0.308E-02    0.138E-02
DAV:  11    -0.201933131708E+03   -0.98080E-08   -0.85294E-06  5972   0.148E-02
  35 F= -.20193313E+03 E0= -.19934545E+03  d E =-.609324E-01
       N       E                     dE             d eps       ncg     rms          rms(c)
DAV:   1    -0.201980173110E+03   -0.47041E-01   -0.44837E+00 10944   0.416E+00    0.569E-01
DAV:   2    -0.201989993988E+03   -0.98209E-02   -0.10366E-01 11220   0.761E-01    0.677E-01
DAV:   3    -0.201992204681E+03   -0.22107E-02   -0.25262E-02 11840   0.726E-01    0.808E-01
DAV:   4    -0.201988397853E+03    0.38068E-02   -0.18701E-02 11800   0.613E-01    0.456E-01
DAV:   5    -0.201987554292E+03    0.84356E-03   -0.51197E-03 11488   0.408E-01    0.345E-01
DAV:   6    -0.201987193991E+03    0.36030E-03   -0.37332E-03 11928   0.329E-01    0.277E-01
DAV:   7    -0.201986689044E+03    0.50495E-03   -0.18354E-03 11696   0.235E-01    0.149E-01
DAV:   8    -0.201986473943E+03    0.21510E-03   -0.64187E-04 11360   0.144E-01    0.525E-02
DAV:   9    -0.201986476395E+03   -0.24525E-05   -0.14509E-04 11384   0.605E-02    0.432E-02
DAV:  10    -0.201986464052E+03    0.12343E-04   -0.42262E-05  7384   0.364E-02    0.143E-02
DAV:  11    -0.201986473565E+03   -0.95132E-05   -0.12119E-05  6356   0.179E-02
  36 F= -.20198647E+03 E0= -.19940346E+03  d E =-.533419E-01
       N       E                     dE             d eps       ncg     rms          rms(c)
DAV:   1    -0.202010647446E+03   -0.24183E-01   -0.26583E+00 10944   0.264E+00    0.495E-01
DAV:   2    -0.202015172588E+03   -0.45251E-02   -0.60673E-02 11328   0.438E-01    0.346E-01
DAV:   3    -0.202019734854E+03   -0.45623E-02   -0.16314E-02 11816   0.586E-01    0.792E-01
DAV:   4    -0.202016173473E+03    0.35614E-02   -0.18336E-02 11864   0.586E-01    0.469E-01
DAV:   5    -0.202014108363E+03    0.20651E-02   -0.42822E-03 11776   0.354E-01    0.168E-01
DAV:   6    -0.202014239088E+03   -0.13073E-03   -0.15897E-03 11840   0.201E-01    0.199E-01
DAV:   7    -0.202013936385E+03    0.30270E-03   -0.81206E-04 11688   0.156E-01    0.961E-02
DAV:   8    -0.202013850734E+03    0.85651E-04   -0.21997E-04 11808   0.783E-02    0.303E-02
DAV:   9    -0.202013859215E+03   -0.84812E-05   -0.59123E-05  9292   0.369E-02
  37 F= -.20201386E+03 E0= -.19943186E+03  d E =-.273856E-01
       N       E                     dE             d eps       ncg     rms          rms(c)
DAV:   1    -0.202025294263E+03   -0.11444E-01   -0.12816E-01 10960   0.621E-01    0.137E-01
DAV:   2    -0.202025708566E+03   -0.41430E-03   -0.35405E-03 11284   0.166E-01    0.198E-01
DAV:   3    -0.202025601666E+03    0.10690E-03   -0.15419E-03 12012   0.176E-01    0.163E-01
DAV:   4    -0.202025489546E+03    0.11212E-03   -0.80609E-04 11732   0.136E-01    0.110E-01
DAV:   5    -0.202025420894E+03    0.68652E-04   -0.38694E-04 11520   0.109E-01    0.812E-02
DAV:   6    -0.202025382566E+03    0.38328E-04   -0.19120E-04 11668   0.720E-02    0.525E-02
DAV:   7    -0.202025366526E+03    0.16040E-04   -0.81183E-05  8588   0.485E-02    0.332E-02
DAV:   8    -0.202025356375E+03    0.10151E-04   -0.25211E-05  6912   0.285E-02    0.108E-02
DAV:   9    -0.202025356639E+03   -0.26324E-06   -0.69073E-06  6076   0.136E-02
  38 F= -.20202536E+03 E0= -.19944421E+03  d E =-.114974E-01
       N       E                     dE             d eps       ncg     rms          rms(c)
DAV:   1    -0.202041964888E+03   -0.16609E-01   -0.32779E-01 10944   0.111E+00    0.165E-01
DAV:   2    -0.202042697868E+03   -0.73298E-03   -0.76666E-03 11244   0.215E-01    0.203E-01
DAV:   3    -0.202042816172E+03   -0.11830E-03   -0.20278E-03 11872   0.207E-01    0.225E-01
DAV:   4    -0.202042538428E+03    0.27774E-03   -0.14786E-03 11796   0.173E-01    0.133E-01
DAV:   5    -0.202042473618E+03    0.64810E-04   -0.47499E-04 11512   0.122E-01    0.105E-01
DAV:   6    -0.202042423407E+03    0.50210E-04   -0.33158E-04 11860   0.985E-02    0.768E-02
DAV:   7    -0.202042385727E+03    0.37681E-04   -0.15209E-04 11168   0.672E-02    0.432E-02
DAV:   8    -0.202042367149E+03    0.18578E-04   -0.50551E-05  8696   0.407E-02    0.141E-02
DAV:   9    -0.202042367871E+03   -0.72274E-06   -0.11511E-05  5944   0.171E-02
  39 F= -.20204237E+03 E0= -.19946254E+03  d E =-.170112E-01
       N       E                     dE             d eps       ncg     rms          rms(c)
DAV:   1    -0.202064955593E+03   -0.22588E-01   -0.68398E-01 10944   0.159E+00    0.198E-01
DAV:   2    -0.202066431383E+03   -0.14758E-02   -0.14748E-02 11240   0.277E-01    0.228E-01
DAV:   3    -0.202066719893E+03   -0.28851E-03   -0.28547E-03 11752   0.250E-01    0.272E-01
DAV:   4    -0.202066343705E+03    0.37619E-03   -0.24315E-03 11796   0.219E-01    0.173E-01
DAV:   5    -0.202066184490E+03    0.15922E-03   -0.60882E-04 11580   0.139E-01    0.108E-01
DAV:   6    -0.202066170450E+03    0.14040E-04   -0.37657E-04 11700   0.104E-01    0.952E-02
DAV:   7    -0.202066123342E+03    0.47107E-04   -0.21293E-04 11464   0.785E-02    0.515E-02
DAV:   8    -0.202066098217E+03    0.25125E-04   -0.77273E-05  9708   0.501E-02    0.183E-02
DAV:   9    -0.202066097727E+03    0.49067E-06   -0.16871E-05  6052   0.211E-02
  40 F= -.20206610E+03 E0= -.19948797E+03  d E =-.237299E-01
       N       E                     dE             d eps       ncg     rms          rms(c)
DAV:   1    -0.202095909399E+03   -0.29811E-01   -0.11625E+00 10944   0.207E+00    0.263E-01
DAV:   2    -0.202098499664E+03   -0.25903E-02   -0.25539E-02 11252   0.371E-01    0.319E-01
DAV:   3    -0.202098899910E+03   -0.40025E-03   -0.51663E-03 11768   0.334E-01    0.357E-01
DAV:   4    -0.202098259553E+03    0.64036E-03   -0.41865E-03 11772   0.289E-01    0.228E-01
DAV:   5    -0.202098034166E+03    0.22539E-03   -0.11125E-03 11628   0.189E-01    0.159E-01
DAV:   6    -0.202097949094E+03    0.85071E-04   -0.70319E-04 11780   0.142E-01    0.120E-01
DAV:   7    -0.202097880652E+03    0.68443E-04   -0.35501E-04 11328   0.103E-01    0.672E-02
DAV:   8    -0.202097836981E+03    0.43671E-04   -0.13443E-04 11024   0.666E-02    0.239E-02
DAV:   9    -0.202097835714E+03    0.12666E-05   -0.28436E-05  6568   0.280E-02
  41 F= -.20209784E+03 E0= -.19952203E+03  d E =-.317380E-01
       N       E                     dE             d eps       ncg     rms          rms(c)
DAV:   1    -0.202133425197E+03   -0.35588E-01   -0.17666E+00 10944   0.256E+00    0.327E-01
DAV:   2    -0.202137363333E+03   -0.39381E-02   -0.38902E-02 11260   0.459E-01    0.399E-01
DAV:   3    -0.202137944772E+03   -0.58144E-03   -0.79618E-03 11752   0.414E-01    0.442E-01
DAV:   4    -0.202136953280E+03    0.99149E-03   -0.63875E-03 11768   0.357E-01    0.280E-01
DAV:   5    -0.202136650724E+03    0.30256E-03   -0.17235E-03 11588   0.236E-01    0.202E-01
DAV:   6    -0.202136515632E+03    0.13509E-03   -0.11201E-03 11800   0.179E-01    0.150E-01
DAV:   7    -0.202136406250E+03    0.10938E-03   -0.54985E-04 11296   0.128E-01    0.823E-02
DAV:   8    -0.202136341513E+03    0.64737E-04   -0.20656E-04 11140   0.823E-02    0.295E-02
DAV:   9    -0.202136339388E+03    0.21246E-05   -0.44343E-05  8172   0.344E-02
  42 F= -.20213634E+03 E0= -.19956345E+03  d E =-.385037E-01
       N       E                     dE             d eps       ncg     rms          rms(c)
DAV:   1    -0.202175919753E+03   -0.39578E-01   -0.25508E+00 10944   0.304E+00    0.387E-01
DAV:   2    -0.202181272945E+03   -0.53532E-02   -0.54480E-02 11252   0.528E-01    0.438E-01
DAV:   3    -0.202182400504E+03   -0.11276E-02   -0.10642E-02 11760   0.483E-01    0.525E-01
DAV:   4    -0.202181032681E+03    0.13678E-02   -0.93332E-03 11804   0.428E-01    0.343E-01
DAV:   5    -0.202180469553E+03    0.56313E-03   -0.24001E-03 11628   0.277E-01    0.221E-01
DAV:   6    -0.202180377288E+03    0.92265E-04   -0.14789E-03 11788   0.206E-01    0.181E-01
DAV:   7    -0.202180210392E+03    0.16690E-03   -0.77281E-04 11372   0.151E-01    0.950E-02
DAV:   8    -0.202180125233E+03    0.85159E-04   -0.27500E-04 11132   0.949E-02    0.347E-02
DAV:   9    -0.202180121717E+03    0.35164E-05   -0.59221E-05  9480   0.396E-02
  43 F= -.20218012E+03 E0= -.19961049E+03  d E =-.437823E-01
       N       E                     dE             d eps       ncg     rms          rms(c)
DAV:   1    -0.202222442292E+03   -0.42317E-01   -0.31366E+00 10944   0.339E+00    0.442E-01
DAV:   2    -0.202229091621E+03   -0.66493E-02   -0.67966E-02 11256   0.602E-01    0.513E-01
DAV:   3    -0.202230422240E+03   -0.13306E-02   -0.13883E-02 11752   0.550E-01    0.599E-01
DAV:   4    -0.202228552683E+03    0.18696E-02   -0.11670E-02 11836   0.480E-01    0.378E-01
DAV:   5    -0.202227979568E+03    0.57311E-03   -0.30901E-03 11584   0.314E-01    0.264E-01
DAV:   6    -0.202227823965E+03    0.15560E-03   -0.21338E-03 11876   0.247E-01    0.216E-01
DAV:   7    -0.202227542425E+03    0.28154E-03   -0.10862E-03 11440   0.179E-01    0.108E-01
DAV:   8    -0.202227434428E+03    0.10800E-03   -0.37082E-04 11164   0.110E-01    0.400E-02
DAV:   9    -0.202227429938E+03    0.44905E-05   -0.77739E-05 10720   0.458E-02
  44 F= -.20222743E+03 E0= -.19966174E+03  d E =-.473082E-01
       N       E                     dE             d eps       ncg     rms          rms(c)
DAV:   1    -0.202267407160E+03   -0.39973E-01   -0.42913E+00 10944   0.383E+00    0.497E-01
DAV:   2    -0.202275391231E+03   -0.79841E-02   -0.87462E-02 11192   0.610E-01    0.446E-01
DAV:   3    -0.202277666521E+03   -0.22753E-02   -0.13488E-02 11728   0.569E-01    0.616E-01
DAV:   4    -0.202276645435E+03    0.10211E-02   -0.16076E-02 11940   0.557E-01    0.525E-01
DAV:   5    -0.202274576950E+03    0.20685E-02   -0.49614E-03 11660   0.366E-01    0.217E-01
DAV:   6    -0.202274770942E+03   -0.19399E-03   -0.20851E-03 11748   0.242E-01    0.241E-01
DAV:   7    -0.202274401563E+03    0.36938E-03   -0.12636E-03 11760   0.188E-01    0.113E-01
DAV:   8    -0.202274287812E+03    0.11375E-03   -0.39813E-04 11252   0.111E-01    0.470E-02
DAV:   9    -0.202274279763E+03    0.80488E-05   -0.91849E-05 10672   0.475E-02
  45 F= -.20227428E+03 E0= -.19971204E+03  d E =-.468498E-01
       N       E                     dE             d eps       ncg     rms          rms(c)
DAV:   1    -0.202301228051E+03   -0.26940E-01   -0.24491E+00 10944   0.286E+00    0.509E-01
DAV:   2    -0.202306224339E+03   -0.49963E-02   -0.61097E-02 11240   0.611E-01    0.573E-01
DAV:   3    -0.202307864506E+03   -0.16402E-02   -0.17114E-02 11928   0.613E-01    0.691E-01
DAV:   4    -0.202305272039E+03    0.25925E-02   -0.14585E-02 11928   0.541E-01    0.430E-01
DAV:   5    -0.202304514886E+03    0.75715E-03   -0.50055E-03 11624   0.389E-01    0.332E-01
DAV:   6    -0.202303896256E+03    0.61863E-03   -0.32816E-03 12028   0.308E-01    0.225E-01
DAV:   7    -0.202303552985E+03    0.34327E-03   -0.14524E-03 11756   0.205E-01    0.131E-01
DAV:   8    -0.202303393666E+03    0.15932E-03   -0.47975E-04 11532   0.122E-01    0.475E-02
DAV:   9    -0.202303400254E+03   -0.65879E-05   -0.12026E-04 11332   0.558E-02    0.395E-02
DAV:  10    -0.202303396883E+03    0.33704E-05   -0.36909E-05  7140   0.336E-02
  46 F= -.20230340E+03 E0= -.19974514E+03  d E =-.291171E-01
       N       E                     dE             d eps       ncg     rms          rms(c)
DAV:   1    -0.202318933369E+03   -0.15533E-01   -0.48552E-01 10944   0.108E+00    0.240E-01
DAV:   2    -0.202319770145E+03   -0.83678E-03   -0.11079E-02 11388   0.192E-01    0.156E-01
DAV:   3    -0.202321148942E+03   -0.13788E-02   -0.41350E-03 12000   0.303E-01    0.415E-01
DAV:   4    -0.202319878624E+03    0.12703E-02   -0.42694E-03 12040   0.288E-01    0.186E-01
DAV:   5    -0.202319557070E+03    0.32155E-03   -0.78164E-04 11772   0.154E-01    0.760E-02
DAV:   6    -0.202319572424E+03   -0.15354E-04   -0.31507E-04 11896   0.901E-02    0.832E-02
DAV:   7    -0.202319520489E+03    0.51935E-04   -0.15305E-04 10700   0.678E-02    0.423E-02
DAV:   8    -0.202319503273E+03    0.17216E-04   -0.39804E-05  7128   0.342E-02    0.136E-02
DAV:   9    -0.202319503344E+03   -0.71017E-07   -0.11219E-05  6124   0.160E-02
  47 F= -.20231950E+03 E0= -.19976160E+03  d E =-.161065E-01
       N       E                     dE             d eps       ncg     rms          rms(c)
DAV:   1    -0.202335291932E+03   -0.15789E-01   -0.58927E-01 10944   0.138E+00    0.189E-01
DAV:   2    -0.202336353322E+03   -0.10614E-02   -0.12066E-02 11168   0.217E-01    0.160E-01
DAV:   3    -0.202336759140E+03   -0.40582E-03   -0.19978E-03 11736   0.219E-01    0.249E-01
DAV:   4    -0.202336525464E+03    0.23368E-03   -0.23415E-03 11924   0.215E-01    0.193E-01
DAV:   5    -0.202336221896E+03    0.30357E-03   -0.67183E-04 11616   0.136E-01    0.691E-02
DAV:   6    -0.202336258300E+03   -0.36404E-04   -0.26021E-04 11540   0.846E-02    0.843E-02
DAV:   7    -0.202336212728E+03    0.45572E-04   -0.16666E-04 11376   0.686E-02    0.437E-02
DAV:   8    -0.202336197005E+03    0.15723E-04   -0.54877E-05  8504   0.403E-02    0.196E-02
DAV:   9    -0.202336195855E+03    0.11505E-05   -0.12824E-05  5956   0.173E-02
  48 F= -.20233620E+03 E0= -.19977940E+03  d E =-.166925E-01
       N       E                     dE             d eps       ncg     rms          rms(c)
DAV:   1    -0.202356000521E+03   -0.19804E-01   -0.69117E-01 10944   0.157E+00    0.217E-01
DAV:   2    -0.202357454224E+03   -0.14537E-02   -0.15048E-02 11248   0.284E-01    0.247E-01
DAV:   3    -0.202357713790E+03   -0.25957E-03   -0.30067E-03 11768   0.260E-01    0.279E-01
DAV:   4    -0.202357382932E+03    0.33086E-03   -0.27911E-03 11904   0.234E-01    0.200E-01
DAV:   5    -0.202357212287E+03    0.17064E-03   -0.82775E-04 11600   0.160E-01    0.133E-01
DAV:   6    -0.202357168742E+03    0.43545E-04   -0.53863E-04 11988   0.124E-01    0.107E-01
DAV:   7    -0.202357097519E+03    0.71224E-04   -0.27871E-04 11480   0.910E-02    0.546E-02
DAV:   8    -0.202357070618E+03    0.26901E-04   -0.94810E-05 10344   0.549E-02    0.222E-02
DAV:   9    -0.202357069270E+03    0.13480E-05   -0.24005E-05  6592   0.256E-02
  49 F= -.20235707E+03 E0= -.19980231E+03  d E =-.208734E-01
       N       E                     dE             d eps       ncg     rms          rms(c)
DAV:   1    -0.202380785731E+03   -0.23715E-01   -0.11757E+00 10944   0.202E+00    0.269E-01
DAV:   2    -0.202383096914E+03   -0.23112E-02   -0.24498E-02 11256   0.336E-01    0.271E-01
DAV:   3    -0.202383630575E+03   -0.53366E-03   -0.42099E-03 11728   0.315E-01    0.333E-01
DAV:   4    -0.202383315705E+03    0.31487E-03   -0.46839E-03 11936   0.301E-01    0.278E-01
DAV:   5    -0.202382824386E+03    0.49132E-03   -0.14151E-03 11740   0.203E-01    0.140E-01
DAV:   6    -0.202382816972E+03    0.74134E-05   -0.67118E-04 11836   0.138E-01    0.127E-01
DAV:   7    -0.202382726278E+03    0.90695E-04   -0.37181E-04 11456   0.104E-01    0.635E-02
DAV:   8    -0.202382690840E+03    0.35438E-04   -0.12719E-04 11040   0.637E-02    0.265E-02
DAV:   9    -0.202382688178E+03    0.26616E-05   -0.31045E-05  6844   0.285E-02
  50 F= -.20238269E+03 E0= -.19982999E+03  d E =-.256189E-01
       N       E                     dE             d eps       ncg     rms          rms(c)
DAV:   1    -0.202409571094E+03   -0.26880E-01   -0.14342E+00 10944   0.226E+00    0.317E-01
DAV:   2    -0.202412632303E+03   -0.30612E-02   -0.31520E-02 11248   0.411E-01    0.363E-01
DAV:   3    -0.202413156766E+03   -0.52446E-03   -0.63778E-03 11784   0.378E-01    0.405E-01
DAV:   4    -0.202412457768E+03    0.69900E-03   -0.59163E-03 11900   0.342E-01    0.290E-01
DAV:   5    -0.202412120248E+03    0.33752E-03   -0.17596E-03 11640   0.234E-01    0.199E-01
DAV:   6    -0.202412004959E+03    0.11529E-03   -0.11585E-03 11952   0.181E-01    0.155E-01
DAV:   7    -0.202411849179E+03    0.15578E-03   -0.57493E-04 11404   0.132E-01    0.771E-02
DAV:   8    -0.202411795289E+03    0.53890E-04   -0.19384E-04 11288   0.786E-02    0.317E-02
DAV:   9    -0.202411792626E+03    0.26623E-05   -0.48744E-05  8212   0.364E-02
  51 F= -.20241179E+03 E0= -.19986204E+03  d E =-.291044E-01
       N       E                     dE             d eps       ncg     rms          rms(c)
DAV:   1    -0.202437974539E+03   -0.26179E-01   -0.21421E+00 10944   0.266E+00    0.362E-01
DAV:   2    -0.202441886337E+03   -0.39118E-02   -0.43736E-02 11200   0.416E-01    0.306E-01
DAV:   3    -0.202442619566E+03   -0.73323E-03   -0.56517E-03 11736   0.381E-01    0.371E-01
DAV:   4    -0.202443131096E+03   -0.51153E-03   -0.82668E-03 11932   0.401E-01    0.449E-01
DAV:   5    -0.202441539873E+03    0.15912E-02   -0.35207E-03 11796   0.291E-01    0.155E-01
DAV:   6    -0.202441617289E+03   -0.77415E-04   -0.10538E-03 11780   0.170E-01    0.168E-01
DAV:   7    -0.202441435743E+03    0.18155E-03   -0.63998E-04 11668   0.134E-01    0.811E-02
DAV:   8    -0.202441378895E+03    0.56848E-04   -0.20388E-04 11240   0.795E-02    0.357E-02
DAV:   9    -0.202441373675E+03    0.52199E-05   -0.50234E-05  7780   0.351E-02
  52 F= -.20244137E+03 E0= -.19989390E+03  d E =-.295810E-01
       N       E                     dE             d eps       ncg     rms          rms(c)
DAV:   1    -0.202462530278E+03   -0.21151E-01   -0.13776E+00 10944   0.214E+00    0.366E-01
DAV:   2    -0.202465214430E+03   -0.26842E-02   -0.32166E-02 11216   0.435E-01    0.392E-01
DAV:   3    -0.202466080081E+03   -0.86565E-03   -0.78691E-03 11864   0.427E-01    0.477E-01
DAV:   4    -0.202464981712E+03    0.10984E-02   -0.77097E-03 11976   0.388E-01    0.327E-01
DAV:   5    -0.202464462034E+03    0.51968E-03   -0.25558E-03 11576   0.273E-01    0.220E-01
DAV:   6    -0.202464279983E+03    0.18205E-03   -0.16461E-03 12036   0.219E-01    0.175E-01
DAV:   7    -0.202464059170E+03    0.22081E-03   -0.81229E-04 11768   0.152E-01    0.942E-02
DAV:   8    -0.202463977960E+03    0.81210E-04   -0.25625E-04 11528   0.881E-02    0.350E-02
DAV:   9    -0.202463978378E+03   -0.41724E-06   -0.62747E-05  9284   0.408E-02
  53 F= -.20246398E+03 E0= -.19991960E+03  d E =-.226047E-01
       N       E                     dE             d eps       ncg     rms          rms(c)
DAV:   1    -0.202477185845E+03   -0.13208E-01   -0.84361E-01 10944   0.151E+00    0.255E-01
DAV:   2    -0.202478574268E+03   -0.13884E-02   -0.18320E-02 11296   0.239E-01    0.184E-01
DAV:   3    -0.202479826183E+03   -0.12519E-02   -0.42307E-03 11880   0.301E-01    0.412E-01
DAV:   4    -0.202478711766E+03    0.11144E-02   -0.45584E-03 11844   0.299E-01    0.214E-01
DAV:   5    -0.202478307872E+03    0.40389E-03   -0.10634E-03 11700   0.178E-01    0.941E-02
DAV:   6    -0.202478304232E+03    0.36409E-05   -0.44048E-04 11576   0.108E-01    0.886E-02
DAV:   7    -0.202478247885E+03    0.56346E-04   -0.19151E-04 11228   0.765E-02    0.500E-02
DAV:   8    -0.202478227412E+03    0.20474E-04   -0.57608E-05  8092   0.401E-02    0.210E-02
DAV:   9    -0.202478226455E+03    0.95631E-06   -0.20341E-05  6740   0.231E-02
  54 F= -.20247823E+03 E0= -.19993431E+03  d E =-.142481E-01
       N       E                     dE             d eps       ncg     rms          rms(c)
DAV:   1    -0.202488920514E+03   -0.10693E-01   -0.27930E-01 10944   0.976E-01    0.154E-01
DAV:   2    -0.202489502290E+03   -0.58178E-03   -0.62857E-03 11192   0.193E-01    0.173E-01
DAV:   3    -0.202489651007E+03   -0.14872E-03   -0.15424E-03 11876   0.188E-01    0.207E-01
DAV:   4    -0.202489410827E+03    0.24018E-03   -0.13180E-03 11924   0.161E-01    0.127E-01
DAV:   5    -0.202489325656E+03    0.85171E-04   -0.39095E-04 11496   0.106E-01    0.760E-02
DAV:   6    -0.202489309468E+03    0.16188E-04   -0.23464E-04 11788   0.843E-02    0.638E-02
DAV:   7    -0.202489284431E+03    0.25037E-04   -0.12056E-04 10128   0.587E-02    0.417E-02
DAV:   8    -0.202489270522E+03    0.13909E-04   -0.46067E-05  7044   0.370E-02    0.179E-02
DAV:   9    -0.202489269389E+03    0.11330E-05   -0.12906E-05  5968   0.186E-02
  55 F= -.20248927E+03 E0= -.19994661E+03  d E =-.110429E-01
       N       E                     dE             d eps       ncg     rms          rms(c)
DAV:   1    -0.202501712430E+03   -0.12442E-01   -0.50687E-01 10944   0.131E+00    0.170E-01
DAV:   2    -0.202502623019E+03   -0.91059E-03   -0.10130E-02 11264   0.201E-01    0.138E-01
DAV:   3    -0.202502690371E+03   -0.67352E-04   -0.98615E-04 11712   0.164E-01    0.137E-01
DAV:   4    -0.202502953502E+03   -0.26313E-03   -0.15214E-03 11840   0.177E-01    0.223E-01
DAV:   5    -0.202502554155E+03    0.39935E-03   -0.90136E-04 11788   0.137E-01    0.689E-02
DAV:   6    -0.202502575978E+03   -0.21822E-04   -0.21583E-04 11476   0.786E-02    0.748E-02
DAV:   7    -0.202502541887E+03    0.34091E-04   -0.14304E-04 10828   0.639E-02    0.425E-02
DAV:   8    -0.202502527886E+03    0.14001E-04   -0.53201E-05  8284   0.399E-02    0.192E-02
DAV:   9    -0.202502526225E+03    0.16611E-05   -0.12671E-05  5796   0.178E-02
  56 F= -.20250253E+03 E0= -.19996097E+03  d E =-.132568E-01
       N       E                     dE             d eps       ncg     rms          rms(c)
DAV:   1    -0.202517412906E+03   -0.14885E-01   -0.66958E-01 10944   0.153E+00    0.203E-01
DAV:   2    -0.202518689455E+03   -0.12765E-02   -0.13936E-02 11272   0.255E-01    0.194E-01
DAV:   3    -0.202518919172E+03   -0.22972E-03   -0.20107E-03 11728   0.224E-01    0.229E-01
DAV:   4    -0.202518844221E+03    0.74950E-04   -0.24481E-03 11920   0.218E-01    0.214E-01
DAV:   5    -0.202518540465E+03    0.30376E-03   -0.83823E-04 11668   0.149E-01    0.976E-02
DAV:   6    -0.202518567286E+03   -0.26821E-04   -0.38772E-04 11928   0.107E-01    0.103E-01
DAV:   7    -0.202518494464E+03    0.72822E-04   -0.25138E-04 11720   0.842E-02    0.519E-02
DAV:   8    -0.202518472398E+03    0.22066E-04   -0.85273E-05  9888   0.507E-02    0.218E-02
DAV:   9    -0.202518470540E+03    0.18581E-05   -0.19338E-05  6056   0.233E-02
  57 F= -.20251847E+03 E0= -.19997860E+03  d E =-.159443E-01
       N       E                     dE             d eps       ncg     rms          rms(c)
DAV:   1    -0.202534957340E+03   -0.16485E-01   -0.10521E+00 10944   0.189E+00    0.245E-01
DAV:   2    -0.202536862963E+03   -0.19056E-02   -0.21180E-02 11256   0.289E-01    0.195E-01
DAV:   3    -0.202536944151E+03   -0.81188E-04   -0.18819E-03 11720   0.228E-01    0.178E-01
DAV:   4    -0.202537526878E+03   -0.58273E-03   -0.28460E-03 11852   0.246E-01    0.317E-01
DAV:   5    -0.202536729541E+03    0.79734E-03   -0.18690E-03 11852   0.194E-01    0.101E-01
DAV:   6    -0.202536776570E+03   -0.47030E-04   -0.44730E-04 11680   0.113E-01    0.109E-01
DAV:   7    -0.202536701478E+03    0.75092E-04   -0.29759E-04 11732   0.921E-02    0.595E-02
DAV:   8    -0.202536674085E+03    0.27393E-04   -0.10829E-04 10608   0.567E-02    0.268E-02
DAV:   9    -0.202536670707E+03    0.33782E-05   -0.25043E-05  6488   0.255E-02
  58 F= -.20253667E+03 E0= -.19999839E+03  d E =-.182002E-01
       N       E                     dE             d eps       ncg     rms          rms(c)
DAV:   1    -0.202554085787E+03   -0.17412E-01   -0.11301E+00 10944   0.198E+00    0.273E-01
DAV:   2    -0.202556265651E+03   -0.21799E-02   -0.24013E-02 11268   0.342E-01    0.266E-01
DAV:   3    -0.202556683959E+03   -0.41831E-03   -0.37076E-03 11768   0.303E-01    0.317E-01
DAV:   4    -0.202556434256E+03    0.24970E-03   -0.43523E-03 11916   0.291E-01    0.275E-01
DAV:   5    -0.202555965873E+03    0.46838E-03   -0.14585E-03 11648   0.198E-01    0.138E-01
DAV:   6    -0.202555987766E+03   -0.21893E-04   -0.75715E-04 11980   0.150E-01    0.138E-01
DAV:   7    -0.202555854077E+03    0.13369E-03   -0.46646E-04 11784   0.115E-01    0.716E-02
DAV:   8    -0.202555811667E+03    0.42410E-04   -0.16045E-04 11280   0.690E-02    0.297E-02
DAV:   9    -0.202555808700E+03    0.29666E-05   -0.37061E-05  6900   0.322E-02
  59 F= -.20255581E+03 E0= -.20001979E+03  d E =-.191380E-01
       N       E                     dE             d eps       ncg     rms          rms(c)
DAV:   1    -0.202570112668E+03   -0.14301E-01   -0.15593E+00 10944   0.222E+00    0.301E-01
DAV:   2    -0.202572838051E+03   -0.27254E-02   -0.32185E-02 11188   0.327E-01    0.211E-01
DAV:   3    -0.202573605619E+03   -0.76757E-03   -0.37039E-03 11696   0.291E-01    0.349E-01
DAV:   4    -0.202573321275E+03    0.28434E-03   -0.47447E-03 11852   0.308E-01    0.289E-01
DAV:   5    -0.202572615675E+03    0.70560E-03   -0.18607E-03 11700   0.221E-01    0.110E-01
DAV:   6    -0.202572629972E+03   -0.14297E-04   -0.56616E-04 11368   0.125E-01    0.101E-01
DAV:   7    -0.202572549003E+03    0.80969E-04   -0.29053E-04 11456   0.935E-02    0.473E-02
DAV:   8    -0.202572533487E+03    0.15516E-04   -0.81981E-05  9924   0.478E-02    0.288E-02
DAV:   9    -0.202572532330E+03    0.11580E-05   -0.29145E-05  6984   0.277E-02
  60 F= -.20257253E+03 E0= -.20003767E+03  d E =-.167236E-01
       N       E                     dE             d eps       ncg     rms          rms(c)
DAV:   1    -0.202582769160E+03   -0.10236E-01   -0.52357E-01 10944   0.125E+00    0.252E-01
DAV:   2    -0.202583854559E+03   -0.10854E-02   -0.13765E-02 11192   0.289E-01    0.269E-01
DAV:   3    -0.202584283468E+03   -0.42891E-03   -0.39314E-03 11960   0.297E-01    0.339E-01
DAV:   4    -0.202583645954E+03    0.63751E-03   -0.35667E-03 11968   0.265E-01    0.212E-01
DAV:   5    -0.202583546768E+03    0.99186E-04   -0.14848E-03 11632   0.207E-01    0.190E-01
DAV:   6    -0.202583270699E+03    0.27607E-03   -0.90385E-04 12060   0.161E-01    0.987E-02
DAV:   7    -0.202583197668E+03    0.73031E-04   -0.31474E-04 11588   0.938E-02    0.568E-02
DAV:   8    -0.202583168435E+03    0.29233E-04   -0.10088E-04 10544   0.540E-02    0.217E-02
DAV:   9    -0.202583169786E+03   -0.13514E-05   -0.25991E-05  6488   0.265E-02
  61 F= -.20258317E+03 E0= -.20005012E+03  d E =-.106375E-01
       N       E                     dE             d eps       ncg     rms          rms(c)
DAV:   1    -0.202589938247E+03   -0.67698E-02   -0.26581E-01 10944   0.881E-01    0.130E-01
DAV:   2    -0.202590404399E+03   -0.46615E-03   -0.57887E-03 11288   0.135E-01    0.974E-02
DAV:   3    -0.202590689577E+03   -0.28518E-03   -0.10267E-03 11856   0.147E-01    0.200E-01
DAV:   4    -0.202590432262E+03    0.25732E-03   -0.10668E-03 11760   0.146E-01    0.105E-01
DAV:   5    -0.202590348165E+03    0.84096E-04   -0.27236E-04 11604   0.896E-02    0.540E-02
DAV:   6    -0.202590346175E+03    0.19907E-05   -0.13465E-04 11252   0.610E-02    0.481E-02
DAV:   7    -0.202590330533E+03    0.15642E-04   -0.60385E-05  8356   0.437E-02    0.284E-02
DAV:   8    -0.202590324080E+03    0.64529E-05   -0.18753E-05  6368   0.232E-02
  62 F= -.20259032E+03 E0= -.20005752E+03  d E =-.715429E-02
       N       E                     dE             d eps       ncg     rms          rms(c)
DAV:   1    -0.202597795199E+03   -0.74647E-02   -0.25237E-01 10944   0.938E-01    0.121E-01
DAV:   2    -0.202598281345E+03   -0.48615E-03   -0.52241E-03 11208   0.152E-01    0.109E-01
DAV:   3    -0.202598358910E+03   -0.77565E-04   -0.70086E-04 11784   0.132E-01    0.131E-01
DAV:   4    -0.202598356938E+03    0.19717E-05   -0.84181E-04 11772   0.127E-01    0.132E-01
DAV:   5    -0.202598266817E+03    0.90121E-04   -0.38502E-04 11468   0.967E-02    0.782E-02
DAV:   6    -0.202598233620E+03    0.33197E-04   -0.15458E-04 10848   0.680E-02    0.488E-02
DAV:   7    -0.202598225512E+03    0.81086E-05   -0.72228E-05  9216   0.449E-02
  63 F= -.20259823E+03 E0= -.20006602E+03  d E =-.790143E-02
       N       E                     dE             d eps       ncg     rms          rms(c)
DAV:   1    -0.202607208098E+03   -0.89745E-02   -0.43086E-01 10944   0.122E+00    0.155E-01
DAV:   2    -0.202608032948E+03   -0.82485E-03   -0.88357E-03 11192   0.200E-01    0.138E-01
DAV:   3    -0.202608029464E+03    0.34848E-05   -0.91441E-04 11736   0.158E-01    0.115E-01
DAV:   4    -0.202608225117E+03   -0.19565E-03   -0.11150E-03 11808   0.148E-01    0.190E-01
DAV:   5    -0.202607987942E+03    0.23718E-03   -0.77917E-04 11744   0.126E-01    0.894E-02
DAV:   6    -0.202607962521E+03    0.25421E-04   -0.22871E-04 11452   0.827E-02    0.680E-02
DAV:   7    -0.202607946993E+03    0.15528E-04   -0.13527E-04 10856   0.612E-02    0.470E-02
DAV:   8    -0.202607929274E+03    0.17719E-04   -0.62297E-05  8032   0.429E-02    0.192E-02
DAV:   9    -0.202607927496E+03    0.17781E-05   -0.15620E-05  5820   0.210E-02
  64 F= -.20260793E+03 E0= -.20007695E+03  d E =-.970198E-02
       N       E                     dE             d eps       ncg     rms          rms(c)
DAV:   1    -0.202618133675E+03   -0.10204E-01   -0.62120E-01 10944   0.147E+00    0.184E-01
DAV:   2    -0.202619283191E+03   -0.11495E-02   -0.12657E-02 11248   0.228E-01    0.148E-01
DAV:   3    -0.202619294989E+03   -0.11798E-04   -0.97929E-04 11680   0.163E-01    0.127E-01
DAV:   4    -0.202619618236E+03   -0.32325E-03   -0.14615E-03 11764   0.179E-01    0.230E-01
DAV:   5    -0.202619212377E+03    0.40586E-03   -0.10293E-03 11796   0.143E-01    0.792E-02
DAV:   6    -0.202619219328E+03   -0.69514E-05   -0.25269E-04 11408   0.853E-02    0.685E-02
DAV:   7    -0.202619192677E+03    0.26651E-04   -0.14442E-04 10920   0.662E-02    0.431E-02
DAV:   8    -0.202619181793E+03    0.10884E-04   -0.63035E-05  8128   0.421E-02    0.254E-02
DAV:   9    -0.202619178232E+03    0.35618E-05   -0.17523E-05  6024   0.217E-02
  65 F= -.20261918E+03 E0= -.20008928E+03  d E =-.112507E-01
       N       E                     dE             d eps       ncg     rms          rms(c)
DAV:   1    -0.202630064085E+03   -0.10882E-01   -0.87843E-01 10944   0.175E+00    0.214E-01
DAV:   2    -0.202631660227E+03   -0.15961E-02   -0.17711E-02 11200   0.263E-01    0.160E-01
DAV:   3    -0.202631654190E+03    0.60372E-05   -0.11466E-03 11680   0.171E-01    0.129E-01
DAV:   4    -0.202631743353E+03   -0.89164E-04   -0.86795E-04 11508   0.149E-01    0.158E-01
DAV:   5    -0.202631697020E+03    0.46333E-04   -0.98162E-04 11740   0.145E-01    0.136E-01
DAV:   6    -0.202631600503E+03    0.96517E-04   -0.48144E-04 11672   0.106E-01    0.728E-02
DAV:   7    -0.202631571564E+03    0.28939E-04   -0.16704E-04 11196   0.703E-02    0.485E-02
DAV:   8    -0.202631557039E+03    0.14525E-04   -0.78030E-05  8832   0.463E-02    0.276E-02
DAV:   9    -0.202631551946E+03    0.50931E-05   -0.18805E-05  6028   0.226E-02
  66 F= -.20263155E+03 E0= -.20010290E+03  d E =-.123737E-01
       N       E                     dE             d eps       ncg     rms          rms(c)
DAV:   1    -0.202642705527E+03   -0.11148E-01   -0.10646E+00 10944   0.194E+00    0.237E-01
DAV:   2    -0.202644688374E+03   -0.19828E-02   -0.21754E-02 11196   0.302E-01    0.193E-01
DAV:   3    -0.202644625977E+03    0.62397E-04   -0.14746E-03 11656   0.198E-01    0.141E-01
DAV:   4    -0.202645011143E+03   -0.38517E-03   -0.16721E-03 11548   0.201E-01    0.249E-01
DAV:   5    -0.202644596761E+03    0.41438E-03   -0.15211E-03 11772   0.172E-01    0.121E-01
DAV:   6    -0.202644573045E+03    0.23716E-04   -0.49981E-04 11440   0.118E-01    0.936E-02
DAV:   7    -0.202644521484E+03    0.51561E-04   -0.26667E-04 11396   0.900E-02    0.619E-02
DAV:   8    -0.202644495374E+03    0.26110E-04   -0.11812E-04 10740   0.568E-02    0.304E-02
DAV:   9    -0.202644490257E+03    0.51169E-05   -0.26297E-05  6216   0.268E-02
  67 F= -.20264449E+03 E0= -.20011728E+03  d E =-.129383E-01
       N       E                     dE             d eps       ncg     rms          rms(c)
DAV:   1    -0.202653933893E+03   -0.94385E-02   -0.14534E+00 10944   0.223E+00    0.270E-01
DAV:   2    -0.202656527496E+03   -0.25936E-02   -0.29373E-02 11096   0.319E-01    0.175E-01
DAV:   3    -0.202657345705E+03   -0.81821E-03   -0.31044E-03 11856   0.248E-01    0.341E-01
DAV:   4    -0.202656689791E+03    0.65591E-03   -0.33809E-03 11720   0.257E-01    0.192E-01
DAV:   5    -0.202656423654E+03    0.26614E-03   -0.94527E-04 11768   0.164E-01    0.102E-01
DAV:   6    -0.202656437260E+03   -0.13606E-04   -0.47016E-04 11416   0.111E-01    0.941E-02
DAV:   7    -0.202656399174E+03    0.38086E-04   -0.27906E-04 11368   0.906E-02    0.655E-02
DAV:   8    -0.202656361652E+03    0.37522E-04   -0.94627E-05 10072   0.523E-02    0.223E-02
DAV:   9    -0.202656360378E+03    0.12738E-05   -0.23555E-05  6828   0.247E-02
  68 F= -.20265636E+03 E0= -.20013022E+03  d E =-.118701E-01
       N       E                     dE             d eps       ncg     rms          rms(c)
DAV:   1    -0.202661482019E+03   -0.51204E-02   -0.66148E-01 10944   0.144E+00    0.262E-01
DAV:   2    -0.202662740234E+03   -0.12582E-02   -0.16483E-02 11208   0.299E-01    0.251E-01
DAV:   3    -0.202663326708E+03   -0.58647E-03   -0.36498E-03 11888   0.298E-01    0.348E-01
DAV:   4    -0.202662623743E+03    0.70296E-03   -0.39230E-03 11952   0.277E-01    0.220E-01
DAV:   5    -0.202662312599E+03    0.31114E-03   -0.14003E-03 11612   0.185E-01    0.131E-01
DAV:   6    -0.202662217841E+03    0.94758E-04   -0.69802E-04 11752   0.143E-01    0.975E-02
DAV:   7    -0.202662149610E+03    0.68232E-04   -0.29111E-04 11736   0.908E-02    0.614E-02
DAV:   8    -0.202662121140E+03    0.28470E-04   -0.10393E-04 10324   0.538E-02    0.259E-02
DAV:   9    -0.202662121112E+03    0.27994E-07   -0.27932E-05  6412   0.274E-02
  69 F= -.20266212E+03 E0= -.20013744E+03  d E =-.576073E-02
       N       E                     dE             d eps       ncg     rms          rms(c)
DAV:   1    -0.202664922489E+03   -0.28013E-02   -0.49137E-02 10960   0.358E-01    0.782E-02
DAV:   2    -0.202665023477E+03   -0.10099E-03   -0.11795E-03 11408   0.689E-02    0.610E-02
DAV:   3    -0.202665184878E+03   -0.16140E-03   -0.54818E-04 11600   0.107E-01    0.144E-01
DAV:   4    -0.202665016787E+03    0.16809E-03   -0.44047E-04 11160   0.948E-02    0.502E-02
DAV:   5    -0.202664996688E+03    0.20099E-04   -0.74576E-05  8816   0.491E-02    0.292E-02
DAV:   6    -0.202664992659E+03    0.40287E-05   -0.33202E-05  7096   0.307E-02
  70 F= -.20266499E+03 E0= -.20014025E+03  d E =-.287155E-02
       N       E                     dE             d eps       ncg     rms          rms(c)
DAV:   1    -0.202668204490E+03   -0.32078E-02   -0.13628E-01 10944   0.642E-01    0.974E-02
DAV:   2    -0.202668465148E+03   -0.26066E-03   -0.30611E-03 11272   0.109E-01    0.866E-02
DAV:   3    -0.202668568915E+03   -0.10377E-03   -0.53062E-04 11952   0.122E-01    0.135E-01
DAV:   4    -0.202668531095E+03    0.37820E-04   -0.62559E-04 11604   0.115E-01    0.121E-01
DAV:   5    -0.202668410017E+03    0.12108E-03   -0.34648E-04 10804   0.834E-02    0.463E-02
DAV:   6    -0.202668401334E+03    0.86833E-05   -0.86835E-05  9664   0.480E-02
  71 F= -.20266840E+03 E0= -.20014400E+03  d E =-.340867E-02
       N       E                     dE             d eps       ncg     rms          rms(c)
DAV:   1    -0.202671964433E+03   -0.35544E-02   -0.14544E-01 10944   0.731E-01    0.856E-02
DAV:   2    -0.202672263617E+03   -0.29918E-03   -0.30229E-03 11092   0.118E-01    0.791E-02
DAV:   3    -0.202672276248E+03   -0.12631E-04   -0.37903E-04 11648   0.990E-02    0.822E-02
DAV:   4    -0.202672308992E+03   -0.32745E-04   -0.35699E-04 10832   0.854E-02    0.104E-01
DAV:   5    -0.202672225855E+03    0.83138E-04   -0.19047E-04  8440   0.631E-02    0.316E-02
DAV:   6    -0.202672232974E+03   -0.71197E-05   -0.50795E-05  8316   0.400E-02
  72 F= -.20267223E+03 E0= -.20014804E+03  d E =-.383164E-02
       N       E                     dE             d eps       ncg     rms          rms(c)
DAV:   1    -0.202676553874E+03   -0.43280E-02   -0.24177E-01 10944   0.944E-01    0.112E-01
DAV:   2    -0.202677128644E+03   -0.57477E-03   -0.50234E-03 11192   0.162E-01    0.141E-01
DAV:   3    -0.202677077207E+03    0.51437E-04   -0.77268E-04 11620   0.143E-01    0.114E-01
DAV:   4    -0.202677124854E+03   -0.47648E-04   -0.51189E-04 11848   0.108E-01    0.136E-01
DAV:   5    -0.202676991079E+03    0.13378E-03   -0.38792E-04 10952   0.852E-02    0.499E-02
DAV:   6    -0.202676997220E+03   -0.61413E-05   -0.12054E-04 10380   0.572E-02    0.497E-02
DAV:   7    -0.202676982048E+03    0.15172E-04   -0.64835E-05  8952   0.433E-02    0.232E-02
DAV:   8    -0.202676978535E+03    0.35136E-05   -0.20253E-05  6808   0.262E-02
  73 F= -.20267698E+03 E0= -.20015325E+03  d E =-.474556E-02
       N       E                     dE             d eps       ncg     rms          rms(c)
DAV:   1    -0.202681917426E+03   -0.49354E-02   -0.37084E-01 10944   0.117E+00    0.128E-01
DAV:   2    -0.202682614307E+03   -0.69688E-03   -0.74873E-03 11052   0.172E-01    0.915E-02
DAV:   3    -0.202682625862E+03   -0.11555E-04   -0.42603E-04 11680   0.991E-02    0.859E-02
DAV:   4    -0.202682659720E+03   -0.33858E-04   -0.38357E-04 11536   0.925E-02    0.101E-01
DAV:   5    -0.202682626689E+03    0.33030E-04   -0.37256E-04 10488   0.900E-02    0.812E-02
DAV:   6    -0.202682591513E+03    0.35176E-04   -0.17374E-04 10764   0.645E-02    0.454E-02
DAV:   7    -0.202682579847E+03    0.11666E-04   -0.59576E-05  8492   0.415E-02    0.264E-02
DAV:   8    -0.202682577063E+03    0.27843E-05   -0.28776E-05  6420   0.278E-02
  74 F= -.20268258E+03 E0= -.20015954E+03  d E =-.559853E-02
       N       E                     dE             d eps       ncg     rms          rms(c)
DAV:   1    -0.202687924318E+03   -0.53445E-02   -0.50546E-01 10944   0.137E+00    0.148E-01
DAV:   2    -0.202688875207E+03   -0.95089E-03   -0.10208E-02 11040   0.200E-01    0.103E-01
DAV:   3    -0.202688891659E+03   -0.16452E-04   -0.50122E-04 11660   0.109E-01    0.953E-02
DAV:   4    -0.202688927299E+03   -0.35641E-04   -0.40927E-04 11568   0.109E-01    0.113E-01
DAV:   5    -0.202688909805E+03    0.17494E-04   -0.43679E-04 11396   0.980E-02    0.103E-01
DAV:   6    -0.202688861613E+03    0.48192E-04   -0.35721E-04 11348   0.836E-02    0.669E-02
DAV:   7    -0.202688838984E+03    0.22629E-04   -0.12787E-04 10308   0.582E-02    0.391E-02
DAV:   8    -0.202688825710E+03    0.13274E-04   -0.46492E-05  7088   0.369E-02    0.159E-02
DAV:   9    -0.202688824495E+03    0.12148E-05   -0.10352E-05  5688   0.165E-02
  75 F= -.20268882E+03 E0= -.20016637E+03  d E =-.624743E-02
       N       E                     dE             d eps       ncg     rms          rms(c)
DAV:   1    -0.202694321237E+03   -0.54955E-02   -0.68916E-01 10944   0.160E+00    0.168E-01
DAV:   2    -0.202695608294E+03   -0.12871E-02   -0.13858E-02 11016   0.228E-01    0.109E-01
DAV:   3    -0.202695675949E+03   -0.67654E-04   -0.70280E-04 11848   0.115E-01    0.130E-01
DAV:   4    -0.202695744882E+03   -0.68934E-04   -0.87165E-04 11688   0.129E-01    0.149E-01
DAV:   5    -0.202695587074E+03    0.15781E-03   -0.57689E-04 11748   0.116E-01    0.723E-02
DAV:   6    -0.202695578124E+03    0.89496E-05   -0.18102E-04 11388   0.697E-02    0.537E-02
DAV:   7    -0.202695562994E+03    0.15130E-04   -0.99934E-05 10532   0.548E-02    0.335E-02
DAV:   8    -0.202695556153E+03    0.68408E-05   -0.35733E-05  6656   0.316E-02
  76 F= -.20269556E+03 E0= -.20017374E+03  d E =-.673166E-02
       N       E                     dE             d eps       ncg     rms          rms(c)
DAV:   1    -0.202700957162E+03   -0.53942E-02   -0.78228E-01 10944   0.171E+00    0.182E-01
DAV:   2    -0.202702447607E+03   -0.14904E-02   -0.15924E-02 11072   0.261E-01    0.145E-01
DAV:   3    -0.202702499062E+03   -0.51454E-04   -0.10942E-03 11668   0.164E-01    0.146E-01
DAV:   4    -0.202702612744E+03   -0.11368E-03   -0.13357E-03 11708   0.165E-01    0.189E-01
DAV:   5    -0.202702423650E+03    0.18909E-03   -0.83943E-04 11764   0.132E-01    0.109E-01
DAV:   6    -0.202702382958E+03    0.40692E-04   -0.34895E-04 11816   0.103E-01    0.829E-02
DAV:   7    -0.202702354560E+03    0.28399E-04   -0.20454E-04 11628   0.737E-02    0.591E-02
DAV:   8    -0.202702325300E+03    0.29260E-04   -0.93239E-05 10188   0.518E-02    0.182E-02
DAV:   9    -0.202702324360E+03    0.94004E-06   -0.15908E-05  5940   0.206E-02
  77 F= -.20270232E+03 E0= -.20018145E+03  d E =-.676821E-02
       N       E                     dE             d eps       ncg     rms          rms(c)
DAV:   1    -0.202705470694E+03   -0.31454E-02   -0.91283E-01 10944   0.177E+00    0.206E-01
DAV:   2    -0.202707128032E+03   -0.16573E-02   -0.19656E-02 11116   0.253E-01    0.131E-01
DAV:   3    -0.202708050762E+03   -0.92273E-03   -0.26118E-03 12096   0.223E-01    0.344E-01
DAV:   4    -0.202707066796E+03    0.98397E-03   -0.23530E-03 11864   0.217E-01    0.106E-01
DAV:   5    -0.202707046986E+03    0.19810E-04   -0.41761E-04 12156   0.105E-01    0.927E-02
DAV:   6    -0.202707021756E+03    0.25230E-04   -0.35878E-04 11412   0.937E-02    0.679E-02
DAV:   7    -0.202706990403E+03    0.31353E-04   -0.14252E-04 10964   0.668E-02    0.426E-02
DAV:   8    -0.202706975949E+03    0.14455E-04   -0.41386E-05  7272   0.337E-02    0.157E-02
DAV:   9    -0.202706976597E+03   -0.64856E-06   -0.15100E-05  6020   0.190E-02
  78 F= -.20270698E+03 E0= -.20018633E+03  d E =-.465224E-02
       N       E                     dE             d eps       ncg     rms          rms(c)
DAV:   1    -0.202709874067E+03   -0.28981E-02   -0.12241E-01 10944   0.582E-01    0.130E-01
DAV:   2    -0.202710104711E+03   -0.23064E-03   -0.32118E-03 11276   0.134E-01    0.118E-01
DAV:   3    -0.202710309542E+03   -0.20483E-03   -0.10219E-03 12008   0.156E-01    0.188E-01
DAV:   4    -0.202710077224E+03    0.23232E-03   -0.10569E-03 11928   0.144E-01    0.105E-01
DAV:   5    -0.202710007705E+03    0.69519E-04   -0.34700E-04 11664   0.963E-02    0.702E-02
DAV:   6    -0.202709969043E+03    0.38662E-04   -0.16160E-04 11748   0.694E-02    0.401E-02
DAV:   7    -0.202709959006E+03    0.10037E-04   -0.52070E-05  7116   0.389E-02    0.290E-02
DAV:   8    -0.202709952155E+03    0.68512E-05   -0.19734E-05  6484   0.240E-02
  79 F= -.20270995E+03 E0= -.20018980E+03  d E =-.297556E-02
       N       E                     dE             d eps       ncg     rms          rms(c)
DAV:   1    -0.202711718635E+03   -0.17596E-02   -0.82494E-02 10944   0.553E-01    0.574E-02
DAV:   2    -0.202711880637E+03   -0.16200E-03   -0.16972E-03 11084   0.827E-02    0.439E-02
DAV:   3    -0.202711938324E+03   -0.57687E-04   -0.24021E-04 11668   0.697E-02    0.897E-02
DAV:   4    -0.202711886519E+03    0.51806E-04   -0.18939E-04  7960   0.619E-02    0.446E-02
DAV:   5    -0.202711874187E+03    0.12331E-04   -0.52937E-05  6788   0.384E-02    0.273E-02
DAV:   6    -0.202711873673E+03    0.51410E-06   -0.23014E-05  6300   0.266E-02
  80 F= -.20271187E+03 E0= -.20019179E+03  d E =-.192152E-02
       N       E                     dE             d eps       ncg     rms          rms(c)
DAV:   1    -0.202714129637E+03   -0.22554E-02   -0.13364E-01 10944   0.713E-01    0.732E-02
DAV:   2    -0.202714422485E+03   -0.29285E-03   -0.27714E-03 10984   0.118E-01    0.840E-02
DAV:   3    -0.202714407984E+03    0.14501E-04   -0.33116E-04 11608   0.930E-02    0.685E-02
DAV:   4    -0.202714381798E+03    0.26186E-04   -0.97573E-05  8660   0.514E-02    0.404E-02
DAV:   5    -0.202714377621E+03    0.41771E-05   -0.53559E-05  7244   0.388E-02
  81 F= -.20271438E+03 E0= -.20019473E+03  d E =-.250395E-02
       N       E                     dE             d eps       ncg     rms          rms(c)
[...]
DAV:   3    -0.203519387231E+03   -0.31776E-05   -0.11308E-04 11528   0.515E-02    0.434E-02
DAV:   4    -0.203519384561E+03    0.26700E-05   -0.71880E-05  6976   0.423E-02
 366 F= -.20351938E+03 E0= -.20106476E+03  d E =-.900567E-03
       N       E                     dE             d eps       ncg     rms          rms(c)
DAV:   1    -0.203520050946E+03   -0.66372E-03   -0.18142E-01 10944   0.775E-01    0.731E-02
DAV:   2    -0.203520675321E+03   -0.62437E-03   -0.42709E-03 11072   0.160E-01    0.177E-01
DAV:   3    -0.203520425113E+03    0.25021E-03   -0.85014E-04 11692   0.132E-01    0.694E-02
DAV:   4    -0.203520405132E+03    0.19981E-04   -0.14235E-04 11092   0.556E-02    0.492E-02
DAV:   5    -0.203520388823E+03    0.16309E-04   -0.59600E-05  8184   0.433E-02    0.295E-02
DAV:   6    -0.203520406065E+03   -0.17242E-04   -0.58020E-05  7724   0.399E-02    0.466E-02
DAV:   7    -0.203520386628E+03    0.19437E-04   -0.43052E-05  6620   0.364E-02    0.143E-02
DAV:   8    -0.203520385127E+03    0.15016E-05   -0.77873E-06  5664   0.136E-02
 367 F= -.20352039E+03 E0= -.20106599E+03  d E =-.100057E-02
       N       E                     dE             d eps       ncg     rms          rms(c)
DAV:   1    -0.203521054505E+03   -0.66788E-03   -0.22905E-01 10944   0.871E-01    0.726E-02
DAV:   2    -0.203521529277E+03   -0.47477E-03   -0.48875E-03 10952   0.116E-01    0.507E-02
DAV:   3    -0.203521554832E+03   -0.25555E-04   -0.18370E-04 11640   0.620E-02    0.702E-02
DAV:   4    -0.203521531784E+03    0.23049E-04   -0.17325E-04  7664   0.597E-02    0.517E-02
DAV:   5    -0.203521523488E+03    0.82957E-05   -0.80561E-05  7216   0.439E-02
 368 F= -.20352152E+03 E0= -.20106712E+03  d E =-.113836E-02
       N       E                     dE             d eps       ncg     rms          rms(c)
DAV:   1    -0.203522168169E+03   -0.63639E-03   -0.28271E-01 10944   0.967E-01    0.892E-02
DAV:   2    -0.203522873702E+03   -0.70553E-03   -0.61191E-03 10984   0.171E-01    0.137E-01
DAV:   3    -0.203522759178E+03    0.11452E-03   -0.60976E-04 11488   0.132E-01    0.861E-02
DAV:   4    -0.203522786656E+03   -0.27479E-04   -0.33620E-04 11436   0.832E-02    0.103E-01
DAV:   5    -0.203522699164E+03    0.87492E-04   -0.23393E-04  8448   0.686E-02    0.371E-02
DAV:   6    -0.203522701140E+03   -0.19757E-05   -0.62024E-05  9604   0.435E-02
 369 F= -.20352270E+03 E0= -.20106840E+03  d E =-.117765E-02
       N       E                     dE             d eps       ncg     rms          rms(c)
DAV:   1    -0.203523099864E+03   -0.40070E-03   -0.26810E-01 10944   0.933E-01    0.949E-02
DAV:   2    -0.203523698889E+03   -0.59902E-03   -0.61753E-03 11044   0.159E-01    0.106E-01
DAV:   3    -0.203523669694E+03    0.29195E-04   -0.49816E-04 11632   0.113E-01    0.904E-02
DAV:   4    -0.203523683504E+03   -0.13810E-04   -0.39705E-04 11128   0.889E-02    0.100E-01
DAV:   5    -0.203523608107E+03    0.75396E-04   -0.22048E-04 10116   0.696E-02    0.459E-02
DAV:   6    -0.203523603381E+03    0.47268E-05   -0.93364E-05 10640   0.518E-02
 370 F= -.20352360E+03 E0= -.20106935E+03  d E =-.902241E-03
       N       E                     dE             d eps       ncg     rms          rms(c)
DAV:   1    -0.203524102236E+03   -0.49413E-03   -0.11176E-01 10944   0.570E-01    0.944E-02
DAV:   2    -0.203524454275E+03   -0.35204E-03   -0.30463E-03 11152   0.142E-01    0.128E-01
DAV:   3    -0.203524347245E+03    0.10703E-03   -0.54251E-04 11636   0.128E-01    0.841E-02
DAV:   4    -0.203524360441E+03   -0.13196E-04   -0.30692E-04 11608   0.844E-02    0.952E-02
DAV:   5    -0.203524310971E+03    0.49471E-04   -0.31559E-04 10116   0.803E-02    0.644E-02
DAV:   6    -0.203524280555E+03    0.30415E-04   -0.15152E-04  9908   0.605E-02    0.388E-02
DAV:   7    -0.203524268218E+03    0.12338E-04   -0.38851E-05  6948   0.325E-02    0.185E-02
DAV:   8    -0.203524264811E+03    0.34063E-05   -0.10766E-05  6192   0.193E-02
 371 F= -.20352426E+03 E0= -.20106979E+03  d E =-.661431E-03
       N       E                     dE             d eps       ncg     rms          rms(c)
DAV:   1    -0.203524613179E+03   -0.34496E-03   -0.19031E-02 10944   0.240E-01    0.328E-02
DAV:   2    -0.203524655707E+03   -0.42528E-04   -0.47881E-04 11128   0.419E-02    0.317E-02
DAV:   3    -0.203524664484E+03   -0.87765E-05   -0.63863E-05  7184   0.389E-02    0.439E-02
DAV:   4    -0.203524654235E+03    0.10249E-04   -0.62917E-05  6680   0.354E-02    0.297E-02
DAV:   5    -0.203524647344E+03    0.68917E-05   -0.22344E-05  6560   0.244E-02
 372 F= -.20352465E+03 E0= -.20107019E+03  d E =-.382532E-03
       N       E                     dE             d eps       ncg     rms          rms(c)
DAV:   1    -0.203524967611E+03   -0.31338E-03   -0.31149E-02 10944   0.322E-01    0.297E-02
DAV:   2    -0.203525043761E+03   -0.76150E-04   -0.69452E-04 11100   0.576E-02    0.418E-02
DAV:   3    -0.203525032990E+03    0.10771E-04   -0.65450E-05  8980   0.425E-02    0.262E-02
DAV:   4    -0.203525033867E+03   -0.87718E-06   -0.24518E-05  6248   0.242E-02
 373 F= -.20352503E+03 E0= -.20107070E+03  d E =-.386523E-03
       N       E                     dE             d eps       ncg     rms          rms(c)
DAV:   1    -0.203525419459E+03   -0.38647E-03   -0.52810E-02 10944   0.419E-01    0.389E-02
DAV:   2    -0.203525606954E+03   -0.18750E-03   -0.12559E-03 11080   0.874E-02    0.996E-02
DAV:   3    -0.203525527398E+03    0.79556E-04   -0.26657E-04 11140   0.728E-02    0.362E-02
DAV:   4    -0.203525526437E+03    0.96077E-06   -0.40237E-05  6768   0.315E-02
 374 F= -.20352553E+03 E0= -.20107100E+03  d E =-.492570E-03
       N       E                     dE             d eps       ncg     rms          rms(c)
DAV:   1    -0.203525965299E+03   -0.43790E-03   -0.79159E-02 10944   0.514E-01    0.481E-02
DAV:   2    -0.203526144720E+03   -0.17942E-03   -0.16667E-03 10972   0.821E-02    0.626E-02
DAV:   3    -0.203526130817E+03    0.13903E-04   -0.14107E-04 11468   0.624E-02    0.491E-02
DAV:   4    -0.203526134414E+03   -0.35963E-05   -0.88210E-05  6892   0.442E-02
 375 F= -.20352613E+03 E0= -.20107197E+03  d E =-.607977E-03
       N       E                     dE             d eps       ncg     rms          rms(c)
DAV:   1    -0.203526597686E+03   -0.46687E-03   -0.11180E-01 10944   0.611E-01    0.580E-02
DAV:   2    -0.203526918021E+03   -0.32034E-03   -0.25034E-03 11004   0.112E-01    0.115E-01
DAV:   3    -0.203526834658E+03    0.83363E-04   -0.44103E-04 11780   0.932E-02    0.624E-02
DAV:   4    -0.203526820850E+03    0.13808E-04   -0.10133E-04  8936   0.498E-02    0.476E-02
DAV:   5    -0.203526806058E+03    0.14792E-04   -0.48607E-05  6892   0.396E-02    0.282E-02
DAV:   6    -0.203526806917E+03   -0.85904E-06   -0.29295E-05  6788   0.309E-02
 376 F= -.20352681E+03 E0= -.20107243E+03  d E =-.672503E-03
       N       E                     dE             d eps       ncg     rms          rms(c)
DAV:   1    -0.203527303974E+03   -0.49792E-03   -0.14788E-01 10944   0.702E-01    0.594E-02
DAV:   2    -0.203527617162E+03   -0.31319E-03   -0.31219E-03 10948   0.101E-01    0.553E-02
DAV:   3    -0.203527620443E+03   -0.32816E-05   -0.19432E-04 11504   0.681E-02    0.552E-02
DAV:   4    -0.203527608672E+03    0.11771E-04   -0.98438E-05  7788   0.476E-02    0.457E-02
DAV:   5    -0.203527597050E+03    0.11622E-04   -0.60497E-05  6464   0.352E-02    0.285E-02
DAV:   6    -0.203527605576E+03   -0.85261E-05   -0.38760E-05  6720   0.331E-02
 377 F= -.20352761E+03 E0= -.20107330E+03  d E =-.798659E-03
       N       E                     dE             d eps       ncg     rms          rms(c)
DAV:   1    -0.203528109919E+03   -0.51287E-03   -0.19110E-01 10944   0.799E-01    0.663E-02
DAV:   2    -0.203528510745E+03   -0.40083E-03   -0.40007E-03 10952   0.112E-01    0.611E-02
DAV:   3    -0.203528546371E+03   -0.35626E-04   -0.27634E-04 11688   0.810E-02    0.831E-02
DAV:   4    -0.203528514302E+03    0.32069E-04   -0.20807E-04  8600   0.675E-02    0.619E-02
DAV:   5    -0.203528485149E+03    0.29153E-04   -0.90144E-05  6876   0.443E-02    0.292E-02
DAV:   6    -0.203528491790E+03   -0.66407E-05   -0.42477E-05  6808   0.338E-02
 378 F= -.20352849E+03 E0= -.20107393E+03  d E =-.886213E-03
       N       E                     dE             d eps       ncg     rms          rms(c)
DAV:   1    -0.203528971848E+03   -0.48670E-03   -0.22942E-01 10944   0.876E-01    0.754E-02
DAV:   2    -0.203529472660E+03   -0.50081E-03   -0.49428E-03 10960   0.132E-01    0.810E-02
DAV:   3    -0.203529479889E+03   -0.72290E-05   -0.39563E-04 11592   0.952E-02    0.828E-02
DAV:   4    -0.203529467581E+03    0.12307E-04   -0.26076E-04  9852   0.719E-02    0.756E-02
DAV:   5    -0.203529424358E+03    0.43223E-04   -0.12021E-04  7312   0.523E-02    0.348E-02
DAV:   6    -0.203529433280E+03   -0.89214E-05   -0.52889E-05  7712   0.401E-02
 379 F= -.20352943E+03 E0= -.20107518E+03  d E =-.941490E-03
       N       E                     dE             d eps       ncg     rms          rms(c)
DAV:   1    -0.203529738802E+03   -0.31444E-03   -0.25348E-01 10944   0.911E-01    0.862E-02
DAV:   2    -0.203530308471E+03   -0.56967E-03   -0.56387E-03 10980   0.150E-01    0.102E-01
DAV:   3    -0.203530295179E+03    0.13291E-04   -0.48806E-04 11664   0.109E-01    0.931E-02
DAV:   4    -0.203530285859E+03    0.93204E-05   -0.33662E-04 10940   0.855E-02    0.889E-02
DAV:   5    -0.203530226481E+03    0.59378E-04   -0.20599E-04  8752   0.661E-02    0.459E-02
DAV:   6    -0.203530225016E+03    0.14656E-05   -0.80208E-05  9416   0.463E-02
 380 F= -.20353023E+03 E0= -.20107553E+03  d E =-.791736E-03
       N       E                     dE             d eps       ncg     rms          rms(c)
DAV:   1    -0.203530516759E+03   -0.29028E-03   -0.11212E-01 10944   0.578E-01    0.930E-02
DAV:   2    -0.203530901212E+03   -0.38445E-03   -0.32758E-03 11136   0.162E-01    0.148E-01
DAV:   3    -0.203530746326E+03    0.15489E-03   -0.66458E-04 11604   0.132E-01    0.811E-02
DAV:   4    -0.203530786671E+03   -0.40345E-04   -0.40930E-04 11508   0.883E-02    0.107E-01
DAV:   5    -0.203530711145E+03    0.75525E-04   -0.29192E-04 10764   0.807E-02    0.563E-02
DAV:   6    -0.203530692752E+03    0.18394E-04   -0.11137E-04 10404   0.584E-02    0.445E-02
DAV:   7    -0.203530679738E+03    0.13014E-04   -0.65625E-05  7968   0.436E-02    0.274E-02
DAV:   8    -0.203530672489E+03    0.72491E-05   -0.16653E-05  6536   0.239E-02
 381 F= -.20353067E+03 E0= -.20107626E+03  d E =-.447473E-03
       N       E                     dE             d eps       ncg     rms          rms(c)
DAV:   1    -0.203531011246E+03   -0.33151E-03   -0.15420E-02 10952   0.212E-01    0.338E-02
DAV:   2    -0.203531048170E+03   -0.36924E-04   -0.40052E-04 11188   0.396E-02    0.311E-02
DAV:   3    -0.203531061668E+03   -0.13498E-04   -0.81959E-05  7176   0.430E-02    0.489E-02
DAV:   4    -0.203531047357E+03    0.14311E-04   -0.75260E-05  6792   0.389E-02    0.307E-02
DAV:   5    -0.203531039503E+03    0.78548E-05   -0.22116E-05  6600   0.255E-02
 382 F= -.20353104E+03 E0= -.20107665E+03  d E =-.367014E-03
       N       E                     dE             d eps       ncg     rms          rms(c)
DAV:   1    -0.203531291573E+03   -0.24422E-03   -0.26326E-02 10944   0.294E-01    0.317E-02
DAV:   2    -0.203531380202E+03   -0.88629E-04   -0.64625E-04 11112   0.675E-02    0.649E-02
DAV:   3    -0.203531346740E+03    0.33462E-04   -0.95767E-05  9808   0.527E-02    0.292E-02
DAV:   4    -0.203531350553E+03   -0.38124E-05   -0.48384E-05  6528   0.309E-02
 383 F= -.20353135E+03 E0= -.20107663E+03  d E =-.311050E-03
       N       E                     dE             d eps       ncg     rms          rms(c)
DAV:   1    -0.203531632546E+03   -0.28581E-03   -0.39733E-02 10944   0.365E-01    0.358E-02
DAV:   2    -0.203531759152E+03   -0.12661E-03   -0.93753E-04 11076   0.771E-02    0.750E-02
DAV:   3    -0.203531724506E+03    0.34645E-04   -0.20146E-04 10472   0.648E-02    0.463E-02
DAV:   4    -0.203531712701E+03    0.11805E-04   -0.59573E-05  6684   0.369E-02    0.296E-02
DAV:   5    -0.203531707686E+03    0.50154E-05   -0.17383E-05  6092   0.232E-02
 384 F= -.20353171E+03 E0= -.20107713E+03  d E =-.357133E-03
       N       E                     dE             d eps       ncg     rms          rms(c)
DAV:   1    -0.203532038953E+03   -0.32625E-03   -0.61686E-02 10944   0.455E-01    0.413E-02
DAV:   2    -0.203532177635E+03   -0.13868E-03   -0.13089E-03 10956   0.725E-02    0.503E-02
DAV:   3    -0.203532170447E+03    0.71885E-05   -0.10484E-04 10920   0.536E-02    0.420E-02
DAV:   4    -0.203532168244E+03    0.22030E-05   -0.54930E-05  6752   0.365E-02
 385 F= -.20353217E+03 E0= -.20107787E+03  d E =-.460558E-03
       N       E                     dE             d eps       ncg     rms          rms(c)
DAV:   1    -0.203532520121E+03   -0.34967E-03   -0.88010E-02 10944   0.543E-01    0.523E-02
DAV:   2    -0.203532865826E+03   -0.34570E-03   -0.21686E-03 11140   0.121E-01    0.142E-01
DAV:   3    -0.203532701486E+03    0.16434E-03   -0.52522E-04 11676   0.102E-01    0.503E-02
DAV:   4    -0.203532700778E+03    0.70802E-06   -0.86255E-05  9008   0.458E-02
 386 F= -.20353270E+03 E0= -.20107812E+03  d E =-.532534E-03
       N       E                     dE             d eps       ncg     rms          rms(c)
DAV:   1    -0.203533070542E+03   -0.36906E-03   -0.11881E-01 10944   0.631E-01    0.595E-02
DAV:   2    -0.203533339078E+03   -0.26854E-03   -0.24970E-03 10964   0.102E-01    0.771E-02
DAV:   3    -0.203533325789E+03    0.13290E-04   -0.23186E-04 11740   0.785E-02    0.665E-02
DAV:   4    -0.203533326343E+03   -0.55464E-06   -0.16849E-04  7616   0.593E-02    0.674E-02
DAV:   5    -0.203533290005E+03    0.36339E-04   -0.99969E-05  7004   0.458E-02    0.264E-02
DAV:   6    -0.203533292825E+03   -0.28207E-05   -0.32619E-05  6664   0.312E-02
 387 F= -.20353329E+03 E0= -.20107879E+03  d E =-.592047E-03
       N       E                     dE             d eps       ncg     rms          rms(c)
DAV:   1    -0.203533671111E+03   -0.38111E-03   -0.15367E-01 10944   0.719E-01    0.596E-02
DAV:   2    -0.203533991945E+03   -0.32083E-03   -0.32267E-03 10948   0.101E-01    0.506E-02
DAV:   3    -0.203534000489E+03   -0.85432E-05   -0.18462E-04 11536   0.643E-02    0.558E-02
DAV:   4    -0.203533987186E+03    0.13303E-04   -0.96415E-05  7768   0.474E-02    0.442E-02
DAV:   5    -0.203533976270E+03    0.10916E-04   -0.57115E-05  6388   0.344E-02    0.277E-02
DAV:   6    -0.203533980302E+03   -0.40316E-05   -0.34138E-05  6516   0.292E-02
 388 F= -.20353398E+03 E0= -.20107938E+03  d E =-.687476E-03
       N       E                     dE             d eps       ncg     rms          rms(c)
DAV:   1    -0.203534332176E+03   -0.35591E-03   -0.19292E-01 10944   0.805E-01    0.659E-02
DAV:   2    -0.203534731696E+03   -0.39952E-03   -0.40531E-03 10948   0.109E-01    0.514E-02
DAV:   3    -0.203534769155E+03   -0.37459E-04   -0.19476E-04 11756   0.701E-02    0.770E-02
DAV:   4    -0.203534731955E+03    0.37200E-04   -0.14801E-04  8636   0.607E-02    0.496E-02
DAV:   5    -0.203534720870E+03    0.11085E-04   -0.82607E-05  6736   0.405E-02    0.357E-02
DAV:   6    -0.203534716831E+03    0.40386E-05   -0.38710E-05  6856   0.325E-02
 389 F= -.20353472E+03 E0= -.20108021E+03  d E =-.736530E-03
       N       E                     dE             d eps       ncg     rms          rms(c)
DAV:   1    -0.203535041124E+03   -0.32025E-03   -0.23196E-01 10944   0.883E-01    0.731E-02
DAV:   2    -0.203535531398E+03   -0.49027E-03   -0.49262E-03 10956   0.126E-01    0.671E-02
DAV:   3    -0.203535560199E+03   -0.28801E-04   -0.33344E-04 11592   0.865E-02    0.833E-02
DAV:   4    -0.203535537347E+03    0.22852E-04   -0.25139E-04  9340   0.714E-02    0.699E-02
DAV:   5    -0.203535498998E+03    0.38350E-04   -0.97790E-05  7280   0.476E-02    0.299E-02
DAV:   6    -0.203535515148E+03   -0.16151E-04   -0.53913E-05  7600   0.386E-02    0.477E-02
DAV:   7    -0.203535495314E+03    0.19835E-04   -0.41745E-05  6780   0.358E-02    0.144E-02
DAV:   8    -0.203535494250E+03    0.10637E-05   -0.10025E-05  5820   0.150E-02
 390 F= -.20353549E+03 E0= -.20108092E+03  d E =-.777419E-03
       N       E                     dE             d eps       ncg     rms          rms(c)
DAV:   1    -0.203535643936E+03   -0.14862E-03   -0.26393E-01 10944   0.935E-01    0.802E-02
DAV:   2    -0.203536189749E+03   -0.54581E-03   -0.57357E-03 10968   0.124E-01    0.526E-02
DAV:   3    -0.203536209992E+03   -0.20243E-04   -0.17324E-04 12016   0.540E-02    0.716E-02
DAV:   4    -0.203536185915E+03    0.24077E-04   -0.17866E-04  7604   0.613E-02    0.520E-02
DAV:   5    -0.203536185320E+03    0.59419E-06   -0.11181E-04  9288   0.511E-02    0.499E-02
DAV:   6    -0.203536165764E+03    0.19556E-04   -0.69816E-05  7912   0.423E-02    0.247E-02
DAV:   7    -0.203536161088E+03    0.46766E-05   -0.20326E-05  6552   0.241E-02
 391 F= -.20353616E+03 E0= -.20108144E+03  d E =-.666837E-03
       N       E                     dE             d eps       ncg     rms          rms(c)
DAV:   1    -0.203536174603E+03   -0.88392E-05   -0.13310E-01 10944   0.629E-01    0.942E-02
DAV:   2    -0.203536458460E+03   -0.28386E-03   -0.33736E-03 11184   0.111E-01    0.840E-02
DAV:   3    -0.203536517983E+03   -0.59523E-04   -0.45691E-04 12104   0.104E-01    0.113E-01
DAV:   4    -0.203536474855E+03    0.43128E-04   -0.53002E-04 11372   0.101E-01    0.958E-02
DAV:   5    -0.203536421438E+03    0.53417E-04   -0.26285E-04 11140   0.804E-02    0.622E-02
DAV:   6    -0.203536389276E+03    0.32161E-04   -0.10022E-04 10880   0.564E-02    0.330E-02
DAV:   7    -0.203536379690E+03    0.95867E-05   -0.34344E-05  6992   0.344E-02
 392 F= -.20353638E+03 E0= -.20108192E+03  d E =-.218602E-03
       N       E                     dE             d eps       ncg     rms          rms(c)
DAV:   1    -0.203536656080E+03   -0.26680E-03   -0.56245E-03 10976   0.126E-01    0.245E-02
DAV:   2    -0.203536677179E+03   -0.21099E-04   -0.17366E-04 11088   0.352E-02    0.334E-02
DAV:   3    -0.203536674543E+03    0.26368E-05   -0.49299E-05  6844   0.347E-02    0.299E-02
DAV:   4    -0.203536672844E+03    0.16985E-05   -0.37825E-05  6324   0.276E-02
 393 F= -.20353667E+03 E0= -.20108216E+03  d E =-.293155E-03
       N       E                     dE             d eps       ncg     rms          rms(c)
DAV:   1    -0.203536921044E+03   -0.24650E-03   -0.17355E-02 10944   0.228E-01    0.374E-02
DAV:   2    -0.203536956031E+03   -0.34987E-04   -0.43075E-04 11240   0.401E-02    0.310E-02
DAV:   3    -0.203536964485E+03   -0.84532E-05   -0.65131E-05  7368   0.405E-02    0.427E-02
DAV:   4    -0.203536962077E+03    0.24080E-05   -0.84446E-05  6904   0.411E-02
 394 F= -.20353696E+03 E0= -.20108255E+03  d E =-.289233E-03
       N       E                     dE             d eps       ncg     rms          rms(c)
DAV:   1    -0.203537129374E+03   -0.16489E-03   -0.23585E-02 10944   0.283E-01    0.334E-02
DAV:   2    -0.203537300413E+03   -0.17104E-03   -0.73102E-04 11372   0.965E-02    0.115E-01
DAV:   3    -0.203537186879E+03    0.11353E-03   -0.27187E-04 11316   0.821E-02    0.443E-02
DAV:   4    -0.203537173089E+03    0.13791E-04   -0.64389E-05  6628   0.349E-02    0.238E-02
DAV:   5    -0.203537169466E+03    0.36224E-05   -0.11707E-05  6140   0.160E-02
 395 F= -.20353717E+03 E0= -.20108252E+03  d E =-.207390E-03
       N       E                     dE             d eps       ncg     rms          rms(c)
DAV:   1    -0.203537386480E+03   -0.21339E-03   -0.37745E-02 10944   0.357E-01    0.331E-02
DAV:   2    -0.203537483226E+03   -0.96746E-04   -0.84507E-04 10988   0.655E-02    0.528E-02
DAV:   3    -0.203537466175E+03    0.17051E-04   -0.10328E-04 10188   0.495E-02    0.324E-02
DAV:   4    -0.203537470175E+03   -0.40004E-05   -0.53007E-05  6364   0.319E-02
 396 F= -.20353747E+03 E0= -.20108272E+03  d E =-.300709E-03
