 vasp.6.5.1 10Mar25 (build Apr 25 2025 15:31:43) complex                        
  
 executed on             LinuxIFC date 2025.12.08  14:54:14
 running  384 mpi-ranks, on   16 nodes
 each image running on   48 cores
 distrk:  each k-point on   24 cores,    2 groups
 distr:  one band on NCORE=   6 cores,    4 groups


--------------------------------------------------------------------------------------------------------


 INCAR:
   SYSTEM = PBE-grap
   NWRITE = 0    write-flag
   ISTART = 0    job   : 0-new, 1-cont, 2-samecut
   ICHARG = 2    charge: 0-wave, 1-file, 2-atom, >10-const
   INIWAV = 1    electr: 0-lowe 1-rand  2-diag
   GGA = PE
   PREC = Normal   low | medium | high
   ENCUT = 370
   NELMDL = -5    number of delayed ELM steps
   NELMIN = 4
   NELM = 150    number of ELM steps
   EDIFF = 1E-05    energy stopping-criterion for ELM
   LREAL = AUTO   real-space projection (.FALSE., .TRUE., On, Auto)
   IALGO = 38    algorithm (8\=CG for small, 48\=RMM for big systems)
   LCHARG = .FALSE.
   LVTOT = .FALSE.
   LWAVE = .FALSE.
   NSW = 1000   max number of geometry steps
   EDIFFG = -0.026   force (eV/A) stopping-criterion for geometry steps
   ISIF = 2     (1:force\=y stress\=trace only ions\=y shape\=n volume\=n)
   ISYM = 0     (1-use symmetry, 0-no symmetry)
   ISMEAR = 0    (-1-Fermi, 1-Methfessel/Paxton)
   SIGMA = 0.41   broadening in eV
   IOPT = 3
   TIMESTEP = 0.05
   ICHAIN = 0     turn on NEB
   LCLIMB = .TRUE.
   POTIM = 0
   IBRION = 3
   IMAGES = 8      image number
   SPRING = -5     spring constant between images
   LPLANE = .TRUE.
   NPAR = 4
   KPAR = 2

 POTCAR:    PAW_PBE Pd 04Jan2005                  
 POTCAR:    PAW_PBE C 08Apr2002                   
 POTCAR:    PAW_PBE O 08Apr2002                   
 POTCAR:    PAW_PBE Pd 04Jan2005                  
  local pseudopotential read in
  partial core-charges read in
  partial kinetic energy density read in
  atomic valenz-charges read in
  non local Contribution for L=           2  read in
    real space projection operators read in
  non local Contribution for L=           2  read in
    real space projection operators read in
  non local Contribution for L=           0  read in
    real space projection operators read in
  non local Contribution for L=           0  read in
    real space projection operators read in
  non local Contribution for L=           1  read in
    real space projection operators read in
  non local Contribution for L=           1  read in
    real space projection operators read in
    PAW grid and wavefunctions read in
 
   number of l-projection  operators is LMAX  =           6
   number of lm-projection operators is LMMAX =          18
 
 POTCAR:    PAW_PBE C 08Apr2002                   
  local pseudopotential read in
  partial core-charges read in
  partial kinetic energy density read in
  atomic valenz-charges read in
  non local Contribution for L=           0  read in
    real space projection operators read in
  non local Contribution for L=           0  read in
    real space projection operators read in
  non local Contribution for L=           1  read in
    real space projection operators read in
  non local Contribution for L=           1  read in
    real space projection operators read in
    PAW grid and wavefunctions read in
 
   number of l-projection  operators is LMAX  =           4
   number of lm-projection operators is LMMAX =           8
 
 POTCAR:    PAW_PBE O 08Apr2002                   
  local pseudopotential read in
  partial core-charges read in
  partial kinetic energy density read in
  kinetic energy density of atom read in
  atomic valenz-charges read in
  non local Contribution for L=           0  read in
    real space projection operators read in
  non local Contribution for L=           0  read in
    real space projection operators read in
  non local Contribution for L=           1  read in
    real space projection operators read in
  non local Contribution for L=           1  read in
    real space projection operators read in
    PAW grid and wavefunctions read in
 
   number of l-projection  operators is LMAX  =           4
   number of lm-projection operators is LMMAX =           8
 
 Optimization of the real space projectors (new method)

 maximal supplied QI-value         = 14.36
 optimisation between [QCUT,QGAM] = [  9.77, 19.68] = [ 26.71,108.41] Ry 
 Optimized for a Real-space Cutoff    1.52 Angstroem

   l    n(q)    QCUT    max X(q) W(low)/X(q) W(high)/X(q)  e(spline) 
   2      8     9.766    59.108    0.18E-03    0.12E-03    0.98E-07
   2      8     9.766    58.101    0.18E-03    0.12E-03    0.10E-06
   0      9     9.766   102.235    0.37E-04    0.68E-04    0.73E-07
   0      9     9.766    58.388    0.33E-04    0.64E-04    0.69E-07
   1      8     9.766    22.191    0.23E-03    0.61E-04    0.11E-06
   1      8     9.766    15.590    0.19E-03    0.52E-04    0.93E-07
 Optimization of the real space projectors (new method)

 maximal supplied QI-value         = 25.13
 optimisation between [QCUT,QGAM] = [  9.80, 19.60] = [ 26.90,107.62] Ry 
 Optimized for a Real-space Cutoff    1.35 Angstroem

   l    n(q)    QCUT    max X(q) W(low)/X(q) W(high)/X(q)  e(spline) 
   0      8     9.802   115.676    0.45E-03    0.67E-03    0.24E-06
   0      8     9.802    87.132    0.44E-03    0.67E-03    0.24E-06
   1      7     9.802     4.429    0.38E-03    0.18E-03    0.24E-06
   1      7     9.802     2.733    0.25E-03    0.72E-04    0.26E-06
 Optimization of the real space projectors (new method)

 maximal supplied QI-value         = 24.76
 optimisation between [QCUT,QGAM] = [  9.65, 19.56] = [ 26.10,107.10] Ry 
 Optimized for a Real-space Cutoff    1.44 Angstroem

   l    n(q)    QCUT    max X(q) W(low)/X(q) W(high)/X(q)  e(spline) 
   0      8     9.655    20.381    0.19E-03    0.21E-03    0.36E-06
   0      8     9.655    15.268    0.21E-03    0.24E-03    0.37E-06
   1      8     9.655     5.964    0.43E-03    0.39E-03    0.31E-06
   1      8     9.655     5.382    0.36E-03    0.33E-03    0.28E-06
  PAW_PBE Pd 04Jan2005                  :
 energy of atom  1       EATOM= -809.7530
 kinetic energy error for atom=    0.0177 (will be added to EATOM!!)
  PAW_PBE C 08Apr2002                   :
 energy of atom  2       EATOM= -147.1560
 kinetic energy error for atom=    0.0545 (will be added to EATOM!!)
  PAW_PBE O 08Apr2002                   :
 energy of atom  3       EATOM= -432.3788
 kinetic energy error for atom=    0.2342 (will be added to EATOM!!)
 
 
 POSCAR: Pd  C  O
  positions in direct lattice
  velocities in cartesian coordinates


 exchange-correlation table for PE
   RHO(1)=    0.500       N(1)  =     2000
   RHO(2)=  100.500       N(2)  =     4000

 VTST: version 4.2, (11/09/24)

 CHAIN: initializing optimizer
 
 OPT: Using Quick-Min optimizer
 OPT: QM, Init
 OPT: QM, MAXMOVE       0.200000
 OPT: QM, TIMESTEP      0.050000
 
 CHAIN: Read ICHAIN            0
 CHAIN: Running the NEB
 NEB:          SPRING     -5.000000
 NEB:          LCLIMB      T
 NEB:     LTANGENTOLD      F
 NEB:           LDNEB      F
 NEB:        LDNEBORG      F
 NEB:        LNEBCELL      F
 NEB:          EFIRST      0.000000
 NEB:           ELAST      0.000000
 
 POSCAR: Pd  C  O
  positions in cartesian coordinates
  No initial velocities read in
 
 POSCAR: Pd  C  O
  positions in cartesian coordinates
  No initial velocities read in
 
 POSCAR: Pd  C  O
  positions in cartesian coordinates
  No initial velocities read in
 
 POSCAR: Pd  C  O
  positions in cartesian coordinates
  No initial velocities read in
 


--------------------------------------------------------------------------------------------------------


 ion  position               nearest neighbor table
   1  1.000  0.997  0.442-  37 2.62   4 2.74  19 2.76  25 2.76  13 2.77   7 2.79  10 2.80   3 2.84
                            27 2.85   9 2.86
   2  0.111  0.223  0.160-  31 2.77  32 2.77  28 2.77   5 2.77   8 2.77  26 2.77  20 2.77  14 2.77
                            11 2.77  12 2.80   9 2.81   3 2.81
   3  0.222  0.113  0.300-  15 2.74  12 2.75   6 2.76   9 2.76  27 2.78  21 2.78   2 2.81   5 2.81
                            20 2.82   4 2.83   1 2.84  13 3.02
   4  0.331  0.000  0.442-  37 2.53   1 2.74  16 2.77   7 2.78  19 2.79  13 2.80  22 2.80   3 2.83
                            21 2.85   6 2.86
   5  0.444  0.223  0.160-  32 2.77  29 2.77  33 2.77   2 2.77  20 2.77  23 2.77   8 2.77  17 2.77
                            14 2.77   6 2.79  15 2.80   3 2.81
   6  0.553  0.110  0.298-  21 2.75   3 2.76  24 2.77  15 2.77  18 2.77  16 2.78  23 2.78   9 2.78
                             7 2.78   5 2.79   8 2.80   4 2.86
   7  0.665  0.999  0.436-   9 2.77  25 2.77  16 2.77  22 2.77  24 2.78   4 2.78   6 2.78  10 2.79
                             1 2.79
   8  0.778  0.223  0.160-  33 2.77  31 2.77  30 2.77   2 2.77  26 2.77  23 2.77  11 2.77   5 2.77
                            17 2.77  18 2.78   6 2.80   9 2.81
   9  0.889  0.112  0.300-  18 2.76  12 2.76  27 2.76   3 2.76   7 2.77  24 2.78   6 2.78  26 2.80
                             2 2.81   8 2.81   1 2.86  10 2.87
  10  1.000  0.334  0.444-  38 2.44  13 2.73  22 2.76  19 2.76  16 2.78   7 2.79   1 2.80  12 2.87
                             9 2.87  18 2.88
  11  0.111  0.557  0.160-  34 2.77  35 2.77  31 2.77  14 2.77  17 2.77  23 2.77  20 2.77   8 2.77
                             2 2.77  18 2.79  21 2.80  12 2.81
  12  0.221  0.444  0.300-  15 2.75   3 2.75   9 2.76  24 2.77  18 2.77  21 2.78   2 2.80  14 2.81
                            11 2.81  22 2.83  10 2.87  13 3.01
  13  0.328  0.334  0.456-  38 2.02  37 2.58  10 2.73  22 2.74   1 2.77   4 2.80  25 2.80  16 2.83
                            12 3.01   3 3.02  15 3.04
  14  0.444  0.557  0.160-  35 2.77  36 2.77  32 2.77  11 2.77  23 2.77  26 2.77   2 2.77  17 2.77
                             5 2.77  24 2.78  15 2.80  12 2.81
  15  0.552  0.443  0.300-   3 2.74  12 2.75  25 2.76  16 2.76   6 2.77  24 2.77  18 2.79  27 2.79
                             5 2.80  14 2.80  17 2.82  13 3.04
  16  0.665  0.333  0.436-  19 2.76  15 2.76  25 2.77   7 2.77   4 2.77  18 2.78   6 2.78  10 2.78
                            13 2.83
  17  0.778  0.557  0.160-  36 2.77  34 2.77  33 2.77  11 2.77  26 2.77  20 2.77  14 2.77   8 2.77
                             5 2.77  27 2.78  18 2.80  15 2.82
  18  0.888  0.443  0.299-   9 2.76  19 2.76  12 2.77   6 2.77  16 2.78   8 2.78  21 2.78  27 2.79
                            15 2.79  11 2.79  17 2.80  10 2.88
  19  0.997  0.665  0.435-  25 2.75   1 2.76  16 2.76  18 2.76  10 2.76  21 2.77  27 2.78   4 2.79
                            22 2.79
  20  0.111  0.890  0.160-  29 2.77  28 2.77  34 2.77  23 2.77  26 2.77  11 2.77  17 2.77   5 2.77
                             2 2.77  27 2.79  21 2.80   3 2.82
  21  0.222  0.778  0.299-   6 2.75  24 2.75  19 2.77  12 2.78  27 2.78   3 2.78  18 2.78  11 2.80
                            23 2.80  20 2.80  22 2.85   4 2.85
  22  0.332  0.664  0.441-  38 2.62  13 2.74  10 2.76  25 2.77   7 2.77  19 2.79   4 2.80  12 2.83
                            24 2.84  21 2.85
  23  0.444  0.890  0.160-  29 2.77  35 2.77  30 2.77  20 2.77  11 2.77  14 2.77   5 2.77   8 2.77
                            26 2.77   6 2.78  24 2.79  21 2.80
  24  0.553  0.777  0.299-  21 2.75   6 2.77  12 2.77  15 2.77   7 2.78  27 2.78   9 2.78  14 2.78
                            25 2.79  23 2.79  26 2.80  22 2.84
  25  0.666  0.666  0.436-  19 2.75   1 2.76  15 2.76  16 2.77  22 2.77   7 2.77  27 2.78  24 2.79
                            13 2.80
  26  0.778  0.890  0.160-  28 2.77  30 2.77  36 2.77  20 2.77  17 2.77   8 2.77   2 2.77  14 2.77
                            23 2.77  27 2.78  24 2.80   9 2.80
  27  0.888  0.779  0.298-   9 2.76  24 2.78   3 2.78  19 2.78  21 2.78  26 2.78  25 2.78  17 2.78
                            20 2.79  18 2.79  15 2.79   1 2.85
  28  1.000  0.001  0.023-  26 2.77  20 2.77   2 2.77  30 2.77  29 2.77  31 2.77  32 2.77  36 2.77
                            34 2.77
  29  0.333  0.001  0.023-  20 2.77  23 2.77   5 2.77  28 2.77  32 2.77  34 2.77  35 2.77  33 2.77
                            30 2.77
  30  0.666  0.001  0.023-  26 2.77   8 2.77  23 2.77  28 2.77  31 2.77  33 2.77  36 2.77  35 2.77
                            29 2.77
  31  1.000  0.334  0.023-   2 2.77   8 2.77  11 2.77  33 2.77  32 2.77  28 2.77  30 2.77  35 2.77
                            34 2.77
  32  0.333  0.334  0.023-   5 2.77   2 2.77  14 2.77  31 2.77  29 2.77  28 2.77  33 2.77  35 2.77
                            36 2.77
  33  0.666  0.334  0.023-   8 2.77   5 2.77  17 2.77  31 2.77  30 2.77  29 2.77  34 2.77  32 2.77
                            36 2.77
  34  1.000  0.668  0.023-  11 2.77  17 2.77  20 2.77  36 2.77  35 2.77  28 2.77  29 2.77  33 2.77
                            31 2.77
  35  0.333  0.668  0.023-  14 2.77  11 2.77  23 2.77  34 2.77  29 2.77  30 2.77  31 2.77  36 2.77
                            32 2.77
  36  0.666  0.668  0.023-  17 2.77  26 2.77  14 2.77  34 2.77  28 2.77  30 2.77  35 2.77  32 2.77
                            33 2.77
  37  0.219  0.086  0.568-  39 1.16   4 2.53  13 2.58   1 2.62
  38  0.226  0.405  0.552-  13 2.02  10 2.44  22 2.62
  39  0.210  0.045  0.636-  37 1.16
 

IMPORTANT INFORMATION: All symmetrisations will be switched off!
NOSYMM: (Re-)initialisation of all symmetry stuff for point group C_1.


----------------------------------------------------------------------------------------

                                     Primitive cell                                     

  volume of cell :     988.1533

  direct lattice vectors                    reciprocal lattice vectors
     8.309900284  0.000000000  0.000000000     0.120338387  0.069477400  0.000000000
    -4.154950142  7.196584749  0.000000000     0.000000000  0.138954801  0.000000000
     0.000000000  0.000000000 16.523500443     0.000000000  0.000000000  0.060519864

  length of vectors
     8.309900284  8.309900284 16.523500443     0.138954801  0.138954801  0.060519864

  position of ions in fractional coordinates (direct lattice)
     0.999736452  0.997407184  0.442171846
     0.110930000  0.223300000  0.160240000
     0.222069545  0.113047301  0.300410452
     0.330855047  0.000170633  0.442207759
     0.444260000  0.223300000  0.160240000
     0.553176025  0.110375726  0.298426250
     0.664768404  0.998892065  0.436094383
     0.777600000  0.223300000  0.160240000
     0.888751042  0.111757659  0.299828119
     0.999649731  0.333780404  0.444156553
     0.110930000  0.556640000  0.160240000
     0.221132006  0.443612368  0.299773719
     0.328004181  0.334241564  0.455854342
     0.444260000  0.556640000  0.160240000
     0.551599663  0.442987547  0.299905348
     0.665106691  0.332652604  0.435845095
     0.777600000  0.556640000  0.160240000
     0.887931035  0.443345711  0.298665584
     0.996678636  0.664535862  0.435451852
     0.110930000  0.889970000  0.160240000
     0.222402363  0.778492016  0.299329337
     0.332303674  0.664237015  0.441217378
     0.444260000  0.889970000  0.160240000
     0.553329123  0.777456386  0.298551732
     0.666330376  0.666256064  0.435961455
     0.777600000  0.889970000  0.160240000
     0.888109878  0.778959742  0.298106202
     0.999820000  0.001080000  0.023370000
     0.333150000  0.001080000  0.023370000
     0.666490000  0.001080000  0.023370000
     0.999820000  0.334410000  0.023370000
     0.333150000  0.334410000  0.023370000
     0.666490000  0.334410000  0.023370000
     0.999820000  0.667750000  0.023370000
     0.333150000  0.667750000  0.023370000
     0.666490000  0.667750000  0.023370000
     0.218860115  0.086146677  0.568437977
     0.226413827  0.405420142  0.551880157
     0.210000699  0.044513494  0.635985050

  ion indices of the primitive-cell ions
   primitive index   ion index
                 1           1
                 2           2
                 3           3
                 4           4
                 5           5
                 6           6
                 7           7
                 8           8
                 9           9
                10          10
                11          11
                12          12
                13          13
                14          14
                15          15
                16          16
                17          17
                18          18
                19          19
                20          20
                21          21
                22          22
                23          23
                24          24
                25          25
                26          26
                27          27
                28          28
                29          29
                30          30
                31          31
                32          32
                33          33
                34          34
                35          35
                36          36
                37          37
                38          38
                39          39

----------------------------------------------------------------------------------------

 
 
 KPOINTS: Automatic mesh                          

Automatic generation of k-mesh.
 Grid dimensions read from file:
 generate k-points for:    4    4    1

 Generating k-lattice:

  Cartesian coordinates                     Fractional coordinates (reciprocal lattice)
     0.030084597  0.017369350  0.000000000     0.250000000  0.000000000  0.000000000
     0.000000000  0.034738700  0.000000000     0.000000000  0.250000000  0.000000000
     0.000000000  0.000000000  0.060519864     0.000000000  0.000000000  1.000000000

  Length of vectors
     0.034738700  0.034738700  0.060519864

  Shift w.r.t. Gamma in fractional coordinates (k-lattice)
     0.500000000  0.500000000  0.000000000

 
 Subroutine IBZKPT returns following result:
 ===========================================
 
 Found     24 irreducible k-points:
 
 Following reciprocal coordinates:
            Coordinates               Weight
  0.125000  0.125000  0.000000      2.000000
 -0.125000  0.250000  0.000000      2.000000
 -0.250000  0.125000  0.000000      2.000000
  0.375000  0.125000  0.000000      2.000000
 -0.125000  0.500000  0.000000      2.000000
  0.500000  0.375000  0.000000      2.000000
 -0.375000  0.500000  0.000000      2.000000
  0.125000  0.375000  0.000000      2.000000
  0.500000 -0.125000  0.000000      2.000000
 -0.375000  0.125000  0.000000      2.000000
 -0.125000 -0.250000  0.000000      2.000000
  0.250000 -0.375000  0.000000      2.000000
  0.375000 -0.250000  0.000000      2.000000
  0.125000 -0.375000  0.000000      2.000000
 -0.250000 -0.125000  0.000000      2.000000
 -0.125000  0.125000  0.000000      2.000000
 -0.125000  0.000000  0.000000      2.000000
  0.000000 -0.125000  0.000000      2.000000
  0.375000  0.375000  0.000000      2.000000
 -0.375000 -0.250000  0.000000      2.000000
  0.250000  0.375000  0.000000      2.000000
 -0.375000  0.375000  0.000000      2.000000
 -0.375000  0.000000  0.000000      2.000000
  0.000000 -0.375000  0.000000      2.000000
 
 Following cartesian coordinates:
            Coordinates               Weight
  0.015042  0.026054  0.000000      2.000000
 -0.015042  0.026054  0.000000      2.000000
 -0.030085  0.000000  0.000000      2.000000
  0.045127  0.043423  0.000000      2.000000
 -0.015042  0.060793  0.000000      2.000000
  0.060169  0.086847  0.000000      2.000000
 -0.045127  0.043423  0.000000      2.000000
  0.015042  0.060793  0.000000      2.000000
  0.060169  0.017369  0.000000      2.000000
 -0.045127 -0.008685  0.000000      2.000000
 -0.015042 -0.043423  0.000000      2.000000
  0.030085 -0.034739  0.000000      2.000000
  0.045127 -0.008685  0.000000      2.000000
  0.015042 -0.043423  0.000000      2.000000
 -0.030085 -0.034739  0.000000      2.000000
 -0.015042  0.008685  0.000000      2.000000
 -0.015042 -0.008685  0.000000      2.000000
  0.000000 -0.017369  0.000000      2.000000
  0.045127  0.078162  0.000000      2.000000
 -0.045127 -0.060793  0.000000      2.000000
  0.030085  0.069477  0.000000      2.000000
 -0.045127  0.026054  0.000000      2.000000
 -0.045127 -0.026054  0.000000      2.000000
  0.000000 -0.052108  0.000000      2.000000
 


--------------------------------------------------------------------------------------------------------




 Dimension of arrays:
   k-points           NKPTS =     24   k-points in BZ     NKDIM =     24   number of bands    NBANDS=    228
   number of dos      NEDOS =    301   number of ions     NIONS =     39
   non local maximal  LDIM  =      6   non local SUM 2l+1 LMDIM =     18
   total plane-waves  NPLWV = 128000
   max r-space proj   IRMAX =   1966   max aug-charges    IRDMAX=   6482
   dimension x,y,z NGX =    40 NGY =   40 NGZ =   80
   dimension x,y,z NGXF=    80 NGYF=   80 NGZF=  160
   support grid    NGXF=    80 NGYF=   80 NGZF=  160
   ions per type =              36   1   2
   NGX,Y,Z   is equivalent  to a cutoff of   8.00,  8.00,  8.05 a.u.
   NGXF,Y,Z  is equivalent  to a cutoff of  16.00, 16.00, 16.10 a.u.

 SYSTEM =  PBE-grap                                
 POSCAR =  Pd  C  O                                

 Startparameter for this run:
   NWRITE =      0    write-flag & timer
   PREC   = normal    normal or accurate (medium, high low for compatibility)
   ISTART =      0    job   : 0-new  1-cont  2-samecut
   ICHARG =      2    charge: 1-file 2-atom 10-const
   ISPIN  =      1    spin polarized calculation?
   LNONCOLLINEAR =      F non collinear calculations
   LSORBIT =      F    spin-orbit coupling
   INIWAV =      1    electr: 0-lowe 1-rand  2-diag
   LASPH  =      F    aspherical Exc in radial PAW
 Electronic Relaxation 1
   ENCUT  =  370.0 eV  27.19 Ry    5.21 a.u.  13.03 13.03 25.92*2*pi/ulx,y,z
   ENINI  =  370.0     initial cutoff
   ENAUG  =  644.9 eV  augmentation charge cutoff
   NELM   =    150;   NELMIN=  4; NELMDL= -5     # of ELM steps 
   EDIFF  = 0.1E-04   stopping-criterion for ELM
   LREAL  =      T    real-space projection
   NLSPLINE    = F    spline interpolate recip. space projectors
   LCOMPAT=      F    compatible to vasp.4.4
   GGA_COMPAT  = T    GGA compatible to vasp.4.4-vasp.4.6
   LMAXPAW     = -100 max onsite density
   LMAXMIX     =    2 max onsite mixed and CHGCAR
   VOSKOWN=      0    Vosko Wilk Nusair interpolation
   ROPT   =   -0.00050  -0.00050  -0.00050
 Ionic relaxation
   EDIFFG = -.3E-01   stopping-criterion for IOM
   NSW    =   1000    number of steps for IOM
   NBLOCK =      1;   KBLOCK =   1000    inner block; outer block 
   IBRION =      3    ionic relax: 0-MD 1-quasi-New 2-CG
   NFREE  =      0    steps in history (QN), initial steepest desc. (CG)
   ISIF   =      2    stress and relaxation
   IWAVPR =     11    prediction:  0-non 1-charg 2-wave 3-comb
   ISYM   =      0    0-nonsym 1-usesym 2-fastsym
   LCORR  =      T    Harris-Foulkes like correction to forces

   POTIM  = 0.0000    time-step for ionic-motion
   TEIN   =    0.0    initial temperature
   TEBEG  =    0.0;   TEEND  =   0.0 temperature during run
   SMASS  =  -3.00    Nose mass-parameter (am)
   estimated Nose-frequenzy (Omega)   =  0.10E-29 period in steps = 0.00E+00 mass=  -0.158E-26a.u.
   SCALEE = 1.0000    scale energy and forces
   NPACO  =    256;   APACO  = 10.0  distance and # of slots for P.C.
   PSTRESS=    0.0 pullay stress

  Mass of Ions in am
   POMASS = 106.42 12.01 16.00
  Ionic Valenz
   ZVAL   =  10.00  4.00  6.00
  Atomic Wigner-Seitz radii
   RWIGS  =  -1.00 -1.00 -1.00
  virtual crystal weights 
   VCA    =   1.00  1.00  1.00
   NELECT =     376.0000    total number of electrons
   NUPDOWN=      -1.0000    fix difference up-down

 DOS related values:
   EMIN   =  10.00;   EMAX   =-10.00  energy-range for DOS
   EFERMI =   0.00;   METHOD = LEGACY      
   ISMEAR =     0;   SIGMA  =   0.41  broadening in eV -4-tet -1-fermi 0-gaus
   EFERMI_NEDOS =   21; number of points for ismear=-14 and -15

 Electronic relaxation 2 (details)
   IALGO  =     38    algorithm
   LDIAG  =      T    sub-space diagonalisation (order eigenvalues)
   LSUBROT=      F    optimize rotation matrix (better conditioning)
   LROBUST=      F    robust break criterion during scf (extrapolated energy error)
   ISEARCH=      0    line search for conjugate gradient (0, 1=use gradient)
   TURBO    =      0    0=normal 1=particle mesh
   IRESTART =      0    0=no restart 2=restart with 2 vectors
   NREBOOT  =      0    no. of reboots
   NMIN     =      0    reboot dimension
   EREF     =   0.00    reference energy to select bands
   IMIX   =      4    mixing-type and parameters
     AMIX     =   0.40;   BMIX     =  1.00
     AMIX_MAG =   1.60;   BMIX_MAG =  1.00
     AMIN     =   0.10
     WC   =   100.;   INIMIX=   1;  MIXPRE=   1;  MAXMIX= -45

 Intra band minimization:
   WEIMIN = 0.0010     energy-eigenvalue tresh-hold
   EBREAK =  0.11E-07  absolut break condition
   DEPER  =   0.30     relativ break condition  

   TIME   =   0.40     timestep for ELM

  volume/ion in A,a.u.               =      25.34       170.98
  Fermi-wavevector in a.u.,A,eV,Ry     =   1.186304  2.241790 19.147714  1.407317
  Thomas-Fermi vector in A             =   2.322480
 
 Write flags
   LWAVE        =      F    write WAVECAR
   LDOWNSAMPLE  =      F    k-point downsampling of WAVECAR
   LCHARG       =      F    write CHGCAR
   LVTOT        =      F    write LOCPOT, total local potential
   LVHAR        =      F    write LOCPOT, Hartree potential only
   WRT_POTENTIAL= false  ! write potential to hdf5 file
   LELF         =      F    write electronic localiz. function (ELF)
   LORBIT       =      0    0 simple, 1 ext, 2 COOP (PROOUT), +10 PAW based schemes


 Python interface
   PLUGINS active      =      F    recompile with -DPLUGINS to activate
 
 Dipole corrections
   LMONO      =      F    monopole corrections only (constant potential shift)
   LDIPOL     =      F    correct potential (dipole corrections)
   IDIPOL     =      0    1-x, 2-y, 3-z, 4-all directions 
   EPSILON    =  1.0000000 bulk dielectric constant
   LVACPOTAV  =      F  vacuum potentials using an averaging scheme for the charge density
   VACPOTFLAT =  0.1000000 required flatness to determine vacuum potential
 
Coulomb truncation method
  LTRUNCATE          =      F  Coulomb kernel truncation to be used

 
 Exchange correlation treatment:
   GGA     = PE    functional components
   XC_C    = 1    coefficients multiplying the functional components
   LIBXC   =     F    Libxc                    
   VOSKOWN =     0    Vosko Wilk Nusair interpolation
   LHFCALC =     F    Hartree Fock is set to
   LHFONE  =     F    Hartree Fock one center treatment
   AEXX    =    0.0000 exact exchange contribution

 Parameters of functionals:
   PE:
     No parameter
 
 Van der Waals corrections
   IVDW    =     0    specifies the selected vdW correction

 Linear response parameters
   LEPSILON=     F    determine dielectric tensor
   LRPA    =     F    only Hartree local field effects (RPA)
   LNABLA  =     F    use nabla operator in PAW spheres
   LVEL    =     F    velocity operator in full k-point grid
   CSHIFT  =0.1000    complex shift for real part using Kramers Kronig
   OMEGAMAX=  -1.0    maximum frequency
   DEG_THRESHOLD= 0.2000000E-02 threshold for treating states as degnerate
   RTIME   =   -0.100 relaxation time in fs
  (WPLASMAI=    0.000 imaginary part of plasma frequency in eV, 0.658/RTIME)
   DFIELD  = 0.0000000 0.0000000 0.0000000 field for delta impulse in time
 
  Optional k-point grid parameters
   LKPOINTS_OPT  =     F    use optional k-point grid
   KPOINTS_OPT_MODE=     1    mode for optional k-point grid
 
 Orbital magnetization related:
   ORBITALMAG=     F  switch on orbital magnetization
   LCHIMAG   =     F  perturbation theory with respect to B field
   DQ        =  0.001000  dq finite difference perturbation B field
   LLRAUG    =     F  two centre corrections for induced B field
   LBONE     =     F  B-component reconstruction in AE one-centre
   LVGVCALC  =     T  calculate vGv susceptibility
   LVGVAPPL  =     F  apply vGv susceptibility instead of pGv for G=0

 Random number generation:
   RANDOM_GENERATOR = DEFAULT
   PCG_SEED         = not used


--------------------------------------------------------------------------------------------------------


 quickmin algorithm: (dynamic with friction)
   using selective dynamics as specified on POSCAR
 charge density and potential will be updated during run
 non-spin polarized calculation
 Variant of blocked Davidson
 Davidson routine will perform the subspace rotation
 perform sub-space diagonalisation
    after iterative eigenvector-optimisation
 modified Broyden-mixing scheme, WC =      100.0
 initial mixing is a Kerker type mixing with AMIX =  0.4000 and BMIX =      1.0000
 Hartree-type preconditioning will be used
 using additional bands           40
 real space projection scheme for non local part
 use partial core corrections
 calculate Harris-corrections to forces 
   (improved forces if not selfconsistent)
 use gradient corrections 
 use of overlap-Matrix (Vanderbilt PP)
 Gauss-broadening in eV      SIGMA  =   0.41


--------------------------------------------------------------------------------------------------------


  energy-cutoff  :      370.00
  volume of cell :      988.15
      direct lattice vectors                 reciprocal lattice vectors
     8.309900284  0.000000000  0.000000000     0.120338387  0.069477400  0.000000000
    -4.154950142  7.196584749  0.000000000     0.000000000  0.138954801  0.000000000
     0.000000000  0.000000000 16.523500443     0.000000000  0.000000000  0.060519864

  length of vectors
     8.309900284  8.309900284 16.523500443     0.138954801  0.138954801  0.060519864


 
 k-points in units of 2pi/SCALE and weight: Automatic mesh                          
   0.01504230  0.02605403  0.00000000       0.042
  -0.01504230  0.02605403  0.00000000       0.042
  -0.03008460  0.00000000  0.00000000       0.042
   0.04512690  0.04342338  0.00000000       0.042
  -0.01504230  0.06079273  0.00000000       0.042
   0.06016919  0.08684675  0.00000000       0.042
  -0.04512690  0.04342338  0.00000000       0.042
   0.01504230  0.06079273  0.00000000       0.042
   0.06016919  0.01736935  0.00000000       0.042
  -0.04512690 -0.00868468  0.00000000       0.042
  -0.01504230 -0.04342338  0.00000000       0.042
   0.03008460 -0.03473870  0.00000000       0.042
   0.04512690 -0.00868468  0.00000000       0.042
   0.01504230 -0.04342338  0.00000000       0.042
  -0.03008460 -0.03473870  0.00000000       0.042
  -0.01504230  0.00868468  0.00000000       0.042
  -0.01504230 -0.00868468  0.00000000       0.042
   0.00000000 -0.01736935  0.00000000       0.042
   0.04512690  0.07816208  0.00000000       0.042
  -0.04512690 -0.06079273  0.00000000       0.042
   0.03008460  0.06947740  0.00000000       0.042
  -0.04512690  0.02605403  0.00000000       0.042
  -0.04512690 -0.02605403  0.00000000       0.042
   0.00000000 -0.05210805  0.00000000       0.042
 
 k-points in reciprocal lattice and weights: Automatic mesh                          
   0.12500000  0.12500000  0.00000000       0.042
  -0.12500000  0.25000000  0.00000000       0.042
  -0.25000000  0.12500000  0.00000000       0.042
   0.37500000  0.12500000  0.00000000       0.042
  -0.12500000  0.50000000  0.00000000       0.042
   0.50000000  0.37500000  0.00000000       0.042
  -0.37500000  0.50000000  0.00000000       0.042
   0.12500000  0.37500000  0.00000000       0.042
   0.50000000 -0.12500000  0.00000000       0.042
  -0.37500000  0.12500000  0.00000000       0.042
  -0.12500000 -0.25000000  0.00000000       0.042
   0.25000000 -0.37500000  0.00000000       0.042
   0.37500000 -0.25000000  0.00000000       0.042
   0.12500000 -0.37500000  0.00000000       0.042
  -0.25000000 -0.12500000  0.00000000       0.042
  -0.12500000  0.12500000  0.00000000       0.042
  -0.12500000  0.00000000  0.00000000       0.042
   0.00000000 -0.12500000  0.00000000       0.042
   0.37500000  0.37500000  0.00000000       0.042
  -0.37500000 -0.25000000  0.00000000       0.042
   0.25000000  0.37500000  0.00000000       0.042
  -0.37500000  0.37500000  0.00000000       0.042
  -0.37500000  0.00000000  0.00000000       0.042
   0.00000000 -0.37500000  0.00000000       0.042
 
 position of ions in fractional coordinates (direct lattice) 
   0.99973645  0.99740718  0.44217185
   0.11093000  0.22330000  0.16024000
   0.22206955  0.11304730  0.30041045
   0.33085505  0.00017063  0.44220776
   0.44426000  0.22330000  0.16024000
   0.55317603  0.11037573  0.29842625
   0.66476840  0.99889206  0.43609438
   0.77760000  0.22330000  0.16024000
   0.88875104  0.11175766  0.29982812
   0.99964973  0.33378040  0.44415655
   0.11093000  0.55664000  0.16024000
   0.22113201  0.44361237  0.29977372
   0.32800418  0.33424156  0.45585434
   0.44426000  0.55664000  0.16024000
   0.55159966  0.44298755  0.29990535
   0.66510669  0.33265260  0.43584509
   0.77760000  0.55664000  0.16024000
   0.88793103  0.44334571  0.29866558
   0.99667864  0.66453586  0.43545185
   0.11093000  0.88997000  0.16024000
   0.22240236  0.77849202  0.29932934
   0.33230367  0.66423701  0.44121738
   0.44426000  0.88997000  0.16024000
   0.55332912  0.77745639  0.29855173
   0.66633038  0.66625606  0.43596146
   0.77760000  0.88997000  0.16024000
   0.88810988  0.77895974  0.29810620
   0.99982000  0.00108000  0.02337000
   0.33315000  0.00108000  0.02337000
   0.66649000  0.00108000  0.02337000
   0.99982000  0.33441000  0.02337000
   0.33315000  0.33441000  0.02337000
   0.66649000  0.33441000  0.02337000
   0.99982000  0.66775000  0.02337000
   0.33315000  0.66775000  0.02337000
   0.66649000  0.66775000  0.02337000
   0.21886012  0.08614668  0.56843798
   0.22641383  0.40542014  0.55188016
   0.21000070  0.04451349  0.63598505
 
 position of ions in cartesian coordinates  (Angst):
   4.16353311  7.17792533  7.30622669
  -0.00598313  1.60699737  2.64772571
   1.37566988  0.81355448  4.96383224
   2.74866348  0.00122797  7.30682010
   2.76395593  1.60699737  2.64772571
   4.13823197  0.79432827  4.93104627
   1.37381242  7.18861140  7.20580573
   5.53397809  1.60699737  2.64772571
   6.92108504  0.80427346  4.95421006
   6.92014865  2.40207896  7.33902099
  -1.39099421  4.00590693  2.64772571
  -0.00560235  3.19249400  4.95331119
   1.33692500  2.40539774  7.53230942
   1.37894485  4.00590693  2.64772571
   2.74314702  3.18799743  4.95548616
   4.14481530  2.39396266  7.20168662
   4.14896701  4.00590693  2.64772571
   5.53653903  3.19057498  4.93500091
   5.52118671  4.78238865  7.19518887
  -2.77596374  6.40474453  2.64772571
  -1.38645406  5.60248377  4.94596843
   0.00153872  4.78023797  7.29045554
  -0.00602468  6.40474453  2.64772571
   1.36781732  5.59503077  4.93311967
   2.76887826  4.79476823  7.20360930
   2.76399748  6.40474453  2.64772571
   4.14356563  5.60584980  4.92575795
   8.30391716  0.00777231  0.38615421
   2.76395593  0.00777231  0.38615421
   5.53397809  0.00777231  0.38615421
   6.91894762  2.40660991  0.38615421
   1.37898640  2.40660991  0.38615421
   4.14900856  2.40660991  0.38615421
   5.53393654  4.80551947  0.38615421
  -0.00602468  4.80551947  0.38615421
   2.76399748  4.80551947  0.38615421
   1.46077059  0.61996186  9.39258516
   0.19697585  2.91764041  9.11899202
   1.56013352  0.32034514 10.50869925
 


--------------------------------------------------------------------------------------------------------


 k-point     1 :   0.1250 0.1250 0.0000  plane waves:   15951
 k-point     2 :  -0.1250 0.2500 0.0000  plane waves:   15951
 k-point     3 :  -0.2500 0.1250 0.0000  plane waves:   15951
 k-point     4 :   0.3750 0.1250 0.0000  plane waves:   15982
 k-point     5 :  -0.1250 0.5000 0.0000  plane waves:   15982
 k-point     6 :   0.5000 0.3750 0.0000  plane waves:   15982
 k-point     7 :  -0.3750 0.5000 0.0000  plane waves:   15982
 k-point     8 :   0.1250 0.3750 0.0000  plane waves:   15982
 k-point     9 :   0.5000-0.1250 0.0000  plane waves:   15982
 k-point    10 :  -0.3750 0.1250 0.0000  plane waves:   15967
 k-point    11 :  -0.1250-0.2500 0.0000  plane waves:   15967
 k-point    12 :   0.2500-0.3750 0.0000  plane waves:   15967
 k-point    13 :   0.3750-0.2500 0.0000  plane waves:   15967
 k-point    14 :   0.1250-0.3750 0.0000  plane waves:   15967
 k-point    15 :  -0.2500-0.1250 0.0000  plane waves:   15967
 k-point    16 :  -0.1250 0.1250 0.0000  plane waves:   15947
 k-point    17 :  -0.1250 0.0000 0.0000  plane waves:   15947
 k-point    18 :   0.0000-0.1250 0.0000  plane waves:   15947
 k-point    19 :   0.3750 0.3750 0.0000  plane waves:   16001
 k-point    20 :  -0.3750-0.2500 0.0000  plane waves:   16001
 k-point    21 :   0.2500 0.3750 0.0000  plane waves:   16001
 k-point    22 :  -0.3750 0.3750 0.0000  plane waves:   15956
 k-point    23 :  -0.3750 0.0000 0.0000  plane waves:   15956
 k-point    24 :   0.0000-0.3750 0.0000  plane waves:   15956

 maximum and minimum number of plane-waves per node :      2691     2615

 maximum number of plane-waves:     16001
 maximum index in each direction: 
   IXMAX=   13   IYMAX=   13   IZMAX=   25
   IXMIN=  -13   IYMIN=  -13   IZMIN=  -25


 real space projection operators:
  total allocation   :       9689.14 KBytes
  max/ min on nodes  :       1710.30       1433.98


 parallel 3D FFT for wavefunctions:
    minimum data exchange during FFTs selected (reduces bandwidth)
 parallel 3D FFT for charge:
    minimum data exchange during FFTs selected (reduces bandwidth)


 total amount of memory used by VASP MPI-rank0   101482. kBytes
=======================================================================

   base                                    :      30000. kBytes
   nonlr-proj                              :       3355. kBytes
   fftplans                                :       2350. kBytes
   grid                                    :       4208. kBytes
   one-center                              :        108. kBytes
   wavefun                                 :      61461. kBytes
 
     INWAV:  cpu time      0.0000: real time      0.0000
 Broyden mixing: mesh for mixing (old mesh)
   NGX = 27   NGY = 27   NGZ = 51
  (NGX  = 80   NGY  = 80   NGZ  =160)
  gives a total of  37179 points

 initial charge density was supplied:
 charge density of overlapping atoms calculated
 number of electron     376.0000000 magnetization 
 keeping initial charge density in first step


--------------------------------------------------------------------------------------------------------


 Maximum index for non-local projection operator          384
 Maximum index for augmentation-charges          591 (set IRDMAX)


--------------------------------------------------------------------------------------------------------


 First call to EWALD:  gamma=   0.178
 Maximum number of real-space cells   4x   4x   2
 Maximum number of reciprocal cells   2x   2x   4

    FEWALD:  cpu time      0.5996: real time      0.6070


--------------------------------------- Ionic step        1  -------------------------------------------




--------------------------------------- Iteration      1(   1)  ---------------------------------------


    POTLOK:  cpu time      0.0516: real time      0.0519
    SETDIJ:  cpu time      0.0257: real time      0.0259
     EDDAV:  cpu time     13.5737: real time     13.6599
       DOS:  cpu time      0.0371: real time      0.0380
    --------------------------------------------
      LOOP:  cpu time     13.6881: real time     13.7757

 eigenvalue-minimisations  : 10952
 total energy-change (2. order) : 0.2100303E+04  (-0.1521461E+05)
 number of electron     376.0000000 magnetization 
 augmentation part      376.0000000 magnetization 

 Free energy of the ion-electron system (eV)
  ---------------------------------------------------
  alpha Z        PSCENC =       918.22725072
  Ewald energy   TEWEN  =     21994.85148274
  -Hartree energ DENC   =    -54655.85582495
  -exchange      EXHF   =         0.00000000
  -V(xc)+E(xc)   XCENC  =      -994.33962266
  PAW double counting   =     29844.20032359   -27608.36462881
  entropy T*S    EENTRO =        -1.24855812
  eigenvalues    EBANDS =      2440.96920648
  atomic energy  EATOM  =     30161.86332653
  Solvation  Ediel_sol  =         0.00000000
  ---------------------------------------------------
  free energy    TOTEN  =      2100.30295553 eV

  energy without entropy =     2101.55151365  energy(sigma->0) =     2100.92723459


--------------------------------------------------------------------------------------------------------




--------------------------------------- Iteration      1(   2)  ---------------------------------------


     EDDAV:  cpu time     14.3324: real time     14.4255
       DOS:  cpu time      0.0314: real time      0.0323
    --------------------------------------------
      LOOP:  cpu time     14.3639: real time     14.4578

 eigenvalue-minimisations  : 11900
 total energy-change (2. order) :-0.2191336E+04  (-0.2063406E+04)
 number of electron     376.0000000 magnetization 
 augmentation part      376.0000000 magnetization 

 Free energy of the ion-electron system (eV)
  ---------------------------------------------------
  alpha Z        PSCENC =       918.22725072
  Ewald energy   TEWEN  =     21994.85148274
  -Hartree energ DENC   =    -54655.85582495
  -exchange      EXHF   =         0.00000000
  -V(xc)+E(xc)   XCENC  =      -994.33962266
  PAW double counting   =     29844.20032359   -27608.36462881
  entropy T*S    EENTRO =        -3.45655517
  eigenvalues    EBANDS =       251.84122654
  atomic energy  EATOM  =     30161.86332653
  Solvation  Ediel_sol  =         0.00000000
  ---------------------------------------------------
  free energy    TOTEN  =       -91.03302147 eV

  energy without entropy =      -87.57646630  energy(sigma->0) =      -89.30474389


--------------------------------------------------------------------------------------------------------




--------------------------------------- Iteration      1(   3)  ---------------------------------------


     EDDAV:  cpu time     14.9840: real time     15.0789
       DOS:  cpu time      0.0311: real time      0.0319
    --------------------------------------------
      LOOP:  cpu time     15.0151: real time     15.1108

 eigenvalue-minimisations  : 12320
 total energy-change (2. order) :-0.1174807E+03  (-0.1060229E+03)
 number of electron     376.0000000 magnetization 
 augmentation part      376.0000000 magnetization 

 Free energy of the ion-electron system (eV)
  ---------------------------------------------------
  alpha Z        PSCENC =       918.22725072
  Ewald energy   TEWEN  =     21994.85148274
  -Hartree energ DENC   =    -54655.85582495
  -exchange      EXHF   =         0.00000000
  -V(xc)+E(xc)   XCENC  =      -994.33962266
  PAW double counting   =     29844.20032359   -27608.36462881
  entropy T*S    EENTRO =        -5.31192135
  eigenvalues    EBANDS =       136.21585900
  atomic energy  EATOM  =     30161.86332653
  Solvation  Ediel_sol  =         0.00000000
  ---------------------------------------------------
  free energy    TOTEN  =      -208.51375519 eV

  energy without entropy =     -203.20183384  energy(sigma->0) =     -205.85779451


--------------------------------------------------------------------------------------------------------




--------------------------------------- Iteration      1(   4)  ---------------------------------------


     EDDAV:  cpu time     15.4718: real time     15.5638
       DOS:  cpu time      0.0316: real time      0.0324
    --------------------------------------------
      LOOP:  cpu time     15.5034: real time     15.5962

 eigenvalue-minimisations  : 12720
 total energy-change (2. order) :-0.4004799E+01  (-0.3910497E+01)
 number of electron     376.0000000 magnetization 
 augmentation part      376.0000000 magnetization 

 Free energy of the ion-electron system (eV)
  ---------------------------------------------------
  alpha Z        PSCENC =       918.22725072
  Ewald energy   TEWEN  =     21994.85148274
  -Hartree energ DENC   =    -54655.85582495
  -exchange      EXHF   =         0.00000000
  -V(xc)+E(xc)   XCENC  =      -994.33962266
  PAW double counting   =     29844.20032359   -27608.36462881
  entropy T*S    EENTRO =        -5.37474466
  eigenvalues    EBANDS =       132.27388345
  atomic energy  EATOM  =     30161.86332653
  Solvation  Ediel_sol  =         0.00000000
  ---------------------------------------------------
  free energy    TOTEN  =      -212.51855404 eV

  energy without entropy =     -207.14380938  energy(sigma->0) =     -209.83118171


--------------------------------------------------------------------------------------------------------




--------------------------------------- Iteration      1(   5)  ---------------------------------------


     EDDAV:  cpu time     15.6746: real time     15.7674
       DOS:  cpu time      0.0311: real time      0.0319
    CHARGE:  cpu time      0.2731: real time      0.2755
    MIXING:  cpu time      0.0876: real time      0.0898
    --------------------------------------------
      LOOP:  cpu time     16.0665: real time     16.1646

 eigenvalue-minimisations  : 13024
 total energy-change (2. order) :-0.1284772E+00  (-0.1282532E+00)
 number of electron     376.0000024 magnetization 
 augmentation part      146.3584157 magnetization 

 Broyden mixing:
  rms(total) = 0.40477E+01    rms(broyden)= 0.40471E+01
  rms(prec ) = 0.42370E+01
  weight for this iteration     100.00

 Free energy of the ion-electron system (eV)
  ---------------------------------------------------
  alpha Z        PSCENC =       918.22725072
  Ewald energy   TEWEN  =     21994.85148274
  -Hartree energ DENC   =    -54655.85582495
  -exchange      EXHF   =         0.00000000
  -V(xc)+E(xc)   XCENC  =      -994.33962266
  PAW double counting   =     29844.20032359   -27608.36462881
  entropy T*S    EENTRO =        -5.37584955
  eigenvalues    EBANDS =       132.14651113
  atomic energy  EATOM  =     30161.86332653
  Solvation  Ediel_sol  =         0.00000000
  ---------------------------------------------------
  free energy    TOTEN  =      -212.64703126 eV

  energy without entropy =     -207.27118171  energy(sigma->0) =     -209.95910648


--------------------------------------------------------------------------------------------------------




--------------------------------------- Iteration      1(   6)  ---------------------------------------


    POTLOK:  cpu time      0.0505: real time      0.0531
    SETDIJ:  cpu time      0.0201: real time      0.0202
     EDDAV:  cpu time     15.5263: real time     15.6176
       DOS:  cpu time      0.0315: real time      0.0323
    CHARGE:  cpu time      0.2701: real time      0.2725
    MIXING:  cpu time      0.0880: real time      0.0901
    --------------------------------------------
      LOOP:  cpu time     15.9864: real time     16.0858

 eigenvalue-minimisations  : 12792
 total energy-change (2. order) : 0.4599532E+01  (-0.4182995E+01)
 number of electron     376.0000024 magnetization 
 augmentation part      153.9313935 magnetization 

 Broyden mixing:
  rms(total) = 0.32308E+01    rms(broyden)= 0.32299E+01
  rms(prec ) = 0.37502E+01
  weight for this iteration     100.00

 eigenvalues of (default mixing * dielectric matrix)
  average eigenvalue GAMMA=   0.6982
  0.6982

 Free energy of the ion-electron system (eV)
  ---------------------------------------------------
  alpha Z        PSCENC =       918.22725072
  Ewald energy   TEWEN  =     21994.85148274
  -Hartree energ DENC   =    -54445.49399099
  -exchange      EXHF   =         0.00000000
  -V(xc)+E(xc)   XCENC  =      -999.76248539
  PAW double counting   =     31888.48740609   -29696.74189824
  entropy T*S    EENTRO =        -4.52802880
  eigenvalues    EBANDS =       -24.95056224
  atomic energy  EATOM  =     30161.86332653
  Solvation  Ediel_sol  =         0.00000000
  ---------------------------------------------------
  free energy    TOTEN  =      -208.04749959 eV

  energy without entropy =     -203.51947079  energy(sigma->0) =     -205.78348519


--------------------------------------------------------------------------------------------------------




--------------------------------------- Iteration      1(   7)  ---------------------------------------


    POTLOK:  cpu time      0.0500: real time      0.0503
    SETDIJ:  cpu time      0.0198: real time      0.0199
     EDDAV:  cpu time     17.0923: real time     17.1964
       DOS:  cpu time      0.0310: real time      0.0318
    CHARGE:  cpu time      0.2705: real time      0.2730
    MIXING:  cpu time      0.0875: real time      0.0896
    --------------------------------------------
      LOOP:  cpu time     17.5511: real time     17.6610

 eigenvalue-minimisations  : 14368
 total energy-change (2. order) :-0.1094354E+01  (-0.3181439E+01)
 number of electron     376.0000020 magnetization 
 augmentation part      151.7023009 magnetization 

 Broyden mixing:
  rms(total) = 0.22707E+01    rms(broyden)= 0.22694E+01
  rms(prec ) = 0.26712E+01
  weight for this iteration     100.00

 eigenvalues of (default mixing * dielectric matrix)
  average eigenvalue GAMMA=   0.9391
  1.5178  0.3604

 Free energy of the ion-electron system (eV)
  ---------------------------------------------------
  alpha Z        PSCENC =       918.22725072
  Ewald energy   TEWEN  =     21994.85148274
  -Hartree energ DENC   =    -54536.83349284
  -exchange      EXHF   =         0.00000000
  -V(xc)+E(xc)   XCENC  =     -1001.51200008
  PAW double counting   =     32716.71818089   -30531.84045123
  entropy T*S    EENTRO =        -5.29881236
  eigenvalues    EBANDS =        74.68266161
  atomic energy  EATOM  =     30161.86332653
  Solvation  Ediel_sol  =         0.00000000
  ---------------------------------------------------
  free energy    TOTEN  =      -209.14185401 eV

  energy without entropy =     -203.84304165  energy(sigma->0) =     -206.49244783


--------------------------------------------------------------------------------------------------------




--------------------------------------- Iteration      1(   8)  ---------------------------------------


    POTLOK:  cpu time      0.0501: real time      0.0522
    SETDIJ:  cpu time      0.0197: real time      0.0199
     EDDAV:  cpu time     14.1877: real time     14.2715
       DOS:  cpu time      0.0317: real time      0.0325
    CHARGE:  cpu time      0.2703: real time      0.2727
    MIXING:  cpu time      0.0865: real time      0.0885
    --------------------------------------------
      LOOP:  cpu time     14.6458: real time     14.7372

 eigenvalue-minimisations  : 11456
 total energy-change (2. order) :-0.8605042E+01  (-0.1986388E+01)
 number of electron     376.0000041 magnetization 
 augmentation part      152.4202262 magnetization 

 Broyden mixing:
  rms(total) = 0.43233E+01    rms(broyden)= 0.43232E+01
  rms(prec ) = 0.64262E+01
  weight for this iteration     100.00

 eigenvalues of (default mixing * dielectric matrix)
  average eigenvalue GAMMA=   0.7686
  1.7821  0.3372  0.1866

 Free energy of the ion-electron system (eV)
  ---------------------------------------------------
  alpha Z        PSCENC =       918.22725072
  Ewald energy   TEWEN  =     21994.85148274
  -Hartree energ DENC   =    -54493.77740027
  -exchange      EXHF   =         0.00000000
  -V(xc)+E(xc)   XCENC  =     -1001.42197795
  PAW double counting   =     33935.42903369   -31765.64783468
  entropy T*S    EENTRO =        -3.24280175
  eigenvalues    EBANDS =        35.97202479
  atomic energy  EATOM  =     30161.86332653
  Solvation  Ediel_sol  =         0.00000000
  ---------------------------------------------------
  free energy    TOTEN  =      -217.74689618 eV

  energy without entropy =     -214.50409443  energy(sigma->0) =     -216.12549530


--------------------------------------------------------------------------------------------------------




--------------------------------------- Iteration      1(   9)  ---------------------------------------


    POTLOK:  cpu time      0.0497: real time      0.0499
    SETDIJ:  cpu time      0.0201: real time      0.0202
     EDDAV:  cpu time     14.2710: real time     14.3560
       DOS:  cpu time      0.0320: real time      0.0328
    CHARGE:  cpu time      0.2707: real time      0.2731
    MIXING:  cpu time      0.0863: real time      0.0884
    --------------------------------------------
      LOOP:  cpu time     14.7298: real time     14.8205

 eigenvalue-minimisations  : 11580
 total energy-change (2. order) : 0.8987984E+01  (-0.3004166E+01)
 number of electron     376.0000015 magnetization 
 augmentation part      152.1181902 magnetization 

 Broyden mixing:
  rms(total) = 0.23602E+01    rms(broyden)= 0.23599E+01
  rms(prec ) = 0.42316E+01
  weight for this iteration     100.00

 eigenvalues of (default mixing * dielectric matrix)
  average eigenvalue GAMMA=   0.6700
  1.8809  0.3434  0.3434  0.1122

 Free energy of the ion-electron system (eV)
  ---------------------------------------------------
  alpha Z        PSCENC =       918.22725072
  Ewald energy   TEWEN  =     21994.85148274
  -Hartree energ DENC   =    -54527.30440121
  -exchange      EXHF   =         0.00000000
  -V(xc)+E(xc)   XCENC  =     -1001.47113362
  PAW double counting   =     34391.67177718   -32227.44044959
  entropy T*S    EENTRO =        -4.60048934
  eigenvalues    EBANDS =        85.44372412
  atomic energy  EATOM  =     30161.86332653
  Solvation  Ediel_sol  =         0.00000000
  ---------------------------------------------------
  free energy    TOTEN  =      -208.75891247 eV

  energy without entropy =     -204.15842313  energy(sigma->0) =     -206.45866780


--------------------------------------------------------------------------------------------------------




--------------------------------------- Iteration      1(  10)  ---------------------------------------


    POTLOK:  cpu time      0.0498: real time      0.0514
    SETDIJ:  cpu time      0.0198: real time      0.0199
     EDDAV:  cpu time     14.6048: real time     14.6915
       DOS:  cpu time      0.0320: real time      0.0328
    CHARGE:  cpu time      0.2705: real time      0.2729
    MIXING:  cpu time      0.0877: real time      0.0898
    --------------------------------------------
      LOOP:  cpu time     15.0645: real time     15.1582

 eigenvalue-minimisations  : 11920
 total energy-change (2. order) : 0.4182784E+01  (-0.8807961E+00)
 number of electron     376.0000022 magnetization 
 augmentation part      152.1529902 magnetization 

 Broyden mixing:
  rms(total) = 0.14032E+01    rms(broyden)= 0.14029E+01
  rms(prec ) = 0.20617E+01
  weight for this iteration     100.00

 eigenvalues of (default mixing * dielectric matrix)
  average eigenvalue GAMMA=   0.7435
  2.1970  0.8342  0.4274  0.1666  0.0924

 Free energy of the ion-electron system (eV)
  ---------------------------------------------------
  alpha Z        PSCENC =       918.22725072
  Ewald energy   TEWEN  =     21994.85148274
  -Hartree energ DENC   =    -54553.16514157
  -exchange      EXHF   =         0.00000000
  -V(xc)+E(xc)   XCENC  =     -1001.46334332
  PAW double counting   =     34584.74101399   -32422.92327612
  entropy T*S    EENTRO =        -5.14294561
  eigenvalues    EBANDS =       118.43550435
  atomic energy  EATOM  =     30161.86332653
  Solvation  Ediel_sol  =         0.00000000
  ---------------------------------------------------
  free energy    TOTEN  =      -204.57612829 eV

  energy without entropy =     -199.43318268  energy(sigma->0) =     -202.00465549


--------------------------------------------------------------------------------------------------------




--------------------------------------- Iteration      1(  11)  ---------------------------------------


    POTLOK:  cpu time      0.0499: real time      0.0501
    SETDIJ:  cpu time      0.0195: real time      0.0197
     EDDAV:  cpu time     19.2486: real time     19.3620
       DOS:  cpu time      0.0317: real time      0.0325
    CHARGE:  cpu time      0.2694: real time      0.2717
    MIXING:  cpu time      0.0872: real time      0.0892
    --------------------------------------------
      LOOP:  cpu time     19.7063: real time     19.8253

 eigenvalue-minimisations  : 16776
 total energy-change (2. order) : 0.2845764E+01  (-0.5611160E+00)
 number of electron     376.0000027 magnetization 
 augmentation part      152.6854912 magnetization 

 Broyden mixing:
  rms(total) = 0.82154E+00    rms(broyden)= 0.82077E+00
  rms(prec ) = 0.10232E+01
  weight for this iteration     100.00

 eigenvalues of (default mixing * dielectric matrix)
  average eigenvalue GAMMA=   0.6631
  2.2091  0.8027  0.3982  0.3184  0.1565  0.0938

 Free energy of the ion-electron system (eV)
  ---------------------------------------------------
  alpha Z        PSCENC =       918.22725072
  Ewald energy   TEWEN  =     21994.85148274
  -Hartree energ DENC   =    -54531.77935600
  -exchange      EXHF   =         0.00000000
  -V(xc)+E(xc)   XCENC  =     -1000.94535191
  PAW double counting   =     35082.48292755   -32926.61185059
  entropy T*S    EENTRO =        -5.13577019
  eigenvalues    EBANDS =       105.31697715
  atomic energy  EATOM  =     30161.86332653
  Solvation  Ediel_sol  =         0.00000000
  ---------------------------------------------------
  free energy    TOTEN  =      -201.73036400 eV

  energy without entropy =     -196.59459381  energy(sigma->0) =     -199.16247891


--------------------------------------------------------------------------------------------------------




--------------------------------------- Iteration      1(  12)  ---------------------------------------


    POTLOK:  cpu time      0.0497: real time      0.0517
    SETDIJ:  cpu time      0.0199: real time      0.0200
     EDDAV:  cpu time     13.8820: real time     13.9636
       DOS:  cpu time      0.0306: real time      0.0314
    CHARGE:  cpu time      0.2695: real time      0.2718
    MIXING:  cpu time      0.0871: real time      0.0893
    --------------------------------------------
      LOOP:  cpu time     14.3388: real time     14.4278

 eigenvalue-minimisations  : 11324
 total energy-change (2. order) : 0.4318640E+00  (-0.2597324E+00)
 number of electron     376.0000026 magnetization 
 augmentation part      152.7167966 magnetization 

 Broyden mixing:
  rms(total) = 0.41753E+00    rms(broyden)= 0.41733E+00
  rms(prec ) = 0.46423E+00
  weight for this iteration     100.00

 eigenvalues of (default mixing * dielectric matrix)
  average eigenvalue GAMMA=   0.6453
  2.2072  0.6789  0.6789  0.4766  0.2100  0.1729  0.0929

 Free energy of the ion-electron system (eV)
  ---------------------------------------------------
  alpha Z        PSCENC =       918.22725072
  Ewald energy   TEWEN  =     21994.85148274
  -Hartree energ DENC   =    -54525.32386284
  -exchange      EXHF   =         0.00000000
  -V(xc)+E(xc)   XCENC  =     -1000.94635954
  PAW double counting   =     35126.52330541   -32971.03880160
  entropy T*S    EENTRO =        -5.24328140
  eigenvalues    EBANDS =        99.78844000
  atomic energy  EATOM  =     30161.86332653
  Solvation  Ediel_sol  =         0.00000000
  ---------------------------------------------------
  free energy    TOTEN  =      -201.29850000 eV

  energy without entropy =     -196.05521860  energy(sigma->0) =     -198.67685930


--------------------------------------------------------------------------------------------------------




--------------------------------------- Iteration      1(  13)  ---------------------------------------


    POTLOK:  cpu time      0.0499: real time      0.0502
    SETDIJ:  cpu time      0.0199: real time      0.0200
     EDDAV:  cpu time     13.9023: real time     13.9841
       DOS:  cpu time      0.0320: real time      0.0329
    CHARGE:  cpu time      0.2703: real time      0.2728
    MIXING:  cpu time      0.0875: real time      0.0895
    --------------------------------------------
      LOOP:  cpu time     14.3618: real time     14.4495

 eigenvalue-minimisations  : 11380
 total energy-change (2. order) : 0.8131746E-01  (-0.3465123E-01)
 number of electron     376.0000025 magnetization 
 augmentation part      152.6642191 magnetization 

 Broyden mixing:
  rms(total) = 0.30808E+00    rms(broyden)= 0.30806E+00
  rms(prec ) = 0.34529E+00
  weight for this iteration     100.00

 eigenvalues of (default mixing * dielectric matrix)
  average eigenvalue GAMMA=   0.6572
  2.1827  0.9012  0.9012  0.4281  0.3672  0.0930  0.1643  0.2197

 Free energy of the ion-electron system (eV)
  ---------------------------------------------------
  alpha Z        PSCENC =       918.22725072
  Ewald energy   TEWEN  =     21994.85148274
  -Hartree energ DENC   =    -54526.80018186
  -exchange      EXHF   =         0.00000000
  -V(xc)+E(xc)   XCENC  =     -1001.05037047
  PAW double counting   =     35139.18795534   -32983.73979126
  entropy T*S    EENTRO =        -5.27065694
  eigenvalues    EBANDS =       101.51380265
  atomic energy  EATOM  =     30161.86332653
  Solvation  Ediel_sol  =         0.00000000
  ---------------------------------------------------
  free energy    TOTEN  =      -201.21718254 eV

  energy without entropy =     -195.94652561  energy(sigma->0) =     -198.58185407


--------------------------------------------------------------------------------------------------------




--------------------------------------- Iteration      1(  14)  ---------------------------------------


    POTLOK:  cpu time      0.0500: real time      0.0515
    SETDIJ:  cpu time      0.0200: real time      0.0201
     EDDAV:  cpu time     13.7332: real time     13.8130
       DOS:  cpu time      0.0338: real time      0.0347
    CHARGE:  cpu time      0.2688: real time      0.2712
    MIXING:  cpu time      0.0877: real time      0.0898
    --------------------------------------------
      LOOP:  cpu time     14.1934: real time     14.2802

 eigenvalue-minimisations  : 11168
 total energy-change (2. order) : 0.2079341E-01  (-0.2663830E-01)
 number of electron     376.0000026 magnetization 
 augmentation part      152.6312079 magnetization 

 Broyden mixing:
  rms(total) = 0.23509E+00    rms(broyden)= 0.23503E+00
  rms(prec ) = 0.28531E+00
  weight for this iteration     100.00

 eigenvalues of (default mixing * dielectric matrix)
  average eigenvalue GAMMA=   0.7575
  2.1012  1.4315  1.4315  0.6248  0.4763  0.0930  0.2789  0.1666  0.2136

 Free energy of the ion-electron system (eV)
  ---------------------------------------------------
  alpha Z        PSCENC =       918.22725072
  Ewald energy   TEWEN  =     21994.85148274
  -Hartree energ DENC   =    -54526.84222833
  -exchange      EXHF   =         0.00000000
  -V(xc)+E(xc)   XCENC  =     -1001.11945813
  PAW double counting   =     35132.98384715   -32977.41245123
  entropy T*S    EENTRO =        -5.29703888
  eigenvalues    EBANDS =       101.54888031
  atomic energy  EATOM  =     30161.86332653
  Solvation  Ediel_sol  =         0.00000000
  ---------------------------------------------------
  free energy    TOTEN  =      -201.19638914 eV

  energy without entropy =     -195.89935025  energy(sigma->0) =     -198.54786969


--------------------------------------------------------------------------------------------------------




--------------------------------------- Iteration      1(  15)  ---------------------------------------


    POTLOK:  cpu time      0.0496: real time      0.0499
    SETDIJ:  cpu time      0.0202: real time      0.0203
     EDDAV:  cpu time     13.9566: real time     14.0402
       DOS:  cpu time      0.0347: real time      0.0356
    CHARGE:  cpu time      0.2698: real time      0.2722
    MIXING:  cpu time      0.0879: real time      0.0901
    --------------------------------------------
      LOOP:  cpu time     14.4188: real time     14.5083

 eigenvalue-minimisations  : 11416
 total energy-change (2. order) : 0.7331828E-02  (-0.2098872E-01)
 number of electron     376.0000026 magnetization 
 augmentation part      152.6517237 magnetization 

 Broyden mixing:
  rms(total) = 0.23652E+00    rms(broyden)= 0.23646E+00
  rms(prec ) = 0.29306E+00
  weight for this iteration     100.00

 eigenvalues of (default mixing * dielectric matrix)
  average eigenvalue GAMMA=   0.7737
  2.1692  2.1692  1.1821  0.6567  0.4714  0.3469  0.0930  0.2767  0.1666  0.2050

 Free energy of the ion-electron system (eV)
  ---------------------------------------------------
  alpha Z        PSCENC =       918.22725072
  Ewald energy   TEWEN  =     21994.85148274
  -Hartree energ DENC   =    -54532.74595844
  -exchange      EXHF   =         0.00000000
  -V(xc)+E(xc)   XCENC  =     -1001.06028195
  PAW double counting   =     35137.68015926   -32982.18408659
  entropy T*S    EENTRO =        -5.26538391
  eigenvalues    EBANDS =       107.44443434
  atomic energy  EATOM  =     30161.86332653
  Solvation  Ediel_sol  =         0.00000000
  ---------------------------------------------------
  free energy    TOTEN  =      -201.18905731 eV

  energy without entropy =     -195.92367340  energy(sigma->0) =     -198.55636535


--------------------------------------------------------------------------------------------------------




--------------------------------------- Iteration      1(  16)  ---------------------------------------


    POTLOK:  cpu time      0.0497: real time      0.0499
    SETDIJ:  cpu time      0.0199: real time      0.0200
     EDDAV:  cpu time     13.8912: real time     13.9740
       DOS:  cpu time      0.0347: real time      0.0356
    CHARGE:  cpu time      0.2694: real time      0.2718
    MIXING:  cpu time      0.0882: real time      0.0903
    --------------------------------------------
      LOOP:  cpu time     14.3531: real time     14.4416

 eigenvalue-minimisations  : 11352
 total energy-change (2. order) : 0.3672939E-01  (-0.1210823E-01)
 number of electron     376.0000026 magnetization 
 augmentation part      152.6591481 magnetization 

 Broyden mixing:
  rms(total) = 0.13647E+00    rms(broyden)= 0.13644E+00
  rms(prec ) = 0.19051E+00
  weight for this iteration     100.00

 eigenvalues of (default mixing * dielectric matrix)
  average eigenvalue GAMMA=   0.7571
  2.1392  2.1392  1.1925  0.6948  0.6948  0.4572  0.0930  0.3044  0.1665  0.2090
  0.2377

 Free energy of the ion-electron system (eV)
  ---------------------------------------------------
  alpha Z        PSCENC =       918.22725072
  Ewald energy   TEWEN  =     21994.85148274
  -Hartree energ DENC   =    -54534.83763683
  -exchange      EXHF   =         0.00000000
  -V(xc)+E(xc)   XCENC  =     -1001.03606340
  PAW double counting   =     35145.04624301   -32989.65716854
  entropy T*S    EENTRO =        -5.27205713
  eigenvalues    EBANDS =       109.66229499
  atomic energy  EATOM  =     30161.86332653
  Solvation  Ediel_sol  =         0.00000000
  ---------------------------------------------------
  free energy    TOTEN  =      -201.15232792 eV

  energy without entropy =     -195.88027078  energy(sigma->0) =     -198.51629935


--------------------------------------------------------------------------------------------------------




--------------------------------------- Iteration      1(  17)  ---------------------------------------


    POTLOK:  cpu time      0.0500: real time      0.0513
    SETDIJ:  cpu time      0.0204: real time      0.0206
     EDDAV:  cpu time     13.8149: real time     13.8956
       DOS:  cpu time      0.0348: real time      0.0357
    CHARGE:  cpu time      0.2692: real time      0.2717
    MIXING:  cpu time      0.0889: real time      0.0910
    --------------------------------------------
      LOOP:  cpu time     14.2782: real time     14.3658

 eigenvalue-minimisations  : 11316
 total energy-change (2. order) : 0.8481818E-02  (-0.4046141E-02)
 number of electron     376.0000026 magnetization 
 augmentation part      152.6248758 magnetization 

 Broyden mixing:
  rms(total) = 0.94686E-01    rms(broyden)= 0.94653E-01
  rms(prec ) = 0.11657E+00
  weight for this iteration     100.00

 eigenvalues of (default mixing * dielectric matrix)
  average eigenvalue GAMMA=   0.7265
  2.2780  1.5115  1.5115  0.8364  0.8364  0.4438  0.0930  0.3189  0.1666  0.2820
  0.2072  0.2324

 Free energy of the ion-electron system (eV)
  ---------------------------------------------------
  alpha Z        PSCENC =       918.22725072
  Ewald energy   TEWEN  =     21994.85148274
  -Hartree energ DENC   =    -54537.73238245
  -exchange      EXHF   =         0.00000000
  -V(xc)+E(xc)   XCENC  =     -1001.05283909
  PAW double counting   =     35158.12315870   -33002.88627185
  entropy T*S    EENTRO =        -5.29518143
  eigenvalues    EBANDS =       112.75761005
  atomic energy  EATOM  =     30161.86332653
  Solvation  Ediel_sol  =         0.00000000
  ---------------------------------------------------
  free energy    TOTEN  =      -201.14384610 eV

  energy without entropy =     -195.84866467  energy(sigma->0) =     -198.49625538


--------------------------------------------------------------------------------------------------------




--------------------------------------- Iteration      1(  18)  ---------------------------------------


    POTLOK:  cpu time      0.0497: real time      0.0500
    SETDIJ:  cpu time      0.0193: real time      0.0195
     EDDAV:  cpu time     13.7164: real time     13.7955
       DOS:  cpu time      0.0342: real time      0.0350
    CHARGE:  cpu time      0.2697: real time      0.2720
    MIXING:  cpu time      0.0891: real time      0.0912
    --------------------------------------------
      LOOP:  cpu time     14.1784: real time     14.2633

 eigenvalue-minimisations  : 11256
 total energy-change (2. order) : 0.7625304E-02  (-0.1283652E-02)
 number of electron     376.0000025 magnetization 
 augmentation part      152.6318381 magnetization 

 Broyden mixing:
  rms(total) = 0.63025E-01    rms(broyden)= 0.63015E-01
  rms(prec ) = 0.74962E-01
  weight for this iteration     100.00

 eigenvalues of (default mixing * dielectric matrix)
  average eigenvalue GAMMA=   0.7334
  2.4399  1.2435  1.2435  1.1552  1.1552  0.5158  0.5158  0.0930  0.3196  0.1666
  0.2581  0.2059  0.2228

 Free energy of the ion-electron system (eV)
  ---------------------------------------------------
  alpha Z        PSCENC =       918.22725072
  Ewald energy   TEWEN  =     21994.85148274
  -Hartree energ DENC   =    -54538.64016698
  -exchange      EXHF   =         0.00000000
  -V(xc)+E(xc)   XCENC  =     -1001.04476692
  PAW double counting   =     35167.32447478   -33012.20742758
  entropy T*S    EENTRO =        -5.29799272
  eigenvalues    EBANDS =       113.78759864
  atomic energy  EATOM  =     30161.86332653
  Solvation  Ediel_sol  =         0.00000000
  ---------------------------------------------------
  free energy    TOTEN  =      -201.13622079 eV

  energy without entropy =     -195.83822808  energy(sigma->0) =     -198.48722444


--------------------------------------------------------------------------------------------------------




--------------------------------------- Iteration      1(  19)  ---------------------------------------


    POTLOK:  cpu time      0.0497: real time      0.0508
    SETDIJ:  cpu time      0.0200: real time      0.0201
     EDDAV:  cpu time     18.2728: real time     18.3814
       DOS:  cpu time      0.0348: real time      0.0357
    CHARGE:  cpu time      0.2697: real time      0.2720
    MIXING:  cpu time      0.0895: real time      0.0916
    --------------------------------------------
      LOOP:  cpu time     18.7365: real time     18.8518

 eigenvalue-minimisations  : 16228
 total energy-change (2. order) : 0.2918584E-02  (-0.1005443E-02)
 number of electron     376.0000026 magnetization 
 augmentation part      152.6526245 magnetization 

 Broyden mixing:
  rms(total) = 0.32634E-01    rms(broyden)= 0.32600E-01
  rms(prec ) = 0.43149E-01
  weight for this iteration     100.00

 eigenvalues of (default mixing * dielectric matrix)
  average eigenvalue GAMMA=   0.7368
  2.4934  1.4659  1.4659  1.2448  0.9715  0.6566  0.4698  0.0930  0.3241  0.1666
  0.2799  0.2590  0.2063  0.2185

 Free energy of the ion-electron system (eV)
  ---------------------------------------------------
  alpha Z        PSCENC =       918.22725072
  Ewald energy   TEWEN  =     21994.85148274
  -Hartree energ DENC   =    -54540.61587345
  -exchange      EXHF   =         0.00000000
  -V(xc)+E(xc)   XCENC  =     -1001.01213127
  PAW double counting   =     35176.68076757   -33021.69854734
  entropy T*S    EENTRO =        -5.28473896
  eigenvalues    EBANDS =       115.85516125
  atomic energy  EATOM  =     30161.86332653
  Solvation  Ediel_sol  =         0.00000000
  ---------------------------------------------------
  free energy    TOTEN  =      -201.13330221 eV

  energy without entropy =     -195.84856325  energy(sigma->0) =     -198.49093273


--------------------------------------------------------------------------------------------------------




--------------------------------------- Iteration      1(  20)  ---------------------------------------


    POTLOK:  cpu time      0.0496: real time      0.0499
    SETDIJ:  cpu time      0.0196: real time      0.0198
     EDDAV:  cpu time     13.6025: real time     13.6822
       DOS:  cpu time      0.0349: real time      0.0358
    CHARGE:  cpu time      0.2696: real time      0.2720
    MIXING:  cpu time      0.0899: real time      0.0920
    --------------------------------------------
      LOOP:  cpu time     14.0662: real time     14.1517

 eigenvalue-minimisations  : 11164
 total energy-change (2. order) :-0.1576703E-03  (-0.6420002E-03)
 number of electron     376.0000026 magnetization 
 augmentation part      152.6547758 magnetization 

 Broyden mixing:
  rms(total) = 0.30279E-01    rms(broyden)= 0.30267E-01
  rms(prec ) = 0.40521E-01
  weight for this iteration     100.00

 eigenvalues of (default mixing * dielectric matrix)
  average eigenvalue GAMMA=   0.7561
  2.4702  1.6151  1.6151  1.1044  1.1044  0.8810  0.5141  0.5141  0.0930  0.3209
  0.1666  0.2780  0.2428  0.2051  0.2164

 Free energy of the ion-electron system (eV)
  ---------------------------------------------------
  alpha Z        PSCENC =       918.22725072
  Ewald energy   TEWEN  =     21994.85148274
  -Hartree energ DENC   =    -54542.19974352
  -exchange      EXHF   =         0.00000000
  -V(xc)+E(xc)   XCENC  =     -1000.99479828
  PAW double counting   =     35179.53042555   -33024.61304360
  entropy T*S    EENTRO =        -5.28409295
  eigenvalues    EBANDS =       117.48573293
  atomic energy  EATOM  =     30161.86332653
  Solvation  Ediel_sol  =         0.00000000
  ---------------------------------------------------
  free energy    TOTEN  =      -201.13345988 eV

  energy without entropy =     -195.84936693  energy(sigma->0) =     -198.49141341


--------------------------------------------------------------------------------------------------------




--------------------------------------- Iteration      1(  21)  ---------------------------------------


    POTLOK:  cpu time      0.0495: real time      0.0515
    SETDIJ:  cpu time      0.0199: real time      0.0201
     EDDAV:  cpu time     14.6489: real time     14.7344
       DOS:  cpu time      0.0344: real time      0.0353
    CHARGE:  cpu time      0.2703: real time      0.2727
    MIXING:  cpu time      0.0903: real time      0.0924
    --------------------------------------------
      LOOP:  cpu time     15.1133: real time     15.2064

 eigenvalue-minimisations  : 12356
 total energy-change (2. order) : 0.2059927E-03  (-0.1749204E-03)
 number of electron     376.0000025 magnetization 
 augmentation part      152.6421487 magnetization 

 Broyden mixing:
  rms(total) = 0.14436E-01    rms(broyden)= 0.14418E-01
  rms(prec ) = 0.20713E-01
  weight for this iteration     100.00

 eigenvalues of (default mixing * dielectric matrix)
  average eigenvalue GAMMA=   0.7629
  2.4409  1.7799  1.7799  1.1805  1.1805  0.9067  0.6170  0.4807  0.0930  0.1666
  0.3310  0.2947  0.2947  0.2360  0.2049  0.2193

 Free energy of the ion-electron system (eV)
  ---------------------------------------------------
  alpha Z        PSCENC =       918.22725072
  Ewald energy   TEWEN  =     21994.85148274
  -Hartree energ DENC   =    -54543.94185592
  -exchange      EXHF   =         0.00000000
  -V(xc)+E(xc)   XCENC  =     -1000.99752348
  PAW double counting   =     35175.85769672   -33020.95087035
  entropy T*S    EENTRO =        -5.28982566
  eigenvalues    EBANDS =       119.24706481
  atomic energy  EATOM  =     30161.86332653
  Solvation  Ediel_sol  =         0.00000000
  ---------------------------------------------------
  free energy    TOTEN  =      -201.13325389 eV

  energy without entropy =     -195.84342823  energy(sigma->0) =     -198.48834106


--------------------------------------------------------------------------------------------------------




--------------------------------------- Iteration      1(  22)  ---------------------------------------


    POTLOK:  cpu time      0.0497: real time      0.0500
    SETDIJ:  cpu time      0.0199: real time      0.0201
     EDDAV:  cpu time     13.5780: real time     13.6665
       DOS:  cpu time      0.0346: real time      0.0355
    CHARGE:  cpu time      0.2695: real time      0.2718
    MIXING:  cpu time      0.0906: real time      0.0928
    --------------------------------------------
      LOOP:  cpu time     14.0423: real time     14.1366

 eigenvalue-minimisations  : 11180
 total energy-change (2. order) :-0.3478382E-03  (-0.1614722E-03)
 number of electron     376.0000025 magnetization 
 augmentation part      152.6404498 magnetization 

 Broyden mixing:
  rms(total) = 0.16344E-01    rms(broyden)= 0.16335E-01
  rms(prec ) = 0.21907E-01
  weight for this iteration     100.00

 eigenvalues of (default mixing * dielectric matrix)
  average eigenvalue GAMMA=   0.7869
  2.5360  1.7310  1.7310  1.7726  1.0378  1.0378  0.7723  0.4918  0.4918  0.0930
  0.3271  0.1666  0.2883  0.2525  0.2046  0.2270  0.2165

 Free energy of the ion-electron system (eV)
  ---------------------------------------------------
  alpha Z        PSCENC =       918.22725072
  Ewald energy   TEWEN  =     21994.85148274
  -Hartree energ DENC   =    -54545.17780980
  -exchange      EXHF   =         0.00000000
  -V(xc)+E(xc)   XCENC  =     -1000.99440184
  PAW double counting   =     35172.09887481   -33017.19452940
  entropy T*S    EENTRO =        -5.29217832
  eigenvalues    EBANDS =       120.48438283
  atomic energy  EATOM  =     30161.86332653
  Solvation  Ediel_sol  =         0.00000000
  ---------------------------------------------------
  free energy    TOTEN  =      -201.13360173 eV

  energy without entropy =     -195.84142341  energy(sigma->0) =     -198.48751257


--------------------------------------------------------------------------------------------------------




--------------------------------------- Iteration      1(  23)  ---------------------------------------


    POTLOK:  cpu time      0.0494: real time      0.0508
    SETDIJ:  cpu time      0.0197: real time      0.0199
     EDDAV:  cpu time     14.7909: real time     14.8789
       DOS:  cpu time      0.0340: real time      0.0349
    CHARGE:  cpu time      0.2703: real time      0.2726
    MIXING:  cpu time      0.0914: real time      0.0934
    --------------------------------------------
      LOOP:  cpu time     15.2558: real time     15.3506

 eigenvalue-minimisations  : 12560
[...]
   1.00000000000000        1.00000000000000        1.00000000000000     
   1.00000000000000        1.00000000000000        1.00000000000000     
  0.000000000000000E+000  0.000000000000000E+000  0.000000000000000E+000
   1.00000000000000        1.00000000000000        1.00000000000000     
   1.00000000000000        1.00000000000000        1.00000000000000     
  0.000000000000000E+000  0.000000000000000E+000  0.000000000000000E+000
   1.00000000000000        1.00000000000000        1.00000000000000     
   1.00000000000000        1.00000000000000        1.00000000000000     
  0.000000000000000E+000  0.000000000000000E+000  0.000000000000000E+000
   1.00000000000000        1.00000000000000        1.00000000000000     
   1.00000000000000        1.00000000000000        1.00000000000000     
  0.000000000000000E+000  0.000000000000000E+000  0.000000000000000E+000
   1.00000000000000        1.00000000000000        1.00000000000000     
   1.00000000000000        1.00000000000000        1.00000000000000     
  0.000000000000000E+000  0.000000000000000E+000  0.000000000000000E+000
   1.00000000000000        1.00000000000000        1.00000000000000     
   1.00000000000000        1.00000000000000        1.00000000000000     
  0.000000000000000E+000  0.000000000000000E+000  0.000000000000000E+000
   1.00000000000000        1.00000000000000        1.00000000000000     
  0.000000000000000E+000  0.000000000000000E+000  0.000000000000000E+000
  0.000000000000000E+000  0.000000000000000E+000  0.000000000000000E+000
  0.000000000000000E+000  0.000000000000000E+000  0.000000000000000E+000
  0.000000000000000E+000  0.000000000000000E+000  0.000000000000000E+000
  0.000000000000000E+000  0.000000000000000E+000  0.000000000000000E+000
  0.000000000000000E+000  0.000000000000000E+000  0.000000000000000E+000
  0.000000000000000E+000  0.000000000000000E+000  0.000000000000000E+000
  0.000000000000000E+000  0.000000000000000E+000  0.000000000000000E+000
  0.000000000000000E+000  0.000000000000000E+000  0.000000000000000E+000
   1.00000000000000        1.00000000000000        1.00000000000000     
   1.00000000000000        1.00000000000000        1.00000000000000     
   1.00000000000000        1.00000000000000        1.00000000000000     
 NEB: the previous image is higher in energy: T
 NEB: the next image is higher in energy    : T
 NEB: image is at an extrema
 NEB: diff energy (min, max):     0.033661    1.179864

 NEB: Tangent
 ----------------------------------------------
     -0.04227     -0.12049     -0.09774
      0.00000      0.00000      0.00000
     -0.00352     -0.02951     -0.01352
     -0.06766     -0.02171      0.06025
      0.00000      0.00000      0.00000
     -0.01410     -0.03703      0.01691
     -0.02329     -0.05368      0.00873
      0.00000      0.00000      0.00000
     -0.00788     -0.03019     -0.00067
      0.05103     -0.07955      0.03182
      0.00000      0.00000      0.00000
     -0.00583     -0.02154      0.00099
      0.00918     -0.03153     -0.07308
      0.00000      0.00000      0.00000
      0.00686     -0.02708     -0.01191
      0.02892     -0.05907      0.00157
      0.00000      0.00000      0.00000
      0.01065     -0.04666     -0.01390
      0.01342     -0.08510     -0.08372
      0.00000      0.00000      0.00000
     -0.00093     -0.01802      0.00369
     -0.02828     -0.03675      0.00662
      0.00000      0.00000      0.00000
     -0.00405     -0.02775      0.00275
      0.00148     -0.06630     -0.00882
      0.00000      0.00000      0.00000
     -0.00294     -0.03898     -0.01978
      0.00000      0.00000      0.00000
      0.00000      0.00000      0.00000
      0.00000      0.00000      0.00000
      0.00000      0.00000      0.00000
      0.00000      0.00000      0.00000
      0.00000      0.00000      0.00000
      0.00000      0.00000      0.00000
      0.00000      0.00000      0.00000
      0.00000      0.00000      0.00000
     -0.15817      0.71077      0.15460
      0.24533     -0.21219      0.10455
     -0.14027      0.45266      0.12034

 NEB: forces: par spring, perp REAL, dneb     0.138654    0.209316    0.000000
 NEB: distance to prev, next image, angle between     1.443003    1.415272   79.590567
 NEB: projections on to tangent (spring, REAL)    -0.138654    0.125055

 stress matrix after NEB project (eV)
     -8.04954     -0.37413     -0.04194
     -0.37413    -10.42066     -2.30272
     -0.04194     -2.30272     -3.55831
 after stress write
 before force*Free
 force:   9.290937359634238E-003 -3.293290531367896E-002  3.872820990238179E-004
  0.000000000000000E+000  0.000000000000000E+000  0.000000000000000E+000
 -1.680732683307822E-004  3.287015367120693E-003  2.059535017622930E-003
 -6.030302416686751E-003 -2.145115491267393E-002  1.208716841110612E-002
  0.000000000000000E+000  0.000000000000000E+000  0.000000000000000E+000
 -4.070914524847433E-003  2.143619112791560E-004  2.093450957335314E-003
 -1.376434085365281E-003 -1.185596174100870E-002  1.866532760906548E-003
  0.000000000000000E+000  0.000000000000000E+000  0.000000000000000E+000
  5.780499237487385E-004  1.087738554324642E-003 -1.013341017469455E-003
  8.906562144288564E-003 -2.888087843318500E-002  1.349117627898834E-003
  0.000000000000000E+000  0.000000000000000E+000  0.000000000000000E+000
  5.929928388920227E-004  2.589540944609661E-003  7.339792889873575E-004
  2.099037037063025E-003 -1.559528032656623E-002  2.021215176534993E-003
  0.000000000000000E+000  0.000000000000000E+000  0.000000000000000E+000
 -3.625775148310700E-004  2.628581550517385E-003 -5.273390704172236E-004
 -4.922102276678376E-004 -2.200804588152878E-002 -1.808452601492128E-003
  0.000000000000000E+000  0.000000000000000E+000  0.000000000000000E+000
  1.766382801212889E-003 -8.005140297836572E-003 -8.580797599113784E-003
 -4.012615805603290E-004 -4.021346012562807E-002 -6.861615555977087E-002
  0.000000000000000E+000  0.000000000000000E+000  0.000000000000000E+000
  2.289077776134953E-003  4.907895580709336E-003 -1.061816010160598E-002
 -1.111642623388402E-003 -1.252465004666474E-002 -3.014355963761283E-003
  0.000000000000000E+000  0.000000000000000E+000  0.000000000000000E+000
 -1.211013991759913E-003  3.347878768389661E-003 -1.647703015490843E-003
 -2.536324574007839E-003 -1.311782359682298E-002 -3.513715672276121E-003
  0.000000000000000E+000  0.000000000000000E+000  0.000000000000000E+000
 -4.789150142459876E-003  1.562422743898742E-003 -1.374487057860644E-002
  0.000000000000000E+000  0.000000000000000E+000  0.000000000000000E+000
  0.000000000000000E+000  0.000000000000000E+000  0.000000000000000E+000
  0.000000000000000E+000  0.000000000000000E+000  0.000000000000000E+000
  0.000000000000000E+000  0.000000000000000E+000  0.000000000000000E+000
  0.000000000000000E+000  0.000000000000000E+000  0.000000000000000E+000
  0.000000000000000E+000  0.000000000000000E+000  0.000000000000000E+000
  0.000000000000000E+000  0.000000000000000E+000  0.000000000000000E+000
  0.000000000000000E+000  0.000000000000000E+000  0.000000000000000E+000
  0.000000000000000E+000  0.000000000000000E+000  0.000000000000000E+000
  9.876194765680642E-003 -0.106880847518557      -1.567695459849399E-002
  1.062047884745174E-002 -4.244056611968119E-002  2.435279574441087E-003
  5.046573844283093E-003 -0.194701427093462      -2.352262571410628E-002
 A:    8.30990028380000       0.000000000000000E+000  0.000000000000000E+000
  -4.15495014190000        7.19658474870000       0.000000000000000E+000
  0.000000000000000E+000  0.000000000000000E+000   16.5235004425000     
 B:   0.120338387447258       6.947740038638753E-002  0.000000000000000E+000
  0.000000000000000E+000  0.138954800772775       0.000000000000000E+000
  0.000000000000000E+000  0.000000000000000E+000  6.051986402517384E-002
 force:  -1.170036228633597E-003 -4.576185296730925E-003  2.343825997230537E-005
  0.000000000000000E+000  0.000000000000000E+000  0.000000000000000E+000
  2.081476166537364E-004  4.567465654753060E-004  1.246427792216238E-004
 -2.216047347261654E-003 -2.980740957236540E-003  7.315137886895189E-004
  0.000000000000000E+000  0.000000000000000E+000  0.000000000000000E+000
 -4.749939810182256E-004  2.978661667506641E-005  1.266953672813032E-004
 -9.893592591060521E-004 -1.647442801691507E-003  1.129623088885966E-004
  0.000000000000000E+000  0.000000000000000E+000  0.000000000000000E+000
  1.451348427424569E-004  1.511464941090470E-004 -6.132726058838274E-005
 -9.347670282705044E-004 -4.013136708825958E-003  8.164841539440251E-005
  0.000000000000000E+000  0.000000000000000E+000  0.000000000000000E+000
  2.512743750256270E-004  3.598291460511792E-004  4.442032676680865E-005
 -8.309248031545604E-004 -2.167039070773588E-003  1.223236676495155E-004
  0.000000000000000E+000  0.000000000000000E+000  0.000000000000000E+000
  1.389950193741626E-004  3.652540256671354E-004 -3.191448883681195E-005
 -1.588293600515558E-003 -3.058123630865925E-003 -1.094473055382755E-004
  0.000000000000000E+000  0.000000000000000E+000  0.000000000000000E+000
 -3.436126797094682E-004 -1.112352675243994E-003 -5.193087039259043E-004
 -2.842213841619459E-003 -5.587853340140583E-003 -4.152640404407509E-003
  0.000000000000000E+000  0.000000000000000E+000  0.000000000000000E+000
  6.164517546369591E-004  6.819756526310489E-004 -6.426096055467201E-004
 -1.003953406707713E-003 -1.740360251983026E-003 -1.824284130503047E-004
  0.000000000000000E+000  0.000000000000000E+000  0.000000000000000E+000
  8.687044269204002E-005  4.652038272729889E-004 -9.971876245137472E-005
 -1.216609491513428E-003 -1.822784564468944E-003 -2.126495947092731E-004
  0.000000000000000E+000  0.000000000000000E+000  0.000000000000000E+000
 -4.677655348357743E-004  2.171061411013023E-004 -8.318376984608744E-004
  0.000000000000000E+000  0.000000000000000E+000  0.000000000000000E+000
  0.000000000000000E+000  0.000000000000000E+000  0.000000000000000E+000
  0.000000000000000E+000  0.000000000000000E+000  0.000000000000000E+000
  0.000000000000000E+000  0.000000000000000E+000  0.000000000000000E+000
  0.000000000000000E+000  0.000000000000000E+000  0.000000000000000E+000
  0.000000000000000E+000  0.000000000000000E+000  0.000000000000000E+000
  0.000000000000000E+000  0.000000000000000E+000  0.000000000000000E+000
  0.000000000000000E+000  0.000000000000000E+000  0.000000000000000E+000
  0.000000000000000E+000  0.000000000000000E+000  0.000000000000000E+000
 -6.237318084466183E-003 -1.485160687336647E-002 -9.487671606296799E-004
 -1.670608906501992E-003 -5.897320409844086E-003  1.473827887084578E-004
 -1.292005244741894E-002 -2.705469801194695E-002 -1.423586109732770E-003
 Free:    1.00000000000000        1.00000000000000        1.00000000000000     
  0.000000000000000E+000  0.000000000000000E+000  0.000000000000000E+000
   1.00000000000000        1.00000000000000        1.00000000000000     
   1.00000000000000        1.00000000000000        1.00000000000000     
  0.000000000000000E+000  0.000000000000000E+000  0.000000000000000E+000
   1.00000000000000        1.00000000000000        1.00000000000000     
   1.00000000000000        1.00000000000000        1.00000000000000     
  0.000000000000000E+000  0.000000000000000E+000  0.000000000000000E+000
   1.00000000000000        1.00000000000000        1.00000000000000     
   1.00000000000000        1.00000000000000        1.00000000000000     
  0.000000000000000E+000  0.000000000000000E+000  0.000000000000000E+000
   1.00000000000000        1.00000000000000        1.00000000000000     
   1.00000000000000        1.00000000000000        1.00000000000000     
  0.000000000000000E+000  0.000000000000000E+000  0.000000000000000E+000
   1.00000000000000        1.00000000000000        1.00000000000000     
   1.00000000000000        1.00000000000000        1.00000000000000     
  0.000000000000000E+000  0.000000000000000E+000  0.000000000000000E+000
   1.00000000000000        1.00000000000000        1.00000000000000     
   1.00000000000000        1.00000000000000        1.00000000000000     
  0.000000000000000E+000  0.000000000000000E+000  0.000000000000000E+000
   1.00000000000000        1.00000000000000        1.00000000000000     
   1.00000000000000        1.00000000000000        1.00000000000000     
  0.000000000000000E+000  0.000000000000000E+000  0.000000000000000E+000
   1.00000000000000        1.00000000000000        1.00000000000000     
   1.00000000000000        1.00000000000000        1.00000000000000     
  0.000000000000000E+000  0.000000000000000E+000  0.000000000000000E+000
   1.00000000000000        1.00000000000000        1.00000000000000     
  0.000000000000000E+000  0.000000000000000E+000  0.000000000000000E+000
  0.000000000000000E+000  0.000000000000000E+000  0.000000000000000E+000
  0.000000000000000E+000  0.000000000000000E+000  0.000000000000000E+000
  0.000000000000000E+000  0.000000000000000E+000  0.000000000000000E+000
  0.000000000000000E+000  0.000000000000000E+000  0.000000000000000E+000
  0.000000000000000E+000  0.000000000000000E+000  0.000000000000000E+000
  0.000000000000000E+000  0.000000000000000E+000  0.000000000000000E+000
  0.000000000000000E+000  0.000000000000000E+000  0.000000000000000E+000
  0.000000000000000E+000  0.000000000000000E+000  0.000000000000000E+000
   1.00000000000000        1.00000000000000        1.00000000000000     
   1.00000000000000        1.00000000000000        1.00000000000000     
   1.00000000000000        1.00000000000000        1.00000000000000     
 force:  -1.170036228633597E-003 -4.576185296730925E-003  2.343825997230537E-005
  0.000000000000000E+000  0.000000000000000E+000  0.000000000000000E+000
  2.081476166537364E-004  4.567465654753060E-004  1.246427792216238E-004
 -2.216047347261654E-003 -2.980740957236540E-003  7.315137886895189E-004
  0.000000000000000E+000  0.000000000000000E+000  0.000000000000000E+000
 -4.749939810182256E-004  2.978661667506641E-005  1.266953672813032E-004
 -9.893592591060521E-004 -1.647442801691507E-003  1.129623088885966E-004
  0.000000000000000E+000  0.000000000000000E+000  0.000000000000000E+000
  1.451348427424569E-004  1.511464941090470E-004 -6.132726058838274E-005
 -9.347670282705044E-004 -4.013136708825958E-003  8.164841539440251E-005
  0.000000000000000E+000  0.000000000000000E+000  0.000000000000000E+000
  2.512743750256270E-004  3.598291460511792E-004  4.442032676680865E-005
 -8.309248031545604E-004 -2.167039070773588E-003  1.223236676495155E-004
  0.000000000000000E+000  0.000000000000000E+000  0.000000000000000E+000
  1.389950193741626E-004  3.652540256671354E-004 -3.191448883681195E-005
 -1.588293600515558E-003 -3.058123630865925E-003 -1.094473055382755E-004
  0.000000000000000E+000  0.000000000000000E+000  0.000000000000000E+000
 -3.436126797094682E-004 -1.112352675243994E-003 -5.193087039259043E-004
 -2.842213841619459E-003 -5.587853340140583E-003 -4.152640404407509E-003
  0.000000000000000E+000  0.000000000000000E+000  0.000000000000000E+000
  6.164517546369591E-004  6.819756526310489E-004 -6.426096055467201E-004
 -1.003953406707713E-003 -1.740360251983026E-003 -1.824284130503047E-004
  0.000000000000000E+000  0.000000000000000E+000  0.000000000000000E+000
  8.687044269204002E-005  4.652038272729889E-004 -9.971876245137472E-005
 -1.216609491513428E-003 -1.822784564468944E-003 -2.126495947092731E-004
  0.000000000000000E+000  0.000000000000000E+000  0.000000000000000E+000
 -4.677655348357743E-004  2.171061411013023E-004 -8.318376984608744E-004
  0.000000000000000E+000  0.000000000000000E+000  0.000000000000000E+000
  0.000000000000000E+000  0.000000000000000E+000  0.000000000000000E+000
  0.000000000000000E+000  0.000000000000000E+000  0.000000000000000E+000
  0.000000000000000E+000  0.000000000000000E+000  0.000000000000000E+000
  0.000000000000000E+000  0.000000000000000E+000  0.000000000000000E+000
  0.000000000000000E+000  0.000000000000000E+000  0.000000000000000E+000
  0.000000000000000E+000  0.000000000000000E+000  0.000000000000000E+000
  0.000000000000000E+000  0.000000000000000E+000  0.000000000000000E+000
  0.000000000000000E+000  0.000000000000000E+000  0.000000000000000E+000
 -6.237318084466183E-003 -1.485160687336647E-002 -9.487671606296799E-004
 -1.670608906501992E-003 -5.897320409844086E-003  1.473827887084578E-004
 -1.292005244741894E-002 -2.705469801194695E-002 -1.423586109732770E-003
 after force*Free
  9.290937359634238E-003 -3.293290531367896E-002  3.872820990238179E-004
  0.000000000000000E+000  0.000000000000000E+000  0.000000000000000E+000
 -1.680732683307822E-004  3.287015367120693E-003  2.059535017622930E-003
 -6.030302416686751E-003 -2.145115491267393E-002  1.208716841110612E-002
  0.000000000000000E+000  0.000000000000000E+000  0.000000000000000E+000
 -4.070914524847432E-003  2.143619112791560E-004  2.093450957335313E-003
 -1.376434085365279E-003 -1.185596174100870E-002  1.866532760906548E-003
  0.000000000000000E+000  0.000000000000000E+000  0.000000000000000E+000
  5.780499237487384E-004  1.087738554324642E-003 -1.013341017469455E-003
  8.906562144288564E-003 -2.888087843318500E-002  1.349117627898834E-003
  0.000000000000000E+000  0.000000000000000E+000  0.000000000000000E+000
  5.929928388920226E-004  2.589540944609661E-003  7.339792889873574E-004
  2.099037037063023E-003 -1.559528032656623E-002  2.021215176534993E-003
  0.000000000000000E+000  0.000000000000000E+000  0.000000000000000E+000
 -3.625775148310699E-004  2.628581550517385E-003 -5.273390704172236E-004
 -4.922102276678376E-004 -2.200804588152878E-002 -1.808452601492128E-003
  0.000000000000000E+000  0.000000000000000E+000  0.000000000000000E+000
  1.766382801212889E-003 -8.005140297836572E-003 -8.580797599113782E-003
 -4.012615805603290E-004 -4.021346012562807E-002 -6.861615555977087E-002
  0.000000000000000E+000  0.000000000000000E+000  0.000000000000000E+000
  2.289077776134953E-003  4.907895580709336E-003 -1.061816010160598E-002
 -1.111642623388403E-003 -1.252465004666474E-002 -3.014355963761282E-003
  0.000000000000000E+000  0.000000000000000E+000  0.000000000000000E+000
 -1.211013991759913E-003  3.347878768389661E-003 -1.647703015490843E-003
 -2.536324574007839E-003 -1.311782359682298E-002 -3.513715672276120E-003
  0.000000000000000E+000  0.000000000000000E+000  0.000000000000000E+000
 -4.789150142459876E-003  1.562422743898742E-003 -1.374487057860644E-002
  0.000000000000000E+000  0.000000000000000E+000  0.000000000000000E+000
  0.000000000000000E+000  0.000000000000000E+000  0.000000000000000E+000
  0.000000000000000E+000  0.000000000000000E+000  0.000000000000000E+000
  0.000000000000000E+000  0.000000000000000E+000  0.000000000000000E+000
  0.000000000000000E+000  0.000000000000000E+000  0.000000000000000E+000
  0.000000000000000E+000  0.000000000000000E+000  0.000000000000000E+000
  0.000000000000000E+000  0.000000000000000E+000  0.000000000000000E+000
  0.000000000000000E+000  0.000000000000000E+000  0.000000000000000E+000
  0.000000000000000E+000  0.000000000000000E+000  0.000000000000000E+000
  9.876194765680649E-003 -0.106880847518557      -1.567695459849399E-002
  1.062047884745174E-002 -4.244056611968118E-002  2.435279574441087E-003
  5.046573844283087E-003 -0.194701427093462      -2.352262571410628E-002
 before force check
 after force check
 before ML stuff 
  FORCES: max atom, RMS     0.196182    0.040204
  FORCE total and by dimension    0.251074    0.194701
 into some ML stuff
  Stress total and by dimension   14.033367   10.420665
 
 OPT: Flag T
 OPT: QM Step
 another before ML stuff


--------------------------------------------------------------------------------------------------------


      MLFF:  cpu time      2.6286: real time      2.6453
    WAVPRE:  cpu time      0.0228: real time      0.0230
    FEWALD:  cpu time      0.0062: real time      0.0062

 real space projection operators:
  total allocation   :       9690.91 KBytes
  max/ min on nodes  :       1713.67       1433.28

