<?xml version="1.0" encoding="ISO-8859-1"?>
<modeling>
 <generator>
  <i name="program" type="string">vasp </i>
  <i name="version" type="string">6.5.1  </i>
  <i name="subversion" type="string">10Mar25 (build Apr 25 2025 15:31:43) complex                          parallel </i>
  <i name="platform" type="string">LinuxIFC </i>
  <i name="date" type="string">2025 12 08 </i>
  <i name="time" type="string">14:54:14 </i>
 </generator>
 <incar>
  <i type="string" name="SYSTEM">PBE-grap</i>
  <i type="int" name="ISTART">     0</i>
  <i type="string" name="PREC">Normal   low | medium | high</i>
  <i type="int" name="IALGO">    38</i>
  <i type="int" name="ICHARG">     2</i>
  <i type="int" name="INIWAV">     1</i>
  <i type="int" name="NELM">   150</i>
  <i type="int" name="NELMDL">    -5</i>
  <i type="int" name="NELMIN">     4</i>
  <i type="int" name="IBRION">     3</i>
  <i name="EDIFF">      0.00001000</i>
  <i name="EDIFFG">     -0.02600000</i>
  <i type="int" name="NSW">  1000</i>
  <i type="int" name="ISIF">     2</i>
  <i type="int" name="ISYM">     0</i>
  <i name="ENCUT">    370.00000000</i>
  <i name="POTIM">      0.00000000</i>
  <i type="string" name="LREAL">AUTO   real-space projection (.FALSE., .TRUE., On, Auto)</i>
  <i type="logical" name="LPLANE"> T  </i>
  <i type="int" name="ISMEAR">     0</i>
  <i name="SIGMA">      0.41000000</i>
  <i type="int" name="NWRITE">     0</i>
  <i type="logical" name="LWAVE"> F  </i>
  <i type="logical" name="LCHARG"> F  </i>
  <i type="logical" name="LVTOT"> F  </i>
  <i type="string" name="GGA">PE</i>
  <i name="SPRING">     -5.00000000</i>
 </incar>
 <primitive_cell>
  <structure name="primitive_cell" >
   <crystal>
    <varray name="basis" >
     <v>       8.30990028       0.00000000       0.00000000 </v>
     <v>      -4.15495014       7.19658475       0.00000000 </v>
     <v>       0.00000000       0.00000000      16.52350044 </v>
    </varray>
    <i name="volume">    988.15327180 </i>
    <varray name="rec_basis" >
     <v>       0.12033839       0.06947740       0.00000000 </v>
     <v>       0.00000000       0.13895480       0.00000000 </v>
     <v>       0.00000000       0.00000000       0.06051986 </v>
    </varray>
   </crystal>
   <varray name="positions" >
    <v>       0.99973645       0.99740718       0.44217185 </v>
    <v>       0.11093000       0.22330000       0.16024000 </v>
    <v>       0.22206955       0.11304730       0.30041045 </v>
    <v>       0.33085505       0.00017063       0.44220776 </v>
    <v>       0.44426000       0.22330000       0.16024000 </v>
    <v>       0.55317603       0.11037573       0.29842625 </v>
    <v>       0.66476840       0.99889206       0.43609438 </v>
    <v>       0.77760000       0.22330000       0.16024000 </v>
    <v>       0.88875104       0.11175766       0.29982812 </v>
    <v>       0.99964973       0.33378040       0.44415655 </v>
    <v>       0.11093000       0.55664000       0.16024000 </v>
    <v>       0.22113201       0.44361237       0.29977372 </v>
    <v>       0.32800418       0.33424156       0.45585434 </v>
    <v>       0.44426000       0.55664000       0.16024000 </v>
    <v>       0.55159966       0.44298755       0.29990535 </v>
    <v>       0.66510669       0.33265260       0.43584509 </v>
    <v>       0.77760000       0.55664000       0.16024000 </v>
    <v>       0.88793103       0.44334571       0.29866558 </v>
    <v>       0.99667864       0.66453586       0.43545185 </v>
    <v>       0.11093000       0.88997000       0.16024000 </v>
    <v>       0.22240236       0.77849202       0.29932934 </v>
    <v>       0.33230367       0.66423701       0.44121738 </v>
    <v>       0.44426000       0.88997000       0.16024000 </v>
    <v>       0.55332912       0.77745639       0.29855173 </v>
    <v>       0.66633038       0.66625606       0.43596146 </v>
    <v>       0.77760000       0.88997000       0.16024000 </v>
    <v>       0.88810988       0.77895974       0.29810620 </v>
    <v>       0.99982000       0.00108000       0.02337000 </v>
    <v>       0.33315000       0.00108000       0.02337000 </v>
    <v>       0.66649000       0.00108000       0.02337000 </v>
    <v>       0.99982000       0.33441000       0.02337000 </v>
    <v>       0.33315000       0.33441000       0.02337000 </v>
    <v>       0.66649000       0.33441000       0.02337000 </v>
    <v>       0.99982000       0.66775000       0.02337000 </v>
    <v>       0.33315000       0.66775000       0.02337000 </v>
    <v>       0.66649000       0.66775000       0.02337000 </v>
    <v>       0.21886012       0.08614668       0.56843798 </v>
    <v>       0.22641383       0.40542014       0.55188016 </v>
    <v>       0.21000070       0.04451349       0.63598505 </v>
   </varray>
  </structure>
  <varray name="primitive_index" >
   <v type="int" >        1 </v>
   <v type="int" >        2 </v>
   <v type="int" >        3 </v>
   <v type="int" >        4 </v>
   <v type="int" >        5 </v>
   <v type="int" >        6 </v>
   <v type="int" >        7 </v>
   <v type="int" >        8 </v>
   <v type="int" >        9 </v>
   <v type="int" >       10 </v>
   <v type="int" >       11 </v>
   <v type="int" >       12 </v>
   <v type="int" >       13 </v>
   <v type="int" >       14 </v>
   <v type="int" >       15 </v>
   <v type="int" >       16 </v>
   <v type="int" >       17 </v>
   <v type="int" >       18 </v>
   <v type="int" >       19 </v>
   <v type="int" >       20 </v>
   <v type="int" >       21 </v>
   <v type="int" >       22 </v>
   <v type="int" >       23 </v>
   <v type="int" >       24 </v>
   <v type="int" >       25 </v>
   <v type="int" >       26 </v>
   <v type="int" >       27 </v>
   <v type="int" >       28 </v>
   <v type="int" >       29 </v>
   <v type="int" >       30 </v>
   <v type="int" >       31 </v>
   <v type="int" >       32 </v>
   <v type="int" >       33 </v>
   <v type="int" >       34 </v>
   <v type="int" >       35 </v>
   <v type="int" >       36 </v>
   <v type="int" >       37 </v>
   <v type="int" >       38 </v>
   <v type="int" >       39 </v>
  </varray>
 </primitive_cell>
 <kpoints>
  <generation param="Monkhorst-Pack">
   <v type="int" name="divisions">       4        4        1 </v>
   <v name="usershift">      0.00000000       0.00000000       0.00000000 </v>
   <v name="genvec1">      0.25000000       0.00000000       0.00000000 </v>
   <v name="genvec2">      0.00000000       0.25000000       0.00000000 </v>
   <v name="genvec3">      0.00000000       0.00000000       1.00000000 </v>
   <v name="shift">      0.50000000       0.50000000       0.00000000 </v>
  </generation>
  <varray name="kpointlist" >
   <v>       0.12500000       0.12500000       0.00000000 </v>
   <v>      -0.12500000       0.25000000       0.00000000 </v>
   <v>      -0.25000000       0.12500000       0.00000000 </v>
   <v>       0.37500000       0.12500000       0.00000000 </v>
   <v>      -0.12500000       0.50000000       0.00000000 </v>
   <v>       0.50000000       0.37500000       0.00000000 </v>
   <v>      -0.37500000       0.50000000       0.00000000 </v>
   <v>       0.12500000       0.37500000       0.00000000 </v>
   <v>       0.50000000      -0.12500000       0.00000000 </v>
   <v>      -0.37500000       0.12500000       0.00000000 </v>
   <v>      -0.12500000      -0.25000000       0.00000000 </v>
   <v>       0.25000000      -0.37500000       0.00000000 </v>
   <v>       0.37500000      -0.25000000       0.00000000 </v>
   <v>       0.12500000      -0.37500000       0.00000000 </v>
   <v>      -0.25000000      -0.12500000       0.00000000 </v>
   <v>      -0.12500000       0.12500000       0.00000000 </v>
   <v>      -0.12500000       0.00000000       0.00000000 </v>
   <v>       0.00000000      -0.12500000       0.00000000 </v>
   <v>       0.37500000       0.37500000       0.00000000 </v>
   <v>      -0.37500000      -0.25000000       0.00000000 </v>
   <v>       0.25000000       0.37500000       0.00000000 </v>
   <v>      -0.37500000       0.37500000       0.00000000 </v>
   <v>      -0.37500000       0.00000000       0.00000000 </v>
   <v>       0.00000000      -0.37500000       0.00000000 </v>
  </varray>
  <varray name="weights" >
   <v>       0.04166667 </v>
   <v>       0.04166667 </v>
   <v>       0.04166667 </v>
   <v>       0.04166667 </v>
   <v>       0.04166667 </v>
   <v>       0.04166667 </v>
   <v>       0.04166667 </v>
   <v>       0.04166667 </v>
   <v>       0.04166667 </v>
   <v>       0.04166667 </v>
   <v>       0.04166667 </v>
   <v>       0.04166667 </v>
   <v>       0.04166667 </v>
   <v>       0.04166667 </v>
   <v>       0.04166667 </v>
   <v>       0.04166667 </v>
   <v>       0.04166667 </v>
   <v>       0.04166667 </v>
   <v>       0.04166667 </v>
   <v>       0.04166667 </v>
   <v>       0.04166667 </v>
   <v>       0.04166667 </v>
   <v>       0.04166667 </v>
   <v>       0.04166667 </v>
  </varray>
 </kpoints>
 <parameters>
  <separator name="general" >
   <i type="string" name="SYSTEM">PBE-grap</i>
   <i type="logical" name="LCOMPAT"> F  </i>
  </separator>
  <separator name="electronic" >
   <i type="string" name="PREC">normal</i>
   <i name="ENMAX">    370.00000000</i>
   <i name="ENAUG">    644.87300000</i>
   <i name="EDIFF">      0.00001000</i>
   <i type="int" name="IALGO">    38</i>
   <i type="int" name="IWAVPR">    11</i>
   <i type="int" name="NBANDS">   228</i>
   <i type="int" name="NBANDSLOW">    -1</i>
   <i type="int" name="NBANDSHIGH">    -1</i>
   <i name="NELECT">    376.00000000</i>
   <i type="int" name="TURBO">     0</i>
   <i type="int" name="IRESTART">     0</i>
   <i type="int" name="NREBOOT">     0</i>
   <i type="int" name="NMIN">     0</i>
   <i name="EREF">      0.00000000</i>
   <separator name="electronic smearing" >
    <i type="int" name="ISMEAR">     0</i>
    <i name="SIGMA">      0.41000000</i>
    <i name="KSPACING">      0.50000000</i>
    <i type="logical" name="KGAMMA"> T  </i>
    <i type="logical" name="KBLOWUP"> T  </i>
   </separator>
   <separator name="electronic projectors" >
    <i type="logical" name="LREAL"> T  </i>
    <v name="ROPT">     -0.00050000     -0.00050000     -0.00050000</v>
    <i type="int" name="LMAXPAW">  -100</i>
    <i type="int" name="LMAXMIX">     2</i>
    <i type="logical" name="NLSPLINE"> F  </i>
   </separator>
   <separator name="electronic startup" >
    <i type="int" name="ISTART">     0</i>
    <i type="int" name="ICHARG">     2</i>
    <i type="int" name="INIWAV">     1</i>
   </separator>
   <separator name="electronic spin" >
    <i type="int" name="ISPIN">     1</i>
    <i type="logical" name="LNONCOLLINEAR"> F  </i>
    <v name="MAGMOM">      1.00000000      1.00000000      1.00000000      1.00000000      1.00000000      1.00000000      1.00000000      1.00000000      1.00000000      1.00000000      1.00000000      1.00000000      1.00000000      1.00000000      1.00000000      1.00000000      1.00000000      1.00000000      1.00000000      1.00000000
      1.00000000      1.00000000      1.00000000      1.00000000      1.00000000      1.00000000      1.00000000      1.00000000      1.00000000      1.00000000      1.00000000      1.00000000      1.00000000      1.00000000      1.00000000      1.00000000      1.00000000      1.00000000      1.00000000</v>
    <i name="NUPDOWN">     -1.00000000</i>
    <i type="logical" name="LSORBIT"> F  </i>
    <v name="SAXIS">      0.00000000      0.00000000      1.00000000</v>
    <i type="logical" name="LSPIRAL"> F  </i>
    <v name="QSPIRAL">      0.00000000      0.00000000      0.00000000</v>
    <i type="logical" name="LZEROZ"> F  </i>
   </separator>
   <separator name="electronic exchange-correlation" >
    <i type="logical" name="LASPH"> F  </i>
   </separator>
   <separator name="electronic convergence" >
    <i type="int" name="NELM">   150</i>
    <i type="int" name="NELMDL">    -5</i>
    <i type="int" name="NELMIN">     4</i>
    <i name="ENINI">    370.00000000</i>
    <separator name="electronic convergence detail" >
     <i type="logical" name="LDIAG"> T  </i>
     <i type="logical" name="LSUBROT"> F  </i>
     <i type="logical" name="LROBUST"> F  </i>
     <i type="int" name="ISEARCH">     0</i>
     <i name="WEIMIN">      0.00100000</i>
     <i name="EBREAK">      0.00000001</i>
     <i name="DEPER">      0.30000000</i>
     <i type="int" name="NRMM">     4</i>
     <i name="TIME">      0.40000000</i>
    </separator>
   </separator>
   <separator name="electronic mixer" >
    <i name="AMIX">      0.40000000</i>
    <i name="BMIX">      1.00000000</i>
    <i name="AMIN">      0.10000000</i>
    <i name="AMIX_MAG">      1.60000000</i>
    <i name="BMIX_MAG">      1.00000000</i>
    <separator name="electronic mixer details" >
     <i type="int" name="IMIX">     4</i>
     <i type="logical" name="MIXFIRST"> F  </i>
     <i type="int" name="MAXMIX">   -45</i>
     <i name="WC">    100.00000000</i>
     <i type="int" name="INIMIX">     1</i>
     <i type="int" name="MIXPRE">     1</i>
     <i type="int" name="MREMOVE">     5</i>
    </separator>
   </separator>
   <separator name="electronic dipolcorrection" >
    <i type="logical" name="LDIPOL"> F  </i>
    <i type="logical" name="LMONO"> F  </i>
    <i type="int" name="IDIPOL">     0</i>
    <i name="EPSILON">      1.00000000</i>
    <v name="DIPOL">   -100.00000000   -100.00000000   -100.00000000</v>
    <i name="EFIELD">      0.00000000</i>
    <i type="logical" name="LVACPOTAV"> F  </i>
   </separator>
  </separator>
  <separator name="grids" >
   <i type="int" name="NGX">    40</i>
   <i type="int" name="NGY">    40</i>
   <i type="int" name="NGZ">    80</i>
   <i type="int" name="NGXF">    80</i>
   <i type="int" name="NGYF">    80</i>
   <i type="int" name="NGZF">   160</i>
   <i type="logical" name="ADDGRID"> F  </i>
  </separator>
  <separator name="ionic" >
   <i type="int" name="NSW">  1000</i>
   <i type="int" name="IBRION">     3</i>
   <i type="int" name="MDALGO">     0</i>
   <i type="int" name="ISIF">     2</i>
   <i name="PSTRESS">      0.00000000</i>
   <i name="EDIFFG">     -0.02600000</i>
   <i type="int" name="NFREE">     0</i>
   <i name="POTIM">      0.00000000</i>
   <i name="SMASS">     -3.00000000</i>
   <i name="SCALEE">      1.00000000</i>
  </separator>
  <separator name="ionic md" >
   <i name="TEBEG">      0.00010000</i>
   <i name="TEEND">      0.00010000</i>
   <i type="int" name="NBLOCK">     1</i>
   <i type="int" name="KBLOCK">  1000</i>
   <i type="int" name="NPACO">   256</i>
   <i name="APACO">     10.00000000</i>
  </separator>
  <separator name="symmetry" >
   <i type="int" name="ISYM">     0</i>
   <i name="SYMPREC">      0.00001000</i>
  </separator>
  <separator name="dos" >
   <i type="int" name="LORBIT">     0</i>
   <v name="RWIGS">     -1.00000000     -1.00000000     -1.00000000</v>
   <i type="int" name="NEDOS">   301</i>
   <i name="EMIN">     10.00000000</i>
   <i name="EMAX">    -10.00000000</i>
   <i name="EFERMI">      0.00000000</i>
  </separator>
  <separator name="writing" >
   <i type="int" name="NWRITE">     0</i>
   <i type="logical" name="LWAVE"> F  </i>
   <i type="logical" name="LDOWNSAMPLE"> F  </i>
   <i type="logical" name="LCHARG"> F  </i>
   <i type="logical" name="LPARD"> F  </i>
   <i type="logical" name="LVTOT"> F  </i>
   <i type="logical" name="LVHAR"> F  </i>
   <i type="logical" name="LELF"> F  </i>
   <i type="logical" name="LOPTICS"> F  </i>
   <v name="STM">      0.00000000      0.00000000      0.00000000      0.00000000      0.00000000      0.00000000      0.00000000</v>
  </separator>
  <separator name="performance" >
   <i type="int" name="NPAR">     4</i>
   <i type="int" name="NSIM">     4</i>
   <i type="int" name="NBLK">    -1</i>
   <i type="logical" name="LPLANE"> T  </i>
   <i type="logical" name="LSCALAPACK"> T  </i>
   <i type="logical" name="LSCAAWARE"> F  </i>
   <i type="logical" name="LSCALU"> F  </i>
   <i type="logical" name="LASYNC"> F  </i>
   <i type="logical" name="LORBITALREAL"> F  </i>
  </separator>
  <separator name="miscellaneous" >
   <i type="int" name="IDIOT">     3</i>
   <i type="int" name="PHON_NSTRUCT">    -1</i>
   <i type="logical" name="LMUSIC"> F  </i>
   <v name="POMASS">    106.42000000     12.01100000     16.00000000</v>
   <v name="DARWINR">      0.00000000      0.00000000      0.00000000</v>
   <v name="DARWINV">      1.00000000      1.00000000      1.00000000</v>
   <i type="logical" name="LCORR"> T  </i>
  </separator>
  <i type="logical" name="GGA_COMPAT"> T  </i>
  <i type="logical" name="LBERRY"> F  </i>
  <i type="int" name="ICORELEVEL">     0</i>
  <i type="logical" name="LDAU"> F  </i>
  <i type="int" name="I_CONSTRAINED_M">     0</i>
  <separator name="electronic exchange-correlation" >
   <i type="string" name="GGA    ">PE</i>
   <i type="string" name="XC_C">1</i>
   <i type="int" name="VOSKOWN">     0</i>
   <i type="logical" name="LHFCALC"> F  </i>
   <i type="string" name="PRECFOCK"></i>
   <i type="logical" name="LSYMGRAD"> F  </i>
   <i type="logical" name="LHFONE"> F  </i>
   <i type="logical" name="LRHFCALC"> F  </i>
   <i type="logical" name="LTHOMAS"> F  </i>
   <i type="logical" name="LMODELHF"> F  </i>
   <i type="logical" name="LFOCKACE"> F  </i>
   <i name="ENCUT4O">     -1.00000000</i>
   <i type="int" name="EXXOEP">     0</i>
   <i type="int" name="FOURORBIT">     0</i>
   <i name="AEXX">      0.00000000</i>
   <i name="HFALPHA">      0.00000000</i>
   <i name="MCALPHA">      0.00000000</i>
   <i name="ALDAX">      1.00000000</i>
   <i name="AGGAX">      1.00000000</i>
   <i name="AMGGAX">      1.00000000</i>
   <i name="ALDAC">      1.00000000</i>
   <i name="AGGAC">      1.00000000</i>
   <i name="AMGGAC">      1.00000000</i>
   <i type="int" name="NKREDX">     1</i>
   <i type="int" name="NKREDY">     1</i>
   <i type="int" name="NKREDZ">     1</i>
   <i type="logical" name="SHIFTRED"> F  </i>
   <i type="logical" name="ODDONLY"> F  </i>
   <i type="logical" name="EVENONLY"> F  </i>
   <i type="int" name="LMAXFOCK">     0</i>
   <i type="int" name="NMAXFOCKAE">     0</i>
   <i type="logical" name="LFOCKAEDFT"> F  </i>
   <i name="HFSCREEN">      0.00000000</i>
   <i name="HFSCREENC">      0.00000000</i>
   <i type="int" name="NBANDSGWLOW">     0</i>
  </separator>
  <separator name="vdW DFT" >
   <i type="logical" name="LUSE_VDW"> F  </i>
   <i type="int" name="IVDW_NL">    -1</i>
   <i type="logical" name="LSPIN_VDW"> F  </i>
   <i name="ZAB_VDW">     -0.84910000</i>
   <i name="GAMMA_VDW">      1.39626340</i>
   <i name="ALPHA_VDW">      0.00000000</i>
   <i name="PARAM1">      0.12340000</i>
   <i name="PARAM2">      1.00000000</i>
   <i name="BPARAM">      6.30000000</i>
   <i name="CPARAM">      0.00930000</i>
  </separator>
  <separator name="model GW" >
   <i type="int" name="MODEL_GW">     0</i>
   <i name="MODEL_EPS0">     15.20235803</i>
   <i name="MODEL_ALPHA">      1.00000000</i>
  </separator>
  <separator name="linear response parameters" >
   <i type="logical" name="LEPSILON"> F  </i>
   <i type="logical" name="LRPA"> F  </i>
   <i type="logical" name="LNABLA"> F  </i>
   <i type="logical" name="LVEL"> F  </i>
   <i name="CSHIFT">      0.10000000</i>
   <i name="OMEGAMAX">     -1.00000000</i>
   <i name="DEG_THRESHOLD">      0.00200000</i>
   <i name="RTIME">     -0.10000000</i>
   <i name="WPLASMAI">      0.00000000</i>
   <v name="DFIELD">      0.00000000      0.00000000      0.00000000</v>
   <v name="WPLASMA">      0.00000000      0.00000000      0.00000000      0.00000000      0.00000000      0.00000000      0.00000000      0.00000000      0.00000000</v>
  </separator>
  <separator name="orbital magnetization" >
   <i type="logical" name="NUCIND"> F  </i>
   <v name="MAGPOS">      0.00000000      0.00000000      0.00000000</v>
   <i type="logical" name="LNICSALL"> T  </i>
   <i type="logical" name="ORBITALMAG"> F  </i>
   <i type="logical" name="LMAGBLOCH"> F  </i>
   <i type="logical" name="LCHIMAG"> F  </i>
   <i type="logical" name="LGAUGE"> T  </i>
   <i type="int" name="MAGATOM">     0</i>
   <v name="MAGDIPOL">      0.00000000      0.00000000      0.00000000</v>
   <v name="AVECCONST">      0.00000000      0.00000000      0.00000000</v>
  </separator>
  <separator name="response functions" >
   <i type="logical" name="LALL_IN_ONE"> F  </i>
   <i type="int" name="IALL_IN_ONE">    -1</i>
   <i type="int" name="NBANDS_WAVE">    -1</i>
   <i type="logical" name="LFINITE_TEMPERATURE"> F  </i>
   <i type="logical" name="LADDER"> F  </i>
   <i type="logical" name="LRPAFORCE"> F  </i>
   <i type="logical" name="LFXC"> F  </i>
   <i type="logical" name="LHARTREE"> T  </i>
   <i type="int" name="IBSE">     2</i>
   <v type="int" name="KPOINT">    -1     0     0     0</v>
   <i type="logical" name="LTCTC"> F  </i>
   <i type="logical" name="LTCTE"> F  </i>
   <i type="logical" name="LTETE"> F  </i>
   <i type="logical" name="LTRIPLET"> F  </i>
   <i type="logical" name="LFXCEPS"> F  </i>
   <i type="logical" name="LFXHEG"> F  </i>
   <i type="int" name="NATURALO">     2</i>
   <i type="logical" name="LHOLEGF"> F  </i>
   <i type="logical" name="L2ORDER"> F  </i>
   <i type="logical" name="LDMP1"> F  </i>
   <i type="logical" name="LMP2LT"> F  </i>
   <i type="logical" name="LSMP2LT"> F  </i>
   <i type="logical" name="LGWLF"> F  </i>
   <i name="ENCUTGW">     -1.60000002</i>
   <i name="ENCUTGWSOFT">     -1.60000002</i>
   <i name="ENCUTLF">     -1.00000000</i>
   <i type="logical" name="ESF_SPLINES"> F  </i>
   <i name="ESF_CONV">      0.01000000</i>
   <i type="int" name="ESF_NINTER">    15</i>
   <i type="int" name="LMAXMP2">    -1</i>
   <i name="SCISSOR">      0.00000000</i>
   <i type="int" name="NOMEGA">     0</i>
   <i type="int" name="NOMEGAR">     0</i>
   <i type="int" name="NBANDSGW">    -1</i>
   <i type="int" name="NBANDSO">    -1</i>
   <i type="int" name="NBANDSV">    -1</i>
   <i type="int" name="NELMGW">     1</i>
   <i type="int" name="NELMHF">     1</i>
   <i type="int" name="DIM">     3</i>
   <i type="int" name="IESPILON">     4</i>
   <i type="int" name="ANTIRES">     0</i>
   <i name="OMEGAMAX">    -30.00000000</i>
   <i name="OMEGAMIN">    -30.00000000</i>
   <i name="OMEGATL">   -200.00000000</i>
   <i type="int" name="OMEGAGRID">     0</i>
   <i name="CSHIFT">     -0.10000000</i>
   <i type="logical" name="LSELFENERGY"> F  </i>
   <i type="logical" name="LSPECTRAL"> F  </i>
   <i type="logical" name="LSPECTRALGW"> F  </i>
   <i type="logical" name="LSINGLES"> F  </i>
   <i type="logical" name="LFERMIGW"> F  </i>
   <i type="logical" name="ODDONLYGW"> F  </i>
   <i type="logical" name="EVENONLYGW"> F  </i>
   <i type="int" name="NKREDLFX">     1</i>
   <i type="int" name="NKREDLFY">     1</i>
   <i type="int" name="NKREDLFZ">     1</i>
   <i type="int" name="MAXMEM">  2800</i>
   <i type="int" name="TELESCOPE">     0</i>
   <i type="int" name="NTAUPAR">    -1</i>
   <i type="int" name="NOMEGAPAR">    -1</i>
   <i name="DAMP_NEWTON">      0.80000001</i>
   <i name="LAMBDA">      1.00000000</i>
  </separator>
  <separator name="External order field" >
   <i name="OFIELD_KAPPA">      0.00000000</i>
   <v name="OFIELD_K">      0.00000000      0.00000000      0.00000000</v>
   <i name="OFIELD_Q6_NEAR">      0.00000000</i>
   <i name="OFIELD_Q6_FAR">      0.00000000</i>
   <i name="OFIELD_A">      0.00000000</i>
  </separator>
  <separator name="optional k-points parameters" >
   <i type="int" name="KPOINTS_OPT_MODE">     1</i>
   <i type="logical" name="LKPOINTS_OPT"> F  </i>
  </separator>
 </parameters>
 <atominfo>
  <atoms>      39 </atoms>
  <types>       3 </types>
  <array name="atoms" >
   <dimension dim="1">ion</dimension>
   <field type="string">element</field>
   <field type="int">atomtype</field>
   <set>
    <rc><c>Pd</c><c>   1</c></rc>
    <rc><c>Pd</c><c>   1</c></rc>
    <rc><c>Pd</c><c>   1</c></rc>
    <rc><c>Pd</c><c>   1</c></rc>
    <rc><c>Pd</c><c>   1</c></rc>
    <rc><c>Pd</c><c>   1</c></rc>
    <rc><c>Pd</c><c>   1</c></rc>
    <rc><c>Pd</c><c>   1</c></rc>
    <rc><c>Pd</c><c>   1</c></rc>
    <rc><c>Pd</c><c>   1</c></rc>
    <rc><c>Pd</c><c>   1</c></rc>
    <rc><c>Pd</c><c>   1</c></rc>
    <rc><c>Pd</c><c>   1</c></rc>
    <rc><c>Pd</c><c>   1</c></rc>
    <rc><c>Pd</c><c>   1</c></rc>
    <rc><c>Pd</c><c>   1</c></rc>
    <rc><c>Pd</c><c>   1</c></rc>
    <rc><c>Pd</c><c>   1</c></rc>
    <rc><c>Pd</c><c>   1</c></rc>
    <rc><c>Pd</c><c>   1</c></rc>
    <rc><c>Pd</c><c>   1</c></rc>
    <rc><c>Pd</c><c>   1</c></rc>
    <rc><c>Pd</c><c>   1</c></rc>
    <rc><c>Pd</c><c>   1</c></rc>
    <rc><c>Pd</c><c>   1</c></rc>
    <rc><c>Pd</c><c>   1</c></rc>
    <rc><c>Pd</c><c>   1</c></rc>
    <rc><c>Pd</c><c>   1</c></rc>
    <rc><c>Pd</c><c>   1</c></rc>
    <rc><c>Pd</c><c>   1</c></rc>
    <rc><c>Pd</c><c>   1</c></rc>
    <rc><c>Pd</c><c>   1</c></rc>
    <rc><c>Pd</c><c>   1</c></rc>
    <rc><c>Pd</c><c>   1</c></rc>
    <rc><c>Pd</c><c>   1</c></rc>
    <rc><c>Pd</c><c>   1</c></rc>
    <rc><c>C </c><c>   2</c></rc>
    <rc><c>O </c><c>   3</c></rc>
    <rc><c>O </c><c>   3</c></rc>
   </set>
  </array>
  <array name="atomtypes" >
   <dimension dim="1">type</dimension>
   <field type="int">atomspertype</field>
   <field type="string">element</field>
   <field>mass</field>
   <field>valence</field>
   <field type="string">pseudopotential</field>
   <set>
    <rc><c>  36</c><c>Pd</c><c>    106.42000000</c><c>     10.00000000</c><c>  PAW_PBE Pd 04Jan2005                  </c></rc>
    <rc><c>   1</c><c>C </c><c>     12.01100000</c><c>      4.00000000</c><c>  PAW_PBE C 08Apr2002                   </c></rc>
    <rc><c>   2</c><c>O </c><c>     16.00000000</c><c>      6.00000000</c><c>  PAW_PBE O 08Apr2002                   </c></rc>
   </set>
  </array>
 </atominfo>
 <structure name="initialpos" >
  <crystal>
   <varray name="basis" >
    <v>       8.30990028       0.00000000       0.00000000 </v>
    <v>      -4.15495014       7.19658475       0.00000000 </v>
    <v>       0.00000000       0.00000000      16.52350044 </v>
   </varray>
   <i name="volume">    988.15327180 </i>
   <varray name="rec_basis" >
    <v>       0.12033839       0.06947740       0.00000000 </v>
    <v>       0.00000000       0.13895480       0.00000000 </v>
    <v>       0.00000000       0.00000000       0.06051986 </v>
   </varray>
  </crystal>
  <varray name="positions" >
   <v>       0.99973645       0.99740718       0.44217185 </v>
   <v>       0.11093000       0.22330000       0.16024000 </v>
   <v>       0.22206955       0.11304730       0.30041045 </v>
   <v>       0.33085505       0.00017063       0.44220776 </v>
   <v>       0.44426000       0.22330000       0.16024000 </v>
   <v>       0.55317603       0.11037573       0.29842625 </v>
   <v>       0.66476840       0.99889206       0.43609438 </v>
   <v>       0.77760000       0.22330000       0.16024000 </v>
   <v>       0.88875104       0.11175766       0.29982812 </v>
   <v>       0.99964973       0.33378040       0.44415655 </v>
   <v>       0.11093000       0.55664000       0.16024000 </v>
   <v>       0.22113201       0.44361237       0.29977372 </v>
   <v>       0.32800418       0.33424156       0.45585434 </v>
   <v>       0.44426000       0.55664000       0.16024000 </v>
   <v>       0.55159966       0.44298755       0.29990535 </v>
   <v>       0.66510669       0.33265260       0.43584509 </v>
   <v>       0.77760000       0.55664000       0.16024000 </v>
   <v>       0.88793103       0.44334571       0.29866558 </v>
   <v>       0.99667864       0.66453586       0.43545185 </v>
   <v>       0.11093000       0.88997000       0.16024000 </v>
   <v>       0.22240236       0.77849202       0.29932934 </v>
   <v>       0.33230367       0.66423701       0.44121738 </v>
   <v>       0.44426000       0.88997000       0.16024000 </v>
   <v>       0.55332912       0.77745639       0.29855173 </v>
   <v>       0.66633038       0.66625606       0.43596146 </v>
   <v>       0.77760000       0.88997000       0.16024000 </v>
   <v>       0.88810988       0.77895974       0.29810620 </v>
   <v>       0.99982000       0.00108000       0.02337000 </v>
   <v>       0.33315000       0.00108000       0.02337000 </v>
   <v>       0.66649000       0.00108000       0.02337000 </v>
   <v>       0.99982000       0.33441000       0.02337000 </v>
   <v>       0.33315000       0.33441000       0.02337000 </v>
   <v>       0.66649000       0.33441000       0.02337000 </v>
   <v>       0.99982000       0.66775000       0.02337000 </v>
   <v>       0.33315000       0.66775000       0.02337000 </v>
   <v>       0.66649000       0.66775000       0.02337000 </v>
   <v>       0.21886012       0.08614668       0.56843798 </v>
   <v>       0.22641383       0.40542014       0.55188016 </v>
   <v>       0.21000070       0.04451349       0.63598505 </v>
  </varray>
  <varray name="selective"  type="logical" >
   <v type="logical" >  T  T  T </v>
   <v type="logical" >  F  F  F </v>
   <v type="logical" >  T  T  T </v>
   <v type="logical" >  T  T  T </v>
   <v type="logical" >  F  F  F </v>
   <v type="logical" >  T  T  T </v>
   <v type="logical" >  T  T  T </v>
   <v type="logical" >  F  F  F </v>
   <v type="logical" >  T  T  T </v>
   <v type="logical" >  T  T  T </v>
   <v type="logical" >  F  F  F </v>
   <v type="logical" >  T  T  T </v>
   <v type="logical" >  T  T  T </v>
   <v type="logical" >  F  F  F </v>
   <v type="logical" >  T  T  T </v>
   <v type="logical" >  T  T  T </v>
   <v type="logical" >  F  F  F </v>
   <v type="logical" >  T  T  T </v>
   <v type="logical" >  T  T  T </v>
   <v type="logical" >  F  F  F </v>
   <v type="logical" >  T  T  T </v>
   <v type="logical" >  T  T  T </v>
   <v type="logical" >  F  F  F </v>
   <v type="logical" >  T  T  T </v>
   <v type="logical" >  T  T  T </v>
   <v type="logical" >  F  F  F </v>
   <v type="logical" >  T  T  T </v>
   <v type="logical" >  F  F  F </v>
   <v type="logical" >  F  F  F </v>
   <v type="logical" >  F  F  F </v>
   <v type="logical" >  F  F  F </v>
   <v type="logical" >  F  F  F </v>
   <v type="logical" >  F  F  F </v>
   <v type="logical" >  F  F  F </v>
   <v type="logical" >  F  F  F </v>
   <v type="logical" >  F  F  F </v>
   <v type="logical" >  T  T  T </v>
   <v type="logical" >  T  T  T </v>
   <v type="logical" >  T  T  T </v>
  </varray>
  <nose>
   <v>      -3.00000000       0.00000000       0.00010000       0.00010000 </v>
  </nose>
 </structure>
 <calculation>
  <scstep>
   <time name="dav">   13.57   13.66</time>
   <time name="total">   13.69   13.78</time>
   <energy>
    <i name="alphaZ">    918.22725072 </i>
    <i name="ewald">  21994.85148274 </i>
    <i name="hartreedc"> -54655.85582495 </i>
    <i name="XCdc">   -994.33962266 </i>
    <i name="pawpsdc">  29844.20032359 </i>
    <i name="pawaedc"> -27608.36462881 </i>
    <i name="eentropy">     -1.24855812 </i>
    <i name="bandstr">   2440.96920648 </i>
    <i name="atom">  30161.86332653 </i>
    <i name="e_fr_energy">   2100.30295553 </i>
    <i name="e_wo_entrp">   2101.55151365 </i>
    <i name="e_0_energy">   2100.92723459 </i>
   </energy>
  </scstep>
  <scstep>
   <time name="dav">   14.33   14.43</time>
   <time name="total">   14.36   14.46</time>
   <energy>
    <i name="e_fr_energy">    -91.03302147 </i>
    <i name="e_wo_entrp">    -87.57646630 </i>
    <i name="e_0_energy">    -89.30474389 </i>
   </energy>
  </scstep>
  <scstep>
   <time name="dav">   14.98   15.08</time>
   <time name="total">   15.02   15.11</time>
   <energy>
    <i name="e_fr_energy">   -208.51375519 </i>
    <i name="e_wo_entrp">   -203.20183384 </i>
    <i name="e_0_energy">   -205.85779451 </i>
   </energy>
  </scstep>
  <scstep>
   <time name="dav">   15.47   15.56</time>
   <time name="total">   15.50   15.60</time>
   <energy>
    <i name="e_fr_energy">   -212.51855404 </i>
    <i name="e_wo_entrp">   -207.14380938 </i>
    <i name="e_0_energy">   -209.83118171 </i>
   </energy>
  </scstep>
  <scstep>
   <time name="dav">   15.67   15.77</time>
   <time name="total">   16.07   16.16</time>
   <energy>
    <i name="e_fr_energy">   -212.64703126 </i>
    <i name="e_wo_entrp">   -207.27118171 </i>
    <i name="e_0_energy">   -209.95910648 </i>
   </energy>
  </scstep>
  <scstep>
   <time name="dav">   15.53   15.62</time>
   <time name="total">   15.99   16.09</time>
   <energy>
    <i name="e_fr_energy">   -208.04749959 </i>
    <i name="e_wo_entrp">   -203.51947079 </i>
    <i name="e_0_energy">   -205.78348519 </i>
   </energy>
  </scstep>
  <scstep>
   <time name="dav">   17.09   17.20</time>
   <time name="total">   17.55   17.66</time>
   <energy>
    <i name="e_fr_energy">   -209.14185401 </i>
    <i name="e_wo_entrp">   -203.84304165 </i>
    <i name="e_0_energy">   -206.49244783 </i>
   </energy>
  </scstep>
  <scstep>
   <time name="dav">   14.19   14.27</time>
   <time name="total">   14.65   14.74</time>
   <energy>
    <i name="e_fr_energy">   -217.74689618 </i>
    <i name="e_wo_entrp">   -214.50409443 </i>
    <i name="e_0_energy">   -216.12549530 </i>
   </energy>
  </scstep>
  <scstep>
   <time name="dav">   14.27   14.36</time>
   <time name="total">   14.73   14.82</time>
   <energy>
    <i name="e_fr_energy">   -208.75891247 </i>
    <i name="e_wo_entrp">   -204.15842313 </i>
    <i name="e_0_energy">   -206.45866780 </i>
   </energy>
  </scstep>
  <scstep>
   <time name="dav">   14.60   14.69</time>
   <time name="total">   15.06   15.16</time>
   <energy>
    <i name="e_fr_energy">   -204.57612829 </i>
    <i name="e_wo_entrp">   -199.43318268 </i>
    <i name="e_0_energy">   -202.00465549 </i>
   </energy>
  </scstep>
  <scstep>
   <time name="dav">   19.25   19.36</time>
   <time name="total">   19.71   19.83</time>
   <energy>
    <i name="e_fr_energy">   -201.73036400 </i>
    <i name="e_wo_entrp">   -196.59459381 </i>
    <i name="e_0_energy">   -199.16247891 </i>
   </energy>
  </scstep>
  <scstep>
   <time name="dav">   13.88   13.96</time>
   <time name="total">   14.34   14.43</time>
   <energy>
    <i name="e_fr_energy">   -201.29850000 </i>
    <i name="e_wo_entrp">   -196.05521860 </i>
    <i name="e_0_energy">   -198.67685930 </i>
   </energy>
  </scstep>
  <scstep>
   <time name="dav">   13.90   13.98</time>
   <time name="total">   14.36   14.45</time>
   <energy>
    <i name="e_fr_energy">   -201.21718254 </i>
    <i name="e_wo_entrp">   -195.94652561 </i>
    <i name="e_0_energy">   -198.58185407 </i>
   </energy>
  </scstep>
  <scstep>
   <time name="dav">   13.73   13.81</time>
   <time name="total">   14.19   14.28</time>
   <energy>
    <i name="e_fr_energy">   -201.19638914 </i>
    <i name="e_wo_entrp">   -195.89935025 </i>
    <i name="e_0_energy">   -198.54786969 </i>
   </energy>
  </scstep>
  <scstep>
   <time name="dav">   13.96   14.04</time>
   <time name="total">   14.42   14.51</time>
   <energy>
    <i name="e_fr_energy">   -201.18905731 </i>
    <i name="e_wo_entrp">   -195.92367340 </i>
    <i name="e_0_energy">   -198.55636535 </i>
   </energy>
  </scstep>
  <scstep>
   <time name="dav">   13.89   13.97</time>
   <time name="total">   14.35   14.44</time>
   <energy>
    <i name="e_fr_energy">   -201.15232792 </i>
    <i name="e_wo_entrp">   -195.88027078 </i>
    <i name="e_0_energy">   -198.51629935 </i>
   </energy>
  </scstep>
  <scstep>
   <time name="dav">   13.81   13.90</time>
   <time name="total">   14.28   14.37</time>
   <energy>
    <i name="e_fr_energy">   -201.14384610 </i>
    <i name="e_wo_entrp">   -195.84866467 </i>
    <i name="e_0_energy">   -198.49625538 </i>
   </energy>
  </scstep>
  <scstep>
   <time name="dav">   13.72   13.80</time>
   <time name="total">   14.18   14.26</time>
   <energy>
    <i name="e_fr_energy">   -201.13622079 </i>
    <i name="e_wo_entrp">   -195.83822808 </i>
    <i name="e_0_energy">   -198.48722444 </i>
   </energy>
  </scstep>
  <scstep>
   <time name="dav">   18.27   18.38</time>
   <time name="total">   18.74   18.85</time>
   <energy>
    <i name="e_fr_energy">   -201.13330221 </i>
    <i name="e_wo_entrp">   -195.84856325 </i>
    <i name="e_0_energy">   -198.49093273 </i>
   </energy>
  </scstep>
  <scstep>
   <time name="dav">   13.60   13.68</time>
   <time name="total">   14.07   14.15</time>
   <energy>
    <i name="e_fr_energy">   -201.13345988 </i>
    <i name="e_wo_entrp">   -195.84936693 </i>
    <i name="e_0_energy">   -198.49141341 </i>
   </energy>
  </scstep>
  <scstep>
   <time name="dav">   14.65   14.73</time>
   <time name="total">   15.11   15.21</time>
   <energy>
    <i name="e_fr_energy">   -201.13325389 </i>
    <i name="e_wo_entrp">   -195.84342823 </i>
    <i name="e_0_energy">   -198.48834106 </i>
   </energy>
  </scstep>
  <scstep>
   <time name="dav">   13.58   13.67</time>
   <time name="total">   14.04   14.14</time>
   <energy>
    <i name="e_fr_energy">   -201.13360173 </i>
    <i name="e_wo_entrp">   -195.84142341 </i>
    <i name="e_0_energy">   -198.48751257 </i>
   </energy>
  </scstep>
  <scstep>
   <time name="dav">   14.79   14.88</time>
   <time name="total">   15.26   15.35</time>
   <energy>
    <i name="e_fr_energy">   -201.13369708 </i>
    <i name="e_wo_entrp">   -195.84576635 </i>
    <i name="e_0_energy">   -198.48973172 </i>
   </energy>
  </scstep>
  <scstep>
   <time name="dav">   13.75   13.83</time>
   <time name="total">   14.21   14.30</time>
   <energy>
    <i name="e_fr_energy">   -201.13380912 </i>
    <i name="e_wo_entrp">   -195.84673729 </i>
    <i name="e_0_energy">   -198.49027321 </i>
   </energy>
  </scstep>
  <scstep>
   <time name="dav">   15.02   15.11</time>
   <time name="total">   15.48   15.58</time>
   <energy>
    <i name="e_fr_energy">   -201.13382309 </i>
    <i name="e_wo_entrp">   -195.84355062 </i>
    <i name="e_0_energy">   -198.48868685 </i>
   </energy>
  </scstep>
  <scstep>
   <time name="dav">   13.70   13.80</time>
   <time name="total">   14.16   14.28</time>
   <energy>
    <i name="e_fr_energy">   -201.13390900 </i>
    <i name="e_wo_entrp">   -195.84388954 </i>
    <i name="e_0_energy">   -198.48889927 </i>
   </energy>
  </scstep>
  <scstep>
   <time name="dav">   12.57   12.66</time>
   <time name="total">   13.03   13.13</time>
   <energy>
    <i name="e_fr_energy">   -201.13409774 </i>
    <i name="e_wo_entrp">   -195.84597657 </i>
    <i name="e_0_energy">   -198.49003716 </i>
   </energy>
  </scstep>
  <scstep>
   <time name="dav">   13.85   13.93</time>
   <time name="total">   14.32   14.41</time>
   <energy>
    <i name="e_fr_energy">   -201.13416016 </i>
    <i name="e_wo_entrp">   -195.84570365 </i>
    <i name="e_0_energy">   -198.48993190 </i>
   </energy>
  </scstep>
  <scstep>
   <time name="dav">    9.93    9.99</time>
   <time name="total">   10.40   10.46</time>
   <energy>
    <i name="e_fr_energy">   -201.13422297 </i>
    <i name="e_wo_entrp">   -195.84499771 </i>
    <i name="e_0_energy">   -198.48961034 </i>
   </energy>
  </scstep>
  <scstep>
   <time name="dav">   10.05   10.11</time>
   <time name="total">   10.51   10.58</time>
   <energy>
    <i name="e_fr_energy">   -201.13424624 </i>
    <i name="e_wo_entrp">   -195.84491672 </i>
    <i name="e_0_energy">   -198.48958148 </i>
   </energy>
  </scstep>
  <scstep>
   <time name="dav">    9.63    9.69</time>
   <time name="total">   10.10   10.17</time>
   <energy>
    <i name="e_fr_energy">   -201.13427124 </i>
    <i name="e_wo_entrp">   -195.84472991 </i>
    <i name="e_0_energy">   -198.48950058 </i>
   </energy>
  </scstep>
  <scstep>
   <time name="dav">   10.06   10.13</time>
   <time name="total">   10.53   10.60</time>
   <energy>
    <i name="e_fr_energy">   -201.13428141 </i>
    <i name="e_wo_entrp">   -195.84481848 </i>
    <i name="e_0_energy">   -198.48954995 </i>
   </energy>
  </scstep>
  <scstep>
   <time name="dav">    9.50    9.55</time>
   <time name="total">    9.60    9.66</time>
   <energy>
    <i name="alphaZ">    918.22725072 </i>
    <i name="ewald">  21994.85148274 </i>
    <i name="hartreedc"> -54552.40646375 </i>
    <i name="XCdc">  -1000.95129232 </i>
    <i name="pawpsdc">  35162.42281450 </i>
    <i name="pawaedc"> -33007.53046263 </i>
    <i name="eentropy">     -5.28951840 </i>
    <i name="bandstr">    127.67857587 </i>
    <i name="atom">  30161.86332653 </i>
    <i name="e_fr_energy">   -201.13428675 </i>
    <i name="e_wo_entrp">   -195.84476835 </i>
    <i name="e_0_energy">   -198.48952755 </i>
   </energy>
  </scstep>
  <structure>
   <crystal>
    <varray name="basis" >
     <v>       8.30990028       0.00000000       0.00000000 </v>
     <v>      -4.15495014       7.19658475       0.00000000 </v>
     <v>       0.00000000       0.00000000      16.52350044 </v>
    </varray>
    <i name="volume">    988.15327180 </i>
    <varray name="rec_basis" >
     <v>       0.12033839       0.06947740       0.00000000 </v>
     <v>       0.00000000       0.13895480       0.00000000 </v>
     <v>       0.00000000       0.00000000       0.06051986 </v>
    </varray>
   </crystal>
   <varray name="positions" >
    <v>       0.99973645       0.99740718       0.44217185 </v>
    <v>       0.11093000       0.22330000       0.16024000 </v>
    <v>       0.22206955       0.11304730       0.30041045 </v>
    <v>       0.33085505       0.00017063       0.44220776 </v>
    <v>       0.44426000       0.22330000       0.16024000 </v>
    <v>       0.55317603       0.11037573       0.29842625 </v>
    <v>       0.66476840       0.99889206       0.43609438 </v>
    <v>       0.77760000       0.22330000       0.16024000 </v>
    <v>       0.88875104       0.11175766       0.29982812 </v>
    <v>       0.99964973       0.33378040       0.44415655 </v>
    <v>       0.11093000       0.55664000       0.16024000 </v>
    <v>       0.22113201       0.44361237       0.29977372 </v>
    <v>       0.32800418       0.33424156       0.45585434 </v>
    <v>       0.44426000       0.55664000       0.16024000 </v>
    <v>       0.55159966       0.44298755       0.29990535 </v>
    <v>       0.66510669       0.33265260       0.43584509 </v>
    <v>       0.77760000       0.55664000       0.16024000 </v>
    <v>       0.88793103       0.44334571       0.29866558 </v>
    <v>       0.99667864       0.66453586       0.43545185 </v>
    <v>       0.11093000       0.88997000       0.16024000 </v>
    <v>       0.22240236       0.77849202       0.29932934 </v>
    <v>       0.33230367       0.66423701       0.44121738 </v>
    <v>       0.44426000       0.88997000       0.16024000 </v>
    <v>       0.55332912       0.77745639       0.29855173 </v>
    <v>       0.66633038       0.66625606       0.43596146 </v>
    <v>       0.77760000       0.88997000       0.16024000 </v>
    <v>       0.88810988       0.77895974       0.29810620 </v>
    <v>       0.99982000       0.00108000       0.02337000 </v>
    <v>       0.33315000       0.00108000       0.02337000 </v>
    <v>       0.66649000       0.00108000       0.02337000 </v>
    <v>       0.99982000       0.33441000       0.02337000 </v>
    <v>       0.33315000       0.33441000       0.02337000 </v>
    <v>       0.66649000       0.33441000       0.02337000 </v>
    <v>       0.99982000       0.66775000       0.02337000 </v>
    <v>       0.33315000       0.66775000       0.02337000 </v>
    <v>       0.66649000       0.66775000       0.02337000 </v>
    <v>       0.21886012       0.08614668       0.56843798 </v>
    <v>       0.22641383       0.40542014       0.55188016 </v>
    <v>       0.21000070       0.04451349       0.63598505 </v>
   </varray>
  </structure>
  <varray name="forces" >
   <v>       0.08203718       0.01982689       0.25772244 </v>
   <v>       0.00042829      -0.01283631       0.26848963 </v>
   <v>       0.00339008       0.03117245       0.13004253 </v>
   <v>      -0.10032204       0.07390050       0.37994983 </v>
   <v>      -0.03091861       0.01533879       0.23829819 </v>
   <v>      -0.03242680      -0.01907605       0.06796607 </v>
   <v>      -0.00561287       0.00233622      -0.00774857 </v>
   <v>       0.01742648       0.00475182       0.19616143 </v>
   <v>       0.02805380       0.01840432       0.11833137 </v>
   <v>       0.14879452       0.08919561       0.46328122 </v>
   <v>       0.00392736      -0.00809187       0.20524587 </v>
   <v>       0.00968920      -0.01714682       0.12912341 </v>
   <v>       0.05203893       0.08167825       0.63278189 </v>
   <v>      -0.00251259      -0.03924719       0.23279918 </v>
   <v>      -0.01845887      -0.01644026       0.09136190 </v>
   <v>       0.02011159      -0.00019077       0.02640482 </v>
   <v>      -0.01734520      -0.02362537       0.14788607 </v>
   <v>       0.04023158      -0.03003183       0.09680942 </v>
   <v>       0.00242797       0.00596368       0.02369311 </v>
   <v>       0.00250858       0.00528562       0.22297542 </v>
   <v>       0.01862199       0.02630605       0.11667552 </v>
   <v>      -0.02110548      -0.06895196       0.24384657 </v>
   <v>      -0.01909013      -0.02204244       0.18697656 </v>
   <v>      -0.02613826      -0.01881129       0.04819834 </v>
   <v>       0.01267301       0.02477221       0.01125281 </v>
   <v>       0.00759895       0.01308283       0.19501186 </v>
   <v>       0.00773405       0.02498263       0.04178234 </v>
   <v>      -0.00073620       0.00533425      -0.13398746 </v>
   <v>       0.00637322       0.00409373      -0.14411196 </v>
   <v>      -0.00340370       0.00377744      -0.14000816 </v>
   <v>       0.00530247      -0.00411666      -0.13664448 </v>
   <v>       0.00108193       0.00093731      -0.14616756 </v>
   <v>      -0.00355429      -0.00863194      -0.13766276 </v>
   <v>       0.01142516       0.00037997      -0.13316718 </v>
   <v>      -0.00172856       0.00277736      -0.14443191 </v>
   <v>      -0.01155048      -0.00403284      -0.13631792 </v>
   <v>       0.27613356      -0.77278570      -0.89913244 </v>
   <v>      -0.31730584       0.20511346      -2.12905097 </v>
   <v>      -0.14579997       0.40664788      -0.48463643 </v>
  </varray>
  <varray name="stress" >
   <v>     -25.03495199      -0.33925921      -0.63056492 </v>
   <v>      -0.33925902     -23.39601274       0.61233626 </v>
   <v>      -0.63056483       0.61233614     -25.18755339 </v>
  </varray>
  <energy>
   <i name="e_fr_energy">   -201.13428675 </i>
   <i name="e_wo_entrp">   -195.84476835 </i>
   <i name="e_0_energy">   -198.48952755 </i>
  </energy>
  <time name="totalsc">  598.11  601.62</time>
 </calculation>
 <calculation>
  <scstep>
   <time name="dav">   13.36   13.43</time>
   <time name="total">   13.83   13.91</time>
   <energy>
    <i name="alphaZ">    918.22725072 </i>
    <i name="ewald">  21989.38364502 </i>
    <i name="hartreedc"> -54546.90127980 </i>
    <i name="XCdc">  -1000.95092073 </i>
    <i name="pawpsdc">  35162.39965499 </i>
    <i name="pawaedc"> -33007.50685546 </i>
    <i name="eentropy">     -5.28765568 </i>
    <i name="bandstr">    127.63421834 </i>
    <i name="atom">  30161.86332653 </i>
    <i name="e_fr_energy">   -201.13861607 </i>
    <i name="e_wo_entrp">   -195.85096039 </i>
    <i name="e_0_energy">   -198.49478823 </i>
   </energy>
  </scstep>
  <scstep>
   <time name="dav">   13.47   13.55</time>
   <time name="total">   13.93   14.02</time>
   <energy>
    <i name="e_fr_energy">   -201.13885832 </i>
    <i name="e_wo_entrp">   -195.84768766 </i>
    <i name="e_0_energy">   -198.49327299 </i>
   </energy>
  </scstep>
  <scstep>
   <time name="dav">   13.84   13.93</time>
   <time name="total">   14.30   14.39</time>
   <energy>
    <i name="e_fr_energy">   -201.13875531 </i>
    <i name="e_wo_entrp">   -195.85040441 </i>
    <i name="e_0_energy">   -198.49457986 </i>
   </energy>
  </scstep>
  <scstep>
   <time name="dav">   13.68   13.77</time>
   <time name="total">   14.14   14.23</time>
   <energy>
    <i name="e_fr_energy">   -201.13877863 </i>
    <i name="e_wo_entrp">   -195.85003987 </i>
    <i name="e_0_energy">   -198.49440925 </i>
   </energy>
  </scstep>
  <scstep>
   <time name="dav">   10.79   10.85</time>
   <time name="total">   11.25   11.32</time>
   <energy>
    <i name="e_fr_energy">   -201.13876514 </i>
    <i name="e_wo_entrp">   -195.84945260 </i>
    <i name="e_0_energy">   -198.49410887 </i>
   </energy>
  </scstep>
  <scstep>
   <time name="dav">   10.01   10.07</time>
   <time name="total">   10.48   10.55</time>
   <energy>
    <i name="e_fr_energy">   -201.13873908 </i>
    <i name="e_wo_entrp">   -195.84978914 </i>
    <i name="e_0_energy">   -198.49426411 </i>
   </energy>
  </scstep>
  <scstep>
   <time name="dav">    9.81    9.87</time>
   <time name="total">    9.92    9.98</time>
   <energy>
    <i name="alphaZ">    918.22725072 </i>
    <i name="ewald">  21989.38364502 </i>
    <i name="hartreedc"> -54547.10647672 </i>
    <i name="XCdc">  -1000.94776542 </i>
    <i name="pawpsdc">  35163.07852601 </i>
    <i name="pawaedc"> -33008.18565962 </i>
    <i name="eentropy">     -5.28834873 </i>
    <i name="bandstr">    127.83676585 </i>
    <i name="atom">  30161.86332653 </i>
    <i name="e_fr_energy">   -201.13873637 </i>
    <i name="e_wo_entrp">   -195.85038764 </i>
    <i name="e_0_energy">   -198.49456200 </i>
   </energy>
  </scstep>
  <structure>
   <crystal>
    <varray name="basis" >
     <v>       8.30990028       0.00000000       0.00000000 </v>
     <v>      -4.15495014       7.19658475       0.00000000 </v>
     <v>       0.00000000       0.00000000      16.52350044 </v>
    </varray>
    <i name="volume">    988.15327180 </i>
    <varray name="rec_basis" >
     <v>       0.12033839       0.06947740       0.00000000 </v>
     <v>       0.00000000       0.13895480       0.00000000 </v>
     <v>       0.00000000       0.00000000       0.06051986 </v>
    </varray>
   </crystal>
   <varray name="positions" >
    <v>       0.99975603       0.99741831       0.44219286 </v>
    <v>       0.11093000       0.22330000       0.16024000 </v>
    <v>       0.22207609       0.11305848       0.30042928 </v>
    <v>       0.33084466       0.00019578       0.44224694 </v>
    <v>       0.44426000       0.22330000       0.16024000 </v>
    <v>       0.55316676       0.11037195       0.29843550 </v>
    <v>       0.66476944       0.99889574       0.43609460 </v>
    <v>       0.77760000       0.22330000       0.16024000 </v>
    <v>       0.88876111       0.11176300       0.29984129 </v>
    <v>       0.99969435       0.33380251       0.44420295 </v>
    <v>       0.11093000       0.55664000       0.16024000 </v>
    <v>       0.22113267       0.44360852       0.29979269 </v>
    <v>       0.32803384       0.33427886       0.45592574 </v>
    <v>       0.44426000       0.55664000       0.16024000 </v>
    <v>       0.55159339       0.44298402       0.29991807 </v>
    <v>       0.66511052       0.33265383       0.43585048 </v>
    <v>       0.77760000       0.55664000       0.16024000 </v>
    <v>       0.88793825       0.44333874       0.29867835 </v>
    <v>       0.99668706       0.66454343       0.43545790 </v>
    <v>       0.11093000       0.88997000       0.16024000 </v>
    <v>       0.22241029       0.77850074       0.29934335 </v>
    <v>       0.33229159       0.66423013       0.44123558 </v>
    <v>       0.44426000       0.88997000       0.16024000 </v>
    <v>       0.55332285       0.77745200       0.29855669 </v>
    <v>       0.66633490       0.66626391       0.43596546 </v>
    <v>       0.77760000       0.88997000       0.16024000 </v>
    <v>       0.88811638       0.77896734       0.29811264 </v>
    <v>       0.99982000       0.00108000       0.02337000 </v>
    <v>       0.33315000       0.00108000       0.02337000 </v>
    <v>       0.66649000       0.00108000       0.02337000 </v>
    <v>       0.99982000       0.33441000       0.02337000 </v>
    <v>       0.33315000       0.33441000       0.02337000 </v>
    <v>       0.66649000       0.33441000       0.02337000 </v>
    <v>       0.99982000       0.66775000       0.02337000 </v>
    <v>       0.33315000       0.66775000       0.02337000 </v>
    <v>       0.66649000       0.66775000       0.02337000 </v>
    <v>       0.21885609       0.08605027       0.56848956 </v>
    <v>       0.22642696       0.40523442       0.55177454 </v>
    <v>       0.21004530       0.04454757       0.63604376 </v>
   </varray>
  </structure>
  <varray name="forces" >
   <v>       0.07982549       0.01819204       0.25631919 </v>
   <v>       0.00057142      -0.01265855       0.26957983 </v>
   <v>       0.00343347       0.03075942       0.12957510 </v>
   <v>      -0.09789160       0.07352727       0.38037798 </v>
   <v>      -0.03096239       0.01537984       0.23923780 </v>
   <v>      -0.03240062      -0.01886304       0.06790557 </v>
   <v>      -0.00560627       0.00255754      -0.00668634 </v>
   <v>       0.01748807       0.00478526       0.19715267 </v>
   <v>       0.02806893       0.01840313       0.11828363 </v>
   <v>       0.14522356       0.08779157       0.46133631 </v>
   <v>       0.00410739      -0.00808807       0.20635614 </v>
   <v>       0.00964661      -0.01705522       0.12854875 </v>
   <v>       0.06633667       0.07672288       0.61275594 </v>
   <v>      -0.00257658      -0.03943507       0.23360695 </v>
   <v>      -0.01774358      -0.01629009       0.08990786 </v>
   <v>       0.02044623       0.00013643       0.02660054 </v>
   <v>      -0.01723356      -0.02368205       0.14866147 </v>
   <v>       0.04010025      -0.02982057       0.09661443 </v>
   <v>       0.00147257       0.00581365       0.02438741 </v>
   <v>       0.00269575       0.00551622       0.22380545 </v>
   <v>       0.01770363       0.02561351       0.11655028 </v>
   <v>      -0.02057646      -0.06555545       0.24104162 </v>
   <v>      -0.01913154      -0.02197683       0.18755679 </v>
   <v>      -0.02600612      -0.01881744       0.04705083 </v>
   <v>       0.01244145       0.02432390       0.01169693 </v>
   <v>       0.00762929       0.01321181       0.19562930 </v>
   <v>       0.00785121       0.02490194       0.04136134 </v>
   <v>      -0.00070834       0.00536346      -0.13437574 </v>
   <v>       0.00643195       0.00413379      -0.14442871 </v>
   <v>      -0.00334123       0.00385570      -0.14033571 </v>
   <v>       0.00532374      -0.00409956      -0.13692587 </v>
   <v>       0.00112604       0.00096430      -0.14643244 </v>
   <v>      -0.00347890      -0.00858757      -0.13790362 </v>
   <v>       0.01147014       0.00038229      -0.13342587 </v>
   <v>      -0.00169150       0.00279905      -0.14474174 </v>
   <v>      -0.01148174      -0.00399724      -0.13666575 </v>
   <v>       0.27682509      -0.77175308      -0.91002032 </v>
   <v>      -0.33075516       0.21286721      -2.10849537 </v>
   <v>      -0.14463336       0.40267764      -0.47146264 </v>
  </varray>
  <varray name="stress" >
   <v>     -25.02085610      -0.35857716      -0.64964990 </v>
   <v>      -0.35857719     -23.38702697       0.61353801 </v>
   <v>      -0.64964977       0.61353803     -25.07246870 </v>
  </varray>
  <energy>
   <i name="e_fr_energy">   -201.13873637 </i>
   <i name="e_wo_entrp">   -195.85038764 </i>
   <i name="e_0_energy">   -198.49456200 </i>
  </energy>
  <time name="totalsc">  177.83  178.84</time>
 </calculation>
 <calculation>
  <scstep>
   <time name="dav">   13.25   13.34</time>
   <time name="total">   13.71   13.80</time>
   <energy>
    <i name="alphaZ">    918.22725072 </i>
    <i name="ewald">  21978.48266792 </i>
    <i name="hartreedc"> -54536.11885999 </i>
    <i name="XCdc">  -1000.94776087 </i>
    <i name="pawpsdc">  35163.13034186 </i>
    <i name="pawaedc"> -33008.23762560 </i>
    <i name="eentropy">     -5.28485141 </i>
    <i name="bandstr">    127.73868302 </i>
    <i name="atom">  30161.86332653 </i>
    <i name="e_fr_energy">   -201.14682782 </i>
    <i name="e_wo_entrp">   -195.86197641 </i>
    <i name="e_0_energy">   -198.50440212 </i>
   </energy>
  </scstep>
  <scstep>
   <time name="dav">   13.43   13.52</time>
   <time name="total">   13.89   13.98</time>
   <energy>
    <i name="e_fr_energy">   -201.14789923 </i>
    <i name="e_wo_entrp">   -195.85541351 </i>
    <i name="e_0_energy">   -198.50165637 </i>
   </energy>
  </scstep>
  <scstep>
   <time name="dav">   13.81   13.90</time>
   <time name="total">   14.27   14.36</time>
   <energy>
    <i name="e_fr_energy">   -201.14738307 </i>
    <i name="e_wo_entrp">   -195.86072484 </i>
    <i name="e_0_energy">   -198.50405396 </i>
   </energy>
  </scstep>
  <scstep>
   <time name="dav">   13.97   14.06</time>
   <time name="total">   14.43   14.52</time>
   <energy>
    <i name="e_fr_energy">   -201.14746961 </i>
    <i name="e_wo_entrp">   -195.86027052 </i>
    <i name="e_0_energy">   -198.50387006 </i>
   </energy>
  </scstep>
  <scstep>
   <time name="dav">   14.21   14.30</time>
   <time name="total">   14.67   14.77</time>
   <energy>
    <i name="e_fr_energy">   -201.14743180 </i>
    <i name="e_wo_entrp">   -195.85935474 </i>
    <i name="e_0_energy">   -198.50339327 </i>
   </energy>
  </scstep>
  <scstep>
   <time name="dav">   13.69   13.78</time>
   <time name="total">   14.15   14.24</time>
   <energy>
    <i name="e_fr_energy">   -201.14731152 </i>
    <i name="e_wo_entrp">   -195.85974053 </i>
    <i name="e_0_energy">   -198.50352603 </i>
   </energy>
  </scstep>
  <scstep>
   <time name="dav">   14.27   14.36</time>
   <time name="total">   14.73   14.82</time>
   <energy>
    <i name="e_fr_energy">   -201.14730535 </i>
    <i name="e_wo_entrp">   -195.86110289 </i>
    <i name="e_0_energy">   -198.50420412 </i>
   </energy>
  </scstep>
  <scstep>
   <time name="dav">   12.87   12.95</time>
   <time name="total">   13.33   13.42</time>
   <energy>
    <i name="e_fr_energy">   -201.14728807 </i>
    <i name="e_wo_entrp">   -195.86074975 </i>
    <i name="e_0_energy">   -198.50401891 </i>
   </energy>
  </scstep>
  <scstep>
   <time name="dav">    8.78    8.83</time>
   <time name="total">    8.88    8.94</time>
   <energy>
    <i name="alphaZ">    918.22725072 </i>
    <i name="ewald">  21978.48266792 </i>
    <i name="hartreedc"> -54536.50535567 </i>
    <i name="XCdc">  -1000.94225436 </i>
    <i name="pawpsdc">  35164.50226100 </i>
    <i name="pawaedc"> -33009.61070873 </i>
    <i name="eentropy">     -5.28638660 </i>
    <i name="bandstr">    128.12191390 </i>
    <i name="atom">  30161.86332653 </i>
    <i name="e_fr_energy">   -201.14728529 </i>
    <i name="e_wo_entrp">   -195.86089870 </i>
    <i name="e_0_energy">   -198.50409199 </i>
   </energy>
  </scstep>
  <structure>
   <crystal>
    <varray name="basis" >
     <v>       8.30990028       0.00000000       0.00000000 </v>
     <v>      -4.15495014       7.19658475       0.00000000 </v>
     <v>       0.00000000       0.00000000      16.52350044 </v>
    </varray>
    <i name="volume">    988.15327180 </i>
    <varray name="rec_basis" >
     <v>       0.12033839       0.06947740       0.00000000 </v>
     <v>       0.00000000       0.13895480       0.00000000 </v>
     <v>       0.00000000       0.00000000       0.06051986 </v>
    </varray>
   </crystal>
   <varray name="positions" >
    <v>       0.99979357       0.99743964       0.44223462 </v>
    <v>       0.11093000       0.22330000       0.16024000 </v>
    <v>       0.22208919       0.11308083       0.30046712 </v>
    <v>       0.33082501       0.00024627       0.44232573 </v>
    <v>       0.44426000       0.22330000       0.16024000 </v>
    <v>       0.55314820       0.11036449       0.29845408 </v>
    <v>       0.66477157       0.99890327       0.43609534 </v>
    <v>       0.77760000       0.22330000       0.16024000 </v>
    <v>       0.88878132       0.11177370       0.29986769 </v>
    <v>       0.99978140       0.33384599       0.44429551 </v>
    <v>       0.11093000       0.55664000       0.16024000 </v>
    <v>       0.22113401       0.44360083       0.29983072 </v>
    <v>       0.32809897       0.33435138       0.45606491 </v>
    <v>       0.44426000       0.55664000       0.16024000 </v>
    <v>       0.55158106       0.44297692       0.29994334 </v>
    <v>       0.66511839       0.33265651       0.43586135 </v>
    <v>       0.77760000       0.55664000       0.16024000 </v>
    <v>       0.88795271       0.44332487       0.29870396 </v>
    <v>       0.99670341       0.66455856       0.43547027 </v>
    <v>       0.11093000       0.88997000       0.16024000 </v>
    <v>       0.22242539       0.77851780       0.29937144 </v>
    <v>       0.33226859       0.66421854       0.44127117 </v>
    <v>       0.44426000       0.88997000       0.16024000 </v>
    <v>       0.55331034       0.77744319       0.29856626 </v>
    <v>       0.66634358       0.66627930       0.43597366 </v>
    <v>       0.77760000       0.88997000       0.16024000 </v>
    <v>       0.88812945       0.77898251       0.29812548 </v>
    <v>       0.99982000       0.00108000       0.02337000 </v>
    <v>       0.33315000       0.00108000       0.02337000 </v>
    <v>       0.66649000       0.00108000       0.02337000 </v>
    <v>       0.99982000       0.33441000       0.02337000 </v>
    <v>       0.33315000       0.33441000       0.02337000 </v>
    <v>       0.66649000       0.33441000       0.02337000 </v>
    <v>       0.99982000       0.66775000       0.02337000 </v>
    <v>       0.33315000       0.66775000       0.02337000 </v>
    <v>       0.66649000       0.66775000       0.02337000 </v>
    <v>       0.21884812       0.08586051       0.56858856 </v>
    <v>       0.22644926       0.40486107       0.55156511 </v>
    <v>       0.21013428       0.04461596       0.63616451 </v>
   </varray>
  </structure>
  <varray name="forces" >
   <v>       0.07756819       0.01673041       0.25416008 </v>
   <v>       0.00078031      -0.01235636       0.27131465 </v>
   <v>       0.00339152       0.02973803       0.12864282 </v>
   <v>      -0.09570051       0.07247924       0.38103606 </v>
   <v>      -0.03121643       0.01540297       0.24062128 </v>
   <v>      -0.03116439      -0.01757864       0.06696067 </v>
   <v>      -0.00571123       0.00276828      -0.00633167 </v>
   <v>       0.01753137       0.00481711       0.19887943 </v>
   <v>       0.02801394       0.01703994       0.11711386 </v>
   <v>       0.14145308       0.08408448       0.45561067 </v>
   <v>       0.00443478      -0.00809548       0.20832625 </v>
   <v>       0.00933737      -0.01681077       0.12746523 </v>
   <v>       0.08803696       0.06881546       0.57439810 </v>
   <v>      -0.00282327      -0.03984323       0.23486161 </v>
   <v>      -0.01689882      -0.01551457       0.08877709 </v>
   <v>       0.02118645       0.00056262       0.02786324 </v>
   <v>      -0.01712924      -0.02381825       0.15002091 </v>
   <v>       0.04027893      -0.02900566       0.09452727 </v>
   <v>       0.00156184       0.00540080       0.02402109 </v>
   <v>       0.00299367       0.00596083       0.22529444 </v>
   <v>       0.01761633       0.02510941       0.11550170 </v>
   <v>      -0.02035338      -0.05796228       0.23413639 </v>
   <v>      -0.01935342      -0.02195381       0.18862625 </v>
   <v>      -0.02555576      -0.01848284       0.04669894 </v>
   <v>       0.01267128       0.02426726       0.01179773 </v>
   <v>       0.00761221       0.01339995       0.19681930 </v>
   <v>       0.00754779       0.02371879       0.03970119 </v>
   <v>      -0.00070291       0.00533252      -0.13403277 </v>
   <v>       0.00639205       0.00413721      -0.14409264 </v>
   <v>      -0.00332292       0.00391215      -0.14020738 </v>
   <v>       0.00531117      -0.00403780      -0.13660312 </v>
   <v>       0.00110365       0.00102857      -0.14591311 </v>
   <v>      -0.00346762      -0.00847469      -0.13762092 </v>
   <v>       0.01146368       0.00038404      -0.13308421 </v>
   <v>      -0.00171739       0.00277145      -0.14443862 </v>
   <v>      -0.01143677      -0.00398181      -0.13639153 </v>
   <v>       0.27859898      -0.77241716      -0.92124264 </v>
   <v>      -0.35477299       0.22520807      -2.06422384 </v>
   <v>      -0.14355851       0.39726373      -0.45899381 </v>
  </varray>
  <varray name="stress" >
   <v>     -25.02158224      -0.38152885      -0.70875068 </v>
   <v>      -0.38152880     -23.39358064       0.61528898 </v>
   <v>      -0.70875072       0.61528886     -25.02287090 </v>
  </varray>
  <energy>
   <i name="e_fr_energy">   -201.14728529 </i>
   <i name="e_wo_entrp">   -195.86089870 </i>
   <i name="e_0_energy">   -198.50409199 </i>
  </energy>
  <time name="totalsc">  182.42  183.64</time>
 </calculation>
 <calculation>
  <scstep>
   <time name="dav">   13.34   13.42</time>
   <time name="total">   13.80   13.88</time>
   <energy>
    <i name="alphaZ">    918.22725072 </i>
    <i name="ewald">  21962.32272101 </i>
    <i name="hartreedc"> -54520.23498127 </i>
    <i name="XCdc">  -1000.94302295 </i>
    <i name="pawpsdc">  35164.48289762 </i>
    <i name="pawaedc"> -33009.59131753 </i>
    <i name="eentropy">     -5.28112309 </i>
    <i name="bandstr">    127.99597096 </i>
    <i name="atom">  30161.86332653 </i>
    <i name="e_fr_energy">   -201.15827801 </i>
    <i name="e_wo_entrp">   -195.87715492 </i>
    <i name="e_0_energy">   -198.51771646 </i>
   </energy>
  </scstep>
  <scstep>
   <time name="dav">   13.46   13.55</time>
   <time name="total">   13.93   14.02</time>
   <energy>
    <i name="e_fr_energy">   -201.16054463 </i>
    <i name="e_wo_entrp">   -195.86813099 </i>
    <i name="e_0_energy">   -198.51433781 </i>
   </energy>
  </scstep>
  <scstep>
   <time name="dav">   13.90   13.98</time>
   <time name="total">   14.35   14.45</time>
   <energy>
    <i name="e_fr_energy">   -201.15949421 </i>
    <i name="e_wo_entrp">   -195.87559684 </i>
    <i name="e_0_energy">   -198.51754552 </i>
   </energy>
  </scstep>
  <scstep>
   <time name="dav">   14.04   14.12</time>
   <time name="total">   14.50   14.59</time>
   <energy>
    <i name="e_fr_energy">   -201.15973101 </i>
    <i name="e_wo_entrp">   -195.87500522 </i>
    <i name="e_0_energy">   -198.51736811 </i>
   </energy>
  </scstep>
  <scstep>
   <time name="dav">   14.53   14.62</time>
   <time name="total">   14.99   15.09</time>
   <energy>
    <i name="e_fr_energy">   -201.15959427 </i>
    <i name="e_wo_entrp">   -195.87358679 </i>
    <i name="e_0_energy">   -198.51659053 </i>
   </energy>
  </scstep>
  <scstep>
   <time name="dav">   14.08   14.17</time>
   <time name="total">   14.54   14.64</time>
   <energy>
    <i name="e_fr_energy">   -201.15935547 </i>
    <i name="e_wo_entrp">   -195.87406156 </i>
    <i name="e_0_energy">   -198.51670852 </i>
   </energy>
  </scstep>
  <scstep>
   <time name="dav">   16.38   16.48</time>
   <time name="total">   16.84   16.95</time>
   <energy>
    <i name="e_fr_energy">   -201.15932566 </i>
    <i name="e_wo_entrp">   -195.87592573 </i>
    <i name="e_0_energy">   -198.51762569 </i>
   </energy>
  </scstep>
  <scstep>
   <time name="dav">   13.61   13.69</time>
   <time name="total">   14.07   14.16</time>
   <energy>
    <i name="e_fr_energy">   -201.15929603 </i>
    <i name="e_wo_entrp">   -195.87569957 </i>
    <i name="e_0_energy">   -198.51749780 </i>
   </energy>
  </scstep>
  <scstep>
   <time name="dav">   10.01   10.07</time>
   <time name="total">   10.11   10.17</time>
   <energy>
    <i name="alphaZ">    918.22725072 </i>
    <i name="ewald">  21962.32272101 </i>
    <i name="hartreedc"> -54520.76518901 </i>
    <i name="XCdc">  -1000.93537678 </i>
    <i name="pawpsdc">  35166.23878227 </i>
    <i name="pawaedc"> -33011.34893638 </i>
    <i name="eentropy">     -5.28347055 </i>
    <i name="bandstr">    128.52160337 </i>
    <i name="atom">  30161.86332653 </i>
    <i name="e_fr_energy">   -201.15928884 </i>
    <i name="e_wo_entrp">   -195.87581828 </i>
    <i name="e_0_energy">   -198.51755356 </i>
   </energy>
  </scstep>
  <structure>
   <crystal>
    <varray name="basis" >
     <v>       8.30990028       0.00000000       0.00000000 </v>
     <v>      -4.15495014       7.19658475       0.00000000 </v>
     <v>       0.00000000       0.00000000      16.52350044 </v>
    </varray>
    <i name="volume">    988.15327180 </i>
    <varray name="rec_basis" >
     <v>       0.12033839       0.06947740       0.00000000 </v>
     <v>       0.00000000       0.13895480       0.00000000 </v>
     <v>       0.00000000       0.00000000       0.06051986 </v>
    </varray>
   </crystal>
   <varray name="positions" >
    <v>       0.99984804       0.99747085       0.44229695 </v>
    <v>       0.11093000       0.22330000       0.16024000 </v>
    <v>       0.22210870       0.11311414       0.30052458 </v>
    <v>       0.33079628       0.00032243       0.44244550 </v>
    <v>       0.44426000       0.22330000       0.16024000 </v>
    <v>       0.55312174       0.11035441       0.29848185 </v>
    <v>       0.66477472       0.99891489       0.43609652 </v>
    <v>       0.77760000       0.22330000       0.16024000 </v>
    <v>       0.88881117       0.11178838       0.29990707 </v>
    <v>       0.99990815       0.33390819       0.44443310 </v>
    <v>       0.11093000       0.55664000       0.16024000 </v>
    <v>       0.22113587       0.44358929       0.29988827 </v>
    <v>       0.32820951       0.33445611       0.45626392 </v>
    <v>       0.44426000       0.55664000       0.16024000 </v>
    <v>       0.55156288       0.44296666       0.29998166 </v>
    <v>       0.66513084       0.33266098       0.43587845 </v>
    <v>       0.77760000       0.55664000       0.16024000 </v>
    <v>       0.88797522       0.44330460       0.29874191 </v>
    <v>       0.99672823       0.66458110       0.43548890 </v>
    <v>       0.11093000       0.88997000       0.16024000 </v>
    <v>       0.22244792       0.77854321       0.29941352 </v>
    <v>       0.33223729       0.66420858       0.44132165 </v>
    <v>       0.44426000       0.88997000       0.16024000 </v>
    <v>       0.55329202       0.77743016       0.29858051 </v>
    <v>       0.66635664       0.66630244       0.43598622 </v>
    <v>       0.77760000       0.88997000       0.16024000 </v>
    <v>       0.88814827       0.77900422       0.29814426 </v>
    <v>       0.99982000       0.00108000       0.02337000 </v>
    <v>       0.33315000       0.00108000       0.02337000 </v>
    <v>       0.66649000       0.00108000       0.02337000 </v>
    <v>       0.99982000       0.33441000       0.02337000 </v>
    <v>       0.33315000       0.33441000       0.02337000 </v>
    <v>       0.66649000       0.33441000       0.02337000 </v>
    <v>       0.99982000       0.66775000       0.02337000 </v>
    <v>       0.33315000       0.66775000       0.02337000 </v>
    <v>       0.66649000       0.66775000       0.02337000 </v>
    <v>       0.21883507       0.08558074       0.56872887 </v>
    <v>       0.22647140       0.40429177       0.55125656 </v>
    <v>       0.21026749       0.04472260       0.63634926 </v>
   </varray>
  </structure>
  <varray name="forces" >
   <v>       0.07475076       0.01450011       0.25102888 </v>
   <v>       0.00113226      -0.01194386       0.27419719 </v>
   <v>       0.00371971       0.02820874       0.12601447 </v>
   <v>      -0.09217806       0.06872092       0.38091139 </v>
   <v>      -0.03156292       0.01539209       0.24308321 </v>
   <v>      -0.03109880      -0.01738437       0.06680928 </v>
   <v>      -0.00585190       0.00308271      -0.00488383 </v>
   <v>       0.01764849       0.00479984       0.20160888 </v>
   <v>       0.02837291       0.01799724       0.11534873 </v>
   <v>       0.13463637       0.07925575       0.44497538 </v>
   <v>       0.00496735      -0.00820876       0.21139513 </v>
   <v>       0.00794300      -0.01633907       0.12551689 </v>
   <v>       0.12458766       0.05523251       0.51686303 </v>
   <v>      -0.00315862      -0.04054792       0.23699158 </v>
   <v>      -0.01553739      -0.01458568       0.08693664 </v>
   <v>       0.02329222       0.00100148       0.02910442 </v>
   <v>      -0.01694982      -0.02412209       0.15222150 </v>
   <v>       0.03980502      -0.02870874       0.09320217 </v>
   <v>      -0.00024129       0.00504853       0.02482627 </v>
   <v>       0.00346363       0.00658270       0.22772022 </v>
   <v>       0.01677412       0.02519755       0.11452235 </v>
   <v>      -0.01905366      -0.04793576       0.22530560 </v>
   <v>      -0.01963386      -0.02196245       0.19032308 </v>
   <v>      -0.02458965      -0.01740118       0.04557973 </v>
   <v>       0.01368358       0.02546917       0.01243762 </v>
   <v>       0.00760736       0.01362476       0.19864650 </v>
   <v>       0.00785955       0.02326177       0.03868410 </v>
   <v>      -0.00069635       0.00524755      -0.13396982 </v>
   <v>       0.00639541       0.00406705      -0.14402372 </v>
   <v>      -0.00324165       0.00393721      -0.14025566 </v>
   <v>       0.00532769      -0.00404069      -0.13646275 </v>
   <v>       0.00107481       0.00104747      -0.14560439 </v>
   <v>      -0.00338539      -0.00839191      -0.13761166 </v>
   <v>       0.01150020       0.00031098      -0.13296585 </v>
   <v>      -0.00172003       0.00267456      -0.14430516 </v>
   <v>      -0.01135336      -0.00399578      -0.13639851 </v>
   <v>       0.28224946      -0.77773616      -0.91979265 </v>
   <v>      -0.39309304       0.24404125      -1.99900412 </v>
   <v>      -0.14344578       0.39460244      -0.45897614 </v>
  </varray>
  <varray name="stress" >
   <v>     -25.00080671      -0.41621736      -0.78840443 </v>
   <v>      -0.41621716     -23.38711893       0.62463986 </v>
   <v>      -0.78840446       0.62463972     -24.94723597 </v>
  </varray>
  <energy>
   <i name="e_fr_energy">   -201.15928884 </i>
   <i name="e_wo_entrp">   -195.87581828 </i>
   <i name="e_0_energy">   -198.51755356 </i>
  </energy>
  <time name="totalsc">  181.76  182.92</time>
 </calculation>
 <calculation>
  <scstep>
   <time name="dav">   13.31   13.39</time>
   <time name="total">   13.77   13.86</time>
   <energy>
    <i name="alphaZ">    918.22725072 </i>
    <i name="ewald">  21941.20441358 </i>
    <i name="hartreedc"> -54499.50151998 </i>
    <i name="XCdc">  -1000.93655584 </i>
    <i name="pawpsdc">  35166.20705236 </i>
    <i name="pawaedc"> -33011.31720245 </i>
    <i name="eentropy">     -5.27671627 </i>
    <i name="bandstr">    128.35787649 </i>
    <i name="atom">  30161.86332653 </i>
    <i name="e_fr_energy">   -201.17207487 </i>
    <i name="e_wo_entrp">   -195.89535860 </i>
    <i name="e_0_energy">   -198.53371673 </i>
   </energy>
  </scstep>
  <scstep>
   <time name="dav">   13.66   13.74</time>
   <time name="total">   14.11   14.20</time>
   <energy>
    <i name="e_fr_energy">   -201.17581180 </i>
    <i name="e_wo_entrp">   -195.88482910 </i>
    <i name="e_0_energy">   -198.53032045 </i>
   </energy>
  </scstep>
  <scstep>
   <time name="dav">   14.04   14.13</time>
   <time name="total">   14.50   14.59</time>
   <energy>
    <i name="e_fr_energy">   -201.17414622 </i>
    <i name="e_wo_entrp">   -195.89390493 </i>
    <i name="e_0_energy">   -198.53402557 </i>
   </energy>
  </scstep>
  <scstep>
   <time name="dav">   14.34   14.43</time>
   <time name="total">   14.80   14.89</time>
   <energy>
    <i name="e_fr_energy">   -201.17463310 </i>
    <i name="e_wo_entrp">   -195.89325652 </i>
    <i name="e_0_energy">   -198.53394481 </i>
   </energy>
  </scstep>
  <scstep>
   <time name="dav">   14.71   14.80</time>
   <time name="total">   15.17   15.26</time>
   <energy>
    <i name="e_fr_energy">   -201.17432686 </i>
    <i name="e_wo_entrp">   -195.89138487 </i>
    <i name="e_0_energy">   -198.53285586 </i>
   </energy>
  </scstep>
  <scstep>
   <time name="dav">   14.22   14.30</time>
   <time name="total">   14.68   14.77</time>
   <energy>
    <i name="e_fr_energy">   -201.17393152 </i>
    <i name="e_wo_entrp">   -195.89181523 </i>
    <i name="e_0_energy">   -198.53287337 </i>
   </energy>
  </scstep>
  <scstep>
   <time name="dav">   16.71   16.81</time>
   <time name="total">   17.17   17.28</time>
   <energy>
    <i name="e_fr_energy">   -201.17387950 </i>
    <i name="e_wo_entrp">   -195.89425617 </i>
    <i name="e_0_energy">   -198.53406784 </i>
   </energy>
  </scstep>
  <scstep>
   <time name="dav">   13.76   13.84</time>
   <time name="total">   14.22   14.31</time>
   <energy>
    <i name="e_fr_energy">   -201.17382850 </i>
    <i name="e_wo_entrp">   -195.89397448 </i>
    <i name="e_0_energy">   -198.53390149 </i>
   </energy>
  </scstep>
  <scstep>
   <time name="dav">   11.45   11.53</time>
   <time name="total">   11.91   12.00</time>
   <energy>
    <i name="e_fr_energy">   -201.17381711 </i>
    <i name="e_wo_entrp">   -195.89409342 </i>
    <i name="e_0_energy">   -198.53395526 </i>
   </energy>
  </scstep>
  <scstep>
   <time name="dav">    9.00    9.06</time>
   <time name="total">    9.10    9.16</time>
   <energy>
    <i name="alphaZ">    918.22725072 </i>
    <i name="ewald">  21941.20441358 </i>
    <i name="hartreedc"> -54500.18096433 </i>
    <i name="XCdc">  -1000.92661030 </i>
    <i name="pawpsdc">  35168.46700825 </i>
    <i name="pawaedc"> -33013.57930944 </i>
    <i name="eentropy">     -5.27978904 </i>
    <i name="bandstr">    129.03085629 </i>
    <i name="atom">  30161.86332653 </i>
    <i name="e_fr_energy">   -201.17381775 </i>
    <i name="e_wo_entrp">   -195.89402871 </i>
    <i name="e_0_energy">   -198.53392323 </i>
   </energy>
  </scstep>
  <structure>
   <crystal>
    <varray name="basis" >
     <v>       8.30990028       0.00000000       0.00000000 </v>
     <v>      -4.15495014       7.19658475       0.00000000 </v>
     <v>       0.00000000       0.00000000      16.52350044 </v>
    </varray>
    <i name="volume">    988.15327180 </i>
    <varray name="rec_basis" >
     <v>       0.12033839       0.06947740       0.00000000 </v>
     <v>       0.00000000       0.13895480       0.00000000 </v>
     <v>       0.00000000       0.00000000       0.06051986 </v>
    </varray>
   </crystal>
   <varray name="positions" >
    <v>       0.99991760       0.99751076       0.44237961 </v>
    <v>       0.11093000       0.22330000       0.16024000 </v>
    <v>       0.22213492       0.11315814       0.30060187 </v>
    <v>       0.33075823       0.00042179       0.44260794 </v>
    <v>       0.44426000       0.22330000       0.16024000 </v>
    <v>       0.55308576       0.11034074       0.29851954 </v>
    <v>       0.66477883       0.99893111       0.43609885 </v>
    <v>       0.77760000       0.22330000       0.16024000 </v>
    <v>       0.88885277       0.11180953       0.29995919 </v>
    <v>       1.00006818       0.33398593       0.44461278 </v>
    <v>       0.11093000       0.55664000       0.16024000 </v>
    <v>       0.22113695       0.44357407       0.29996583 </v>
    <v>       0.32838750       0.33458492       0.45650939 </v>
    <v>       0.44426000       0.55664000       0.16024000 </v>
    <v>       0.55153918       0.44295340       0.30003356 </v>
    <v>       0.66514988       0.33266763       0.43590247 </v>
    <v>       0.77760000       0.55664000       0.16024000 </v>
    <v>       0.88800528       0.44327733       0.29879276 </v>
    <v>       0.99675970       0.66461129       0.43551480 </v>
    <v>       0.11093000       0.88997000       0.16024000 </v>
    <v>       0.22247745       0.77857800       0.29946993 </v>
    <v>       0.33220250       0.66420891       0.44138392 </v>
    <v>       0.44426000       0.88997000       0.16024000 </v>
    <v>       0.55326929       0.77741398       0.29859891 </v>
    <v>       0.66637599       0.66633535       0.43600384 </v>
[...]
    <v>       0.89536725       0.79103316       0.30052766 </v>
    <v>       0.99982000       0.00108000       0.02337000 </v>
    <v>       0.33315000       0.00108000       0.02337000 </v>
    <v>       0.66649000       0.00108000       0.02337000 </v>
    <v>       0.99982000       0.33441000       0.02337000 </v>
    <v>       0.33315000       0.33441000       0.02337000 </v>
    <v>       0.66649000       0.33441000       0.02337000 </v>
    <v>       0.99982000       0.66775000       0.02337000 </v>
    <v>       0.33315000       0.66775000       0.02337000 </v>
    <v>       0.66649000       0.66775000       0.02337000 </v>
    <v>       0.13672020      -0.10452118       0.52337680 </v>
    <v>       0.12916032       0.27024442       0.51135086 </v>
    <v>       0.14817669      -0.09826208       0.59520763 </v>
   </varray>
  </structure>
  <varray name="forces" >
   <v>      -0.00135317      -0.06384217      -0.02452860 </v>
   <v>      -0.01110733       0.02381224       0.15910502 </v>
   <v>      -0.00118399      -0.00424958      -0.00073398 </v>
   <v>      -0.02334382      -0.02664973       0.02765979 </v>
   <v>       0.01469923       0.08368828       0.17551476 </v>
   <v>      -0.00769698      -0.00934746       0.00759806 </v>
   <v>      -0.00693219      -0.02697173       0.00162316 </v>
   <v>       0.01283173       0.10049353       0.05705543 </v>
   <v>      -0.00180388      -0.00665628      -0.00036321 </v>
   <v>       0.02532106      -0.05108733       0.01248594 </v>
   <v>      -0.07540853       0.04332380       0.15174197 </v>
   <v>      -0.00078603      -0.00335325       0.00278990 </v>
   <v>       0.00156826      -0.02459208      -0.01555838 </v>
   <v>       0.05055814       0.04448457       0.13031359 </v>
   <v>       0.00143913      -0.00412792      -0.00221206 </v>
   <v>       0.00759417      -0.03700058      -0.00267381 </v>
   <v>       0.01182545       0.07636334       0.14045420 </v>
   <v>       0.00443391      -0.02039897      -0.01099334 </v>
   <v>       0.00307660      -0.06250604      -0.09056766 </v>
   <v>      -0.04081395       0.04624878       0.23364556 </v>
   <v>       0.00229865       0.00041306      -0.00839313 </v>
   <v>      -0.00782643      -0.02123551      -0.00293066 </v>
   <v>      -0.01894842       0.08450682       0.10105899 </v>
   <v>      -0.00235515      -0.00381430       0.00079967 </v>
   <v>      -0.00345951      -0.03042438      -0.00884566 </v>
   <v>       0.06394064       0.05941719       0.16527545 </v>
   <v>      -0.00522476      -0.00783641      -0.01942858 </v>
   <v>       0.00498886      -0.00996938      -0.12381261 </v>
   <v>       0.00980844      -0.01551897      -0.15376115 </v>
   <v>      -0.01412372      -0.02903434      -0.13706732 </v>
   <v>       0.01619220      -0.00205039      -0.11909622 </v>
   <v>      -0.00548198      -0.00576499      -0.14127422 </v>
   <v>      -0.00680244      -0.01131920      -0.11659797 </v>
   <v>       0.01506318       0.00357665      -0.13339226 </v>
   <v>       0.00267063       0.00490136      -0.16658085 </v>
   <v>      -0.02420077      -0.00058268      -0.14750204 </v>
   <v>      -0.03140522       0.08051497       0.03786539 </v>
   <v>       0.07479503      -0.09734145       0.02504423 </v>
   <v>      -0.03284702      -0.07606949      -0.00371741 </v>
  </varray>
  <varray name="stress" >
   <v>     -13.02626253      -0.60774876      -0.06364808 </v>
   <v>      -0.60774857     -16.89288283      -3.76569405 </v>
   <v>      -0.06364795      -3.76569410      -5.80785006 </v>
  </varray>
  <energy>
   <i name="e_fr_energy">   -203.53696208 </i>
   <i name="e_wo_entrp">   -198.62813154 </i>
   <i name="e_0_energy">   -201.08254681 </i>
  </energy>
  <time name="totalsc">  161.91  162.75</time>
 </calculation>
 <calculation>
  <scstep>
   <time name="dav">   12.94   13.02</time>
   <time name="total">   13.40   13.48</time>
   <energy>
    <i name="alphaZ">    918.22725072 </i>
    <i name="ewald">  24256.55742391 </i>
    <i name="hartreedc"> -56790.33162154 </i>
    <i name="XCdc">   -998.28131952 </i>
    <i name="pawpsdc">  35557.78106348 </i>
    <i name="pawaedc"> -33406.90486061 </i>
    <i name="eentropy">     -4.90920190 </i>
    <i name="bandstr">    102.46080956 </i>
    <i name="atom">  30161.86332653 </i>
    <i name="e_fr_energy">   -203.53712937 </i>
    <i name="e_wo_entrp">   -198.62792747 </i>
    <i name="e_0_energy">   -201.08252842 </i>
   </energy>
  </scstep>
  <scstep>
   <time name="dav">   13.41   13.49</time>
   <time name="total">   13.87   13.95</time>
   <energy>
    <i name="e_fr_energy">   -203.53730041 </i>
    <i name="e_wo_entrp">   -198.62823591 </i>
    <i name="e_0_energy">   -201.08276816 </i>
   </energy>
  </scstep>
  <scstep>
   <time name="dav">   13.34   13.43</time>
   <time name="total">   13.80   13.89</time>
   <energy>
    <i name="e_fr_energy">   -203.53718688 </i>
    <i name="e_wo_entrp">   -198.62742403 </i>
    <i name="e_0_energy">   -201.08230546 </i>
   </energy>
  </scstep>
  <scstep>
   <time name="dav">    9.29    9.34</time>
   <time name="total">    9.74    9.81</time>
   <energy>
    <i name="e_fr_energy">   -203.53717309 </i>
    <i name="e_wo_entrp">   -198.62813171 </i>
    <i name="e_0_energy">   -201.08265240 </i>
   </energy>
  </scstep>
  <scstep>
   <time name="dav">    8.87    8.92</time>
   <time name="total">    8.97    9.03</time>
   <energy>
    <i name="alphaZ">    918.22725072 </i>
    <i name="ewald">  24256.55742391 </i>
    <i name="hartreedc"> -56790.45503366 </i>
    <i name="XCdc">   -998.28068513 </i>
    <i name="pawpsdc">  35558.51261905 </i>
    <i name="pawaedc"> -33407.63708341 </i>
    <i name="eentropy">     -4.90929121 </i>
    <i name="bandstr">    102.58430372 </i>
    <i name="atom">  30161.86332653 </i>
    <i name="e_fr_energy">   -203.53716947 </i>
    <i name="e_wo_entrp">   -198.62787826 </i>
    <i name="e_0_energy">   -201.08252386 </i>
   </energy>
  </scstep>
  <structure>
   <crystal>
    <varray name="basis" >
     <v>       8.30990028       0.00000000       0.00000000 </v>
     <v>      -4.15495014       7.19658475       0.00000000 </v>
     <v>       0.00000000       0.00000000      16.52350044 </v>
    </varray>
    <i name="volume">    988.15327180 </i>
    <varray name="rec_basis" >
     <v>       0.12033839       0.06947740       0.00000000 </v>
     <v>       0.00000000       0.13895480       0.00000000 </v>
     <v>       0.00000000       0.00000000       0.06051986 </v>
    </varray>
   </crystal>
   <varray name="positions" >
    <v>       1.00997253       1.01911631       0.44994159 </v>
    <v>       0.11093000       0.22330000       0.16024000 </v>
    <v>       0.22627638       0.12175632       0.29910293 </v>
    <v>       0.34661647       0.02019501       0.44016999 </v>
    <v>       0.44426000       0.22330000       0.16024000 </v>
    <v>       0.55990221       0.12193795       0.29826657 </v>
    <v>       0.67466564       1.01887059       0.43552463 </v>
    <v>       0.77760000       0.22330000       0.16024000 </v>
    <v>       0.89443205       0.12150861       0.29905163 </v>
    <v>       1.00325836       0.35903071       0.43812495 </v>
    <v>       0.11093000       0.55664000       0.16024000 </v>
    <v>       0.22633357       0.45442257       0.29730223 </v>
    <v>       0.35226660       0.36201453       0.44047064 </v>
    <v>       0.44426000       0.55664000       0.16024000 </v>
    <v>       0.55886560       0.45487833       0.29965350 </v>
    <v>       0.67562699       0.35488939       0.43636696 </v>
    <v>       0.77760000       0.55664000       0.16024000 </v>
    <v>       0.89413146       0.45636468       0.30022510 </v>
    <v>       1.00802027       0.68612384       0.44283221 </v>
    <v>       0.11093000       0.88997000       0.16024000 </v>
    <v>       0.22614921       0.78815839       0.29813028 </v>
    <v>       0.34646939       0.68934186       0.43504366 </v>
    <v>       0.44426000       0.88997000       0.16024000 </v>
    <v>       0.56045744       0.78841026       0.29720163 </v>
    <v>       0.67653239       0.68896055       0.43647976 </v>
    <v>       0.77760000       0.88997000       0.16024000 </v>
    <v>       0.89536410       0.79103604       0.30052029 </v>
    <v>       0.99982000       0.00108000       0.02337000 </v>
    <v>       0.33315000       0.00108000       0.02337000 </v>
    <v>       0.66649000       0.00108000       0.02337000 </v>
    <v>       0.99982000       0.33441000       0.02337000 </v>
    <v>       0.33315000       0.33441000       0.02337000 </v>
    <v>       0.66649000       0.33441000       0.02337000 </v>
    <v>       0.99982000       0.66775000       0.02337000 </v>
    <v>       0.33315000       0.66775000       0.02337000 </v>
    <v>       0.66649000       0.66775000       0.02337000 </v>
    <v>       0.13666707      -0.10464875       0.52337530 </v>
    <v>       0.12914632       0.27019565       0.51134954 </v>
    <v>       0.14806446      -0.09849503       0.59518919 </v>
   </varray>
  </structure>
  <varray name="forces" >
   <v>      -0.00120254      -0.06551331      -0.02501828 </v>
   <v>      -0.01104194       0.02392649       0.15824057 </v>
   <v>      -0.00105378      -0.00440128      -0.00075602 </v>
   <v>      -0.02357745      -0.02702981       0.02789958 </v>
   <v>       0.01473074       0.08386598       0.17480550 </v>
   <v>      -0.00774093      -0.00951490       0.00701955 </v>
   <v>      -0.00742755      -0.02679387       0.00288735 </v>
   <v>       0.01277435       0.10045408       0.05623845 </v>
   <v>      -0.00171817      -0.00687749      -0.00075455 </v>
   <v>       0.02326717      -0.05043916       0.01087811 </v>
   <v>      -0.07533912       0.04344402       0.15083691 </v>
   <v>      -0.00090614      -0.00271351       0.00179539 </v>
   <v>       0.00346762      -0.02433937      -0.01662334 </v>
   <v>       0.05064258       0.04472560       0.12946020 </v>
   <v>       0.00153619      -0.00407131      -0.00305291 </v>
   <v>       0.00734771      -0.03747682      -0.00169827 </v>
   <v>       0.01179759       0.07641067       0.13967561 </v>
   <v>       0.00443548      -0.02022560      -0.01176668 </v>
   <v>       0.00310796      -0.06265626      -0.09147647 </v>
   <v>      -0.04080213       0.04647086       0.23279709 </v>
   <v>       0.00229252       0.00050077      -0.00930828 </v>
   <v>      -0.00810720      -0.02163167      -0.00213379 </v>
   <v>      -0.01873667       0.08470352       0.10022588 </v>
   <v>      -0.00230483      -0.00373130      -0.00036012 </v>
   <v>      -0.00304720      -0.03046668      -0.00812787 </v>
   <v>       0.06378668       0.05955705       0.16433245 </v>
   <v>      -0.00569952      -0.00844209      -0.01968249 </v>
   <v>       0.00493093      -0.00992750      -0.12287188 </v>
   <v>       0.00991587      -0.01542768      -0.15277990 </v>
   <v>      -0.01407455      -0.02903924      -0.13536306 </v>
   <v>       0.01622411      -0.00190217      -0.11822934 </v>
   <v>      -0.00542979      -0.00551432      -0.14016336 </v>
   <v>      -0.00678578      -0.01115391      -0.11546222 </v>
   <v>       0.01506115       0.00366992      -0.13265560 </v>
   <v>       0.00281362       0.00502063      -0.16517796 </v>
   <v>      -0.02424304      -0.00044117      -0.14589944 </v>
   <v>      -0.03279907       0.07921659       0.00806562 </v>
   <v>       0.07506444      -0.09814622       0.02865766 </v>
   <v>      -0.03115926      -0.07408953       0.02554591 </v>
  </varray>
  <varray name="stress" >
   <v>     -13.04722408      -0.60692458      -0.06306587 </v>
   <v>      -0.60692454     -16.90408198      -3.74788254 </v>
   <v>      -0.06306603      -3.74788265      -5.76236649 </v>
  </varray>
  <energy>
   <i name="e_fr_energy">   -203.53716947 </i>
   <i name="e_wo_entrp">   -198.62787826 </i>
   <i name="e_0_energy">   -201.08252386 </i>
  </energy>
  <time name="totalsc">  165.88  166.76</time>
 </calculation>
 <calculation>
  <scstep>
   <time name="dav">   13.00   13.08</time>
   <time name="total">   13.46   13.54</time>
   <energy>
    <i name="alphaZ">    918.22725072 </i>
    <i name="ewald">  24258.06369227 </i>
    <i name="hartreedc"> -56791.97406854 </i>
    <i name="XCdc">   -998.28030576 </i>
    <i name="pawpsdc">  35558.63660782 </i>
    <i name="pawaedc"> -33407.76144623 </i>
    <i name="eentropy">     -4.90917854 </i>
    <i name="bandstr">    102.59673525 </i>
    <i name="atom">  30161.86332653 </i>
    <i name="e_fr_energy">   -203.53738648 </i>
    <i name="e_wo_entrp">   -198.62820794 </i>
    <i name="e_0_energy">   -201.08279721 </i>
   </energy>
  </scstep>
  <scstep>
   <time name="dav">   13.03   13.11</time>
   <time name="total">   13.49   13.57</time>
   <energy>
    <i name="e_fr_energy">   -203.53748323 </i>
    <i name="e_wo_entrp">   -198.62772541 </i>
    <i name="e_0_energy">   -201.08260432 </i>
   </energy>
  </scstep>
  <scstep>
   <time name="dav">   12.40   12.48</time>
   <time name="total">   12.86   12.94</time>
   <energy>
    <i name="e_fr_energy">   -203.53746617 </i>
    <i name="e_wo_entrp">   -198.62857348 </i>
    <i name="e_0_energy">   -201.08301982 </i>
   </energy>
  </scstep>
  <scstep>
   <time name="dav">    9.10    9.15</time>
   <time name="total">    9.20    9.25</time>
   <energy>
    <i name="alphaZ">    918.22725072 </i>
    <i name="ewald">  24258.06369227 </i>
    <i name="hartreedc"> -56791.96339695 </i>
    <i name="XCdc">   -998.28062420 </i>
    <i name="pawpsdc">  35558.82485559 </i>
    <i name="pawaedc"> -33407.95147079 </i>
    <i name="eentropy">     -4.90949467 </i>
    <i name="bandstr">    102.58839132 </i>
    <i name="atom">  30161.86332653 </i>
    <i name="e_fr_energy">   -203.53747018 </i>
    <i name="e_wo_entrp">   -198.62797551 </i>
    <i name="e_0_energy">   -201.08272284 </i>
   </energy>
  </scstep>
  <structure>
   <crystal>
    <varray name="basis" >
     <v>       8.30990028       0.00000000       0.00000000 </v>
     <v>      -4.15495014       7.19658475       0.00000000 </v>
     <v>       0.00000000       0.00000000      16.52350044 </v>
    </varray>
    <i name="volume">    988.15327180 </i>
    <varray name="rec_basis" >
     <v>       0.12033839       0.06947740       0.00000000 </v>
     <v>       0.00000000       0.13895480       0.00000000 </v>
     <v>       0.00000000       0.00000000       0.06051986 </v>
    </varray>
   </crystal>
   <varray name="positions" >
    <v>       1.00995982       1.01906465       0.44994204 </v>
    <v>       0.11093000       0.22330000       0.16024000 </v>
    <v>       0.22627877       0.12176143       0.29910479 </v>
    <v>       0.34659255       0.02016240       0.44017799 </v>
    <v>       0.44426000       0.22330000       0.16024000 </v>
    <v>       0.55989704       0.12193827       0.29826827 </v>
    <v>       0.67465422       1.01885120       0.43552502 </v>
    <v>       0.77760000       0.22330000       0.16024000 </v>
    <v>       0.89443332       0.12151021       0.29905125 </v>
    <v>       1.00324882       0.35898560       0.43812662 </v>
    <v>       0.11093000       0.55664000       0.16024000 </v>
    <v>       0.22633665       0.45442705       0.29730325 </v>
    <v>       0.35225570       0.36198995       0.44047238 </v>
    <v>       0.44426000       0.55664000       0.16024000 </v>
    <v>       0.55886756       0.45488297       0.29965355 </v>
    <v>       0.67560988       0.35485585       0.43636555 </v>
    <v>       0.77760000       0.55664000       0.16024000 </v>
    <v>       0.89412753       0.45635252       0.30021970 </v>
    <v>       1.00798896       0.68606234       0.44278604 </v>
    <v>       0.11093000       0.88997000       0.16024000 </v>
    <v>       0.22615655       0.78816636       0.29812345 </v>
    <v>       0.34645935       0.68932354       0.43504110 </v>
    <v>       0.44426000       0.88997000       0.16024000 </v>
    <v>       0.56045852       0.78841569       0.29720092 </v>
    <v>       0.67651788       0.68894061       0.43647589 </v>
    <v>       0.77760000       0.88997000       0.16024000 </v>
    <v>       0.89535895       0.79103878       0.30051066 </v>
    <v>       0.99982000       0.00108000       0.02337000 </v>
    <v>       0.33315000       0.00108000       0.02337000 </v>
    <v>       0.66649000       0.00108000       0.02337000 </v>
    <v>       0.99982000       0.33441000       0.02337000 </v>
    <v>       0.33315000       0.33441000       0.02337000 </v>
    <v>       0.66649000       0.33441000       0.02337000 </v>
    <v>       0.99982000       0.66775000       0.02337000 </v>
    <v>       0.33315000       0.66775000       0.02337000 </v>
    <v>       0.66649000       0.66775000       0.02337000 </v>
    <v>       0.13659641      -0.10481336       0.52335362 </v>
    <v>       0.12912808       0.27013133       0.51135031 </v>
    <v>       0.14792453      -0.09879001       0.59518512 </v>
   </varray>
  </structure>
  <varray name="forces" >
   <v>      -0.00185621      -0.06470778      -0.02538719 </v>
   <v>      -0.01094094       0.02408799       0.15763559 </v>
   <v>      -0.00109666      -0.00449472      -0.00150594 </v>
   <v>      -0.02387300      -0.02717626       0.02797590 </v>
   <v>       0.01454781       0.08396573       0.17414595 </v>
   <v>      -0.00778842      -0.00955036       0.00655204 </v>
   <v>      -0.00751690      -0.02601234       0.00416821 </v>
   <v>       0.01280995       0.10047778       0.05548241 </v>
   <v>      -0.00150084      -0.00687275      -0.00119099 </v>
   <v>       0.02236240      -0.04985768       0.00974077 </v>
   <v>      -0.07524667       0.04326502       0.15006175 </v>
   <v>      -0.00094516      -0.00309157       0.00099612 </v>
   <v>       0.00452046      -0.02390965      -0.01725020 </v>
   <v>       0.05053980       0.04445733       0.12882153 </v>
   <v>       0.00144606      -0.00451231      -0.00366744 </v>
   <v>       0.00713384      -0.03758441      -0.00139469 </v>
   <v>       0.01191844       0.07618618       0.13897002 </v>
   <v>       0.00457509      -0.02031043      -0.01224759 </v>
   <v>       0.00313888      -0.06265446      -0.09069296 </v>
   <v>      -0.04079670       0.04681245       0.23167811 </v>
   <v>       0.00204281       0.00015632      -0.00964440 </v>
   <v>      -0.00856969      -0.02221462      -0.00126925 </v>
   <v>      -0.01878664       0.08487870       0.09921208 </v>
   <v>      -0.00227824      -0.00397020      -0.00092358 </v>
   <v>      -0.00214673      -0.03060297      -0.00583862 </v>
   <v>       0.06381639       0.05981380       0.16337109 </v>
   <v>      -0.00556318      -0.00871673      -0.01895996 </v>
   <v>       0.00510871      -0.00968337      -0.12203857 </v>
   <v>       0.00973763      -0.01531315      -0.15224807 </v>
   <v>      -0.01405741      -0.02887204      -0.13545632 </v>
   <v>       0.01640401      -0.00186620      -0.11681173 </v>
   <v>      -0.00553556      -0.00563327      -0.13888249 </v>
   <v>      -0.00681614      -0.01117187      -0.11458997 </v>
   <v>       0.01519001       0.00364188      -0.13167291 </v>
   <v>       0.00270495       0.00480630      -0.16472730 </v>
   <v>      -0.02421816      -0.00059849      -0.14572166 </v>
   <v>      -0.03183514       0.08055556       0.02509292 </v>
   <v>       0.07531482      -0.09839716       0.03000585 </v>
   <v>      -0.03194365      -0.07533026       0.00821149 </v>
  </varray>
  <varray name="stress" >
   <v>     -13.05140643      -0.60660994      -0.06799626 </v>
   <v>      -0.60660987     -16.89591382      -3.73359738 </v>
   <v>      -0.06799629      -3.73359707      -5.76938786 </v>
  </varray>
  <energy>
   <i name="e_fr_energy">   -203.53747018 </i>
   <i name="e_wo_entrp">   -198.62797551 </i>
   <i name="e_0_energy">   -201.08272284 </i>
  </energy>
