PBE-grap                                
           1
     8.309900    0.000000    0.000000
    -4.154950    7.196585    0.000000
     0.000000    0.000000   16.523500
   Pd   C    O 
    36     1     2
Direct configuration=     1
   0.99975603  0.99741831  0.44219286
   0.11093000  0.22330000  0.16024000
   0.22207609  0.11305848  0.30042928
   0.33084466  0.00019578  0.44224694
   0.44426000  0.22330000  0.16024000
   0.55316676  0.11037195  0.29843550
   0.66476944  0.99889574  0.43609460
   0.77760000  0.22330000  0.16024000
   0.88876111  0.11176300  0.29984129
   0.99969435  0.33380251  0.44420295
   0.11093000  0.55664000  0.16024000
   0.22113267  0.44360852  0.29979269
   0.32803384  0.33427886  0.45592574
   0.44426000  0.55664000  0.16024000
   0.55159339  0.44298402  0.29991807
   0.66511052  0.33265383  0.43585048
   0.77760000  0.55664000  0.16024000
   0.88793825  0.44333874  0.29867835
   0.99668706  0.66454343  0.43545790
   0.11093000  0.88997000  0.16024000
   0.22241029  0.77850074  0.29934335
   0.33229159  0.66423013  0.44123558
   0.44426000  0.88997000  0.16024000
   0.55332285  0.77745200  0.29855669
   0.66633490  0.66626391  0.43596546
   0.77760000  0.88997000  0.16024000
   0.88811638  0.77896734  0.29811264
   0.99982000  0.00108000  0.02337000
   0.33315000  0.00108000  0.02337000
   0.66649000  0.00108000  0.02337000
   0.99982000  0.33441000  0.02337000
   0.33315000  0.33441000  0.02337000
   0.66649000  0.33441000  0.02337000
   0.99982000  0.66775000  0.02337000
   0.33315000  0.66775000  0.02337000
   0.66649000  0.66775000  0.02337000
   0.21885609  0.08605027  0.56848956
   0.22642696  0.40523442  0.55177454
   0.21004530  0.04454757  0.63604376
Direct configuration=     2
   0.99979357  0.99743964  0.44223462
   0.11093000  0.22330000  0.16024000
   0.22208919  0.11308083  0.30046712
   0.33082501  0.00024627  0.44232573
   0.44426000  0.22330000  0.16024000
   0.55314820  0.11036449  0.29845408
   0.66477157  0.99890327  0.43609534
   0.77760000  0.22330000  0.16024000
   0.88878132  0.11177370  0.29986769
   0.99978140  0.33384599  0.44429551
   0.11093000  0.55664000  0.16024000
   0.22113401  0.44360083  0.29983072
   0.32809897  0.33435138  0.45606491
   0.44426000  0.55664000  0.16024000
   0.55158106  0.44297692  0.29994334
   0.66511839  0.33265651  0.43586135
   0.77760000  0.55664000  0.16024000
   0.88795271  0.44332487  0.29870396
   0.99670341  0.66455856  0.43547027
   0.11093000  0.88997000  0.16024000
   0.22242539  0.77851780  0.29937144
   0.33226859  0.66421854  0.44127117
   0.44426000  0.88997000  0.16024000
   0.55331034  0.77744319  0.29856626
   0.66634358  0.66627930  0.43597366
   0.77760000  0.88997000  0.16024000
   0.88812945  0.77898251  0.29812548
   0.99982000  0.00108000  0.02337000
   0.33315000  0.00108000  0.02337000
   0.66649000  0.00108000  0.02337000
   0.99982000  0.33441000  0.02337000
   0.33315000  0.33441000  0.02337000
   0.66649000  0.33441000  0.02337000
   0.99982000  0.66775000  0.02337000
   0.33315000  0.66775000  0.02337000
   0.66649000  0.66775000  0.02337000
   0.21884812  0.08586051  0.56858856
   0.22644926  0.40486107  0.55156511
   0.21013428  0.04461596  0.63616451
Direct configuration=     3
   0.99984804  0.99747085  0.44229695
   0.11093000  0.22330000  0.16024000
   0.22210870  0.11311414  0.30052458
   0.33079628  0.00032243  0.44244550
   0.44426000  0.22330000  0.16024000
   0.55312174  0.11035441  0.29848185
   0.66477472  0.99891489  0.43609652
   0.77760000  0.22330000  0.16024000
   0.88881117  0.11178838  0.29990707
   0.99990815  0.33390819  0.44443310
   0.11093000  0.55664000  0.16024000
   0.22113587  0.44358929  0.29988827
   0.32820951  0.33445611  0.45626392
   0.44426000  0.55664000  0.16024000
   0.55156288  0.44296666  0.29998166
   0.66513084  0.33266098  0.43587845
   0.77760000  0.55664000  0.16024000
   0.88797522  0.44330460  0.29874191
   0.99672823  0.66458110  0.43548890
   0.11093000  0.88997000  0.16024000
   0.22244792  0.77854321  0.29941352
   0.33223729  0.66420858  0.44132165
   0.44426000  0.88997000  0.16024000
   0.55329202  0.77743016  0.29858051
   0.66635664  0.66630244  0.43598622
   0.77760000  0.88997000  0.16024000
   0.88814827  0.77900422  0.29814426
   0.99982000  0.00108000  0.02337000
   0.33315000  0.00108000  0.02337000
   0.66649000  0.00108000  0.02337000
   0.99982000  0.33441000  0.02337000
   0.33315000  0.33441000  0.02337000
   0.66649000  0.33441000  0.02337000
   0.99982000  0.66775000  0.02337000
   0.33315000  0.66775000  0.02337000
   0.66649000  0.66775000  0.02337000
   0.21883507  0.08558074  0.56872887
   0.22647140  0.40429177  0.55125656
   0.21026749  0.04472260  0.63634926
Direct configuration=     4
   0.99991760  0.99751076  0.44237961
   0.11093000  0.22330000  0.16024000
   0.22213492  0.11315814  0.30060187
   0.33075823  0.00042179  0.44260794
   0.44426000  0.22330000  0.16024000
   0.55308576  0.11034074  0.29851954
   0.66477883  0.99893111  0.43609885
   0.77760000  0.22330000  0.16024000
   0.88885277  0.11180953  0.29995919
   1.00006818  0.33398593  0.44461278
   0.11093000  0.55664000  0.16024000
   0.22113695  0.44357407  0.29996583
   0.32838750  0.33458492  0.45650939
   0.44426000  0.55664000  0.16024000
   0.55153918  0.44295340  0.30003356
   0.66514988  0.33266763  0.43590247
   0.77760000  0.55664000  0.16024000
   0.88800528  0.44327733  0.29879276
   0.99675970  0.66461129  0.43551480
   0.11093000  0.88997000  0.16024000
   0.22247745  0.77857800  0.29946993
   0.33220250  0.66420891  0.44138392
   0.44426000  0.88997000  0.16024000
   0.55326929  0.77741398  0.29859891
   0.66637599  0.66633535  0.43600384
   0.77760000  0.88997000  0.16024000
   0.88817371  0.77903295  0.29816928
   0.99982000  0.00108000  0.02337000
   0.33315000  0.00108000  0.02337000
   0.66649000  0.00108000  0.02337000
   0.99982000  0.33441000  0.02337000
   0.33315000  0.33441000  0.02337000
   0.66649000  0.33441000  0.02337000
   0.99982000  0.66775000  0.02337000
   0.33315000  0.66775000  0.02337000
   0.66649000  0.66775000  0.02337000
   0.21881351  0.08521031  0.56891096
   0.22647518  0.40351354  0.55085606
   0.21044688  0.04488124  0.63659164
Direct configuration=     5
   1.00000035  0.99755855  0.44248288
   0.11093000  0.22330000  0.16024000
   0.22216601  0.11321214  0.30069971
   0.33071518  0.00054648  0.44281260
   0.44426000  0.22330000  0.16024000
   0.55303979  0.11032360  0.29856805
   0.66478390  0.99895290  0.43610350
   0.77760000  0.22330000  0.16024000
   0.88890325  0.11183573  0.30002478
   1.00025511  0.33407106  0.44483400
   0.11093000  0.55664000  0.16024000
   0.22113745  0.44355285  0.30006275
   0.32865801  0.33472622  0.45677893
   0.44426000  0.55664000  0.16024000
   0.55151139  0.44293795  0.30010010
   0.66517695  0.33267784  0.43593488
   0.77760000  0.55664000  0.16024000
   0.88804365  0.44324522  0.29885661
   0.99679661  0.66465064  0.43554839
   0.11093000  0.88997000  0.16024000
   0.22251486  0.77862321  0.29953897
   0.33217229  0.66423321  0.44145301
   0.44426000  0.88997000  0.16024000
   0.55324360  0.77739339  0.29862053
   0.66640414  0.66638038  0.43602724
   0.77760000  0.88997000  0.16024000
   0.88820582  0.77906843  0.29820067
   0.99982000  0.00108000  0.02337000
   0.33315000  0.00108000  0.02337000
   0.66649000  0.00108000  0.02337000
   0.99982000  0.33441000  0.02337000
   0.33315000  0.33441000  0.02337000
   0.66649000  0.33441000  0.02337000
   0.99982000  0.66775000  0.02337000
   0.33315000  0.66775000  0.02337000
   0.66649000  0.66775000  0.02337000
   0.21877919  0.08474863  0.56913039
   0.22643233  0.40250769  0.55037472
   0.21067538  0.04510965  0.63688711
Direct configuration=     6
   1.00009174  0.99760997  0.44260656
   0.11093000  0.22330000  0.16024000
   0.22220176  0.11327325  0.30081618
   0.33067176  0.00070073  0.44306222
   0.44426000  0.22330000  0.16024000
   0.55298305  0.11030264  0.29862802
   0.66479168  0.99898118  0.43611175
   0.77760000  0.22330000  0.16024000
   0.88896149  0.11186662  0.30010267
   1.00046356  0.33416119  0.44509293
   0.11093000  0.55664000  0.16024000
   0.22113700  0.44352888  0.30017641
   0.32906417  0.33487388  0.45704348
   0.44426000  0.55664000  0.16024000
   0.55148268  0.44292346  0.30017943
   0.66521474  0.33269272  0.43597673
   0.77760000  0.55664000  0.16024000
   0.88808855  0.44320829  0.29893292
   0.99683763  0.66469577  0.43559186
   0.11093000  0.88997000  0.16024000
   0.22255785  0.77867532  0.29962089
   0.33215281  0.66429461  0.44152279
   0.44426000  0.88997000  0.16024000
   0.55321617  0.77737083  0.29864485
   0.66644341  0.66644039  0.43605763
   0.77760000  0.88997000  0.16024000
   0.88824224  0.77910970  0.29823805
   0.99982000  0.00108000  0.02337000
   0.33315000  0.00108000  0.02337000
   0.66649000  0.00108000  0.02337000
   0.99982000  0.33441000  0.02337000
   0.33315000  0.33441000  0.02337000
   0.66649000  0.33441000  0.02337000
   0.99982000  0.66775000  0.02337000
   0.33315000  0.66775000  0.02337000
   0.66649000  0.66775000  0.02337000
   0.21873060  0.08419886  0.56937501
   0.22630529  0.40125426  0.54982912
   0.21095226  0.04542600  0.63723299
Direct configuration=     7
   1.00018981  0.99766772  0.44275250
   0.11093000  0.22330000  0.16024000
   0.22224318  0.11333923  0.30095226
   0.33062585  0.00087614  0.44336340
   0.44426000  0.22330000  0.16024000
   0.55291564  0.11027833  0.29869941
   0.66479816  0.99901657  0.43612365
   0.77760000  0.22330000  0.16024000
   0.88902473  0.11189653  0.30018985
   1.00068806  0.33424617  0.44538431
   0.11093000  0.55664000  0.16024000
   0.22113733  0.44350335  0.30030812
   0.32963933  0.33501373  0.45726513
   0.44426000  0.55664000  0.16024000
   0.55145624  0.44291203  0.30027200
   0.66527030  0.33271533  0.43602937
   0.77760000  0.55664000  0.16024000
   0.88813964  0.44316603  0.29902090
   0.99688455  0.66474888  0.43564599
   0.11093000  0.88997000  0.16024000
   0.22260451  0.77874008  0.29971336
   0.33215208  0.66440672  0.44158103
   0.44426000  0.88997000  0.16024000
   0.55318924  0.77734520  0.29867014
   0.66649793  0.66652018  0.43609554
   0.77760000  0.88997000  0.16024000
   0.88828388  0.77915566  0.29827994
   0.99982000  0.00108000  0.02337000
   0.33315000  0.00108000  0.02337000
   0.66649000  0.00108000  0.02337000
   0.99982000  0.33441000  0.02337000
   0.33315000  0.33441000  0.02337000
   0.66649000  0.33441000  0.02337000
   0.99982000  0.66775000  0.02337000
   0.33315000  0.66775000  0.02337000
   0.66649000  0.66775000  0.02337000
   0.21865952  0.08355853  0.56963930
   0.22604318  0.39973254  0.54924240
   0.21127929  0.04586714  0.63760488
Direct configuration=     8
   1.00028544  0.99772322  0.44291712
   0.11093000  0.22330000  0.16024000
   0.22229043  0.11340596  0.30110041
   0.33058205  0.00106925  0.44371684
   0.44426000  0.22330000  0.16024000
   0.55284250  0.11025706  0.29877753
   0.66480883  0.99905582  0.43613906
   0.77760000  0.22330000  0.16024000
   0.88909289  0.11192726  0.30028870
   1.00093620  0.33432476  0.44570212
   0.11093000  0.55664000  0.16024000
   0.22113505  0.44347619  0.30045535
   0.33040342  0.33514933  0.45740224
   0.44426000  0.55664000  0.16024000
   0.55142945  0.44289840  0.30037492
   0.66534839  0.33274977  0.43609447
   0.77760000  0.55664000  0.16024000
   0.88819356  0.44312162  0.29912054
   0.99693357  0.66480684  0.43571096
   0.11093000  0.88997000  0.16024000
   0.22265356  0.77881801  0.29981542
   0.33217799  0.66457976  0.44162074
   0.44426000  0.88997000  0.16024000
   0.55316566  0.77731925  0.29869405
   0.66657079  0.66662360  0.43614006
   0.77760000  0.88997000  0.16024000
   0.88833187  0.77920154  0.29832080
   0.99982000  0.00108000  0.02337000
   0.33315000  0.00108000  0.02337000
   0.66649000  0.00108000  0.02337000
   0.99982000  0.33441000  0.02337000
   0.33315000  0.33441000  0.02337000
   0.66649000  0.33441000  0.02337000
   0.99982000  0.66775000  0.02337000
   0.33315000  0.66775000  0.02337000
   0.66649000  0.66775000  0.02337000
   0.21855716  0.08284968  0.56986185
   0.22559960  0.39792816  0.54863939
   0.21164748  0.04644587  0.63801498
Direct configuration=     9
   1.00038701  0.99778443  0.44310463
   0.11093000  0.22330000  0.16024000
   0.22232956  0.11346636  0.30125262
   0.33053278  0.00126624  0.44411559
   0.44426000  0.22330000  0.16024000
   0.55276173  0.11023327  0.29886106
   0.66482060  0.99910357  0.43615893
   0.77760000  0.22330000  0.16024000
   0.88915683  0.11195415  0.30039268
   1.00122046  0.33440736  0.44603622
   0.11093000  0.55664000  0.16024000
   0.22113620  0.44345657  0.30060806
   0.33135050  0.33529531  0.45741682
   0.44426000  0.55664000  0.16024000
   0.55141052  0.44288531  0.30048096
   0.66546303  0.33279750  0.43617058
   0.77760000  0.55664000  0.16024000
   0.88824999  0.44307681  0.29923026
   0.99698167  0.66486483  0.43578288
   0.11093000  0.88997000  0.16024000
   0.22269195  0.77890067  0.29992091
   0.33223192  0.66481213  0.44163237
   0.44426000  0.88997000  0.16024000
   0.55314967  0.77729632  0.29871496
   0.66666268  0.66674760  0.43618666
   0.77760000  0.88997000  0.16024000
   0.88838080  0.77924941  0.29836364
   0.99982000  0.00108000  0.02337000
   0.33315000  0.00108000  0.02337000
   0.66649000  0.00108000  0.02337000
   0.99982000  0.33441000  0.02337000
   0.33315000  0.33441000  0.02337000
   0.66649000  0.33441000  0.02337000
   0.99982000  0.66775000  0.02337000
   0.33315000  0.66775000  0.02337000
   0.66649000  0.66775000  0.02337000
   0.21839157  0.08199070  0.57014037
   0.22494686  0.39587493  0.54804010
   0.21205501  0.04727254  0.63826929
Direct configuration=    10
   1.00047160  0.99783338  0.44327052
   0.11093000  0.22330000  0.16024000
   0.22235228  0.11351077  0.30137808
   0.33050148  0.00143303  0.44447081
   0.44426000  0.22330000  0.16024000
   0.55268785  0.11020806  0.29893282
   0.66483338  0.99915170  0.43617498
   0.77760000  0.22330000  0.16024000
   0.88921083  0.11197577  0.30047873
   1.00148765  0.33447059  0.44631720
   0.11093000  0.55664000  0.16024000
   0.22113338  0.44343705  0.30072859
   0.33224794  0.33545144  0.45730196
   0.44426000  0.55664000  0.16024000
   0.55139979  0.44287573  0.30056999
   0.66559075  0.33284533  0.43624400
   0.77760000  0.55664000  0.16024000
   0.88829753  0.44304713  0.29932362
   0.99702520  0.66491097  0.43584342
   0.11093000  0.88997000  0.16024000
   0.22271582  0.77897883  0.30000555
   0.33229964  0.66504821  0.44161511
   0.44426000  0.88997000  0.16024000
   0.55314394  0.77728265  0.29872813
   0.66675756  0.66687492  0.43622773
   0.77760000  0.88997000  0.16024000
   0.88841604  0.77928489  0.29839849
   0.99982000  0.00108000  0.02337000
   0.33315000  0.00108000  0.02337000
   0.66649000  0.00108000  0.02337000
   0.99982000  0.33441000  0.02337000
   0.33315000  0.33441000  0.02337000
   0.66649000  0.33441000  0.02337000
   0.99982000  0.66775000  0.02337000
   0.33315000  0.66775000  0.02337000
   0.66649000  0.66775000  0.02337000
   0.21824498  0.08145929  0.56980669
   0.22422842  0.39398568  0.54755729
   0.21235362  0.04786869  0.63890287
Direct configuration=    11
   1.00049328  0.99784478  0.44330693
   0.11093000  0.22330000  0.16024000
   0.22235488  0.11351511  0.30139652
   0.33049215  0.00146186  0.44454023
   0.44426000  0.22330000  0.16024000
   0.55267500  0.11020296  0.29894489
   0.66483577  0.99916028  0.43617811
   0.77760000  0.22330000  0.16024000
   0.88921915  0.11197828  0.30049294
   1.00153445  0.33448103  0.44636437
   0.11093000  0.55664000  0.16024000
   0.22113200  0.44343441  0.30074662
   0.33240515  0.33547878  0.45726793
   0.44426000  0.55664000  0.16024000
   0.55139884  0.44287481  0.30058420
   0.66561777  0.33285432  0.43625632
   0.77760000  0.55664000  0.16024000
   0.88830424  0.44304219  0.29933871
   0.99703176  0.66491738  0.43585375
   0.11093000  0.88997000  0.16024000
   0.22271966  0.77899301  0.30001893
   0.33231304  0.66508834  0.44161088
   0.44426000  0.88997000  0.16024000
   0.55314368  0.77728107  0.29872970
   0.66677634  0.66689988  0.43623433
   0.77760000  0.88997000  0.16024000
   0.88842170  0.77929101  0.29840345
   0.99982000  0.00108000  0.02337000
   0.33315000  0.00108000  0.02337000
   0.66649000  0.00108000  0.02337000
   0.99982000  0.33441000  0.02337000
   0.33315000  0.33441000  0.02337000
   0.66649000  0.33441000  0.02337000
   0.99982000  0.66775000  0.02337000
   0.33315000  0.66775000  0.02337000
   0.66649000  0.66775000  0.02337000
   0.21817974  0.08118907  0.57003960
   0.22408124  0.39368043  0.54746928
   0.21243004  0.04815452  0.63865439
Direct configuration=    12
   1.00052993  0.99786535  0.44337219
   0.11093000  0.22330000  0.16024000
   0.22235921  0.11352272  0.30143155
   0.33047656  0.00151829  0.44466840
   0.44426000  0.22330000  0.16024000
   0.55264979  0.11019319  0.29896794
   0.66483980  0.99917645  0.43618368
   0.77760000  0.22330000  0.16024000
   0.88923484  0.11198231  0.30052006
   1.00162032  0.33450090  0.44645168
   0.11093000  0.55664000  0.16024000
   0.22112890  0.44342932  0.30078065
   0.33271085  0.33554395  0.45718839
   0.44426000  0.55664000  0.16024000
   0.55139628  0.44287270  0.30061184
   0.66566865  0.33287174  0.43627929
   0.77760000  0.55664000  0.16024000
   0.88831627  0.44303270  0.29936684
   0.99704388  0.66492998  0.43587251
   0.11093000  0.88997000  0.16024000
   0.22272667  0.77901996  0.30004395
   0.33233813  0.66516767  0.44160248
   0.44426000  0.88997000  0.16024000
   0.55314307  0.77727805  0.29873243
   0.66681323  0.66694921  0.43624671
   0.77760000  0.88997000  0.16024000
   0.88843244  0.77930288  0.29841307
   0.99982000  0.00108000  0.02337000
   0.33315000  0.00108000  0.02337000
   0.66649000  0.00108000  0.02337000
   0.99982000  0.33441000  0.02337000
   0.33315000  0.33441000  0.02337000
   0.66649000  0.33441000  0.02337000
   0.99982000  0.66775000  0.02337000
   0.33315000  0.66775000  0.02337000
   0.66649000  0.66775000  0.02337000
   0.21808245  0.08088540  0.57005893
   0.22379976  0.39308072  0.54729709
   0.21253735  0.04850930  0.63857963
Direct configuration=    13
   1.00057589  0.99789166  0.44345600
   0.11093000  0.22330000  0.16024000
   0.22236388  0.11353082  0.30147453
   0.33045658  0.00158618  0.44483190
   0.44426000  0.22330000  0.16024000
   0.55261827  0.11018144  0.29899754
   0.66484549  0.99919762  0.43619146
   0.77760000  0.22330000  0.16024000
   0.88925431  0.11198667  0.30055449
   1.00173799  0.33452698  0.44656542
   0.11093000  0.55664000  0.16024000
   0.22112413  0.44342267  0.30082169
   0.33310471  0.33563320  0.45707383
   0.44426000  0.55664000  0.16024000
   0.55139503  0.44287080  0.30064581
   0.66573805  0.33289443  0.43630878
   0.77760000  0.55664000  0.16024000
   0.88833071  0.44302098  0.29940296
   0.99705983  0.66494635  0.43589684
   0.11093000  0.88997000  0.16024000
   0.22273541  0.77905451  0.30007530
   0.33237146  0.66526983  0.44159089
   0.44426000  0.88997000  0.16024000
   0.55314190  0.77727453  0.29873521
   0.66686295  0.66701393  0.43626266
   0.77760000  0.88997000  0.16024000
   0.88844639  0.77931828  0.29842545
   0.99982000  0.00108000  0.02337000
   0.33315000  0.00108000  0.02337000
   0.66649000  0.00108000  0.02337000
   0.99982000  0.33441000  0.02337000
   0.33315000  0.33441000  0.02337000
   0.66649000  0.33441000  0.02337000
   0.99982000  0.66775000  0.02337000
   0.33315000  0.66775000  0.02337000
   0.66649000  0.66775000  0.02337000
   0.21796815  0.08054995  0.56993843
   0.22341945  0.39232493  0.54707921
   0.21265986  0.04889874  0.63861804
Direct configuration=    14
   1.00063622  0.99792363  0.44356271
   0.11093000  0.22330000  0.16024000
   0.22236755  0.11353718  0.30152335
   0.33043127  0.00166633  0.44503507
   0.44426000  0.22330000  0.16024000
   0.55257982  0.11016667  0.29903328
   0.66485262  0.99922360  0.43620123
   0.77760000  0.22330000  0.16024000
   0.88927631  0.11199227  0.30059478
   1.00188935  0.33456021  0.44670497
   0.11093000  0.55664000  0.16024000
   0.22111939  0.44341658  0.30086814
   0.33357782  0.33575086  0.45692133
   0.44426000  0.55664000  0.16024000
   0.55139647  0.44286926  0.30068510
   0.66582873  0.33292220  0.43634414
   0.77760000  0.55664000  0.16024000
   0.88835073  0.44300754  0.29944571
   0.99707831  0.66496499  0.43592566
   0.11093000  0.88997000  0.16024000
   0.22274609  0.77909556  0.30011244
   0.33241431  0.66539457  0.44157476
   0.44426000  0.88997000  0.16024000
   0.55314127  0.77727109  0.29873791
   0.66692750  0.66709661  0.43628141
   0.77760000  0.88997000  0.16024000
   0.88846297  0.77933660  0.29844050
   0.99982000  0.00108000  0.02337000
   0.33315000  0.00108000  0.02337000
   0.66649000  0.00108000  0.02337000
   0.99982000  0.33441000  0.02337000
   0.33315000  0.33441000  0.02337000
   0.66649000  0.33441000  0.02337000
   0.99982000  0.66775000  0.02337000
   0.33315000  0.66775000  0.02337000
   0.66649000  0.66775000  0.02337000
   0.21781559  0.08007604  0.56988441
   0.22293584  0.39142236  0.54682068
   0.21281248  0.04942930  0.63853822
Direct configuration=    15
   1.00070630  0.99796264  0.44368705
   0.11093000  0.22330000  0.16024000
   0.22236809  0.11353999  0.30157460
   0.33040206  0.00175918  0.44527053
   0.44426000  0.22330000  0.16024000
   0.55253738  0.11015067  0.29907445
   0.66486276  0.99925442  0.43621247
   0.77760000  0.22330000  0.16024000
   0.88930049  0.11199748  0.30064110
   1.00206742  0.33459408  0.44686300
   0.11093000  0.55664000  0.16024000
   0.22111368  0.44341023  0.30091674
   0.33411314  0.33590345  0.45672916
   0.44426000  0.55664000  0.16024000
   0.55139880  0.44286707  0.30072714
   0.66594072  0.33295493  0.43638413
   0.77760000  0.55664000  0.16024000
   0.88837305  0.44299157  0.29949281
   0.99710033  0.66498633  0.43595830
   0.11093000  0.88997000  0.16024000
   0.22275890  0.77914286  0.30015368
   0.33246271  0.66553933  0.44155347
   0.44426000  0.88997000  0.16024000
   0.55314237  0.77726899  0.29874012
   0.66700665  0.66719522  0.43630100
   0.77760000  0.88997000  0.16024000
   0.88848229  0.77935734  0.29845714
   0.99982000  0.00108000  0.02337000
   0.33315000  0.00108000  0.02337000
   0.66649000  0.00108000  0.02337000
   0.99982000  0.33441000  0.02337000
   0.33315000  0.33441000  0.02337000
   0.66649000  0.33441000  0.02337000
   0.99982000  0.66775000  0.02337000
   0.33315000  0.66775000  0.02337000
   0.66649000  0.66775000  0.02337000
   0.21764852  0.07960617  0.56964228
   0.22236053  0.39038054  0.54653251
   0.21296849  0.04996343  0.63859452
Direct configuration=    16
   1.00078866  0.99800884  0.44382704
   0.11093000  0.22330000  0.16024000
   0.22236586  0.11353657  0.30162369
   0.33036565  0.00185605  0.44552802
   0.44426000  0.22330000  0.16024000
   0.55249274  0.11013157  0.29911695
   0.66487370  0.99928524  0.43622387
   0.77760000  0.22330000  0.16024000
   0.88932177  0.11200045  0.30068755
   1.00225993  0.33463354  0.44702554
   0.11093000  0.55664000  0.16024000
   0.22110731  0.44340690  0.30096168
   0.33466198  0.33607454  0.45651406
   0.44426000  0.55664000  0.16024000
   0.55140490  0.44286630  0.30076915
   0.66606723  0.33299007  0.43642472
   0.77760000  0.55664000  0.16024000
   0.88839635  0.44297544  0.29954164
   0.99712271  0.66500546  0.43599161
   0.11093000  0.88997000  0.16024000
   0.22277372  0.77919320  0.30019541
   0.33251838  0.66569353  0.44152892
   0.44426000  0.88997000  0.16024000
   0.55314524  0.77726861  0.29874148
   0.66709108  0.66729946  0.43632001
   0.77760000  0.88997000  0.16024000
   0.88850195  0.77937743  0.29847422
   0.99982000  0.00108000  0.02337000
   0.33315000  0.00108000  0.02337000
   0.66649000  0.00108000  0.02337000
   0.99982000  0.33441000  0.02337000
   0.33315000  0.33441000  0.02337000
   0.66649000  0.33441000  0.02337000
   0.99982000  0.66775000  0.02337000
   0.33315000  0.66775000  0.02337000
   0.66649000  0.66775000  0.02337000
   0.21744509  0.07899295  0.56962688
   0.22173281  0.38930539  0.54623321
   0.21314381  0.05063892  0.63834860
Direct configuration=    17
   1.00085433  0.99804759  0.44394283
   0.11093000  0.22330000  0.16024000
   0.22236210  0.11352957  0.30166227
   0.33033756  0.00193628  0.44574132
   0.44426000  0.22330000  0.16024000
   0.55245527  0.11011634  0.29915272
   0.66488365  0.99931183  0.43623389
   0.77760000  0.22330000  0.16024000
   0.88933906  0.11200191  0.30072590
   1.00243169  0.33466860  0.44716177
   0.11093000  0.55664000  0.16024000
   0.22110093  0.44340540  0.30099566
   0.33510699  0.33623272  0.45631743
   0.44426000  0.55664000  0.16024000
   0.55141245  0.44286664  0.30080257
   0.66617142  0.33301806  0.43645734
   0.77760000  0.55664000  0.16024000
   0.88841466  0.44296181  0.29958022
   0.99714242  0.66502210  0.43601854
   0.11093000  0.88997000  0.16024000
   0.22278600  0.77923572  0.30022957
   0.33256552  0.66582109  0.44150734
   0.44426000  0.88997000  0.16024000
   0.55314875  0.77726940  0.29874174
   0.66716771  0.66739226  0.43633417
   0.77760000  0.88997000  0.16024000
   0.88851869  0.77939480  0.29848864
   0.99982000  0.00108000  0.02337000
   0.33315000  0.00108000  0.02337000
   0.66649000  0.00108000  0.02337000
   0.99982000  0.33441000  0.02337000
   0.33315000  0.33441000  0.02337000
   0.66649000  0.33441000  0.02337000
   0.99982000  0.66775000  0.02337000
   0.33315000  0.66775000  0.02337000
   0.66649000  0.66775000  0.02337000
   0.21729622  0.07864708  0.56919300
   0.22119442  0.38841272  0.54598176
   0.21325405  0.05103285  0.63852745
Direct configuration=    18
   1.00090726  0.99807799  0.44403022
   0.11093000  0.22330000  0.16024000
   0.22235769  0.11352240  0.30168516
   0.33031393  0.00198974  0.44589317
   0.44426000  0.22330000  0.16024000
   0.55243267  0.11010668  0.29917672
   0.66489050  0.99933003  0.43624074
   0.77760000  0.22330000  0.16024000
   0.88935101  0.11200365  0.30075077
   1.00254765  0.33469375  0.44725399
   0.11093000  0.55664000  0.16024000
   0.22109577  0.44340480  0.30101643
   0.33539886  0.33633850  0.45618293
   0.44426000  0.55664000  0.16024000
   0.55141943  0.44286694  0.30082359
   0.66624519  0.33303753  0.43647805
   0.77760000  0.55664000  0.16024000
   0.88842687  0.44295268  0.29960601
   0.99715515  0.66503169  0.43603626
   0.11093000  0.88997000  0.16024000
   0.22279413  0.77926377  0.30025235
   0.33259650  0.66590416  0.44149420
   0.44426000  0.88997000  0.16024000
   0.55315114  0.77727037  0.29874177
   0.66722008  0.66745507  0.43634225
   0.77760000  0.88997000  0.16024000
   0.88852915  0.77940592  0.29849804
   0.99982000  0.00108000  0.02337000
   0.33315000  0.00108000  0.02337000
   0.66649000  0.00108000  0.02337000
   0.99982000  0.33441000  0.02337000
   0.33315000  0.33441000  0.02337000
   0.66649000  0.33441000  0.02337000
   0.99982000  0.66775000  0.02337000
   0.33315000  0.66775000  0.02337000
   0.66649000  0.66775000  0.02337000
   0.21716601  0.07824441  0.56927149
   0.22082022  0.38784789  0.54580278
   0.21334658  0.05145605  0.63821807
Direct configuration=    19
   1.00095845  0.99810746  0.44411952
   0.11093000  0.22330000  0.16024000
   0.22235227  0.11351301  0.30170839
   0.33029135  0.00204550  0.44604954
   0.44426000  0.22330000  0.16024000
   0.55240765  0.11009661  0.29920162
   0.66489762  0.99934880  0.43624788
   0.77760000  0.22330000  0.16024000
   0.88936352  0.11200488  0.30077766
   1.00267089  0.33472198  0.44735087
   0.11093000  0.55664000  0.16024000
   0.22108973  0.44340461  0.30103582
   0.33570356  0.33645728  0.45603672
   0.44426000  0.55664000  0.16024000
   0.55142725  0.44286736  0.30084472
   0.66632399  0.33305668  0.43649841
   0.77760000  0.55664000  0.16024000
   0.88843972  0.44294296  0.29963263
   0.99716748  0.66504090  0.43605355
   0.11093000  0.88997000  0.16024000
   0.22280335  0.77929251  0.30027620
   0.33262941  0.66599125  0.44148222
   0.44426000  0.88997000  0.16024000
   0.55315320  0.77727133  0.29874190
   0.66727656  0.66752266  0.43635001
   0.77760000  0.88997000  0.16024000
   0.88854038  0.77941802  0.29850796
   0.99982000  0.00108000  0.02337000
   0.33315000  0.00108000  0.02337000
   0.66649000  0.00108000  0.02337000
   0.99982000  0.33441000  0.02337000
   0.33315000  0.33441000  0.02337000
   0.66649000  0.33441000  0.02337000
   0.99982000  0.66775000  0.02337000
   0.33315000  0.66775000  0.02337000
   0.66649000  0.66775000  0.02337000
   0.21704465  0.07794618  0.56898929
   0.22041897  0.38728984  0.54560092
   0.21341632  0.05176174  0.63822660
Direct configuration=    20
   1.00102842  0.99814512  0.44423824
   0.11093000  0.22330000  0.16024000
   0.22234476  0.11349916  0.30173543
   0.33026187  0.00211502  0.44625038
   0.44426000  0.22330000  0.16024000
   0.55237658  0.11008376  0.29923274
   0.66490657  0.99937189  0.43625674
   0.77760000  0.22330000  0.16024000
   0.88937824  0.11200621  0.30081096
   1.00282274  0.33475592  0.44747388
   0.11093000  0.55664000  0.16024000
   0.22108190  0.44340487  0.30105792
   0.33607129  0.33659990  0.45585454
   0.44426000  0.55664000  0.16024000
   0.55143864  0.44286835  0.30086884
   0.66642428  0.33308070  0.43652245
   0.77760000  0.55664000  0.16024000
   0.88845495  0.44293075  0.29966430
   0.99718204  0.66505087  0.43607404
   0.11093000  0.88997000  0.16024000
   0.22281540  0.77932765  0.30030615
   0.33267052  0.66609635  0.44147103
   0.44426000  0.88997000  0.16024000
   0.55315528  0.77727263  0.29874237
   0.66735000  0.66760897  0.43635930
   0.77760000  0.88997000  0.16024000
   0.88855456  0.77943333  0.29852029
   0.99982000  0.00108000  0.02337000