 vasp.6.4.2 20Jul23 (build Jun  3 2025 15:36:07) complex                         
 executed on              LinuxNV date 2025.06.06  14:52:50
 running    5 mpi-ranks, with    1 threads/rank, on    5 nodes
 each image running on    1 cores
 distrk:  each k-point on    1 cores,    1 groups
 distr:  one band on NCORE=   1 cores,    1 groups
 OpenACC runtime initialized ...    5 GPUs detected


--------------------------------------------------------------------------------------------------------


 INCAR:
   SYSTEM = Si
   ISTART = 0
   ICHARG = 0
   NCORE = 8
   ISPIN = 2
   NELM = 20
   ENCUT = 400
   PREC = Accurate
   ISMEAR = 0
   SIGMA = 0.01
   EDIFF = 1E-10
   ALGO = Normal
   NELECT = 1072
   IBRION = 3
   NSW = 500
   POTIM = 0
   ISIF = 0
   IOPT = 1
   EDIFFG = -0.010
   ICHAIN = 0
   IMAGES = 5
   SPRING = -5.0
   LCLIMB = .FALSE.

 POTCAR:    PAW_PBE Li_sv 10Sep2004               
 POTCAR:    PAW_PBE F 08Apr2002                   
 -----------------------------------------------------------------------------
|                                                                             |
|           W    W    AA    RRRRR   N    N  II  N    N   GGGG   !!!           |
|           W    W   A  A   R    R  NN   N  II  NN   N  G    G  !!!           |
|           W    W  A    A  R    R  N N  N  II  N N  N  G       !!!           |
|           W WW W  AAAAAA  RRRRR   N  N N  II  N  N N  G  GGG   !            |
|           WW  WW  A    A  R   R   N   NN  II  N   NN  G    G                |
|           W    W  A    A  R    R  N    N  II  N    N   GGGG   !!!           |
|                                                                             |
|     You use a magnetic or noncollinear calculation, but did not specify     |
|     the initial magnetic moment with the MAGMOM tag. Note that a            |
|     default of 1 will be used for all atoms. This ferromagnetic setup       |
|     may break the symmetry of the crystal, in particular it may rule        |
|     out finding an antiferromagnetic solution. Thence, we recommend         |
|     setting the initial magnetic moment manually or verifying carefully     |
|     that this magnetic setup is desired.                                    |
|                                                                             |
 -----------------------------------------------------------------------------

 POTCAR:    PAW_PBE Li_sv 10Sep2004               
   SHA256 =  7e51fe1804c037e1dccc81a9c376d94d693a7559600c847f4b41960edb8ab895 Li_sv/POTCAR          
   COPYR  = (c) Copyright 10Sep2004 Georg Kresse                                                    
   COPYR  = This file is part of the software VASP. Any use, copying, and all other rights are regul
   COPYR  = If you do not have a valid VASP license, you may not use, copy or distribute this file. 
   VRHFIN =Li: 1s2s2p                                                                               
   LEXCH  = PE                                                                                      
   EATOM  =   202.7858 eV,   14.9043 Ry                                                             
                                                                                                    
   TITEL  = PAW_PBE Li_sv 10Sep2004                                                                 
   LULTRA =        F    use ultrasoft PP ?                                                          
   IUNSCR =        0    unscreen: 0-lin 1-nonlin 2-no                                               
   RPACOR =    0.000    partial core radius                                                         
   POMASS =    7.010; ZVAL   =    3.000    mass and valenz                                          
   RCORE  =    1.700    outmost cutoff radius                                                       
   RWIGS  =    2.050; RWIGS  =    1.085    wigner-seitz radius (au A)                               
   ENMAX  =  499.034; ENMIN  =  374.276 eV                                                          
   ICORE  =        2    local potential                                                             
   LCOR   =        T    correct aug charges                                                         
   LPAW   =        T    paw PP                                                                      
   EAUG   =  628.945                                                                                
   RMAX   =    1.732    core radius for proj-oper                                                   
   RAUG   =    1.300    factor for augmentation sphere                                              
   RDEP   =    1.728    radius for radial grids                                                     
   RDEPT  =    1.329    core radius for aug-charge                                                  
                                                                                                    
   Atomic configuration                                                                             
    4 entries                                                                                       
     n  l   j            E        occ.                                                              
     1  0  0.50       -51.8549   2.0000                                                             
     2  0  0.50        -2.8742   1.0000                                                             
     2  1  0.50        -1.3606   0.0000                                                             
     3  2  1.50        -1.3606   0.0000                                                             
   Description                                                                                      
     l       E           TYP  RCUT    TYP  RCUT                                                     
     0    -51.8548813     23  1.400                                                                 
     0     -2.8742052     23  1.700                                                                 
     1     -1.3605826     23  1.400                                                                 
     2     -1.3605826     23  1.400                                                                 
  local pseudopotential read in
  atomic valenz-charges read in
  non local Contribution for L=            0  read in
    real space projection operators read in
  non local Contribution for L=            0  read in
    real space projection operators read in
  non local Contribution for L=            1  read in
    real space projection operators read in
    PAW grid and wavefunctions read in
 
   number of l-projection  operators is LMAX  =            3
   number of lm-projection operators is LMMAX =            5
 
 POTCAR:    PAW_PBE F 08Apr2002                   
   SHA256 =  53c630871ac675939349fc2b976745ee17808dedc90b5bdde026bc81f0faf456 F/POTCAR              
   COPYR  = (c) Copyright 08Apr2002 Georg Kresse                                                    
   COPYR  = This file is part of the software VASP. Any use, copying, and all other rights are regul
   COPYR  = If you do not have a valid VASP license, you may not use, copy or distribute this file. 
   VRHFIN =F: s2p5                                                                                  
   LEXCH  = PE                                                                                      
   EATOM  =   659.6475 eV,   48.4827 Ry                                                             
                                                                                                    
   TITEL  = PAW_PBE F 08Apr2002                                                                     
   LULTRA =        F    use ultrasoft PP ?                                                          
   IUNSCR =        1    unscreen: 0-lin 1-nonlin 2-no                                               
   RPACOR =    1.200    partial core radius                                                         
   POMASS =   18.998; ZVAL   =    7.000    mass and valenz                                          
   RCORE  =    1.520    outmost cutoff radius                                                       
   RWIGS  =    1.500; RWIGS  =    0.794    wigner-seitz radius (au A)                               
   ENMAX  =  400.000; ENMIN  =  300.000 eV                                                          
   ICORE  =        2    local potential                                                             
   LCOR   =        T    correct aug charges                                                         
   LPAW   =        T    paw PP                                                                      
   EAUG   =  613.614                                                                                
   RMAX   =    1.555    core radius for proj-oper                                                   
   RAUG   =    1.300    factor for augmentation sphere                                              
   RDEP   =    1.539    radius for radial grids                                                     
   RDEPT  =    1.299    core radius for aug-charge                                                  
                                                                                                    
   Atomic configuration                                                                             
    4 entries                                                                                       
     n  l   j            E        occ.                                                              
     1  0  0.50      -663.3661   2.0000                                                             
     2  0  0.50       -29.8995   2.0000                                                             
     2  1  0.50       -11.1114   5.0000                                                             
     3  2  1.50       -10.8847   0.0000                                                             
   Description                                                                                      
     l       E           TYP  RCUT    TYP  RCUT                                                     
     0    -29.8995018     23  1.200                                                                 
     0     -9.5240782     23  1.200                                                                 
     1    -11.1113914     23  1.520                                                                 
     1      1.3605826     23  1.520                                                                 
     2    -10.8846608      7  1.500                                                                 
  local pseudopotential read in
  partial core-charges read in
  partial kinetic energy density read in
  atomic valenz-charges read in
  non local Contribution for L=            0  read in
    real space projection operators read in
  non local Contribution for L=            0  read in
    real space projection operators read in
  non local Contribution for L=            1  read in
    real space projection operators read in
  non local Contribution for L=            1  read in
    real space projection operators read in
    PAW grid and wavefunctions read in
 
   number of l-projection  operators is LMAX  =            4
   number of lm-projection operators is LMMAX =            8
 
 -----------------------------------------------------------------------------
|                                                                             |
|               ----> ADVICE to this user running VASP <----                  |
|                                                                             |
|     You have a (more or less) 'large supercell' and for larger cells it     |
|     might be more efficient to use real-space projection operators.         |
|     Therefore, try LREAL= Auto in the INCAR file.                           |
|     Mind: For very accurate calculation, you might also keep the            |
|     reciprocal projection scheme (i.e. LREAL=.FALSE.).                      |
|                                                                             |
 -----------------------------------------------------------------------------

  PAW_PBE Li_sv 10Sep2004               :
 energy of atom  1       EATOM= -202.7858
 kinetic energy error for atom=    0.0926 (will be added to EATOM!!)
  PAW_PBE F 08Apr2002                   :
 energy of atom  2       EATOM= -659.6475
 kinetic energy error for atom=    0.1978 (will be added to EATOM!!)
 
 
 POSCAR: Li   F
  positions in direct lattice
  No initial velocities read in
 exchange correlation table for  LEXCH =        8
   RHO(1)=    0.500       N(1)  =     2000
   RHO(2)=  100.500       N(2)  =     4000

 VTST: version 4.1, (05/19/21)

 CHAIN: initializing optimizer
 
 OPT: Using LBFGS optimizer
 OPT: LBFGS, Init
 OPT: LBFGS, MEMORY             20
 OPT: LBFGS, IMAGES              5
 OPT: LBFGS, MAXMOVE      0.200000
 OPT: LBFGS, LGLOBAL      T
 OPT: LBFGS, INVCURV      0.010000
 OPT: LBFGS, LLINEOPT      F
 OPT: LBFGS, FDSTEP       0.005000
 OPT: LBFGS, LAUTOSCALE      T
 OPT: LBFGS, DAMPING      2.000000
 
 CHAIN: Read ICHAIN             0
 CHAIN: Running the NEB
 NEB:          SPRING     -5.000000
 NEB:          LCLIMB      F
 NEB:     LTANGENTOLD      F
 NEB:           LDNEB      F
 NEB:        LDNEBORG      F
 NEB:        LNEBCELL      F
 NEB:          EFIRST      0.000000
 NEB:           ELAST      0.000000
 
 POSCAR: Li   F
  positions in direct lattice
  No initial velocities read in
 
 POSCAR: Li   F
  positions in direct lattice
  No initial velocities read in
 
 POSCAR: Li   F
  positions in direct lattice
  No initial velocities read in
 
 POSCAR: Li   F
  positions in direct lattice
  No initial velocities read in
 


--------------------------------------------------------------------------------------------------------


 ion  position               nearest neighbor table
   1  0.999  0.002  0.001- 109 1.99 207 1.99 136 2.00 138 2.01 189 2.03 115 2.09
   2  1.000  0.000  0.333- 208 2.01 110 2.01 137 2.01 116 2.02 136 2.02
   3  1.000  0.001  0.666- 137 2.00 111 2.00 209 2.00 138 2.03 117 2.05
   4  0.999  0.331  0.001- 109 1.99 210 1.99 139 2.00 141 2.01 112 2.09 183 2.20 165 2.23
   5  1.000  0.333  0.333- 211 2.01 110 2.01 140 2.01 113 2.02 139 2.02
   6  1.000  0.333  0.666- 140 2.00 111 2.00 212 2.00 141 2.03 114 2.05
   7  0.989  0.667  0.006- 213 1.89 142 1.93 112 1.97 115 1.97 186 2.11 144 2.14
   8  0.999  0.667  0.335- 143 1.98 214 2.00 113 2.01 116 2.01 196 2.03 142 2.05
   9  0.999  0.667  0.660- 143 1.94 215 1.98 114 1.99 117 1.99 197 2.01
  10  0.334  0.001  0.000- 171 1.18 147 1.48 198 1.99 118 2.00 124 2.07
  11  0.334  0.000  0.333- 145 0.68 199 2.01 119 2.01 125 2.02
  12  0.334  0.000  0.666- 146 0.67 200 2.01 120 2.01 126 2.03
  13  0.334  0.332  0.000- 150 1.52 201 1.99 118 2.00 121 2.07 174 2.21 165 2.24
  14  0.334  0.333  0.333- 148 0.68 202 2.01 119 2.01 122 2.02
  15  0.334  0.333  0.666- 149 0.67 203 2.01 120 2.01 123 2.02
  16  0.345  0.667  0.001- 153 1.89 204 1.90 121 1.98 124 1.98 177 2.09
  17  0.335  0.667  0.335- 151 0.72 205 1.99 122 2.01 125 2.01 196 2.03
  18  0.335  0.667  0.665- 152 0.65 206 1.99 123 2.00 126 2.00 197 2.05
  19  0.667  0.000  0.000- 180 1.17 156 1.50 127 2.01 133 2.02 198 2.02 207 2.02
  20  0.667  0.000  0.333- 154 0.67 128 2.01 199 2.01 208 2.02 134 2.02
  21  0.667  0.000  0.666- 155 0.67 129 2.01 200 2.01 209 2.02 135 2.02
  22  0.667  0.333  0.000- 159 1.51 127 2.01 130 2.02 201 2.02 210 2.02 174 2.23 183 2.23
  23  0.667  0.333  0.333- 157 0.67 128 2.01 202 2.01 211 2.02 131 2.02
  24  0.667  0.333  0.666- 158 0.67 129 2.01 203 2.01 132 2.02 212 2.02
  25  0.666  0.667  0.001- 204 1.98 213 2.01 130 2.01 133 2.01 177 2.22 186 2.24
  26  0.667  0.667  0.334- 160 0.67 131 2.01 134 2.01 205 2.02 214 2.02
  27  0.666  0.667  0.666- 161 0.66 132 2.01 135 2.01 206 2.01 215 2.04
  28  1.000  0.167  0.167- 110 2.01 109 2.01 136 2.02 139 2.02
  29  1.000  0.167  0.500- 110 2.01 111 2.02 137 2.02 140 2.02
  30  1.000  0.167  0.833- 138 2.01 141 2.01 111 2.01 109 2.02 192 2.22
  31  1.000  0.499  0.167- 139 1.99 113 2.00 142 2.02 112 2.04
  32  1.000  0.499  0.499- 140 2.00 113 2.01 143 2.02 114 2.05
  33  1.000  0.494  0.833- 141 1.95 114 1.99 112 2.00 195 2.19
  34  1.000  0.834  0.167- 136 1.99 116 2.00 142 2.02 115 2.04
  35  1.000  0.834  0.499- 137 2.00 116 2.01 143 2.02 117 2.05
  36  1.000  0.839  0.833- 189 1.12 138 1.95 117 1.99 115 2.00 144 2.08
  37  0.334  0.167  0.167- 119 2.01 118 2.02
  38  0.334  0.167  0.500- 119 2.02 120 2.02
  39  0.334  0.167  0.833- 147 1.51 120 2.01 118 2.01 192 2.23
  40  0.334  0.500  0.167- 122 2.00 121 2.02
  41  0.334  0.500  0.500- 122 2.02 123 2.03
  42  0.334  0.499  0.833- 150 1.50 123 2.00 121 2.01 195 2.25
  43  0.334  0.834  0.167- 125 2.00 124 2.02
  44  0.334  0.834  0.500- 125 2.02 126 2.03
  45  0.334  0.834  0.833- 126 2.00 153 2.01 171 2.01 124 2.01
  46  0.667  0.167  0.167- 128 2.01 127 2.02
  47  0.667  0.167  0.500- 128 2.01 129 2.02
  48  0.667  0.167  0.833- 156 1.50 129 2.01 127 2.01
  49  0.667  0.500  0.167- 131 2.01 130 2.02
  50  0.667  0.500  0.500- 131 2.02 132 2.02
  51  0.666  0.499  0.833- 159 1.50 132 2.01 130 2.01
  52  0.667  0.834  0.167- 134 2.01 133 2.02
  53  0.667  0.834  0.500- 134 2.02 135 2.02
  54  0.666  0.834  0.833- 135 2.01 180 2.01 133 2.01
  55  0.167  0.001  0.168- 190 0.68 136 2.01
  56  0.167  0.000  0.500- 191 0.67 137 2.01
  57  0.167  0.002  0.832- 192 1.47 138 2.01 171 2.06
  58  0.167  0.332  0.168- 193 0.68 139 2.01
  59  0.167  0.333  0.500- 194 0.67 140 2.01
  60  0.167  0.331  0.832- 165 1.49 195 1.53 141 2.01
  61  0.167  0.667  0.178- 196 1.90 142 1.99
  62  0.167  0.667  0.499- 196 1.98 197 2.01 143 2.02
  63  0.172  0.667  0.822- 168 1.64 197 1.89 144 2.14
  64  0.500  0.000  0.167- 199 2.01 198 2.02
  65  0.500  0.000  0.500- 199 2.02 200 2.02
  66  0.500  0.000  0.833- 200 2.01 198 2.02 180 2.02
  67  0.500  0.333  0.167- 202 2.01 201 2.02
  68  0.500  0.333  0.500- 202 2.02 203 2.02
  69  0.500  0.333  0.833- 174 1.50 203 2.01 201 2.01
  70  0.501  0.667  0.168- 205 1.99 204 2.03
  71  0.500  0.667  0.500- 205 2.02 206 2.02
  72  0.501  0.667  0.832- 177 1.51 206 2.00 204 2.03 153 2.06
  73  0.833  0.000  0.167- 208 2.01 207 2.02 136 2.02
  74  0.833  0.000  0.500- 208 2.02 137 2.02 209 2.02
  75  0.833  0.001  0.833- 209 2.00 207 2.01 138 2.03 189 2.04
  76  0.833  0.333  0.167- 211 2.01 210 2.02 139 2.02
  77  0.833  0.333  0.500- 211 2.02 140 2.02 212 2.02
  78  0.833  0.333  0.833- 183 1.50 212 2.00 210 2.01 141 2.03
  79  0.832  0.667  0.168- 214 1.99 213 2.05 142 2.07
  80  0.833  0.667  0.499- 214 2.01 143 2.02 215 2.04
  81  0.826  0.667  0.832- 186 1.52 215 1.98 213 2.01
  82  0.167  0.167  0.000- 165 1.51 118 2.01 109 2.02 147 2.22
  83  0.167  0.167  0.334- 163 0.67 119 2.01 110 2.01
  84  0.167  0.167  0.666- 164 0.67 192 1.51 120 2.01 111 2.01
  85  0.167  0.489  0.000- 168 1.64 121 1.98 112 1.99 150 2.18
  86  0.167  0.499  0.335- 166 0.72 122 2.00 113 2.01 196 2.03
  87  0.167  0.499  0.665- 167 0.66 195 1.50 123 2.00 114 2.01 197 2.03
  88  0.167  0.845  0.000- 144 1.21 171 1.89 124 1.98 115 1.99
  89  0.167  0.834  0.335- 169 0.72 125 2.00 116 2.01 196 2.03
  90  0.167  0.834  0.665- 170 0.66 126 2.00 117 2.01 197 2.03
  91  0.500  0.167  0.000- 174 1.50 127 2.01 118 2.01 198 2.02 201 2.02 156 2.22 147 2.24
  92  0.500  0.167  0.333- 172 0.67 128 2.01 199 2.02 202 2.02 119 2.02
  93  0.500  0.167  0.666- 173 0.67 129 2.01 200 2.02 203 2.02 120 2.02
  94  0.501  0.499  0.000- 177 1.52 201 1.99 130 2.00 204 2.03 121 2.07 159 2.21 150 2.24
  95  0.500  0.500  0.333- 175 0.68 202 2.01 131 2.01 205 2.02 122 2.02
  96  0.500  0.500  0.666- 176 0.67 203 2.01 132 2.02 206 2.02 123 2.03
  97  0.501  0.834  0.000- 153 1.18 180 1.98 198 1.99 133 2.00 204 2.03 124 2.07
  98  0.500  0.834  0.333- 178 0.68 199 2.01 134 2.01 205 2.02 125 2.02
  99  0.500  0.834  0.666- 179 0.67 200 2.01 135 2.02 206 2.02 126 2.03
 100  0.833  0.167  0.000- 183 1.50 127 2.01 109 2.01 207 2.02 210 2.02 156 2.22
 101  0.833  0.167  0.333- 181 0.67 128 2.01 110 2.02 208 2.02 211 2.02
 102  0.833  0.167  0.666- 182 0.67 129 2.01 111 2.02 209 2.02 212 2.02
 103  0.832  0.499  0.000- 162 0.68 186 1.52 210 1.99 130 1.99 213 2.03 112 2.06 159 2.20
 104  0.833  0.500  0.333- 184 0.68 211 2.01 131 2.01 214 2.02 113 2.02
 105  0.833  0.500  0.666- 185 0.67 212 2.00 132 2.01 215 2.02 114 2.02
 106  0.832  0.834  0.000- 207 1.99 133 1.99 189 2.02 213 2.03 115 2.06
 107  0.833  0.834  0.333- 187 0.68 208 2.01 134 2.01 214 2.02 116 2.02
 108  0.833  0.834  0.666- 188 0.67 209 2.00 135 2.01 215 2.02 117 2.02
 109  1.000  0.167  0.000-   1 1.99   4 1.99 100 2.01  28 2.01  30 2.02  82 2.02
 110  0.000  0.167  0.333-  28 2.01   2 2.01   5 2.01  83 2.01  29 2.01 101 2.02
 111  0.000  0.167  0.667-   3 2.00   6 2.00  30 2.01  84 2.01  29 2.02 102 2.02
 112  0.003  0.504  0.999-   7 1.97  85 1.99  33 2.00  31 2.04 103 2.06   4 2.09
 113  0.001  0.500  0.333-  31 2.00  86 2.01   8 2.01  32 2.01   5 2.02 104 2.02
 114  0.001  0.502  0.669-  33 1.99   9 1.99  87 2.01 105 2.02   6 2.05  32 2.05
 115  0.003  0.829  0.999- 144 1.60 189 1.66   7 1.97  88 1.99  36 2.00  34 2.04 106 2.06   1 2.09

 116  0.001  0.833  0.333-  34 2.00  89 2.01   8 2.01  35 2.01   2 2.02 107 2.02
 117  0.001  0.831  0.669-  36 1.99   9 1.99  90 2.01 108 2.02  35 2.05   3 2.05
 118  0.334  0.167  1.000- 147 0.95  10 2.00  13 2.00  39 2.01  91 2.01  82 2.01  37 2.02
 119  0.333  0.167  0.333-  37 2.01  83 2.01  11 2.01  14 2.01  38 2.02  92 2.02
 120  0.333  0.167  0.667-  39 2.01  84 2.01  12 2.01  15 2.01  38 2.02  93 2.02
 121  0.330  0.503  1.000- 150 0.97  85 1.98  16 1.98  42 2.01  40 2.02  13 2.07  94 2.07
 122  0.333  0.501  0.333-  40 2.00  86 2.00  17 2.01  41 2.02  14 2.02  95 2.02
 123  0.332  0.501  0.668-  42 2.00  87 2.00  18 2.00  15 2.02  41 2.03  96 2.03
 124  0.330  0.830  1.000- 171 1.62 153 1.62  88 1.98  16 1.98  45 2.01  43 2.02  97 2.07  10 2.07

 125  0.333  0.833  0.333-  43 2.00  89 2.00  17 2.01  44 2.02  98 2.02  11 2.02
 126  0.332  0.833  0.668-  45 2.00  90 2.00  18 2.00  44 2.03  99 2.03  12 2.03
 127  0.667  0.167  1.000- 156 0.95 100 2.01  19 2.01  22 2.01  91 2.01  48 2.01  46 2.02
 128  0.667  0.167  0.333-  46 2.01 101 2.01  20 2.01  23 2.01  92 2.01  47 2.01
 129  0.667  0.167  0.667-  48 2.01 102 2.01  21 2.01  24 2.01  93 2.01  47 2.02
 130  0.667  0.500  1.000- 159 0.95 103 1.99  94 2.00  51 2.01  25 2.01  22 2.02  49 2.02
 131  0.667  0.500  0.333-  49 2.01 104 2.01  26 2.01  95 2.01  50 2.02  23 2.02
 132  0.667  0.500  0.667-  51 2.01 105 2.01  27 2.01  96 2.02  24 2.02  50 2.02
 133  0.667  0.833  1.000- 180 1.64 106 1.99  97 2.00  54 2.01  25 2.01  19 2.02  52 2.02
 134  0.667  0.833  0.333-  52 2.01 107 2.01  26 2.01  98 2.01  53 2.02  20 2.02
 135  0.667  0.833  0.667-  54 2.01 108 2.01  27 2.01  99 2.02  53 2.02  21 2.02
 136  0.001  0.999  0.166-  34 1.99   1 2.00  55 2.01  73 2.02  28 2.02   2 2.02
 137  0.000  1.000  0.500-  35 2.00   3 2.00  56 2.01   2 2.01  74 2.02  29 2.02
 138  0.001  0.000  0.834- 189 1.66  36 1.95  30 2.01  57 2.01   1 2.01  75 2.03   3 2.03
 139  0.001  0.334  0.166-  31 1.99   4 2.00  58 2.01  76 2.02  28 2.02   5 2.02
 140  0.000  0.334  0.500-  32 2.00   6 2.00  59 2.01   5 2.01  77 2.02  29 2.02
 141  0.001  0.333  0.834-  33 1.95  30 2.01  60 2.01   4 2.01  78 2.03   6 2.03
 142  0.003  0.667  0.165-   7 1.93  61 1.99  31 2.02  34 2.02   8 2.05  79 2.07
 143  1.000  0.667  0.499-   9 1.94   8 1.98  80 2.02  32 2.02  35 2.02  62 2.02
 144  0.114  0.778  0.947-  88 1.21 115 1.60  36 2.08  63 2.14   7 2.14
 145  0.333  0.999  0.277-  11 0.68
 146  0.333  1.000  0.611-  12 0.67
 147  0.333  0.111  0.945- 118 0.95  10 1.48  39 1.51  82 2.22  91 2.24
 148  0.333  0.334  0.277-  14 0.68
 149  0.333  0.334  0.611-  15 0.67
 150  0.333  0.445  0.945- 121 0.97  42 1.50  13 1.52  85 2.18  94 2.24
 151  0.330  0.667  0.275-  17 0.72
 152  0.335  0.667  0.611-  18 0.65
 153  0.442  0.778  0.947-  97 1.18 124 1.62 204 1.66  16 1.89  45 2.01  72 2.06
 154  0.667  1.000  0.278-  20 0.67
 155  0.667  1.000  0.611-  21 0.67
 156  0.667  0.111  0.945- 127 0.95  19 1.50  48 1.50 100 2.22  91 2.22
 157  0.667  0.334  0.278-  23 0.67
 158  0.667  0.334  0.611-  24 0.67
 159  0.667  0.445  0.944- 130 0.95  51 1.50  22 1.51 103 2.20  94 2.21
 160  0.667  0.667  0.278-  26 0.67
 161  0.666  0.667  0.611-  27 0.66
 162  0.833  0.500  0.944- 103 0.68 186 1.35
 163  0.167  0.167  0.278-  83 0.67
 164  0.167  0.167  0.611-  84 0.67
 165  0.166  0.278  0.944-  60 1.49  82 1.51   4 2.23  13 2.24
 166  0.166  0.503  0.275-  86 0.72
 167  0.165  0.501  0.611-  87 0.66
 168  0.166  0.614  0.947-  63 1.64  85 1.64
 169  0.166  0.830  0.275-  89 0.72
 170  0.165  0.832  0.611-  90 0.66
 171  0.278  0.942  0.947-  10 1.18 124 1.62  88 1.89  45 2.01  57 2.06
 172  0.500  0.167  0.278-  92 0.67
 173  0.500  0.167  0.611-  93 0.67
 174  0.500  0.278  0.944- 201 0.95  91 1.50  69 1.50  13 2.21  22 2.23
 175  0.499  0.501  0.277-  95 0.68
 176  0.500  0.500  0.611-  96 0.67
 177  0.499  0.612  0.945- 204 0.94  72 1.51  94 1.52  16 2.09  25 2.22
 178  0.499  0.833  0.277-  98 0.68
 179  0.500  0.833  0.611-  99 0.67
 180  0.611  0.944  0.945-  19 1.17 133 1.64 198 1.64  97 1.98  54 2.01  66 2.02
 181  0.834  0.167  0.278- 101 0.67
 182  0.833  0.167  0.611- 102 0.67
 183  0.834  0.278  0.944- 210 0.95  78 1.50 100 1.50   4 2.20  22 2.23
 184  0.834  0.501  0.278- 104 0.68
 185  0.835  0.502  0.611- 105 0.67
 186  0.834  0.611  0.945- 213 0.93 162 1.35 103 1.52  81 1.52   7 2.11  25 2.24
 187  0.834  0.833  0.278- 107 0.68
 188  0.835  0.832  0.611- 108 0.67
 189  0.945  0.888  0.889-  36 1.12 138 1.66 115 1.66 106 2.02   1 2.03  75 2.04
 190  0.167  0.002  0.111-  55 0.68
 191  0.166  0.999  0.444-  56 0.67
 192  0.166  0.111  0.778-  57 1.47  84 1.51  30 2.22  39 2.23
 193  0.167  0.331  0.111-  58 0.68
 194  0.166  0.334  0.444-  59 0.67
 195  0.165  0.445  0.777-  87 1.50  60 1.53  33 2.19  42 2.25
 196  0.167  0.667  0.335-  61 1.90  62 1.98  17 2.03  86 2.03  89 2.03   8 2.03
 197  0.165  0.667  0.666-  63 1.89   9 2.01  62 2.01  87 2.03  90 2.03  18 2.05
 198  0.500  0.999  1.000- 180 1.64  97 1.99  10 1.99  66 2.02  64 2.02  19 2.02  91 2.02
 199  0.500  1.000  0.333-  98 2.01  11 2.01  64 2.01  20 2.01  65 2.02  92 2.02
 200  0.500  1.000  0.667-  99 2.01  66 2.01  12 2.01  21 2.01  93 2.02  65 2.02
 201  0.500  0.334  1.000- 174 0.95  94 1.99  13 1.99  69 2.01  67 2.02  22 2.02  91 2.02
 202  0.500  0.334  0.333-  95 2.01  14 2.01  67 2.01  23 2.01  68 2.02  92 2.02
 203  0.500  0.334  0.667-  96 2.01  15 2.01  69 2.01  24 2.01  93 2.02  68 2.02
 204  0.502  0.667  0.000- 177 0.94 153 1.66  16 1.90  25 1.98  70 2.03  94 2.03  97 2.03  72 2.03

 205  0.500  0.667  0.333-  17 1.99  70 1.99  95 2.02  98 2.02  26 2.02  71 2.02
 206  0.500  0.667  0.667-  18 1.99  72 2.00  27 2.01  96 2.02  99 2.02  71 2.02
 207  0.834  0.999  1.000- 106 1.99   1 1.99  75 2.01  73 2.02 100 2.02  19 2.02
 208  0.834  1.000  0.333- 107 2.01   2 2.01  73 2.01  74 2.02 101 2.02  20 2.02
 209  0.834  0.999  0.667- 108 2.00   3 2.00  75 2.00 102 2.02  74 2.02  21 2.02
 210  0.834  0.334  1.000- 183 0.95 103 1.99   4 1.99  78 2.01  76 2.02 100 2.02  22 2.02
 211  0.834  0.334  0.333- 104 2.01   5 2.01  76 2.01  77 2.02 101 2.02  23 2.02
 212  0.834  0.334  0.667- 105 2.00   6 2.00  78 2.00 102 2.02  77 2.02  24 2.02
 213  0.833  0.667  0.999- 186 0.93   7 1.89  81 2.01  25 2.01 106 2.03 103 2.03  79 2.05
 214  0.834  0.667  0.333-  79 1.99   8 2.00  80 2.01 104 2.02 107 2.02  26 2.02
 215  0.835  0.667  0.669-   9 1.98  81 1.98 105 2.02 108 2.02  80 2.04  27 2.04
 
 -----------------------------------------------------------------------------
|                                                                             |
|           W    W    AA    RRRRR   N    N  II  N    N   GGGG   !!!           |
|           W    W   A  A   R    R  NN   N  II  NN   N  G    G  !!!           |
|           W    W  A    A  R    R  N N  N  II  N N  N  G       !!!           |
|           W WW W  AAAAAA  RRRRR   N  N N  II  N  N N  G  GGG   !            |
|           WW  WW  A    A  R   R   N   NN  II  N   NN  G    G                |
|           W    W  A    A  R    R  N    N  II  N    N   GGGG   !!!           |
|                                                                             |
|     The distance between some ions is very small. Please check the          |
|     nearest-neighbor list in the OUTCAR file.                               |
|     I HOPE YOU KNOW WHAT YOU ARE DOING!                                     |
|                                                                             |
 -----------------------------------------------------------------------------

  LATTYP: Found a simple cubic cell.
 ALAT       =    12.0789003372
  
  Lattice vectors:
  
 A1 = (  12.0789003372,   0.0000000000,   0.0000000000)
 A2 = (   0.0000000000,  12.0789003372,   0.0000000000)
 A3 = (   0.0000000000,   0.0000000000,  12.0789003372)


Analysis of symmetry for initial positions (statically):
=====================================================================
 Subroutine PRICEL returns:
 Original cell was already a primitive cell.
 

 Routine SETGRP: Setting up the symmetry group for a 
 simple cubic supercell.


 Subroutine GETGRP returns: Found  1 space group operations
 (whereof  1 operations were pure point group operations)
 out of a pool of 48 trial point group operations.


The static configuration has the point symmetry C_1 .


Analysis of symmetry for dynamics (positions and initial velocities):
=====================================================================
 Subroutine PRICEL returns:
 Original cell was already a primitive cell.
 

 Routine SETGRP: Setting up the symmetry group for a 
 simple cubic supercell.


 Subroutine GETGRP returns: Found  1 space group operations
 (whereof  1 operations were pure point group operations)
 out of a pool of 48 trial point group operations.


The dynamic configuration has the point symmetry C_1 .


Analysis of structural, dynamic, and magnetic symmetry:
=====================================================================
 Subroutine PRICEL returns:
 Original cell was already a primitive cell.
 

 Routine SETGRP: Setting up the symmetry group for a 
 simple cubic supercell.


 Subroutine GETGRP returns: Found  1 space group operations
 (whereof  1 operations were pure point group operations)
 out of a pool of 48 trial point group operations.


The overall configuration has the point symmetry C_1 .


 Subroutine INISYM returns: Found  1 space group operations
 (whereof  1 operations are pure point group operations),
 and found     1 'primitive' translations


----------------------------------------------------------------------------------------

                                     Primitive cell                                     

  volume of cell :    1762.3095

  direct lattice vectors                    reciprocal lattice vectors
    12.078900337  0.000000000  0.000000000     0.082788993  0.000000000  0.000000000
     0.000000000 12.078900337  0.000000000     0.000000000  0.082788993  0.000000000
     0.000000000  0.000000000 12.078900337     0.000000000  0.000000000  0.082788993

  length of vectors
    12.078900337 12.078900337 12.078900337     0.082788993  0.082788993  0.082788993

  position of ions in fractional coordinates (direct lattice)
     0.998940464  0.001954701  0.000545256
     0.999754315  0.000261977  0.333455747
     0.999753664  0.000783959  0.666002663
     0.998922541  0.331423815  0.000541413
     0.999744712  0.333103176  0.333465711
     0.999744445  0.332591407  0.665997349
     0.988727427  0.666644047  0.005639473
     0.998908394  0.666641428  0.334617844
     0.998905306  0.666645861  0.659793934
     0.334487633  0.001378295  0.000126154
     0.333653694  0.000186224  0.333470800
     0.333660956  0.000191562  0.666405297
     0.334482901  0.332017611  0.000126919
     0.333656855  0.333187576  0.333475501
     0.333664828  0.333179445  0.666399822
     0.345166417  0.666650682  0.000547514
     0.334534237  0.666638642  0.334614054
     0.335034938  0.666635354  0.664861324
     0.666619638  0.000330664  0.000125820
     0.666608006  0.000165069  0.333447168
     0.666599725  0.000173459  0.666428081
     0.666602596  0.333030893  0.000127119
     0.666597038  0.333202100  0.333456826
     0.666587692  0.333193385  0.666417609
     0.666022650  0.666647580  0.000547719
     0.666519549  0.666645223  0.333609741
     0.666018139  0.666641906  0.665864458
     0.999863436  0.166658593  0.166920209
     0.999877936  0.166668779  0.499866520
     0.999863520  0.166655609  0.833208236
     0.999854553  0.499312257  0.167433336
     0.999854711  0.499308935  0.499348326
     0.999853056  0.494213883  0.833210601
     0.999867790  0.834024545  0.167419995
     0.999854338  0.834025404  0.499343778
     0.999866900  0.839078565  0.833215594
     0.333561828  0.166652653  0.166840522
     0.333521408  0.166656928  0.499945741
     0.333638004  0.166650642  0.833210202
     0.333551815  0.499726070  0.166841530
     0.333547793  0.499727379  0.499936497
     0.334125827  0.499306321  0.833222621
     0.333562910  0.833618477  0.166839079
     0.333554352  0.833617240  0.499936290
     0.334130963  0.834017228  0.833224067
     0.666602668  0.166646286  0.166810734
     0.666603358  0.166653609  0.499944952
     0.666526199  0.166645482  0.833240388
     0.666598381  0.499723493  0.166851741
     0.666605821  0.499752938  0.499935695
     0.666023265  0.499303160  0.833211873
     0.666594548  0.833629606  0.166844710
     0.666595530  0.833592743  0.499935895
     0.666024894  0.834029781  0.833217400
     0.166789354  0.001377739  0.167780097
     0.166782349  0.000326772  0.499936457
     0.167197472  0.001966986  0.832281595
     0.166782883  0.332007650  0.167781253
     0.166775928  0.333034183  0.499935280
     0.167195925  0.331424298  0.832274299
     0.167181572  0.666645005  0.178435819
     0.167183558  0.666649192  0.499344712
     0.172215144  0.666636378  0.822211280
     0.500134778  0.000183955  0.166955646
     0.500113108  0.000162234  0.499946399
     0.500134383  0.000258279  0.833097197
     0.500134081  0.333177114  0.166949124
     0.500110739  0.333184632  0.499945314
     0.500133619  0.333100535  0.833101376
     0.501314711  0.666651039  0.167842779
     0.500262073  0.666658522  0.499869247
     0.501314841  0.666649127  0.832286032
     0.833121671  0.000195154  0.166953385
     0.833116266  0.000173418  0.499935870
     0.832712886  0.000785727  0.833107536
     0.833111148  0.333168616  0.166952592
     0.833122100  0.333184457  0.499934654
     0.832697676  0.332585198  0.833102886
     0.831533627  0.666664108  0.168362713
     0.832562700  0.666653238  0.499343482
     0.826497008  0.666656033  0.832284382
     0.166735607  0.166656822  0.000074513
     0.166705244  0.166650101  0.333612058
     0.166718191  0.166648848  0.666313032
     0.166718229  0.488649272  0.000073166
     0.166714708  0.498830870  0.334616026
     0.166707269  0.498832262  0.665311444
     0.166742301  0.844594576  0.000073905
     0.166714874  0.834479237  0.334614693
     0.166707773  0.834473341  0.665314628
     0.500274098  0.166670448  0.000060483
     0.500114291  0.166655965  0.333451107
     0.500113352  0.166654489  0.666488249
     0.501309454  0.498836955  0.000073241
     0.500128966  0.499687995  0.333457196
     0.500128549  0.499674956  0.666466957
     0.501318697  0.834489459  0.000073981
     0.500130546  0.833657023  0.333466866
     0.500130541  0.833667938  0.666460061
     0.833039988  0.166653236  0.000074673
     0.833197196  0.166646972  0.333455198
     0.833184138  0.166646920  0.666469336
     0.831997580  0.498843489  0.000073319
     0.833160268  0.499671503  0.333464812
     0.833164914  0.499671966  0.666461563
     0.832023382  0.834491887  0.000073659
     0.833170015  0.833678677  0.333472109
     0.833174235  0.833674499  0.666456379
     0.999726999  0.166680966  0.000145330
     0.000167602  0.166675971  0.333094445
     0.000167602  0.166674632  0.666755722
     0.002846789  0.504267913  0.998577204
     0.000542243  0.500396003  0.332686012
     0.000540672  0.501960536  0.668732357
     0.002859486  0.829061245  0.998580539
     0.000548241  0.832923386  0.332688688
     0.000546639  0.831357389  0.668727776
     0.333518109  0.166678362  0.999917355
     0.333119987  0.166672458  0.333102648
     0.333059434  0.166671068  0.666977845
     0.330168921  0.503109741  0.999729254
     0.332659961  0.500625006  0.332689052
     0.332455807  0.500814339  0.667587092
     0.330185438  0.830214639  0.999728892
     0.332667633  0.832699548  0.332695237
     0.332463336  0.832501462  0.667581091
     0.666800883  0.166672691  0.999917749
     0.666728068  0.166668359  0.333219296
     0.666787659  0.166668096  0.666860702
     0.667001984  0.499979590  0.999729541
     0.666791122  0.500247395  0.333094456
     0.666993924  0.500435810  0.667180900
     0.667002967  0.833350986  0.999728933
     0.666788539  0.833092194  0.333098695
     0.666991924  0.832895568  0.667177181
     0.000569116  0.999124632  0.165858407
     0.000159295  0.999538654  0.500240617
     0.000568852  0.000432316  0.833894569
     0.000558093  0.334219041  0.165858270
     0.000163642  0.333813602  0.500247090
     0.000557805  0.332900045  0.833890937
     0.002844598  0.666662835  0.164870323
     0.999710888  0.666665164  0.498938956
     0.113846666  0.777667730  0.947202134
     0.332680748  0.999268853  0.277326040
     0.332921814  0.999527227  0.611111176
     0.332684403  0.110593263  0.944893290
     0.332682060  0.334076953  0.277326840
     0.332924649  0.333815681  0.611112398
     0.332544546  0.445077185  0.944753289
     0.330240398  0.666659435  0.275161317
     0.334669997  0.666656152  0.611116391
     0.441712179  0.777665685  0.947199126
     0.666791940  0.999667424  0.277713333
     0.666929325  0.999644174  0.611113244
     0.666787392  0.110992213  0.944505259
     0.666780655  0.333675443  0.277713408
     0.666920374  0.333693519  0.611112631
     0.666920097  0.444677270  0.944366095
     0.666921847  0.666664874  0.278310805
     0.665626410  0.666661337  0.611116671
     0.833257152  0.500000848  0.944042464
     0.166587499  0.166674097  0.278178673
     0.166812553  0.166673308  0.611111808
     0.166392493  0.278058620  0.943839318
     0.166383555  0.503114581  0.275226012
     0.165234658  0.501129417  0.611113447
     0.166387552  0.613677527  0.946994350
     0.166390631  0.830212171  0.275229395
     0.165235372  0.832198666  0.611113142
     0.277781921  0.941599447  0.947250233
     0.499777725  0.166676206  0.277664156
     0.499895645  0.166675700  0.611111810
     0.499777501  0.277865322  0.944496585
     0.499374085  0.500629613  0.277328981
     0.499780312  0.500013120  0.611111000
     0.499375563  0.611580421  0.944887580
     0.499377382  0.832700964  0.277331747
     0.499777276  0.833309968  0.611113297
     0.610575713  0.943895748  0.944885864
     0.833659277  0.166669629  0.277720392
     0.833307444  0.166670981  0.611113039
     0.833854965  0.278055751  0.944297034
     0.834250306  0.500829987  0.277532673
     0.834997943  0.501584188  0.611113665
     0.834252217  0.611393642  0.944686380
     0.834254852  0.832515274  0.277532761
     0.835003543  0.831748215  0.611114260
     0.944812705  0.888031123  0.889172581
     0.166595016  0.002009069  0.111109699
     0.166391128  0.999192797  0.444221466
     0.166391189  0.110935332  0.777996938
     0.166587798  0.331314876  0.111110143
     0.166386131  0.334147135  0.444222244
     0.165233813  0.444937776  0.776852923
     0.166801650  0.666654184  0.335424306
     0.165224449  0.666652171  0.665998115
     0.499525857  0.999408672  0.999921128
     0.499795182  0.999736608  0.333106367
     0.499794798  0.999675993  0.666974629
     0.499511635  0.333947385  0.999917597
     0.499790916  0.333607718  0.333113320
     0.499790198  0.333667052  0.666966059
     0.502128030  0.666662869  0.000145344
     0.499506292  0.666664711  0.332832488
     0.499506425  0.666662450  0.667021373
     0.834134112  0.999191383  0.999724940
     0.833640553  0.999674849  0.333109352
     0.833836040  0.999474763  0.667162347
     0.834117840  0.334147337  0.999722686
     0.833636532  0.333667909  0.333115794
     0.833829948  0.333866485  0.667155457
     0.832634877  0.666668993  0.998580744
     0.833688948  0.666664255  0.332836121
     0.835262373  0.666662449  0.668585518

  ion indices of the primitive-cell ions
   primitive index   ion index
                 1           1
                 2           2
                 3           3
                 4           4
                 5           5
                 6           6
                 7           7
                 8           8
                 9           9
                10          10
                11          11
                12          12
                13          13
                14          14
                15          15
                16          16
                17          17
                18          18
                19          19
                20          20
                21          21
                22          22
                23          23
                24          24
                25          25
                26          26
                27          27
                28          28
                29          29
                30          30
                31          31
                32          32
                33          33
                34          34
                35          35
                36          36
                37          37
                38          38
                39          39
                40          40
                41          41
                42          42
                43          43
                44          44
                45          45
                46          46
                47          47
                48          48
                49          49
                50          50
                51          51
                52          52
                53          53
                54          54
                55          55
                56          56
                57          57
                58          58
                59          59
                60          60
                61          61
                62          62
                63          63
                64          64
                65          65
                66          66
                67          67
                68          68
                69          69
                70          70
                71          71
                72          72
                73          73
                74          74
                75          75
                76          76
                77          77
                78          78
                79          79
                80          80
                81          81
                82          82
                83          83
                84          84
                85          85
                86          86
                87          87
                88          88
                89          89
                90          90
                91          91
                92          92
                93          93
                94          94
                95          95
                96          96
                97          97
                98          98
                99          99
               100         100
               101         101
               102         102
               103         103
               104         104
               105         105
               106         106
               107         107
               108         108
               109         109
               110         110
               111         111
               112         112
               113         113
               114         114
               115         115
               116         116
               117         117
               118         118
               119         119
               120         120
               121         121
               122         122
               123         123
               124         124
               125         125
               126         126
               127         127
               128         128
               129         129
               130         130
               131         131
               132         132
               133         133
               134         134
               135         135
               136         136
               137         137
               138         138
               139         139
               140         140
               141         141
               142         142
               143         143
               144         144
               145         145
               146         146
               147         147
               148         148
               149         149
               150         150
               151         151
               152         152
               153         153
               154         154
               155         155
               156         156
               157         157
               158         158
               159         159
               160         160
               161         161
               162         162
               163         163
               164         164
               165         165
               166         166
               167         167
               168         168
               169         169
               170         170
               171         171
               172         172
               173         173
               174         174
               175         175
               176         176
               177         177
               178         178
               179         179
               180         180
               181         181
               182         182
               183         183
               184         184
               185         185
               186         186
               187         187
               188         188
               189         189
               190         190
               191         191
               192         192
               193         193
               194         194
               195         195
               196         196
               197         197
               198         198
               199         199
               200         200
               201         201
               202         202
               203         203
               204         204
               205         205
               206         206
               207         207
               208         208
               209         209
               210         210
               211         211
               212         212
               213         213
               214         214
               215         215

----------------------------------------------------------------------------------------

 
 
 KPOINTS: Gamma-point only                        

Automatic generation of k-mesh.
 Grid dimensions read from file:
 generate k-points for:    1    1    1

 Generating k-lattice:

  Cartesian coordinates                     Fractional coordinates (reciprocal lattice)
     0.082788993  0.000000000  0.000000000     1.000000000  0.000000000  0.000000000
     0.000000000  0.082788993  0.000000000     0.000000000  1.000000000  0.000000000
     0.000000000  0.000000000  0.082788993     0.000000000  0.000000000  1.000000000

  Length of vectors
     0.082788993  0.082788993  0.082788993

  Shift w.r.t. Gamma in fractional coordinates (k-lattice)
     0.000000000  0.000000000  0.000000000

 
 Subroutine IBZKPT returns following result:
 ===========================================
 
 Found      1 irreducible k-points:
 
 Following reciprocal coordinates:
            Coordinates               Weight
  0.000000  0.000000  0.000000      1.000000
 
 Following cartesian coordinates:
            Coordinates               Weight
  0.000000  0.000000  0.000000      1.000000
 


--------------------------------------------------------------------------------------------------------




 Dimension of arrays:
   k-points           NKPTS =      1   k-points in BZ     NKDIM =      1   number of bands    NBANDS=    752
   number of dos      NEDOS =    301   number of ions     NIONS =    215
   non local maximal  LDIM  =      4   non local SUM 2l+1 LMDIM =      8
   total plane-waves  NPLWV = 512000
   max r-space proj   IRMAX =      1   max aug-charges    IRDMAX=   3893
   dimension x,y,z NGX =    80 NGY =   80 NGZ =   80
   dimension x,y,z NGXF=   160 NGYF=  160 NGZF=  160
   support grid    NGXF=   160 NGYF=  160 NGZF=  160
   ions per type =             108 107
   NGX,Y,Z   is equivalent  to a cutoff of  11.01, 11.01, 11.01 a.u.
   NGXF,Y,Z  is equivalent  to a cutoff of  22.02, 22.02, 22.02 a.u.

 SYSTEM =  Si                                      
 POSCAR =  Li   F                                  

 Startparameter for this run:
   NWRITE =      2    write-flag & timer
   PREC   = accura    normal or accurate (medium, high low for compatibility)
   ISTART =      0    job   : 0-new  1-cont  2-samecut
   ICHARG =      0    charge: 1-file 2-atom 10-const
   ISPIN  =      2    spin polarized calculation?
   LNONCOLLINEAR =      F non collinear calculations
   LSORBIT =      F    spin-orbit coupling
   INIWAV =      1    electr: 0-lowe 1-rand  2-diag
   LASPH  =      F    aspherical Exc in radial PAW
 Electronic Relaxation 1
   ENCUT  =  400.0 eV  29.40 Ry    5.42 a.u.  19.70 19.70 19.70*2*pi/ulx,y,z
   ENINI  =  400.0     initial cutoff
   ENAUG  =  628.9 eV  augmentation charge cutoff
   NELM   =     20;   NELMIN=  2; NELMDL= -5     # of ELM steps 
   EDIFF  = 0.1E-09   stopping-criterion for ELM
   LREAL  =      F    real-space projection
   NLSPLINE    = F    spline interpolate recip. space projectors
   LCOMPAT=      F    compatible to vasp.4.4
   GGA_COMPAT  = T    GGA compatible to vasp.4.4-vasp.4.6
   LMAXPAW     = -100 max onsite density
   LMAXMIX     =    2 max onsite mixed and CHGCAR
   VOSKOWN=      0    Vosko Wilk Nusair interpolation
   ROPT   =    0.00000   0.00000
 Ionic relaxation
   EDIFFG = -.1E-01   stopping-criterion for IOM
   NSW    =    500    number of steps for IOM
   NBLOCK =      1;   KBLOCK =    500    inner block; outer block 
   IBRION =      3    ionic relax: 0-MD 1-quasi-New 2-CG
   NFREE  =      0    steps in history (QN), initial steepest desc. (CG)
   ISIF   =      0    stress and relaxation
   IWAVPR =     11    prediction:  0-non 1-charg 2-wave 3-comb
   ISYM   =      2    0-nonsym 1-usesym 2-fastsym
   LCORR  =      T    Harris-Foulkes like correction to forces

   POTIM  = 0.0000    time-step for ionic-motion
   TEIN   =    0.0    initial temperature
   TEBEG  =    0.0;   TEEND  =   0.0 temperature during run
   SMASS  =  -3.00    Nose mass-parameter (am)
   estimated Nose-frequenzy (Omega)   =  0.10E-29 period in steps = 0.00E+00 mass=  -0.333E-26a.u.
   SCALEE = 1.0000    scale energy and forces
   NPACO  =    256;   APACO  = 10.0  distance and # of slots for P.C.
   PSTRESS=    0.0 pullay stress

  Mass of Ions in am
   POMASS =   7.01 19.00
  Ionic Valenz
   ZVAL   =   3.00  7.00
  Atomic Wigner-Seitz radii
   RWIGS  =  -1.00 -1.00
  virtual crystal weights 
   VCA    =   1.00  1.00
   NELECT =    1072.0000    total number of electrons
   NUPDOWN=      -1.0000    fix difference up-down

 DOS related values:
   EMIN   =  10.00;   EMAX   =-10.00  energy-range for DOS
   EFERMI =   0.00;   METHOD = LEGACY      
   ISMEAR =     0;   SIGMA  =   0.01  broadening in eV -4-tet -1-fermi 0-gaus

 Electronic relaxation 2 (details)
   IALGO  =     38    algorithm
   LDIAG  =      T    sub-space diagonalisation (order eigenvalues)
   LSUBROT=      F    optimize rotation matrix (better conditioning)
   TURBO    =      0    0=normal 1=particle mesh
   IRESTART =      0    0=no restart 2=restart with 2 vectors
   NREBOOT  =      0    no. of reboots
   NMIN     =      0    reboot dimension
   EREF     =   0.00    reference energy to select bands
   IMIX   =      4    mixing-type and parameters
     AMIX     =   0.40;   BMIX     =  1.00
     AMIX_MAG =   1.60;   BMIX_MAG =  1.00
     AMIN     =   0.10
     WC   =   100.;   INIMIX=   1;  MIXPRE=   1;  MAXMIX= -45

 Intra band minimization:
   WEIMIN = 0.0010     energy-eigenvalue tresh-hold
   EBREAK =  0.33E-13  absolut break condition
   DEPER  =   0.30     relativ break condition  

   TIME   =   0.40     timestep for ELM

  volume/ion in A,a.u.               =       8.20        55.31
  Fermi-wavevector in a.u.,A,eV,Ry     =   1.387115  2.621267 26.178794  1.924087
  Thomas-Fermi vector in A             =   2.511366
 
 Write flags
   LWAVE        =      T    write WAVECAR
   LDOWNSAMPLE  =      F    k-point downsampling of WAVECAR
   LCHARG       =      T    write CHGCAR
   LVTOT        =      F    write LOCPOT, total local potential
   LVHAR        =      F    write LOCPOT, Hartree potential only
   LELF         =      F    write electronic localiz. function (ELF)
   LORBIT       =      0    0 simple, 1 ext, 2 COOP (PROOUT), +10 PAW based schemes


 Dipole corrections
   LMONO  =      F    monopole corrections only (constant potential shift)
   LDIPOL =      F    correct potential (dipole corrections)
   IDIPOL =      0    1-x, 2-y, 3-z, 4-all directions 
   EPSILON=  1.0000000 bulk dielectric constant

 Exchange correlation treatment:
   GGA     =    --    GGA type
   LEXCH   =     8    internal setting for exchange type
   LIBXC   =     F    Libxc                    
   VOSKOWN =     0    Vosko Wilk Nusair interpolation
   LHFCALC =     F    Hartree Fock is set to
   LHFONE  =     F    Hartree Fock one center treatment
   AEXX    =    0.0000 exact exchange contribution

 Linear response parameters
   LEPSILON=     F    determine dielectric tensor
   LRPA    =     F    only Hartree local field effects (RPA)
   LNABLA  =     F    use nabla operator in PAW spheres
   LVEL    =     F    velocity operator in full k-point grid
   CSHIFT  =0.1000    complex shift for real part using Kramers Kronig
   OMEGAMAX=  -1.0    maximum frequency
   DEG_THRESHOLD= 0.2000000E-02 threshold for treating states as degnerate
   RTIME   =   -0.100 relaxation time in fs
  (WPLASMAI=    0.000 imaginary part of plasma frequency in eV, 0.658/RTIME)
   DFIELD  = 0.0000000 0.0000000 0.0000000 field for delta impulse in time
 
  Optional k-point grid parameters
   LKPOINTS_OPT  =     F    use optional k-point grid
   KPOINTS_OPT_MODE=     1    mode for optional k-point grid
 
 Orbital magnetization related:
   ORBITALMAG=     F  switch on orbital magnetization
   LCHIMAG   =     F  perturbation theory with respect to B field
   DQ        =  0.001000  dq finite difference perturbation B field
   LLRAUG    =     F  two centre corrections for induced B field
   LBONE     =     F  B-component reconstruction in AE one-centre
   LVGVCALC  =     T  calculate vGv susceptibility
   LVGVAPPL  =     F  apply vGv susceptibility instead of pGv for G=0

 Random number generation:
   RANDOM_GENERATOR = DEFAULT
   PCG_SEED         = not used


--------------------------------------------------------------------------------------------------------


 quickmin algorithm: (dynamic with friction)
 charge density and potential will be updated during run
 spin polarized calculation
 Variant of blocked Davidson
 Davidson routine will perform the subspace rotation
 perform sub-space diagonalisation
    after iterative eigenvector-optimisation
 modified Broyden-mixing scheme, WC =      100.0
 initial mixing is a Kerker type mixing with AMIX =  0.4000 and BMIX =      1.0000
 Hartree-type preconditioning will be used
 using additional bands           216
 reciprocal scheme for non local part
 use partial core corrections
 calculate Harris-corrections to forces 
   (improved forces if not selfconsistent)
 use gradient corrections 
 use of overlap-Matrix (Vanderbilt PP)
 Gauss-broadening in eV      SIGMA  =   0.01


--------------------------------------------------------------------------------------------------------


  energy-cutoff  :      400.00
  volume of cell :     1762.31
      direct lattice vectors                 reciprocal lattice vectors
    12.078900337  0.000000000  0.000000000     0.082788993  0.000000000  0.000000000
     0.000000000 12.078900337  0.000000000     0.000000000  0.082788993  0.000000000
     0.000000000  0.000000000 12.078900337     0.000000000  0.000000000  0.082788993

  length of vectors
    12.078900337 12.078900337 12.078900337     0.082788993  0.082788993  0.082788993


 
 k-points in units of 2pi/SCALE and weight: Gamma-point only                        
   0.00000000  0.00000000  0.00000000       1.000
 
 k-points in reciprocal lattice and weights: Gamma-point only                        
   0.00000000  0.00000000  0.00000000       1.000
 
 position of ions in fractional coordinates (direct lattice) 
   0.99894046  0.00195470  0.00054526
   0.99975432  0.00026198  0.33345575
   0.99975366  0.00078396  0.66600266
   0.99892254  0.33142382  0.00054141
   0.99974471  0.33310318  0.33346571
   0.99974445  0.33259141  0.66599735
   0.98872743  0.66664405  0.00563947
   0.99890839  0.66664143  0.33461784
   0.99890531  0.66664586  0.65979393
   0.33448763  0.00137830  0.00012615
   0.33365369  0.00018622  0.33347080
   0.33366096  0.00019156  0.66640530
   0.33448290  0.33201761  0.00012692
   0.33365686  0.33318758  0.33347550
   0.33366483  0.33317944  0.66639982
   0.34516642  0.66665068  0.00054751
   0.33453424  0.66663864  0.33461405
   0.33503494  0.66663535  0.66486132
   0.66661964  0.00033066  0.00012582
   0.66660801  0.00016507  0.33344717
   0.66659972  0.00017346  0.66642808
   0.66660260  0.33303089  0.00012712
   0.66659704  0.33320210  0.33345683
   0.66658769  0.33319339  0.66641761
   0.66602265  0.66664758  0.00054772
   0.66651955  0.66664522  0.33360974
   0.66601814  0.66664191  0.66586446
   0.99986344  0.16665859  0.16692021
   0.99987794  0.16666878  0.49986652
   0.99986352  0.16665561  0.83320824
   0.99985455  0.49931226  0.16743334
   0.99985471  0.49930893  0.49934833
   0.99985306  0.49421388  0.83321060
   0.99986779  0.83402455  0.16742000
   0.99985434  0.83402540  0.49934378
   0.99986690  0.83907857  0.83321559
   0.33356183  0.16665265  0.16684052
   0.33352141  0.16665693  0.49994574
   0.33363800  0.16665064  0.83321020
   0.33355182  0.49972607  0.16684153
   0.33354779  0.49972738  0.49993650
   0.33412583  0.49930632  0.83322262
   0.33356291  0.83361848  0.16683908
   0.33355435  0.83361724  0.49993629
   0.33413096  0.83401723  0.83322407
   0.66660267  0.16664629  0.16681073
   0.66660336  0.16665361  0.49994495
   0.66652620  0.16664548  0.83324039
   0.66659838  0.49972349  0.16685174
   0.66660582  0.49975294  0.49993570
   0.66602326  0.49930316  0.83321187
   0.66659455  0.83362961  0.16684471
   0.66659553  0.83359274  0.49993590
   0.66602489  0.83402978  0.83321740
   0.16678935  0.00137774  0.16778010
   0.16678235  0.00032677  0.49993646
   0.16719747  0.00196699  0.83228160
   0.16678288  0.33200765  0.16778125
   0.16677593  0.33303418  0.49993528
   0.16719593  0.33142430  0.83227430
   0.16718157  0.66664501  0.17843582
   0.16718356  0.66664919  0.49934471
   0.17221514  0.66663638  0.82221128
   0.50013478  0.00018396  0.16695565
   0.50011311  0.00016223  0.49994640
   0.50013438  0.00025828  0.83309720
   0.50013408  0.33317711  0.16694912
   0.50011074  0.33318463  0.49994531
   0.50013362  0.33310054  0.83310138
   0.50131471  0.66665104  0.16784278
   0.50026207  0.66665852  0.49986925
   0.50131484  0.66664913  0.83228603
   0.83312167  0.00019515  0.16695338
   0.83311627  0.00017342  0.49993587
   0.83271289  0.00078573  0.83310754
   0.83311115  0.33316862  0.16695259
   0.83312210  0.33318446  0.49993465
   0.83269768  0.33258520  0.83310289
   0.83153363  0.66666411  0.16836271
   0.83256270  0.66665324  0.49934348
   0.82649701  0.66665603  0.83228438
   0.16673561  0.16665682  0.00007451
   0.16670524  0.16665010  0.33361206
   0.16671819  0.16664885  0.66631303
   0.16671823  0.48864927  0.00007317
   0.16671471  0.49883087  0.33461603
   0.16670727  0.49883226  0.66531144
   0.16674230  0.84459458  0.00007391
   0.16671487  0.83447924  0.33461469
   0.16670777  0.83447334  0.66531463
   0.50027410  0.16667045  0.00006048
   0.50011429  0.16665597  0.33345111
   0.50011335  0.16665449  0.66648825
   0.50130945  0.49883696  0.00007324
   0.50012897  0.49968800  0.33345720
   0.50012855  0.49967496  0.66646696
   0.50131870  0.83448946  0.00007398
   0.50013055  0.83365702  0.33346687
   0.50013054  0.83366794  0.66646006
   0.83303999  0.16665324  0.00007467
   0.83319720  0.16664697  0.33345520
   0.83318414  0.16664692  0.66646934
   0.83199758  0.49884349  0.00007332
   0.83316027  0.49967150  0.33346481
   0.83316491  0.49967197  0.66646156
   0.83202338  0.83449189  0.00007366
   0.83317002  0.83367868  0.33347211
   0.83317424  0.83367450  0.66645638
   0.99972700  0.16668097  0.00014533
   0.00016760  0.16667597  0.33309445
   0.00016760  0.16667463  0.66675572
   0.00284679  0.50426791  0.99857720
   0.00054224  0.50039600  0.33268601
   0.00054067  0.50196054  0.66873236
   0.00285949  0.82906125  0.99858054
   0.00054824  0.83292339  0.33268869
   0.00054664  0.83135739  0.66872778
   0.33351811  0.16667836  0.99991736
   0.33311999  0.16667246  0.33310265
   0.33305943  0.16667107  0.66697784
   0.33016892  0.50310974  0.99972925
   0.33265996  0.50062501  0.33268905
   0.33245581  0.50081434  0.66758709
   0.33018544  0.83021464  0.99972889
   0.33266763  0.83269955  0.33269524
   0.33246334  0.83250146  0.66758109
   0.66680088  0.16667269  0.99991775
   0.66672807  0.16666836  0.33321930
   0.66678766  0.16666810  0.66686070
   0.66700198  0.49997959  0.99972954
   0.66679112  0.50024740  0.33309446
   0.66699392  0.50043581  0.66718090
   0.66700297  0.83335099  0.99972893
   0.66678854  0.83309219  0.33309869
   0.66699192  0.83289557  0.66717718
   0.00056912  0.99912463  0.16585841
   0.00015929  0.99953865  0.50024062
   0.00056885  0.00043232  0.83389457
   0.00055809  0.33421904  0.16585827
   0.00016364  0.33381360  0.50024709
   0.00055781  0.33290005  0.83389094
   0.00284460  0.66666283  0.16487032
   0.99971089  0.66666516  0.49893896
   0.11384667  0.77766773  0.94720213
   0.33268075  0.99926885  0.27732604
   0.33292181  0.99952723  0.61111118
   0.33268440  0.11059326  0.94489329
   0.33268206  0.33407695  0.27732684
   0.33292465  0.33381568  0.61111240
   0.33254455  0.44507719  0.94475329
   0.33024040  0.66665943  0.27516132
   0.33467000  0.66665615  0.61111639
   0.44171218  0.77766569  0.94719913
   0.66679194  0.99966742  0.27771333
   0.66692932  0.99964417  0.61111324
   0.66678739  0.11099221  0.94450526
   0.66678065  0.33367544  0.27771341
   0.66692037  0.33369352  0.61111263
   0.66692010  0.44467727  0.94436609
   0.66692185  0.66666487  0.27831080
   0.66562641  0.66666134  0.61111667
   0.83325715  0.50000085  0.94404246
   0.16658750  0.16667410  0.27817867
   0.16681255  0.16667331  0.61111181
   0.16639249  0.27805862  0.94383932
   0.16638355  0.50311458  0.27522601
   0.16523466  0.50112942  0.61111345
   0.16638755  0.61367753  0.94699435
   0.16639063  0.83021217  0.27522939
   0.16523537  0.83219867  0.61111314
   0.27778192  0.94159945  0.94725023
   0.49977773  0.16667621  0.27766416
   0.49989564  0.16667570  0.61111181
   0.49977750  0.27786532  0.94449658
   0.49937408  0.50062961  0.27732898
   0.49978031  0.50001312  0.61111100
   0.49937556  0.61158042  0.94488758
   0.49937738  0.83270096  0.27733175
   0.49977728  0.83330997  0.61111330
   0.61057571  0.94389575  0.94488586
   0.83365928  0.16666963  0.27772039
   0.83330744  0.16667098  0.61111304
   0.83385496  0.27805575  0.94429703
   0.83425031  0.50082999  0.27753267
   0.83499794  0.50158419  0.61111366
   0.83425222  0.61139364  0.94468638
   0.83425485  0.83251527  0.27753276
   0.83500354  0.83174821  0.61111426
   0.94481270  0.88803112  0.88917258
   0.16659502  0.00200907  0.11110970
   0.16639113  0.99919280  0.44422147
   0.16639119  0.11093533  0.77799694
   0.16658780  0.33131488  0.11111014
   0.16638613  0.33414714  0.44422224
   0.16523381  0.44493778  0.77685292
   0.16680165  0.66665418  0.33542431
   0.16522445  0.66665217  0.66599811
   0.49952586  0.99940867  0.99992113
   0.49979518  0.99973661  0.33310637
   0.49979480  0.99967599  0.66697463
   0.49951163  0.33394738  0.99991760
   0.49979092  0.33360772  0.33311332
   0.49979020  0.33366705  0.66696606
   0.50212803  0.66666287  0.00014534
   0.49950629  0.66666471  0.33283249
   0.49950642  0.66666245  0.66702137
   0.83413411  0.99919138  0.99972494
   0.83364055  0.99967485  0.33310935
   0.83383604  0.99947476  0.66716235
   0.83411784  0.33414734  0.99972269
   0.83363653  0.33366791  0.33311579
   0.83382995  0.33386648  0.66715546
   0.83263488  0.66666899  0.99858074
   0.83368895  0.66666426  0.33283612
   0.83526237  0.66666245  0.66858552
 
 position of ions in cartesian coordinates  (Angst):
  12.06610230  0.02361064  0.00658609
  12.07593274  0.00316439  4.02777873
  12.07592487  0.00946937  8.04457980
  12.06588582  4.00323524  0.00653967
  12.07581673  4.02352007  4.02789909
  12.07581352  4.01733845  8.04451560
  11.94274005  8.05232700  0.06811864
  12.06571494  8.05229537  4.04181559
  12.06567764  8.05234891  7.96958517
   4.04024278  0.01664829  0.00152381
   4.03016971  0.00224938  4.02796056
   4.03025744  0.00231385  8.04944317
   4.04018563  4.01040763  0.00153305
   4.03020790  4.02453953  4.02801734
   4.03030420  4.02444131  8.04937704
   4.16923075  8.05240715  0.00661337
   4.04080571  8.05226172  4.04176981
   4.04685362  8.05222200  8.03079367
   8.05203216  0.00399405  0.00151977
   8.05189167  0.00199385  4.02767511
   8.05179164  0.00209519  8.04971838
   8.05182633  4.02264697  0.00153546
   8.05175918  4.02471496  4.02779176
   8.05164630  4.02460969  8.04959189
   8.04482122  8.05236967  0.00661585
   8.05082320  8.05234121  4.02963881
   8.04476673  8.05230114  8.04291043
  12.07725080  2.01305254  2.01621257
  12.07742593  2.01317557  6.03783788
  12.07725180  2.01301649 10.06423924
  12.07714350  6.03114299  2.02241057
  12.07714541  6.03110286  6.03157866
  12.07712542  5.96956024 10.06426781
  12.07730338 10.07409936  2.02224944
  12.07714091 10.07410973  6.03152373
  12.07729264 10.13514637 10.06432812
   4.02906007  2.01298079  2.01525004
   4.02857185  2.01303242  6.03879478
   4.02998020  2.01295649 10.06426299
   4.02893913  6.03614140  2.01526221
   4.02889055  6.03615721  6.03868312
   4.03587257  6.03107129 10.06441299
   4.02907314 10.06919450  2.01523261
   4.02896977 10.06917956  6.03868062
   4.03593460 10.07401098 10.06443046
   8.05182719  2.01290388  2.01489023
   8.05183552  2.01299233  6.03878525
   8.05090353  2.01289417 10.06462760
   8.05177541  6.03611026  2.01538554
   8.05186528  6.03646593  6.03867344
   8.04482864  6.03103310 10.06428317
   8.05172911 10.06932892  2.01530062
   8.05174098 10.06888366  6.03867585
   8.04484832 10.07416260 10.06434994
   2.01463198  0.01664157  2.02659907
   2.01454738  0.00394704  6.03868264
   2.01956160  0.02375902 10.05304644
   2.01455382  4.01028731  2.02661303
   2.01446981  4.02268670  6.03866842
   2.01954292  4.00324106 10.05295831
   2.01936954  8.05233858  2.15530847
   2.01939353  8.05238915  6.03153501
   2.08016956  8.05223437  9.93140811
   6.04107814  0.00222198  2.01664061
   6.04081638  0.00195961  6.03880273
   6.04107337  0.00311973 10.06289801
   6.04106972  4.02441315  2.01656183
   6.04078777  4.02450396  6.03878963
   6.04106414  4.02348817 10.06294849
   6.05533043  8.05241146  2.02735620
   6.04261572  8.05250185  6.03787082
   6.05533200  8.05238836 10.05310004
  10.06319363  0.00235724  2.01661330
  10.06312834  0.00209470  6.03867555
  10.05825596  0.00949071 10.06302290
  10.06306652  4.02431050  2.01660372
  10.06319881  4.02450185  6.03866086
  10.05807224  4.01726345 10.06296673
  10.04401181  8.05256932  2.03363643
  10.05644188  8.05243802  6.03152016
   9.98317498  8.05247179 10.05308010
   2.01398278  2.01303115  0.00090004
   2.01361603  2.01294997  4.02966680
   2.01377241  2.01293483  8.04832871
   2.01377287  5.90234585  0.00088376
   2.01373035  6.02532836  4.04179362
   2.01364049  6.02534518  8.03623063
   2.01406364 10.20177371  0.00089269
   2.01373235 10.07959154  4.04177752
   2.01364657 10.07952031  8.03626909
   6.04276097  2.01319573  0.00073057
   6.04083068  2.01302080  4.02772269
   6.04081933  2.01300297  8.05044514
   6.05526694  6.02540187  0.00088468
   6.04100794  6.03568149  4.02779624
   6.04100290  6.03552400  8.05018795
   6.05537857 10.07971501  0.00089361
   6.04102702 10.06966009  4.02791303
   6.04102696 10.06979194  8.05010465
  10.06220700  2.01298783  0.00090197
  10.06410589  2.01291217  4.02777210
  10.06394817  2.01291154  8.05021668
  10.04961585  6.02548078  0.00088562
  10.06365984  6.03548229  4.02788822
  10.06371596  6.03548788  8.05012280
  10.04992751 10.07974433  0.00088972
  10.06377758 10.06992165  4.02797637
  10.06382855 10.06987118  8.05006018
  12.07560278  2.01332278  0.00175542
   0.00202445  2.01326245  4.02341461
   0.00202444  2.01324627  8.05367592
   0.03438609  6.09100186 12.06171452
   0.00654970  6.04423345  4.01848119
   0.00653072  6.06313129  8.07755149
   0.03453945 10.01414816 12.06175481
   0.00662214 10.06079856  4.01851351
   0.00660280 10.04188304  8.07749615
   4.02853199  2.01329132 12.07790208
   4.02372313  2.01322000  4.02351369
   4.02299171  2.01320322  8.05635892
   3.98807750  6.07701242 12.07563002
   4.01816651  6.04699955  4.01851790
   4.01570056  6.04928649  8.06371794
   3.98827699 10.02807988 12.07562565
   4.01825918 10.05809485  4.01859261
   4.01579150 10.05570219  8.06364546
   8.05422142  2.01322282 12.07790684
   8.05334189  2.01317049  4.02492267
   8.05406168  2.01316732  8.05494396
   8.05665048  6.03920364 12.07563349
   8.05410351  6.04243843  4.02341474
   8.05655314  6.04471428  8.05881160
   8.05666236 10.06596350 12.07562615
   8.05407231 10.06283758  4.02346594
   8.05652898 10.06046255  8.05876668
   0.00687430 12.06832686  2.00338717
   0.00192411 12.07332779  6.04235656
   0.00687111  0.00522190 10.07252940
   0.00674115  4.03699848  2.00338551
   0.00197662  4.03210123  6.04243475
   0.00673767  4.02106647 10.07248552
   0.03435962  8.05255394  1.99145220
  12.07540818  8.05258207  6.02663392
   1.37514253  9.39337100 11.44116017
   4.01841760 12.07006889  3.34979360
   4.02132941 12.07318976  7.38155098
   4.01846175  1.33584500 11.41327188
   4.01843345  4.03528221  3.34980326
   4.02136366  4.03212634  7.38156575
   4.01677243  5.37604297 11.41158082
   3.98894086  8.05251287  3.32364613
   4.04244554  8.05247321  7.38161399
   5.33539739  9.39334631 11.44112384
   8.05411339 12.07488319  3.35447167
   8.05577284 12.07460235  7.38157597
   8.05405845  1.34066388 11.40858489
   8.05397708  4.03043242  3.35447257
   8.05566473  4.03065076  7.38156856
   8.05566139  5.37121243 11.40690394
   8.05568252  8.05257858  3.36168847
   8.04003507  8.05253584  7.38161736
  10.06483010  6.03946042 11.40299483
   2.01219380  2.01323981  3.36009247
   2.01491220  2.01323027  7.38155862
   2.00983833  3.35864236 11.40054106
   2.00973037  6.07707089  3.32442757
   1.99585297  6.05309229  7.38157842
   2.00977866  7.41254968 11.43865037
   2.00981585 10.02805008  3.32446843
   1.99586160 10.05204475  7.38157473
   3.35530014 11.37348588 11.44174116
   6.03676533  2.01326528  3.35387767
   6.03818967  2.01325916  7.38155864
   6.03676263  3.35630753 11.40848011
   6.03188980  6.04705520  3.34982912
   6.03679658  6.03960865  7.38154886
   6.03190766  7.38721895 11.41320291
   6.03192963 10.05811196  3.34986254
   6.03675991 10.06546806  7.38157661
   7.37508318 11.40122267 11.41318218
  10.06968732  2.01318583  3.35455693
  10.06543757  2.01320216  7.38157349
  10.07205102  3.35860770 11.40606976
  10.07682630  6.04947550  3.35228950
  10.08585694  6.05858541  7.38158105
  10.07684939  7.38496286 11.41077263
  10.07688122 10.05586902  3.35229056
  10.08592458 10.04660379  7.38158824
  11.41229850 10.72643943 10.74022699
   2.01228459  0.02426735  1.34208298
   2.00982186 12.06915021  5.36570682
   2.00982259  1.33997681  9.39734747
   2.01219741  4.00191937  1.34208835
   2.00976149  4.03612995  5.36571621
   1.99584276  5.37435905  9.38352904
   2.01478051  8.05244945  4.05155676
   1.99572965  8.05242513  8.04452485
   6.03372304 12.07175775 12.07794765
   6.03697619 12.07571886  4.02355861
   6.03697156 12.07498669  8.05632007
   6.03355126  4.03371718 12.07790500
   6.03692467  4.02961438  4.02364259
   6.03691599  4.03033107  8.05621655
   6.06515443  8.05255435  0.00175559
   6.03348671  8.05257660  4.02025046
   6.03348832  8.05254930  8.05688469
  10.07542280 12.06913314 12.07557791
  10.06946116 12.07497287  4.02359466
  10.07182242 12.07255605  8.05858750
  10.07522626  4.03613238 12.07555069
  10.06941259  4.03034142  4.02367248
  10.07174883  4.03273999  8.05850428
  10.05731370  8.05262833 12.06175729
  10.07004572  8.05257110  4.02029433
  10.08905095  8.05254928  8.07577784
 


--------------------------------------------------------------------------------------------------------


 k-point   1 :   0.0000 0.0000 0.0000  plane waves:   31919

 maximum and minimum number of plane-waves per node :     31919    31919

 maximum number of plane-waves:     31919
 maximum index in each direction: 
   IXMAX=   19   IYMAX=   19   IZMAX=   19
   IXMIN=  -19   IYMIN=  -19   IZMIN=  -19


 serial   3D FFT for wavefunctions
 parallel 3D FFT for charge:
    minimum data exchange during FFTs selected (reduces bandwidth)


 total amount of memory used by VASP MPI-rank0  1460119. kBytes
=======================================================================

   base      :      30000. kBytes
   nonl-proj :     113886. kBytes
   fftplans  :     141100. kBytes
   grid      :     372121. kBytes
   one-center:       1320. kBytes
   wavefun   :     801692. kBytes
 
     INWAV:  cpu time      0.0000: real time      0.0003
 Broyden mixing: mesh for mixing (old mesh)
   NGX = 39   NGY = 39   NGZ = 39
  (NGX  =160   NGY  =160   NGZ  =160)
  gives a total of  59319 points

 charge density for first step will be calculated from the start-wavefunctions


--------------------------------------------------------------------------------------------------------


 Maximum index for augmentation-charges          3626 (set IRDMAX)


--------------------------------------------------------------------------------------------------------


 initial charge from wavefunction
 First call to EWALD:  gamma=   0.147
 Maximum number of real-space cells 3x 3x 3
 Maximum number of reciprocal cells 3x 3x 3

    FEWALD:  cpu time      0.2503: real time      0.2509


--------------------------------------- Ionic step        1  -------------------------------------------




--------------------------------------- Iteration      1(   1)  ---------------------------------------


    POTLOK:  cpu time      0.1303: real time      0.1309
    SETDIJ:  cpu time      0.7775: real time      0.7794
     EDDAV:  cpu time     12.9511: real time     12.9877
       DOS:  cpu time      0.0009: real time      0.0009
    --------------------------------------------
      LOOP:  cpu time     13.8597: real time     13.8989

 eigenvalue-minimisations  :  4568
 total energy-change (2. order) :-0.2731363E+05  (-0.1014086E+06)
 number of electron    1071.9999974 magnetization      -0.0000002
 augmentation part       92.0245166 magnetization      -0.3005066

 Free energy of the ion-electron system (eV)
  ---------------------------------------------------
  alpha Z        PSCENC =      2139.14908826
  Ewald energy   TEWEN  =    -44181.30958010
  -Hartree energ DENC   =      -659.80918574
  -exchange      EXHF   =         0.00000000
  -V(xc)+E(xc)   XCENC  =      3517.62005031
  PAW double counting   =     17194.09822469   -17600.36297742
  entropy T*S    EENTRO =        -0.00018678
  eigenvalues    EBANDS =    -80175.00149868
  atomic energy  EATOM  =     92451.98304323
  Solvation  Ediel_sol  =         0.00000000
  ---------------------------------------------------
  free energy    TOTEN  =    -27313.63302224 eV

  energy without entropy =   -27313.63283545  energy(sigma->0) =   -27313.63292885


--------------------------------------------------------------------------------------------------------




--------------------------------------- Iteration      1(   2)  ---------------------------------------


     EDDAV:  cpu time      9.9545: real time      9.9828
       DOS:  cpu time      0.0008: real time      0.0008
    --------------------------------------------
      LOOP:  cpu time      9.9552: real time      9.9836

 eigenvalue-minimisations  :  3384
 total energy-change (2. order) :-0.1653839E+05  (-0.1585580E+05)
 number of electron    1071.9999974 magnetization      -0.0000002
 augmentation part       92.0245166 magnetization      -0.3005066

 Free energy of the ion-electron system (eV)
  ---------------------------------------------------
  alpha Z        PSCENC =      2139.14908826
  Ewald energy   TEWEN  =    -44181.30958010
  -Hartree energ DENC   =      -659.80918574
  -exchange      EXHF   =         0.00000000
  -V(xc)+E(xc)   XCENC  =      3517.62005031
  PAW double counting   =     17194.09822469   -17600.36297742
  entropy T*S    EENTRO =        -0.00005999
  eigenvalues    EBANDS =    -96713.39569847
  atomic energy  EATOM  =     92451.98304323
  Solvation  Ediel_sol  =         0.00000000
  ---------------------------------------------------
  free energy    TOTEN  =    -43852.02709523 eV

  energy without entropy =   -43852.02703524  energy(sigma->0) =   -43852.02706524


--------------------------------------------------------------------------------------------------------




--------------------------------------- Iteration      1(   3)  ---------------------------------------


     EDDAV:  cpu time     15.2131: real time     15.2636
       DOS:  cpu time      0.0003: real time      0.0003
    --------------------------------------------
      LOOP:  cpu time     15.2134: real time     15.2639

 eigenvalue-minimisations  :  5632
 total energy-change (2. order) :-0.7630779E+04  (-0.6041830E+04)
 number of electron    1071.9999974 magnetization      -0.0000002
 augmentation part       92.0245166 magnetization      -0.3005066

 Free energy of the ion-electron system (eV)
  ---------------------------------------------------
  alpha Z        PSCENC =      2139.14908826
  Ewald energy   TEWEN  =    -44181.30958010
  -Hartree energ DENC   =      -659.80918574
  -exchange      EXHF   =         0.00000000
  -V(xc)+E(xc)   XCENC  =      3517.62005031
  PAW double counting   =     17194.09822469   -17600.36297742
  entropy T*S    EENTRO =        -0.00000000
  eigenvalues    EBANDS =   -104344.17467491
  atomic energy  EATOM  =     92451.98304323
  Solvation  Ediel_sol  =         0.00000000
  ---------------------------------------------------
  free energy    TOTEN  =    -51482.80601169 eV

  energy without entropy =   -51482.80601169  energy(sigma->0) =   -51482.80601169


--------------------------------------------------------------------------------------------------------




--------------------------------------- Iteration      1(   4)  ---------------------------------------


     EDDAV:  cpu time     10.9350: real time     10.9716
       DOS:  cpu time      0.0005: real time      0.0005
    --------------------------------------------
      LOOP:  cpu time     10.9355: real time     10.9721

 eigenvalue-minimisations  :  3808
 total energy-change (2. order) :-0.2818872E+04  (-0.2760919E+04)
 number of electron    1071.9999974 magnetization      -0.0000002
 augmentation part       92.0245166 magnetization      -0.3005066

 Free energy of the ion-electron system (eV)
  ---------------------------------------------------
  alpha Z        PSCENC =      2139.14908826
  Ewald energy   TEWEN  =    -44181.30958010
  -Hartree energ DENC   =      -659.80918574
  -exchange      EXHF   =         0.00000000
  -V(xc)+E(xc)   XCENC  =      3517.62005031
  PAW double counting   =     17194.09822469   -17600.36297742
  entropy T*S    EENTRO =        -0.00000000
  eigenvalues    EBANDS =   -107163.04668494
  atomic energy  EATOM  =     92451.98304323
  Solvation  Ediel_sol  =         0.00000000
  ---------------------------------------------------
  free energy    TOTEN  =    -54301.67802172 eV

  energy without entropy =   -54301.67802172  energy(sigma->0) =   -54301.67802172


--------------------------------------------------------------------------------------------------------




---------------------------------------