<?xml version="1.0" encoding="ISO-8859-1"?>
<modeling>
 <generator>
  <i name="program" type="string">vasp </i>
  <i name="version" type="string">6.4.2  </i>
  <i name="subversion" type="string">20Jul23 (build Jun  3 2025 15:36:07) complex                          parallel </i>
  <i name="platform" type="string">LinuxNV </i>
  <i name="date" type="string">2025 06 06 </i>
  <i name="time" type="string">14:52:50 </i>
 </generator>
 <incar>
  <i type="string" name="SYSTEM">Si</i>
  <i type="int" name="ISTART">     0</i>
  <i type="string" name="PREC">Accurate</i>
  <i type="string" name="ALGO">Normal</i>
  <i type="int" name="ISPIN">     2</i>
  <i type="int" name="ICHARG">     0</i>
  <i type="int" name="NELM">    20</i>
  <i type="int" name="IBRION">     3</i>
  <i name="EDIFF">      0.00000000</i>
  <i name="EDIFFG">     -0.01000000</i>
  <i type="int" name="NSW">   500</i>
  <i type="int" name="ISIF">     0</i>
  <i name="ENCUT">    400.00000000</i>
  <i name="POTIM">      0.00000000</i>
  <i name="NELECT">   1072.00000000</i>
  <i type="int" name="ISMEAR">     0</i>
  <i name="SIGMA">      0.01000000</i>
  <i name="SPRING">     -5.00000000</i>
 </incar>
 <primitive_cell>
  <structure name="primitive_cell" >
   <crystal>
    <varray name="basis" >
     <v>      12.07890034       0.00000000       0.00000000 </v>
     <v>       0.00000000      12.07890034       0.00000000 </v>
     <v>       0.00000000       0.00000000      12.07890034 </v>
    </varray>
    <i name="volume">   1762.30954632 </i>
    <varray name="rec_basis" >
     <v>       0.08278899       0.00000000       0.00000000 </v>
     <v>       0.00000000       0.08278899       0.00000000 </v>
     <v>       0.00000000       0.00000000       0.08278899 </v>
    </varray>
   </crystal>
   <varray name="positions" >
    <v>       0.99894046       0.00195470       0.00054526 </v>
    <v>       0.99975432       0.00026198       0.33345575 </v>
    <v>       0.99975366       0.00078396       0.66600266 </v>
    <v>       0.99892254       0.33142382       0.00054141 </v>
    <v>       0.99974471       0.33310318       0.33346571 </v>
    <v>       0.99974445       0.33259141       0.66599735 </v>
    <v>       0.98872743       0.66664405       0.00563947 </v>
    <v>       0.99890839       0.66664143       0.33461784 </v>
    <v>       0.99890531       0.66664586       0.65979393 </v>
    <v>       0.33448763       0.00137830       0.00012615 </v>
    <v>       0.33365369       0.00018622       0.33347080 </v>
    <v>       0.33366096       0.00019156       0.66640530 </v>
    <v>       0.33448290       0.33201761       0.00012692 </v>
    <v>       0.33365686       0.33318758       0.33347550 </v>
    <v>       0.33366483       0.33317944       0.66639982 </v>
    <v>       0.34516642       0.66665068       0.00054751 </v>
    <v>       0.33453424       0.66663864       0.33461405 </v>
    <v>       0.33503494       0.66663535       0.66486132 </v>
    <v>       0.66661964       0.00033066       0.00012582 </v>
    <v>       0.66660801       0.00016507       0.33344717 </v>
    <v>       0.66659972       0.00017346       0.66642808 </v>
    <v>       0.66660260       0.33303089       0.00012712 </v>
    <v>       0.66659704       0.33320210       0.33345683 </v>
    <v>       0.66658769       0.33319339       0.66641761 </v>
    <v>       0.66602265       0.66664758       0.00054772 </v>
    <v>       0.66651955       0.66664522       0.33360974 </v>
    <v>       0.66601814       0.66664191       0.66586446 </v>
    <v>       0.99986344       0.16665859       0.16692021 </v>
    <v>       0.99987794       0.16666878       0.49986652 </v>
    <v>       0.99986352       0.16665561       0.83320824 </v>
    <v>       0.99985455       0.49931226       0.16743334 </v>
    <v>       0.99985471       0.49930893       0.49934833 </v>
    <v>       0.99985306       0.49421388       0.83321060 </v>
    <v>       0.99986779       0.83402455       0.16742000 </v>
    <v>       0.99985434       0.83402540       0.49934378 </v>
    <v>       0.99986690       0.83907857       0.83321559 </v>
    <v>       0.33356183       0.16665265       0.16684052 </v>
    <v>       0.33352141       0.16665693       0.49994574 </v>
    <v>       0.33363800       0.16665064       0.83321020 </v>
    <v>       0.33355182       0.49972607       0.16684153 </v>
    <v>       0.33354779       0.49972738       0.49993650 </v>
    <v>       0.33412583       0.49930632       0.83322262 </v>
    <v>       0.33356291       0.83361848       0.16683908 </v>
    <v>       0.33355435       0.83361724       0.49993629 </v>
    <v>       0.33413096       0.83401723       0.83322407 </v>
    <v>       0.66660267       0.16664629       0.16681073 </v>
    <v>       0.66660336       0.16665361       0.49994495 </v>
    <v>       0.66652620       0.16664548       0.83324039 </v>
    <v>       0.66659838       0.49972349       0.16685174 </v>
    <v>       0.66660582       0.49975294       0.49993570 </v>
    <v>       0.66602326       0.49930316       0.83321187 </v>
    <v>       0.66659455       0.83362961       0.16684471 </v>
    <v>       0.66659553       0.83359274       0.49993590 </v>
    <v>       0.66602489       0.83402978       0.83321740 </v>
    <v>       0.16678935       0.00137774       0.16778010 </v>
    <v>       0.16678235       0.00032677       0.49993646 </v>
    <v>       0.16719747       0.00196699       0.83228160 </v>
    <v>       0.16678288       0.33200765       0.16778125 </v>
    <v>       0.16677593       0.33303418       0.49993528 </v>
    <v>       0.16719593       0.33142430       0.83227430 </v>
    <v>       0.16718157       0.66664501       0.17843582 </v>
    <v>       0.16718356       0.66664919       0.49934471 </v>
    <v>       0.17221514       0.66663638       0.82221128 </v>
    <v>       0.50013478       0.00018396       0.16695565 </v>
    <v>       0.50011311       0.00016223       0.49994640 </v>
    <v>       0.50013438       0.00025828       0.83309720 </v>
    <v>       0.50013408       0.33317711       0.16694912 </v>
    <v>       0.50011074       0.33318463       0.49994531 </v>
    <v>       0.50013362       0.33310054       0.83310138 </v>
    <v>       0.50131471       0.66665104       0.16784278 </v>
    <v>       0.50026207       0.66665852       0.49986925 </v>
    <v>       0.50131484       0.66664913       0.83228603 </v>
    <v>       0.83312167       0.00019515       0.16695338 </v>
    <v>       0.83311627       0.00017342       0.49993587 </v>
    <v>       0.83271289       0.00078573       0.83310754 </v>
    <v>       0.83311115       0.33316862       0.16695259 </v>
    <v>       0.83312210       0.33318446       0.49993465 </v>
    <v>       0.83269768       0.33258520       0.83310289 </v>
    <v>       0.83153363       0.66666411       0.16836271 </v>
    <v>       0.83256270       0.66665324       0.49934348 </v>
    <v>       0.82649701       0.66665603       0.83228438 </v>
    <v>       0.16673561       0.16665682       0.00007451 </v>
    <v>       0.16670524       0.16665010       0.33361206 </v>
    <v>       0.16671819       0.16664885       0.66631303 </v>
    <v>       0.16671823       0.48864927       0.00007317 </v>
    <v>       0.16671471       0.49883087       0.33461603 </v>
    <v>       0.16670727       0.49883226       0.66531144 </v>
    <v>       0.16674230       0.84459458       0.00007391 </v>
    <v>       0.16671487       0.83447924       0.33461469 </v>
    <v>       0.16670777       0.83447334       0.66531463 </v>
    <v>       0.50027410       0.16667045       0.00006048 </v>
    <v>       0.50011429       0.16665597       0.33345111 </v>
    <v>       0.50011335       0.16665449       0.66648825 </v>
    <v>       0.50130945       0.49883696       0.00007324 </v>
    <v>       0.50012897       0.49968800       0.33345720 </v>
    <v>       0.50012855       0.49967496       0.66646696 </v>
    <v>       0.50131870       0.83448946       0.00007398 </v>
    <v>       0.50013055       0.83365702       0.33346687 </v>
    <v>       0.50013054       0.83366794       0.66646006 </v>
    <v>       0.83303999       0.16665324       0.00007467 </v>
    <v>       0.83319720       0.16664697       0.33345520 </v>
    <v>       0.83318414       0.16664692       0.66646934 </v>
    <v>       0.83199758       0.49884349       0.00007332 </v>
    <v>       0.83316027       0.49967150       0.33346481 </v>
    <v>       0.83316491       0.49967197       0.66646156 </v>
    <v>       0.83202338       0.83449189       0.00007366 </v>
    <v>       0.83317002       0.83367868       0.33347211 </v>
    <v>       0.83317424       0.83367450       0.66645638 </v>
    <v>       0.99972700       0.16668097       0.00014533 </v>
    <v>       0.00016760       0.16667597       0.33309445 </v>
    <v>       0.00016760       0.16667463       0.66675572 </v>
    <v>       0.00284679       0.50426791       0.99857720 </v>
    <v>       0.00054224       0.50039600       0.33268601 </v>
    <v>       0.00054067       0.50196054       0.66873236 </v>
    <v>       0.00285949       0.82906125       0.99858054 </v>
    <v>       0.00054824       0.83292339       0.33268869 </v>
    <v>       0.00054664       0.83135739       0.66872778 </v>
    <v>       0.33351811       0.16667836       0.99991736 </v>
    <v>       0.33311999       0.16667246       0.33310265 </v>
    <v>       0.33305943       0.16667107       0.66697784 </v>
    <v>       0.33016892       0.50310974       0.99972925 </v>
    <v>       0.33265996       0.50062501       0.33268905 </v>
    <v>       0.33245581       0.50081434       0.66758709 </v>
    <v>       0.33018544       0.83021464       0.99972889 </v>
    <v>       0.33266763       0.83269955       0.33269524 </v>
    <v>       0.33246334       0.83250146       0.66758109 </v>
    <v>       0.66680088       0.16667269       0.99991775 </v>
    <v>       0.66672807       0.16666836       0.33321930 </v>
    <v>       0.66678766       0.16666810       0.66686070 </v>
    <v>       0.66700198       0.49997959       0.99972954 </v>
    <v>       0.66679112       0.50024740       0.33309446 </v>
    <v>       0.66699392       0.50043581       0.66718090 </v>
    <v>       0.66700297       0.83335099       0.99972893 </v>
    <v>       0.66678854       0.83309219       0.33309869 </v>
    <v>       0.66699192       0.83289557       0.66717718 </v>
    <v>       0.00056912       0.99912463       0.16585841 </v>
    <v>       0.00015929       0.99953865       0.50024062 </v>
    <v>       0.00056885       0.00043232       0.83389457 </v>
    <v>       0.00055809       0.33421904       0.16585827 </v>
    <v>       0.00016364       0.33381360       0.50024709 </v>
    <v>       0.00055781       0.33290005       0.83389094 </v>
    <v>       0.00284460       0.66666283       0.16487032 </v>
    <v>       0.99971089       0.66666516       0.49893896 </v>
    <v>       0.11384667       0.77766773       0.94720213 </v>
    <v>       0.33268075       0.99926885       0.27732604 </v>
    <v>       0.33292181       0.99952723       0.61111118 </v>
    <v>       0.33268440       0.11059326       0.94489329 </v>
    <v>       0.33268206       0.33407695       0.27732684 </v>
    <v>       0.33292465       0.33381568       0.61111240 </v>
    <v>       0.33254455       0.44507719       0.94475329 </v>
    <v>       0.33024040       0.66665943       0.27516132 </v>
    <v>       0.33467000       0.66665615       0.61111639 </v>
    <v>       0.44171218       0.77766569       0.94719913 </v>
    <v>       0.66679194       0.99966742       0.27771333 </v>
    <v>       0.66692932       0.99964417       0.61111324 </v>
    <v>       0.66678739       0.11099221       0.94450526 </v>
    <v>       0.66678065       0.33367544       0.27771341 </v>
    <v>       0.66692037       0.33369352       0.61111263 </v>
    <v>       0.66692010       0.44467727       0.94436609 </v>
    <v>       0.66692185       0.66666487       0.27831080 </v>
    <v>       0.66562641       0.66666134       0.61111667 </v>
    <v>       0.83325715       0.50000085       0.94404246 </v>
    <v>       0.16658750       0.16667410       0.27817867 </v>
    <v>       0.16681255       0.16667331       0.61111181 </v>
    <v>       0.16639249       0.27805862       0.94383932 </v>
    <v>       0.16638355       0.50311458       0.27522601 </v>
    <v>       0.16523466       0.50112942       0.61111345 </v>
    <v>       0.16638755       0.61367753       0.94699435 </v>
    <v>       0.16639063       0.83021217       0.27522939 </v>
    <v>       0.16523537       0.83219867       0.61111314 </v>
    <v>       0.27778192       0.94159945       0.94725023 </v>
    <v>       0.49977773       0.16667621       0.27766416 </v>
    <v>       0.49989564       0.16667570       0.61111181 </v>
    <v>       0.49977750       0.27786532       0.94449658 </v>
    <v>       0.49937408       0.50062961       0.27732898 </v>
    <v>       0.49978031       0.50001312       0.61111100 </v>
    <v>       0.49937556       0.61158042       0.94488758 </v>
    <v>       0.49937738       0.83270096       0.27733175 </v>
    <v>       0.49977728       0.83330997       0.61111330 </v>
    <v>       0.61057571       0.94389575       0.94488586 </v>
    <v>       0.83365928       0.16666963       0.27772039 </v>
    <v>       0.83330744       0.16667098       0.61111304 </v>
    <v>       0.83385496       0.27805575       0.94429703 </v>
    <v>       0.83425031       0.50082999       0.27753267 </v>
    <v>       0.83499794       0.50158419       0.61111366 </v>
    <v>       0.83425222       0.61139364       0.94468638 </v>
    <v>       0.83425485       0.83251527       0.27753276 </v>
    <v>       0.83500354       0.83174821       0.61111426 </v>
    <v>       0.94481270       0.88803112       0.88917258 </v>
    <v>       0.16659502       0.00200907       0.11110970 </v>
    <v>       0.16639113       0.99919280       0.44422147 </v>
    <v>       0.16639119       0.11093533       0.77799694 </v>
    <v>       0.16658780       0.33131488       0.11111014 </v>
    <v>       0.16638613       0.33414714       0.44422224 </v>
    <v>       0.16523381       0.44493778       0.77685292 </v>
    <v>       0.16680165       0.66665418       0.33542431 </v>
    <v>       0.16522445       0.66665217       0.66599811 </v>
    <v>       0.49952586       0.99940867       0.99992113 </v>
    <v>       0.49979518       0.99973661       0.33310637 </v>
    <v>       0.49979480       0.99967599       0.66697463 </v>
    <v>       0.49951163       0.33394738       0.99991760 </v>
    <v>       0.49979092       0.33360772       0.33311332 </v>
    <v>       0.49979020       0.33366705       0.66696606 </v>
    <v>       0.50212803       0.66666287       0.00014534 </v>
    <v>       0.49950629       0.66666471       0.33283249 </v>
    <v>       0.49950642       0.66666245       0.66702137 </v>
    <v>       0.83413411       0.99919138       0.99972494 </v>
    <v>       0.83364055       0.99967485       0.33310935 </v>
    <v>       0.83383604       0.99947476       0.66716235 </v>
    <v>       0.83411784       0.33414734       0.99972269 </v>
    <v>       0.83363653       0.33366791       0.33311579 </v>
    <v>       0.83382995       0.33386648       0.66715546 </v>
    <v>       0.83263488       0.66666899       0.99858074 </v>
    <v>       0.83368895       0.66666426       0.33283612 </v>
    <v>       0.83526237       0.66666245       0.66858552 </v>
   </varray>
  </structure>
  <varray name="primitive_index" >
   <v type="int" >        1 </v>
   <v type="int" >        2 </v>
   <v type="int" >        3 </v>
   <v type="int" >        4 </v>
   <v type="int" >        5 </v>
   <v type="int" >        6 </v>
   <v type="int" >        7 </v>
   <v type="int" >        8 </v>
   <v type="int" >        9 </v>
   <v type="int" >       10 </v>
   <v type="int" >       11 </v>
   <v type="int" >       12 </v>
   <v type="int" >       13 </v>
   <v type="int" >       14 </v>
   <v type="int" >       15 </v>
   <v type="int" >       16 </v>
   <v type="int" >       17 </v>
   <v type="int" >       18 </v>
   <v type="int" >       19 </v>
   <v type="int" >       20 </v>
   <v type="int" >       21 </v>
   <v type="int" >       22 </v>
   <v type="int" >       23 </v>
   <v type="int" >       24 </v>
   <v type="int" >       25 </v>
   <v type="int" >       26 </v>
   <v type="int" >       27 </v>
   <v type="int" >       28 </v>
   <v type="int" >       29 </v>
   <v type="int" >       30 </v>
   <v type="int" >       31 </v>
   <v type="int" >       32 </v>
   <v type="int" >       33 </v>
   <v type="int" >       34 </v>
   <v type="int" >       35 </v>
   <v type="int" >       36 </v>
   <v type="int" >       37 </v>
   <v type="int" >       38 </v>
   <v type="int" >       39 </v>
   <v type="int" >       40 </v>
   <v type="int" >       41 </v>
   <v type="int" >       42 </v>
   <v type="int" >       43 </v>
   <v type="int" >       44 </v>
   <v type="int" >       45 </v>
   <v type="int" >       46 </v>
   <v type="int" >       47 </v>
   <v type="int" >       48 </v>
   <v type="int" >       49 </v>
   <v type="int" >       50 </v>
   <v type="int" >       51 </v>
   <v type="int" >       52 </v>
   <v type="int" >       53 </v>
   <v type="int" >       54 </v>
   <v type="int" >       55 </v>
   <v type="int" >       56 </v>
   <v type="int" >       57 </v>
   <v type="int" >       58 </v>
   <v type="int" >       59 </v>
   <v type="int" >       60 </v>
   <v type="int" >       61 </v>
   <v type="int" >       62 </v>
   <v type="int" >       63 </v>
   <v type="int" >       64 </v>
   <v type="int" >       65 </v>
   <v type="int" >       66 </v>
   <v type="int" >       67 </v>
   <v type="int" >       68 </v>
   <v type="int" >       69 </v>
   <v type="int" >       70 </v>
   <v type="int" >       71 </v>
   <v type="int" >       72 </v>
   <v type="int" >       73 </v>
   <v type="int" >       74 </v>
   <v type="int" >       75 </v>
   <v type="int" >       76 </v>
   <v type="int" >       77 </v>
   <v type="int" >       78 </v>
   <v type="int" >       79 </v>
   <v type="int" >       80 </v>
   <v type="int" >       81 </v>
   <v type="int" >       82 </v>
   <v type="int" >       83 </v>
   <v type="int" >       84 </v>
   <v type="int" >       85 </v>
   <v type="int" >       86 </v>
   <v type="int" >       87 </v>
   <v type="int" >       88 </v>
   <v type="int" >       89 </v>
   <v type="int" >       90 </v>
   <v type="int" >       91 </v>
   <v type="int" >       92 </v>
   <v type="int" >       93 </v>
   <v type="int" >       94 </v>
   <v type="int" >       95 </v>
   <v type="int" >       96 </v>
   <v type="int" >       97 </v>
   <v type="int" >       98 </v>
   <v type="int" >       99 </v>
   <v type="int" >      100 </v>
   <v type="int" >      101 </v>
   <v type="int" >      102 </v>
   <v type="int" >      103 </v>
   <v type="int" >      104 </v>
   <v type="int" >      105 </v>
   <v type="int" >      106 </v>
   <v type="int" >      107 </v>
   <v type="int" >      108 </v>
   <v type="int" >      109 </v>
   <v type="int" >      110 </v>
   <v type="int" >      111 </v>
   <v type="int" >      112 </v>
   <v type="int" >      113 </v>
   <v type="int" >      114 </v>
   <v type="int" >      115 </v>
   <v type="int" >      116 </v>
   <v type="int" >      117 </v>
   <v type="int" >      118 </v>
   <v type="int" >      119 </v>
   <v type="int" >      120 </v>
   <v type="int" >      121 </v>
   <v type="int" >      122 </v>
   <v type="int" >      123 </v>
   <v type="int" >      124 </v>
   <v type="int" >      125 </v>
   <v type="int" >      126 </v>
   <v type="int" >      127 </v>
   <v type="int" >      128 </v>
   <v type="int" >      129 </v>
   <v type="int" >      130 </v>
   <v type="int" >      131 </v>
   <v type="int" >      132 </v>
   <v type="int" >      133 </v>
   <v type="int" >      134 </v>
   <v type="int" >      135 </v>
   <v type="int" >      136 </v>
   <v type="int" >      137 </v>
   <v type="int" >      138 </v>
   <v type="int" >      139 </v>
   <v type="int" >      140 </v>
   <v type="int" >      141 </v>
   <v type="int" >      142 </v>
   <v type="int" >      143 </v>
   <v type="int" >      144 </v>
   <v type="int" >      145 </v>
   <v type="int" >      146 </v>
   <v type="int" >      147 </v>
   <v type="int" >      148 </v>
   <v type="int" >      149 </v>
   <v type="int" >      150 </v>
   <v type="int" >      151 </v>
   <v type="int" >      152 </v>
   <v type="int" >      153 </v>
   <v type="int" >      154 </v>
   <v type="int" >      155 </v>
   <v type="int" >      156 </v>
   <v type="int" >      157 </v>
   <v type="int" >      158 </v>
   <v type="int" >      159 </v>
   <v type="int" >      160 </v>
   <v type="int" >      161 </v>
   <v type="int" >      162 </v>
   <v type="int" >      163 </v>
   <v type="int" >      164 </v>
   <v type="int" >      165 </v>
   <v type="int" >      166 </v>
   <v type="int" >      167 </v>
   <v type="int" >      168 </v>
   <v type="int" >      169 </v>
   <v type="int" >      170 </v>
   <v type="int" >      171 </v>
   <v type="int" >      172 </v>
   <v type="int" >      173 </v>
   <v type="int" >      174 </v>
   <v type="int" >      175 </v>
   <v type="int" >      176 </v>
   <v type="int" >      177 </v>
   <v type="int" >      178 </v>
   <v type="int" >      179 </v>
   <v type="int" >      180 </v>
   <v type="int" >      181 </v>
   <v type="int" >      182 </v>
   <v type="int" >      183 </v>
   <v type="int" >      184 </v>
   <v type="int" >      185 </v>
   <v type="int" >      186 </v>
   <v type="int" >      187 </v>
   <v type="int" >      188 </v>
   <v type="int" >      189 </v>
   <v type="int" >      190 </v>
   <v type="int" >      191 </v>
   <v type="int" >      192 </v>
   <v type="int" >      193 </v>
   <v type="int" >      194 </v>
   <v type="int" >      195 </v>
   <v type="int" >      196 </v>
   <v type="int" >      197 </v>
   <v type="int" >      198 </v>
   <v type="int" >      199 </v>
   <v type="int" >      200 </v>
   <v type="int" >      201 </v>
   <v type="int" >      202 </v>
   <v type="int" >      203 </v>
   <v type="int" >      204 </v>
   <v type="int" >      205 </v>
   <v type="int" >      206 </v>
   <v type="int" >      207 </v>
   <v type="int" >      208 </v>
   <v type="int" >      209 </v>
   <v type="int" >      210 </v>
   <v type="int" >      211 </v>
   <v type="int" >      212 </v>
   <v type="int" >      213 </v>
   <v type="int" >      214 </v>
   <v type="int" >      215 </v>
  </varray>
 </primitive_cell>
 <kpoints>
  <generation param="Monkhorst-Pack">
   <v type="int" name="divisions">       1        1        1 </v>
   <v name="usershift">      0.00000000       0.00000000       0.00000000 </v>
   <v name="genvec1">      1.00000000       0.00000000       0.00000000 </v>
   <v name="genvec2">      0.00000000       1.00000000       0.00000000 </v>
   <v name="genvec3">      0.00000000       0.00000000       1.00000000 </v>
   <v name="shift">      0.00000000       0.00000000       0.00000000 </v>
  </generation>
  <varray name="kpointlist" >
   <v>       0.00000000       0.00000000       0.00000000 </v>
  </varray>
  <varray name="weights" >
   <v>       1.00000000 </v>
  </varray>
 </kpoints>
 <parameters>
  <separator name="general" >
   <i type="string" name="SYSTEM">Si</i>
   <i type="logical" name="LCOMPAT"> F  </i>
  </separator>
  <separator name="electronic" >
   <i type="string" name="PREC">accura</i>
   <i name="ENMAX">    400.00000000</i>
   <i name="ENAUG">    628.94500000</i>
   <i name="EDIFF">      0.00000000</i>
   <i type="int" name="IALGO">    38</i>
   <i type="int" name="IWAVPR">    11</i>
   <i type="int" name="NBANDS">   752</i>
   <i type="int" name="NBANDSLOW">    -1</i>
   <i type="int" name="NBANDSHIGH">    -1</i>
   <i name="NELECT">   1072.00000000</i>
   <i type="int" name="TURBO">     0</i>
   <i type="int" name="IRESTART">     0</i>
   <i type="int" name="NREBOOT">     0</i>
   <i type="int" name="NMIN">     0</i>
   <i name="EREF">      0.00000000</i>
   <separator name="electronic smearing" >
    <i type="int" name="ISMEAR">     0</i>
    <i name="SIGMA">      0.01000000</i>
    <i name="KSPACING">      0.50000000</i>
    <i type="logical" name="KGAMMA"> T  </i>
    <i type="logical" name="KBLOWUP"> T  </i>
   </separator>
   <separator name="electronic projectors" >
    <i type="logical" name="LREAL"> F  </i>
    <v name="ROPT">      0.00000000      0.00000000</v>
    <i type="int" name="LMAXPAW">  -100</i>
    <i type="int" name="LMAXMIX">     2</i>
    <i type="logical" name="NLSPLINE"> F  </i>
   </separator>
   <separator name="electronic startup" >
    <i type="int" name="ISTART">     0</i>
    <i type="int" name="ICHARG">     0</i>
    <i type="int" name="INIWAV">     1</i>
   </separator>
   <separator name="electronic spin" >
    <i type="int" name="ISPIN">     2</i>
    <i type="logical" name="LNONCOLLINEAR"> F  </i>
    <v name="MAGMOM">      1.00000000      1.00000000      1.00000000      1.00000000      1.00000000      1.00000000      1.00000000      1.00000000      1.00000000      1.00000000      1.00000000      1.00000000      1.00000000      1.00000000      1.00000000      1.00000000      1.00000000      1.00000000      1.00000000      1.00000000
      1.00000000      1.00000000      1.00000000      1.00000000      1.00000000      1.00000000      1.00000000      1.00000000      1.00000000      1.00000000      1.00000000      1.00000000      1.00000000      1.00000000      1.00000000      1.00000000      1.00000000      1.00000000      1.00000000      1.00000000
      1.00000000      1.00000000      1.00000000      1.00000000      1.00000000      1.00000000      1.00000000      1.00000000      1.00000000      1.00000000      1.00000000      1.00000000      1.00000000      1.00000000      1.00000000      1.00000000      1.00000000      1.00000000      1.00000000      1.00000000
      1.00000000      1.00000000      1.00000000      1.00000000      1.00000000      1.00000000      1.00000000      1.00000000      1.00000000      1.00000000      1.00000000      1.00000000      1.00000000      1.00000000      1.00000000      1.00000000      1.00000000      1.00000000      1.00000000      1.00000000
      1.00000000      1.00000000      1.00000000      1.00000000      1.00000000      1.00000000      1.00000000      1.00000000      1.00000000      1.00000000      1.00000000      1.00000000      1.00000000      1.00000000      1.00000000      1.00000000      1.00000000      1.00000000      1.00000000      1.00000000
      1.00000000      1.00000000      1.00000000      1.00000000      1.00000000      1.00000000      1.00000000      1.00000000      1.00000000      1.00000000      1.00000000      1.00000000      1.00000000      1.00000000      1.00000000      1.00000000      1.00000000      1.00000000      1.00000000      1.00000000
      1.00000000      1.00000000      1.00000000      1.00000000      1.00000000      1.00000000      1.00000000      1.00000000      1.00000000      1.00000000      1.00000000      1.00000000      1.00000000      1.00000000      1.00000000      1.00000000      1.00000000      1.00000000      1.00000000      1.00000000
      1.00000000      1.00000000      1.00000000      1.00000000      1.00000000      1.00000000      1.00000000      1.00000000      1.00000000      1.00000000      1.00000000      1.00000000      1.00000000      1.00000000      1.00000000      1.00000000      1.00000000      1.00000000      1.00000000      1.00000000
      1.00000000      1.00000000      1.00000000      1.00000000      1.00000000      1.00000000      1.00000000      1.00000000      1.00000000      1.00000000      1.00000000      1.00000000      1.00000000      1.00000000      1.00000000      1.00000000      1.00000000      1.00000000      1.00000000      1.00000000
      1.00000000      1.00000000      1.00000000      1.00000000      1.00000000      1.00000000      1.00000000      1.00000000      1.00000000      1.00000000      1.00000000      1.00000000      1.00000000      1.00000000      1.00000000      1.00000000      1.00000000      1.00000000      1.00000000      1.00000000
      1.00000000      1.00000000      1.00000000      1.00000000      1.00000000      1.00000000      1.00000000      1.00000000      1.00000000      1.00000000      1.00000000      1.00000000      1.00000000      1.00000000      1.00000000</v>
    <i name="NUPDOWN">     -1.00000000</i>
    <i type="logical" name="LSORBIT"> F  </i>
    <v name="SAXIS">      0.00000000      0.00000000      1.00000000</v>
    <i type="logical" name="LSPIRAL"> F  </i>
    <v name="QSPIRAL">      0.00000000      0.00000000      0.00000000</v>
    <i type="logical" name="LZEROZ"> F  </i>
   </separator>
   <separator name="electronic exchange-correlation" >
    <i type="logical" name="LASPH"> F  </i>
    <i type="logical" name="LMETAGGA"> F  </i>
   </separator>
   <separator name="electronic convergence" >
    <i type="int" name="NELM">    20</i>
    <i type="int" name="NELMDL">    -5</i>
    <i type="int" name="NELMIN">     2</i>
    <i name="ENINI">    400.00000000</i>
    <separator name="electronic convergence detail" >
     <i type="logical" name="LDIAG"> T  </i>
     <i type="logical" name="LSUBROT"> F  </i>
     <i name="WEIMIN">      0.00100000</i>
     <i name="EBREAK">      0.00000000</i>
     <i name="DEPER">      0.30000000</i>
     <i type="int" name="NRMM">     4</i>
     <i name="TIME">      0.40000000</i>
    </separator>
   </separator>
   <separator name="electronic mixer" >
    <i name="AMIX">      0.40000000</i>
    <i name="BMIX">      1.00000000</i>
    <i name="AMIN">      0.10000000</i>
    <i name="AMIX_MAG">      1.60000000</i>
    <i name="BMIX_MAG">      1.00000000</i>
    <separator name="electronic mixer details" >
     <i type="int" name="IMIX">     4</i>
     <i type="logical" name="MIXFIRST"> F  </i>
     <i type="int" name="MAXMIX">   -45</i>
     <i name="WC">    100.00000000</i>
     <i type="int" name="INIMIX">     1</i>
     <i type="int" name="MIXPRE">     1</i>
     <i type="int" name="MREMOVE">     5</i>
    </separator>
   </separator>
   <separator name="electronic dipolcorrection" >
    <i type="logical" name="LDIPOL"> F  </i>
    <i type="logical" name="LMONO"> F  </i>
    <i type="int" name="IDIPOL">     0</i>
    <i name="EPSILON">      1.00000000</i>
    <v name="DIPOL">   -100.00000000   -100.00000000   -100.00000000</v>
    <i name="EFIELD">      0.00000000</i>
   </separator>
  </separator>
  <separator name="grids" >
   <i type="int" name="NGX">    80</i>
   <i type="int" name="NGY">    80</i>
   <i type="int" name="NGZ">    80</i>
   <i type="int" name="NGXF">   160</i>
   <i type="int" name="NGYF">   160</i>
   <i type="int" name="NGZF">   160</i>
   <i type="logical" name="ADDGRID"> F  </i>
  </separator>
  <separator name="ionic" >
   <i type="int" name="NSW">   500</i>
   <i type="int" name="IBRION">     3</i>
   <i type="int" name="MDALGO">     0</i>
   <i type="int" name="ISIF">     0</i>
   <i name="PSTRESS">      0.00000000</i>
   <i name="EDIFFG">     -0.01000000</i>
   <i type="int" name="NFREE">     0</i>
   <i name="POTIM">      0.00000000</i>
   <i name="SMASS">     -3.00000000</i>
   <i name="SCALEE">      1.00000000</i>
  </separator>
  <separator name="ionic md" >
   <i name="TEBEG">      0.00010000</i>
   <i name="TEEND">      0.00010000</i>
   <i type="int" name="NBLOCK">     1</i>
   <i type="int" name="KBLOCK">   500</i>
   <i type="int" name="NPACO">   256</i>
   <i name="APACO">     10.00000000</i>
  </separator>
  <separator name="symmetry" >
   <i type="int" name="ISYM">     2</i>
   <i name="SYMPREC">      0.00001000</i>
  </separator>
  <separator name="dos" >
   <i type="int" name="LORBIT">     0</i>
   <v name="RWIGS">     -1.00000000     -1.00000000</v>
   <i type="int" name="NEDOS">   301</i>
   <i name="EMIN">     10.00000000</i>
   <i name="EMAX">    -10.00000000</i>
   <i name="EFERMI">      0.00000000</i>
  </separator>
  <separator name="writing" >
   <i type="int" name="NWRITE">     2</i>
   <i type="logical" name="LWAVE"> T  </i>
   <i type="logical" name="LDOWNSAMPLE"> F  </i>
   <i type="logical" name="LCHARG"> T  </i>
   <i type="logical" name="LPARD"> F  </i>
   <i type="logical" name="LVTOT"> F  </i>
   <i type="logical" name="LVHAR"> F  </i>
   <i type="logical" name="LELF"> F  </i>
   <i type="logical" name="LOPTICS"> F  </i>
   <v name="STM">      0.00000000      0.00000000      0.00000000      0.00000000      0.00000000      0.00000000      0.00000000</v>
  </separator>
  <separator name="performance" >
   <i type="int" name="NPAR">     1</i>
   <i type="int" name="NSIM">     4</i>
   <i type="int" name="NBLK">    -1</i>
   <i type="logical" name="LPLANE"> T  </i>
   <i type="logical" name="LSCALAPACK"> T  </i>
   <i type="logical" name="LSCAAWARE"> F  </i>
   <i type="logical" name="LSCALU"> F  </i>
   <i type="logical" name="LASYNC"> F  </i>
   <i type="logical" name="LORBITALREAL"> F  </i>
  </separator>
  <separator name="miscellaneous" >
   <i type="int" name="IDIOT">     3</i>
   <i type="int" name="PHON_NSTRUCT">    -1</i>
   <i type="logical" name="LMUSIC"> F  </i>
   <v name="POMASS">      7.01000000     18.99800000</v>
   <v name="DARWINR">      0.00000000      0.00000000</v>
   <v name="DARWINV">      1.00000000      1.00000000</v>
   <i type="logical" name="LCORR"> T  </i>
  </separator>
  <i type="logical" name="GGA_COMPAT"> T  </i>
  <i type="logical" name="LBERRY"> F  </i>
  <i type="int" name="ICORELEVEL">     0</i>
  <i type="logical" name="LDAU"> F  </i>
  <i type="int" name="I_CONSTRAINED_M">     0</i>
  <separator name="electronic exchange-correlation" >
   <i type="string" name="GGA">--</i>
   <i type="int" name="VOSKOWN">     0</i>
   <i type="logical" name="LHFCALC"> F  </i>
   <i type="string" name="PRECFOCK"></i>
   <i type="logical" name="LSYMGRAD"> F  </i>
   <i type="logical" name="LHFONE"> F  </i>
   <i type="logical" name="LRHFCALC"> F  </i>
   <i type="logical" name="LTHOMAS"> F  </i>
   <i type="logical" name="LMODELHF"> F  </i>
   <i type="logical" name="LFOCKACE"> F  </i>
   <i name="ENCUT4O">     -1.00000000</i>
   <i type="int" name="EXXOEP">     0</i>
   <i type="int" name="FOURORBIT">     0</i>
   <i name="AEXX">      0.00000000</i>
   <i name="HFALPHA">      0.00000000</i>
   <i name="MCALPHA">      0.00000000</i>
   <i name="ALDAX">      1.00000000</i>
   <i name="AGGAX">      1.00000000</i>
   <i name="ALDAC">      1.00000000</i>
   <i name="AGGAC">      1.00000000</i>
   <i type="int" name="NKREDX">     1</i>
   <i type="int" name="NKREDY">     1</i>
   <i type="int" name="NKREDZ">     1</i>
   <i type="logical" name="SHIFTRED"> F  </i>
   <i type="logical" name="ODDONLY"> F  </i>
   <i type="logical" name="EVENONLY"> F  </i>
   <i type="int" name="LMAXFOCK">     0</i>
   <i type="int" name="NMAXFOCKAE">     0</i>
   <i type="logical" name="LFOCKAEDFT"> F  </i>
   <i name="HFSCREEN">      0.00000000</i>
   <i name="HFSCREENC">      0.00000000</i>
   <i type="int" name="NBANDSGWLOW">     0</i>
  </separator>
  <separator name="vdW DFT" >
   <i type="logical" name="LUSE_VDW"> F  </i>
   <i type="int" name="IVDW_NL">     1</i>
   <i type="logical" name="LSPIN_VDW"> F  </i>
   <i name="Zab_VDW">     -0.84910000</i>
   <i name="PARAM1">      0.12340000</i>
   <i name="PARAM2">      1.00000000</i>
   <i name="PARAM3">      0.00000000</i>
  </separator>
  <separator name="model GW" >
   <i type="int" name="MODEL_GW">     0</i>
   <i name="MODEL_EPS0">      4.91807315</i>
   <i name="MODEL_ALPHA">      1.00000000</i>
  </separator>
  <separator name="linear response parameters" >
   <i type="logical" name="LEPSILON"> F  </i>
   <i type="logical" name="LRPA"> F  </i>
   <i type="logical" name="LNABLA"> F  </i>
   <i type="logical" name="LVEL"> F  </i>
   <i name="CSHIFT">      0.10000000</i>
   <i name="OMEGAMAX">     -1.00000000</i>
   <i name="DEG_THRESHOLD">      0.00200000</i>
   <i name="RTIME">     -0.10000000</i>
   <i name="WPLASMAI">      0.00000000</i>
   <v name="DFIELD">      0.00000000      0.00000000      0.00000000</v>
   <v name="WPLASMA">      0.00000000      0.00000000      0.00000000      0.00000000      0.00000000      0.00000000      0.00000000      0.00000000      0.00000000</v>
  </separator>
  <separator name="orbital magnetization" >
   <i type="logical" name="NUCIND"> F  </i>
   <v name="MAGPOS">      0.00000000      0.00000000      0.00000000</v>
   <i type="logical" name="LNICSALL"> T  </i>
   <i type="logical" name="ORBITALMAG"> F  </i>
   <i type="logical" name="LMAGBLOCH"> F  </i>
   <i type="logical" name="LCHIMAG"> F  </i>
   <i type="logical" name="LGAUGE"> T  </i>
   <i type="int" name="MAGATOM">     0</i>
   <v name="MAGDIPOL">      0.00000000      0.00000000      0.00000000</v>
   <v name="AVECCONST">      0.00000000      0.00000000      0.00000000</v>
  </separator>
  <separator name="response functions" >
   <i type="logical" name="LALL_IN_ONE"> F  </i>
   <i type="int" name="IALL_IN_ONE">    -1</i>
   <i type="int" name="NBANDS_WAVE">    -1</i>
   <i type="logical" name="LFINITE_TEMPERATURE"> F  </i>
   <i type="logical" name="LADDER"> F  </i>
   <i type="logical" name="LRPAFORCE"> F  </i>
   <i type="logical" name="LFXC"> F  </i>
   <i type="logical" name="LHARTREE"> T  </i>
   <i type="int" name="IBSE">     0</i>
   <v type="int" name="KPOINT">    -1     0     0     0</v>
   <i type="logical" name="LTCTC"> F  </i>
   <i type="logical" name="LTCTE"> F  </i>
   <i type="logical" name="LTETE"> F  </i>
   <i type="logical" name="LTRIPLET"> F  </i>
   <i type="logical" name="LFXCEPS"> F  </i>
   <i type="logical" name="LFXHEG"> F  </i>
   <i type="int" name="NATURALO">     2</i>
   <i type="logical" name="LHOLEGF"> F  </i>
   <i type="logical" name="L2ORDER"> F  </i>
   <i type="logical" name="LDMP1"> F  </i>
   <i type="logical" name="LMP2LT"> F  </i>
   <i type="logical" name="LSMP2LT"> F  </i>
   <i type="logical" name="LGWLF"> F  </i>
   <i name="ENCUTGW">     -1.60000002</i>
   <i name="ENCUTGWSOFT">     -1.60000002</i>
   <i name="ENCUTLF">     -1.00000000</i>
   <i type="logical" name="LESF_SPLINES"> F  </i>
   <i type="int" name="LMAXMP2">    -1</i>
   <i name="SCISSOR">      0.00000000</i>
   <i type="int" name="NOMEGA">     0</i>
   <i type="int" name="NOMEGAR">     0</i>
   <i type="int" name="NBANDSGW">    -1</i>
   <i type="int" name="NBANDSO">    -1</i>
   <i type="int" name="NBANDSV">    -1</i>
   <i type="int" name="NELMGW">     1</i>
   <i type="int" name="NELMHF">     1</i>
   <i type="int" name="DIM">     3</i>
   <i type="int" name="IESPILON">     4</i>
   <i type="int" name="ANTIRES">     0</i>
   <i name="OMEGAMAX">    -30.00000000</i>
   <i name="OMEGAMIN">    -30.00000000</i>
   <i name="OMEGATL">   -200.00000000</i>
   <i type="int" name="OMEGAGRID">     0</i>
   <i name="CSHIFT">     -0.10000000</i>
   <i type="logical" name="LSELFENERGY"> F  </i>
   <i type="logical" name="LSPECTRAL"> F  </i>
   <i type="logical" name="LSPECTRALGW"> F  </i>
   <i type="logical" name="LSINGLES"> F  </i>
   <i type="logical" name="LFERMIGW"> F  </i>
   <i type="logical" name="ODDONLYGW"> F  </i>
   <i type="logical" name="EVENONLYGW"> F  </i>
   <i type="int" name="NKREDLFX">     1</i>
   <i type="int" name="NKREDLFY">     1</i>
   <i type="int" name="NKREDLFZ">     1</i>
   <i type="int" name="MAXMEM">  2800</i>
   <i type="int" name="TELESCOPE">     0</i>
   <i type="int" name="NTAUPAR">    -1</i>
   <i type="int" name="NOMEGAPAR">    -1</i>
   <i name="DAMP_NEWTON">      0.80000001</i>
   <i name="LAMBDA">      1.00000000</i>
  </separator>
  <separator name="External order field" >
   <i name="OFIELD_KAPPA">      0.00000000</i>
   <v name="OFIELD_K">      0.00000000      0.00000000      0.00000000</v>
   <i name="OFIELD_Q6_NEAR">      0.00000000</i>
   <i name="OFIELD_Q6_FAR">      0.00000000</i>
   <i name="OFIELD_A">      0.00000000</i>
  </separator>
  <separator name="optional k-points parameters" >
   <i type="int" name="KPOINTS_OPT_MODE">     1</i>
   <i type="logical" name="LKPOINTS_OPT"> F  </i>
  </separator>
 </parameters>
 <atominfo>
  <atoms>     215 </atoms>
  <types>       2 </types>
  <array name="atoms" >
   <dimension dim="1">ion</dimension>
   <field type="string">element</field>
   <field type="int">atomtype</field>
   <set>
    <rc><c>Li</c><c>   1</c></rc>
    <rc><c>Li</c><c>   1</c></rc>
    <rc><c>Li</c><c>   1</c></rc>
    <rc><c>Li</c><c>   1</c></rc>
    <rc><c>Li</c><c>   1</c></rc>
    <rc><c>Li</c><c>   1</c></rc>
    <rc><c>Li</c><c>   1</c></rc>
    <rc><c>Li</c><c>   1</c></rc>
    <rc><c>Li</c><c>   1</c></rc>
    <rc><c>Li</c><c>   1</c></rc>
    <rc><c>Li</c><c>   1</c></rc>
    <rc><c>Li</c><c>   1</c></rc>
    <rc><c>Li</c><c>   1</c></rc>
    <rc><c>Li</c><c>   1</c></rc>
    <rc><c>Li</c><c>   1</c></rc>
    <rc><c>Li</c><c>   1</c></rc>
    <rc><c>Li</c><c>   1</c></rc>
    <rc><c>Li</c><c>   1</c></rc>
    <rc><c>Li</c><c>   1</c></rc>
    <rc><c>Li</c><c>   1</c></rc>
    <rc><c>Li</c><c>   1</c></rc>
    <rc><c>Li</c><c>   1</c></rc>
    <rc><c>Li</c><c>   1</c></rc>
    <rc><c>Li</c><c>   1</c></rc>
    <rc><c>Li</c><c>   1</c></rc>
    <rc><c>Li</c><c>   1</c></rc>
    <rc><c>Li</c><c>   1</c></rc>
    <rc><c>Li</c><c>   1</c></rc>
    <rc><c>Li</c><c>   1</c></rc>
    <rc><c>Li</c><c>   1</c></rc>
    <rc><c>Li</c><c>   1</c></rc>
    <rc><c>Li</c><c>   1</c></rc>
    <rc><c>Li</c><c>   1</c></rc>
    <rc><c>Li</c><c>   1</c></rc>
    <rc><c>Li</c><c>   1</c></rc>
    <rc><c>Li</c><c>   1</c></rc>
    <rc><c>Li</c><c>   1</c></rc>
    <rc><c>Li</c><c>   1</c></rc>
    <rc><c>Li</c><c>   1</c></rc>
    <rc><c>Li</c><c>   1</c></rc>
    <rc><c>Li</c><c>   1</c></rc>
    <rc><c>Li</c><c>   1</c></rc>
    <rc><c>Li</c><c>   1</c></rc>
    <rc><c>Li</c><c>   1</c></rc>
    <rc><c>Li</c><c>   1</c></rc>
    <rc><c>Li</c><c>   1</c></rc>
    <rc><c>Li</c><c>   1</c></rc>
    <rc><c>Li</c><c>   1</c></rc>
    <rc><c>Li</c><c>   1</c></rc>
    <rc><c>Li</c><c>   1</c></rc>
    <rc><c>Li</c><c>   1</c></rc>
    <rc><c>Li</c><c>   1</c></rc>
    <rc><c>Li</c><c>   1</c></rc>
    <rc><c>Li</c><c>   1</c></rc>
    <rc><c>Li</c><c>   1</c></rc>
    <rc><c>Li</c><c>   1</c></rc>
    <rc><c>Li</c><c>   1</c></rc>
    <rc><c>Li</c><c>   1</c></rc>
    <rc><c>Li</c><c>   1</c></rc>
    <rc><c>Li</c><c>   1</c></rc>
    <rc><c>Li</c><c>   1</c></rc>
    <rc><c>Li</c><c>   1</c></rc>
    <rc><c>Li</c><c>   1</c></rc>
    <rc><c>Li</c><c>   1</c></rc>
    <rc><c>Li</c><c>   1</c></rc>
    <rc><c>Li</c><c>   1</c></rc>
    <rc><c>Li</c><c>   1</c></rc>
    <rc><c>Li</c><c>   1</c></rc>
    <rc><c>Li</c><c>   1</c></rc>
    <rc><c>Li</c><c>   1</c></rc>
    <rc><c>Li</c><c>   1</c></rc>
    <rc><c>Li</c><c>   1</c></rc>
    <rc><c>Li</c><c>   1</c></rc>
    <rc><c>Li</c><c>   1</c></rc>
    <rc><c>Li</c><c>   1</c></rc>
    <rc><c>Li</c><c>   1</c></rc>
    <rc><c>Li</c><c>   1</c></rc>
    <rc><c>Li</c><c>   1</c></rc>
    <rc><c>Li</c><c>   1</c></rc>
    <rc><c>Li</c><c>   1</c></rc>
    <rc><c>Li</c><c>   1</c></rc>
    <rc><c>Li</c><c>   1</c></rc>
    <rc><c>Li</c><c>   1</c></rc>
    <rc><c>Li</c><c>   1</c></rc>
    <rc><c>Li</c><c>   1</c></rc>
    <rc><c>Li</c><c>   1</c></rc>
    <rc><c>Li</c><c>   1</c></rc>
    <rc><c>Li</c><c>   1</c></rc>
    <rc><c>Li</c><c>   1</c></rc>
    <rc><c>Li</c><c>   1</c></rc>
    <rc><c>Li</c><c>   1</c></rc>
    <rc><c>Li</c><c>   1</c></rc>
    <rc><c>Li</c><c>   1</c></rc>
    <rc><c>Li</c><c>   1</c></rc>
    <rc><c>Li</c><c>   1</c></rc>
    <rc><c>Li</c><c>   1</c></rc>
    <rc><c>Li</c><c>   1</c></rc>
    <rc><c>Li</c><c>   1</c></rc>
    <rc><c>Li</c><c>   1</c></rc>
    <rc><c>Li</c><c>   1</c></rc>
    <rc><c>Li</c><c>   1</c></rc>
    <rc><c>Li</c><c>   1</c></rc>
    <rc><c>Li</c><c>   1</c></rc>
    <rc><c>Li</c><c>   1</c></rc>
    <rc><c>Li</c><c>   1</c></rc>
    <rc><c>Li</c><c>   1</c></rc>
    <rc><c>Li</c><c>   1</c></rc>
    <rc><c>Li</c><c>   1</c></rc>
    <rc><c>F </c><c>   2</c></rc>
    <rc><c>F </c><c>   2</c></rc>
    <rc><c>F </c><c>   2</c></rc>
    <rc><c>F </c><c>   2</c></rc>
    <rc><c>F </c><c>   2</c></rc>
    <rc><c>F </c><c>   2</c></rc>
    <rc><c>F </c><c>   2</c></rc>
    <rc><c>F </c><c>   2</c></rc>
    <rc><c>F </c><c>   2</c></rc>
    <rc><c>F </c><c>   2</c></rc>
    <rc><c>F </c><c>   2</c></rc>
    <rc><c>F </c><c>   2</c></rc>
    <rc><c>F </c><c>   2</c></rc>
    <rc><c>F </c><c>   2</c></rc>
    <rc><c>F </c><c>   2</c></rc>
    <rc><c>F </c><c>   2</c></rc>
    <rc><c>F </c><c>   2</c></rc>
    <rc><c>F </c><c>   2</c></rc>
    <rc><c>F </c><c>   2</c></rc>
    <rc><c>F </c><c>   2</c></rc>
    <rc><c>F </c><c>   2</c></rc>
    <rc><c>F </c><c>   2</c></rc>
    <rc><c>F </c><c>   2</c></rc>
    <rc><c>F </c><c>   2</c></rc>
    <rc><c>F </c><c>   2</c></rc>
    <rc><c>F </c><c>   2</c></rc>
    <rc><c>F </c><c>   2</c></rc>
    <rc><c>F </c><c>   2</c></rc>
    <rc><c>F </c><c>   2</c></rc>
    <rc><c>F </c><c>   2</c></rc>
    <rc><c>F </c><c>   2</c></rc>
    <rc><c>F </c><c>   2</c></rc>
    <rc><c>F </c><c>   2</c></rc>
    <rc><c>F </c><c>   2</c></rc>
    <rc><c>F </c><c>   2</c></rc>
    <rc><c>F </c><c>   2</c></rc>
    <rc><c>F </c><c>   2</c></rc>
    <rc><c>F </c><c>   2</c></rc>
    <rc><c>F </c><c>   2</c></rc>
    <rc><c>F </c><c>   2</c></rc>
    <rc><c>F </c><c>   2</c></rc>
    <rc><c>F </c><c>   2</c></rc>
    <rc><c>F </c><c>   2</c></rc>
    <rc><c>F </c><c>   2</c></rc>
    <rc><c>F </c><c>   2</c></rc>
    <rc><c>F </c><c>   2</c></rc>
    <rc><c>F </c><c>   2</c></rc>
    <rc><c>F </c><c>   2</c></rc>
    <rc><c>F </c><c>   2</c></rc>
    <rc><c>F </c><c>   2</c></rc>
    <rc><c>F </c><c>   2</c></rc>
    <rc><c>F </c><c>   2</c></rc>
    <rc><c>F </c><c>   2</c></rc>
    <rc><c>F </c><c>   2</c></rc>
    <rc><c>F </c><c>   2</c></rc>
    <rc><c>F </c><c>   2</c></rc>
    <rc><c>F </c><c>   2</c></rc>
    <rc><c>F </c><c>   2</c></rc>
    <rc><c>F </c><c>   2</c></rc>
    <rc><c>F </c><c>   2</c></rc>
    <rc><c>F </c><c>   2</c></rc>
    <rc><c>F </c><c>   2</c></rc>
    <rc><c>F </c><c>   2</c></rc>
    <rc><c>F </c><c>   2</c></rc>
    <rc><c>F </c><c>   2</c></rc>
    <rc><c>F </c><c>   2</c></rc>
    <rc><c>F </c><c>   2</c></rc>
    <rc><c>F </c><c>   2</c></rc>
    <rc><c>F </c><c>   2</c></rc>
    <rc><c>F </c><c>   2</c></rc>
    <rc><c>F </c><c>   2</c></rc>
    <rc><c>F </c><c>   2</c></rc>
    <rc><c>F </c><c>   2</c></rc>
    <rc><c>F </c><c>   2</c></rc>
    <rc><c>F </c><c>   2</c></rc>
    <rc><c>F </c><c>   2</c></rc>
    <rc><c>F </c><c>   2</c></rc>
    <rc><c>F </c><c>   2</c></rc>
    <rc><c>F </c><c>   2</c></rc>
    <rc><c>F </c><c>   2</c></rc>
    <rc><c>F </c><c>   2</c></rc>
    <rc><c>F </c><c>   2</c></rc>
    <rc><c>F </c><c>   2</c></rc>
    <rc><c>F </c><c>   2</c></rc>
    <rc><c>F </c><c>   2</c></rc>
    <rc><c>F </c><c>   2</c></rc>
    <rc><c>F </c><c>   2</c></rc>
    <rc><c>F </c><c>   2</c></rc>
    <rc><c>F </c><c>   2</c></rc>
    <rc><c>F </c><c>   2</c></rc>
    <rc><c>F </c><c>   2</c></rc>
    <rc><c>F </c><c>   2</c></rc>
    <rc><c>F </c><c>   2</c></rc>
    <rc><c>F </c><c>   2</c></rc>
    <rc><c>F </c><c>   2</c></rc>
    <rc><c>F </c><c>   2</c></rc>
    <rc><c>F </c><c>   2</c></rc>
    <rc><c>F </c><c>   2</c></rc>
    <rc><c>F </c><c>   2</c></rc>
    <rc><c>F </c><c>   2</c></rc>
    <rc><c>F </c><c>   2</c></rc>
    <rc><c>F </c><c>   2</c></rc>
    <rc><c>F </c><c>   2</c></rc>
    <rc><c>F </c><c>   2</c></rc>
    <rc><c>F </c><c>   2</c></rc>
    <rc><c>F </c><c>   2</c></rc>
    <rc><c>F </c><c>   2</c></rc>
   </set>
  </array>
  <array name="atomtypes" >
   <dimension dim="1">type</dimension>
   <field type="int">atomspertype</field>
   <field type="string">element</field>
   <field>mass</field>
   <field>valence</field>
   <field type="string">pseudopotential</field>
   <set>
    <rc><c> 108</c><c>Li</c><c>      7.01000000</c><c>      3.00000000</c><c>  PAW_PBE Li_sv 10Sep2004               </c></rc>
    <rc><c> 107</c><c>F </c><c>     18.99800000</c><c>      7.00000000</c><c>  PAW_PBE F 08Apr2002                   </c></rc>
   </set>
  </array>
 </atominfo>
 <structure name="initialpos" >
  <crystal>
   <varray name="basis" >
    <v>      12.07890034       0.00000000       0.00000000 </v>
    <v>       0.00000000      12.07890034       0.00000000 </v>
    <v>       0.00000000       0.00000000      12.07890034 </v>
   </varray>
   <i name="volume">   1762.30954632 </i>
   <varray name="rec_basis" >
    <v>       0.08278899       0.00000000       0.00000000 </v>
    <v>       0.00000000       0.08278899       0.00000000 </v>
    <v>       0.00000000       0.00000000       0.08278899 </v>
   </varray>
  </crystal>
  <varray name="positions" >
   <v>       0.99894046       0.00195470       0.00054526 </v>
   <v>       0.99975432       0.00026198       0.33345575 </v>
   <v>       0.99975366       0.00078396       0.66600266 </v>
   <v>       0.99892254       0.33142382       0.00054141 </v>
   <v>       0.99974471       0.33310318       0.33346571 </v>
   <v>       0.99974445       0.33259141       0.66599735 </v>
   <v>       0.98872743       0.66664405       0.00563947 </v>
   <v>       0.99890839       0.66664143       0.33461784 </v>
   <v>       0.99890531       0.66664586       0.65979393 </v>
   <v>       0.33448763       0.00137830       0.00012615 </v>
   <v>       0.33365369       0.00018622       0.33347080 </v>
   <v>       0.33366096       0.00019156       0.66640530 </v>
   <v>       0.33448290       0.33201761       0.00012692 </v>
   <v>       0.33365686       0.33318758       0.33347550 </v>
   <v>       0.33366483       0.33317944       0.66639982 </v>
   <v>       0.34516642       0.66665068       0.00054751 </v>
   <v>       0.33453424       0.66663864       0.33461405 </v>
   <v>       0.33503494       0.66663535       0.66486132 </v>
   <v>       0.66661964       0.00033066       0.00012582 </v>
   <v>       0.66660801       0.00016507       0.33344717 </v>
   <v>       0.66659972       0.00017346       0.66642808 </v>
   <v>       0.66660260       0.33303089       0.00012712 </v>
   <v>       0.66659704       0.33320210       0.33345683 </v>
   <v>       0.66658769       0.33319339       0.66641761 </v>
   <v>       0.66602265       0.66664758       0.00054772 </v>
   <v>       0.66651955       0.66664522       0.33360974 </v>
   <v>       0.66601814       0.66664191       0.66586446 </v>
   <v>       0.99986344       0.16665859       0.16692021 </v>
   <v>       0.99987794       0.16666878       0.49986652 </v>
   <v>       0.99986352       0.16665561       0.83320824 </v>
   <v>       0.99985455       0.49931226       0.16743334 </v>
   <v>       0.99985471       0.49930893       0.49934833 </v>
   <v>       0.99985306       0.49421388       0.83321060 </v>
   <v>       0.99986779       0.83402455       0.16742000 </v>
   <v>       0.99985434       0.83402540       0.49934378 </v>
   <v>       0.99986690       0.83907857       0.83321559 </v>
   <v>       0.33356183       0.16665265       0.16684052 </v>
   <v>       0.33352141       0.16665693       0.49994574 </v>
   <v>       0.33363800       0.16665064       0.83321020 </v>
   <v>       0.33355182       0.49972607       0.16684153 </v>
   <v>       0.33354779       0.49972738       0.49993650 </v>
   <v>       0.33412583       0.49930632       0.83322262 </v>
   <v>       0.33356291       0.83361848       0.16683908 </v>
   <v>       0.33355435       0.83361724       0.49993629 </v>
   <v>       0.33413096       0.83401723       0.83322407 </v>
   <v>       0.66660267       0.16664629       0.16681073 </v>
   <v>       0.66660336       0.16665361       0.49994495 </v>
   <v>       0.66652620       0.16664548       0.83324039 </v>
   <v>       0.66659838       0.49972349       0.16685174 </v>
   <v>       0.66660582       0.49975294       0.49993570 </v>
   <v>       0.66602326       0.49930316       0.83321187 </v>
   <v>       0.66659455       0.83362961       0.16684471 </v>
   <v>       0.66659553       0.83359274       0.49993590 </v>
   <v>       0.66602489       0.83402978       0.83321740 </v>
   <v>       0.16678935       0.00137774       0.16778010 </v>
   <v>       0.16678235       0.00032677       0.49993646 </v>
   <v>       0.16719747       0.00196699       0.83228160 </v>
   <v>       0.16678288       0.33200765       0.16778125 </v>
   <v>       0.16677593       0.33303418       0.49993528 </v>
   <v>       0.16719593       0.33142430       0.83227430 </v>
   <v>       0.16718157       0.66664501       0.17843582 </v>
   <v>       0.16718356       0.66664919       0.49934471 </v>
   <v>       0.17221514       0.66663638       0.82221128 </v>
   <v>       0.50013478       0.00018396       0.16695565 </v>
   <v>       0.50011311       0.00016223       0.49994640 </v>
   <v>       0.50013438       0.00025828       0.83309720 </v>
   <v>       0.50013408       0.33317711       0.16694912 </v>
   <v>       0.50011074       0.33318463       0.49994531 </v>
   <v>       0.50013362       0.33310054       0.83310138 </v>
   <v>       0.50131471       0.66665104       0.16784278 </v>
   <v>       0.50026207       0.66665852       0.49986925 </v>
   <v>       0.50131484       0.66664913       0.83228603 </v>
   <v>       0.83312167       0.00019515       0.16695338 </v>
   <v>       0.83311627       0.00017342       0.49993587 </v>
   <v>       0.83271289       0.00078573       0.83310754 </v>
   <v>       0.83311115       0.33316862       0.16695259 </v>
   <v>       0.83312210       0.33318446       0.49993465 </v>
   <v>       0.83269768       0.33258520       0.83310289 </v>
   <v>       0.83153363       0.66666411       0.16836271 </v>
   <v>       0.83256270       0.66665324       0.49934348 </v>
   <v>       0.82649701       0.66665603       0.83228438 </v>
   <v>       0.16673561       0.16665682       0.00007451 </v>
   <v>       0.16670524       0.16665010       0.33361206 </v>
   <v>       0.16671819       0.16664885       0.66631303 </v>
   <v>       0.16671823       0.48864927       0.00007317 </v>
   <v>       0.16671471       0.49883087       0.33461603 </v>
   <v>       0.16670727       0.49883226       0.66531144 </v>
   <v>       0.16674230       0.84459458       0.00007391 </v>
   <v>       0.16671487       0.83447924       0.33461469 </v>
   <v>       0.16670777       0.83447334       0.66531463 </v>
   <v>       0.50027410       0.16667045       0.00006048 </v>
   <v>       0.50011429       0.16665597       0.33345111 </v>
   <v>       0.50011335       0.16665449       0.66648825 </v>
   <v>       0.50130945       0.49883696       0.00007324 </v>
   <v>       0.50012897       0.49968800       0.33345720 </v>
   <v>       0.50012855       0.49967496       0.66646696 </v>
   <v>       0.50131870       0.83448946       0.00007398 </v>
   <v>       0.50013055       0.83365702       0.33346687 </v>
   <v>       0.50013054       0.83366794       0.66646006 </v>
   <v>       0.83303999       0.16665324       0.00007467 </v>
   <v>       0.83319720       0.16664697       0.33345520 </v>
   <v>       0.83318414       0.16664692       0.66646934 </v>
   <v>       0.83199758       0.49884349       0.00007332 </v>
   <v>       0.83316027       0.49967150       0.33346481 </v>
   <v>       0.83316491       0.49967197       0.66646156 </v>
   <v>       0.83202338       0.83449189       0.00007366 </v>
   <v>       0.83317002       0.83367868       0.33347211 </v>
   <v>       0.83317424       0.83367450       0.66645638 </v>
   <v>       0.99972700       0.16668097       0.00014533 </v>
   <v>       0.00016760       0.16667597       0.33309445 </v>
   <v>       0.00016760       0.16667463       0.66675572 </v>
   <v>       0.00284679       0.50426791       0.99857720 </v>
   <v>       0.00054224       0.50039600       0.33268601 </v>
   <v>       0.00054067       0.50196054       0.66873236 </v>
   <v>       0.00285949       0.82906125       0.99858054 </v>
   <v>       0.00054824       0.83292339       0.33268869 </v>
   <v>       0.00054664       0.83135739       0.66872778 </v>
   <v>       0.33351811       0.16667836       0.99991736 </v>
   <v>       0.33311999       0.16667246       0.33310265 </v>
   <v>       0.33305943       0.16667107       0.66697784 </v>
   <v>       0.33016892       0.50310974       0.99972925 </v>
   <v>       0.33265996       0.50062501       0.33268905 </v>
   <v>       0.33245581       0.50081434       0.66758709 </v>
   <v>       0.33018544       0.83021464       0.99972889 </v>
   <v>       0.33266763       0.83269955       0.33269524 </v>
   <v>       0.33246334       0.83250146       0.66758109 </v>
   <v>       0.66680088       0.16667269       0.99991775 </v>
   <v>       0.66672807       0.16666836       0.33321930 </v>
   <v>       0.66678766       0.16666810       0.66686070 </v>
   <v>       0.66700198       0.49997959       0.99972954 </v>
   <v>       0.66679112       0.50024740       0.33309446 </v>
  