 vasp.6.4.2 20Jul23 (build Jun  3 2025 15:36:07) complex                         
 executed on              LinuxNV date 2025.06.06  14:52:50
 running    5 mpi-ranks, with    1 threads/rank, on    5 nodes
 each image running on    1 cores
 distrk:  each k-point on    1 cores,    1 groups
 distr:  one band on NCORE=   1 cores,    1 groups
 OpenACC runtime initialized ...    5 GPUs detected


--------------------------------------------------------------------------------------------------------


 INCAR:
   SYSTEM = Si
   ISTART = 0
   ICHARG = 0
   NCORE = 8
   ISPIN = 2
   NELM = 20
   ENCUT = 400
   PREC = Accurate
   ISMEAR = 0
   SIGMA = 0.01
   EDIFF = 1E-10
   ALGO = Normal
   NELECT = 1072
   IBRION = 3
   NSW = 500
   POTIM = 0
   ISIF = 0
   IOPT = 1
   EDIFFG = -0.010
   ICHAIN = 0
   IMAGES = 5
   SPRING = -5.0
   LCLIMB = .FALSE.

 POTCAR:    PAW_PBE Li_sv 10Sep2004               
 POTCAR:    PAW_PBE F 08Apr2002                   
 -----------------------------------------------------------------------------
|                                                                             |
|           W    W    AA    RRRRR   N    N  II  N    N   GGGG   !!!           |
|           W    W   A  A   R    R  NN   N  II  NN   N  G    G  !!!           |
|           W    W  A    A  R    R  N N  N  II  N N  N  G       !!!           |
|           W WW W  AAAAAA  RRRRR   N  N N  II  N  N N  G  GGG   !            |
|           WW  WW  A    A  R   R   N   NN  II  N   NN  G    G                |
|           W    W  A    A  R    R  N    N  II  N    N   GGGG   !!!           |
|                                                                             |
|     You use a magnetic or noncollinear calculation, but did not specify     |
|     the initial magnetic moment with the MAGMOM tag. Note that a            |
|     default of 1 will be used for all atoms. This ferromagnetic setup       |
|     may break the symmetry of the crystal, in particular it may rule        |
|     out finding an antiferromagnetic solution. Thence, we recommend         |
|     setting the initial magnetic moment manually or verifying carefully     |
|     that this magnetic setup is desired.                                    |
|                                                                             |
 -----------------------------------------------------------------------------

 POTCAR:    PAW_PBE Li_sv 10Sep2004               
   SHA256 =  7e51fe1804c037e1dccc81a9c376d94d693a7559600c847f4b41960edb8ab895 Li_sv/POTCAR          
   COPYR  = (c) Copyright 10Sep2004 Georg Kresse                                                    
   COPYR  = This file is part of the software VASP. Any use, copying, and all other rights are regul
   COPYR  = If you do not have a valid VASP license, you may not use, copy or distribute this file. 
   VRHFIN =Li: 1s2s2p                                                                               
   LEXCH  = PE                                                                                      
   EATOM  =   202.7858 eV,   14.9043 Ry                                                             
                                                                                                    
   TITEL  = PAW_PBE Li_sv 10Sep2004                                                                 
   LULTRA =        F    use ultrasoft PP ?                                                          
   IUNSCR =        0    unscreen: 0-lin 1-nonlin 2-no                                               
   RPACOR =    0.000    partial core radius                                                         
   POMASS =    7.010; ZVAL   =    3.000    mass and valenz                                          
   RCORE  =    1.700    outmost cutoff radius                                                       
   RWIGS  =    2.050; RWIGS  =    1.085    wigner-seitz radius (au A)                               
   ENMAX  =  499.034; ENMIN  =  374.276 eV                                                          
   ICORE  =        2    local potential                                                             
   LCOR   =        T    correct aug charges                                                         
   LPAW   =        T    paw PP                                                                      
   EAUG   =  628.945                                                                                
   RMAX   =    1.732    core radius for proj-oper                                                   
   RAUG   =    1.300    factor for augmentation sphere                                              
   RDEP   =    1.728    radius for radial grids                                                     
   RDEPT  =    1.329    core radius for aug-charge                                                  
                                                                                                    
   Atomic configuration                                                                             
    4 entries                                                                                       
     n  l   j            E        occ.                                                              
     1  0  0.50       -51.8549   2.0000                                                             
     2  0  0.50        -2.8742   1.0000                                                             
     2  1  0.50        -1.3606   0.0000                                                             
     3  2  1.50        -1.3606   0.0000                                                             
   Description                                                                                      
     l       E           TYP  RCUT    TYP  RCUT                                                     
     0    -51.8548813     23  1.400                                                                 
     0     -2.8742052     23  1.700                                                                 
     1     -1.3605826     23  1.400                                                                 
     2     -1.3605826     23  1.400                                                                 
  local pseudopotential read in
  atomic valenz-charges read in
  non local Contribution for L=            0  read in
    real space projection operators read in
  non local Contribution for L=            0  read in
    real space projection operators read in
  non local Contribution for L=            1  read in
    real space projection operators read in
    PAW grid and wavefunctions read in
 
   number of l-projection  operators is LMAX  =            3
   number of lm-projection operators is LMMAX =            5
 
 POTCAR:    PAW_PBE F 08Apr2002                   
   SHA256 =  53c630871ac675939349fc2b976745ee17808dedc90b5bdde026bc81f0faf456 F/POTCAR              
   COPYR  = (c) Copyright 08Apr2002 Georg Kresse                                                    
   COPYR  = This file is part of the software VASP. Any use, copying, and all other rights are regul
   COPYR  = If you do not have a valid VASP license, you may not use, copy or distribute this file. 
   VRHFIN =F: s2p5                                                                                  
   LEXCH  = PE                                                                                      
   EATOM  =   659.6475 eV,   48.4827 Ry                                                             
                                                                                                    
   TITEL  = PAW_PBE F 08Apr2002                                                                     
   LULTRA =        F    use ultrasoft PP ?                                                          
   IUNSCR =        1    unscreen: 0-lin 1-nonlin 2-no                                               
   RPACOR =    1.200    partial core radius                                                         
   POMASS =   18.998; ZVAL   =    7.000    mass and valenz                                          
   RCORE  =    1.520    outmost cutoff radius                                                       
   RWIGS  =    1.500; RWIGS  =    0.794    wigner-seitz radius (au A)                               
   ENMAX  =  400.000; ENMIN  =  300.000 eV                                                          
   ICORE  =        2    local potential                                                             
   LCOR   =        T    correct aug charges                                                         
   LPAW   =        T    paw PP                                                                      
   EAUG   =  613.614                                                                                
   RMAX   =    1.555    core radius for proj-oper                                                   
   RAUG   =    1.300    factor for augmentation sphere                                              
   RDEP   =    1.539    radius for radial grids                                                     
   RDEPT  =    1.299    core radius for aug-charge                                                  
                                                                                                    
   Atomic configuration                                                                             
    4 entries                                                                                       
     n  l   j            E        occ.                                                              
     1  0  0.50      -663.3661   2.0000                                                             
     2  0  0.50       -29.8995   2.0000                                                             
     2  1  0.50       -11.1114   5.0000                                                             
     3  2  1.50       -10.8847   0.0000                                                             
   Description                                                                                      
     l       E           TYP  RCUT    TYP  RCUT                                                     
     0    -29.8995018     23  1.200                                                                 
     0     -9.5240782     23  1.200                                                                 
     1    -11.1113914     23  1.520                                                                 
     1      1.3605826     23  1.520                                                                 
     2    -10.8846608      7  1.500                                                                 
  local pseudopotential read in
  partial core-charges read in
  partial kinetic energy density read in
  atomic valenz-charges read in
  non local Contribution for L=            0  read in
    real space projection operators read in
  non local Contribution for L=            0  read in
    real space projection operators read in
  non local Contribution for L=            1  read in
    real space projection operators read in
  non local Contribution for L=            1  read in
    real space projection operators read in
    PAW grid and wavefunctions read in
 
   number of l-projection  operators is LMAX  =            4
   number of lm-projection operators is LMMAX =            8
 
 -----------------------------------------------------------------------------
|                                                                             |
|               ----> ADVICE to this user running VASP <----                  |
|                                                                             |
|     You have a (more or less) 'large supercell' and for larger cells it     |
|     might be more efficient to use real-space projection operators.         |
|     Therefore, try LREAL= Auto in the INCAR file.                           |
|     Mind: For very accurate calculation, you might also keep the            |
|     reciprocal projection scheme (i.e. LREAL=.FALSE.).                      |
|                                                                             |
 -----------------------------------------------------------------------------

  PAW_PBE Li_sv 10Sep2004               :
 energy of atom  1       EATOM= -202.7858
 kinetic energy error for atom=    0.0926 (will be added to EATOM!!)
  PAW_PBE F 08Apr2002                   :
 energy of atom  2       EATOM= -659.6475
 kinetic energy error for atom=    0.1978 (will be added to EATOM!!)
 
 
 POSCAR: Li   F
  positions in direct lattice
  No initial velocities read in
 exchange correlation table for  LEXCH =        8
   RHO(1)=    0.500       N(1)  =     2000
   RHO(2)=  100.500       N(2)  =     4000

 VTST: version 4.1, (05/19/21)

 CHAIN: initializing optimizer
 
 OPT: Using LBFGS optimizer
 OPT: LBFGS, Init
 OPT: LBFGS, MEMORY             20
 OPT: LBFGS, IMAGES              5
 OPT: LBFGS, MAXMOVE      0.200000
 OPT: LBFGS, LGLOBAL      T
 OPT: LBFGS, INVCURV      0.010000
 OPT: LBFGS, LLINEOPT      F
 OPT: LBFGS, FDSTEP       0.005000
 OPT: LBFGS, LAUTOSCALE      T
 OPT: LBFGS, DAMPING      2.000000
 
 CHAIN: Read ICHAIN             0
 CHAIN: Running the NEB
 NEB:          SPRING     -5.000000
 NEB:          LCLIMB      F
 NEB:     LTANGENTOLD      F
 NEB:           LDNEB      F
 NEB:        LDNEBORG      F
 NEB:        LNEBCELL      F
 NEB:          EFIRST      0.000000
 NEB:           ELAST      0.000000
 
 POSCAR: Li   F
  positions in direct lattice
  No initial velocities read in
 
 POSCAR: Li   F
  positions in direct lattice
  No initial velocities read in
 
 POSCAR: Li   F
  positions in direct lattice
  No initial velocities read in
 
 POSCAR: Li   F
  positions in direct lattice
  No initial velocities read in
 


--------------------------------------------------------------------------------------------------------


 ion  position               nearest neighbor table
   1  1.000  0.002  0.001- 189 1.43 136 1.99 109 1.99 207 2.00 138 2.03 115 2.09
   2  1.000  0.000  0.333- 110 2.01 208 2.01 116 2.01 137 2.02 136 2.02 190 2.12
   3  1.000  0.002  0.665- 137 1.99 111 1.99 209 2.00 138 2.03 117 2.08 191 2.11
   4  1.000  0.331  0.001- 162 1.93 139 1.99 109 1.99 210 2.00 141 2.03 112 2.09 192 2.22
   5  1.000  0.333  0.333- 110 2.01 211 2.01 113 2.01 140 2.02 139 2.02 193 2.12
   6  1.000  0.332  0.665- 140 1.99 111 1.99 212 2.00 141 2.03 114 2.08 194 2.11
   7  0.997  0.667  0.014- 142 1.87 213 1.95 112 1.97 115 1.97
   8  1.000  0.667  0.334- 143 1.98 142 1.99 214 2.01 113 2.02 116 2.02 196 2.02
   9  1.000  0.667  0.652- 143 1.87 215 1.98 114 1.98 117 1.98 197 1.98
  10  0.334  0.000  0.000- 144 1.65 198 2.01 118 2.01 124 2.04
  11  0.334  0.000  0.333- 145 1.34 199 2.01 119 2.01 125 2.02 190 2.13
  12  0.334  0.000  0.666- 146 1.35 200 2.01 120 2.01 126 2.03 191 2.13
  13  0.334  0.333  0.000- 147 1.49 201 2.01 118 2.01 121 2.04 192 2.24
  14  0.334  0.333  0.333- 148 1.34 202 2.01 119 2.01 122 2.02 193 2.13
  15  0.334  0.333  0.666- 149 1.35 203 2.01 120 2.01 123 2.02 194 2.13
  16  0.338  0.667  0.001- 150 1.48 204 1.97 121 2.00 124 2.00
  17  0.334  0.667  0.334- 151 1.34 205 2.00 122 2.01 125 2.01 196 2.02
  18  0.335  0.667  0.665- 152 1.36 206 1.99 123 2.00 126 2.00 197 2.08
  19  0.667  0.000  0.000- 153 1.65 127 2.01 198 2.01 133 2.02 207 2.03
  20  0.667  0.000  0.333- 154 1.34 128 2.01 199 2.01 134 2.02 208 2.02
  21  0.667  0.000  0.666- 155 1.35 129 2.01 200 2.01 209 2.02 135 2.02
  22  0.667  0.333  0.000- 156 1.49 127 2.01 201 2.01 130 2.02 210 2.03
  23  0.667  0.333  0.333- 157 1.34 128 2.01 202 2.01 131 2.02 211 2.02
  24  0.666  0.333  0.666- 158 1.35 129 2.01 203 2.01 132 2.02 212 2.02
  25  0.665  0.667  0.001- 159 1.48 204 1.99 130 2.01 133 2.01 213 2.07
  26  0.666  0.667  0.333- 160 1.35 131 2.01 134 2.01 205 2.01 214 2.01
  27  0.665  0.667  0.665- 161 1.36 206 2.00 132 2.00 135 2.01 215 2.08
  28  1.000  0.167  0.167- 162 1.58 110 2.01 109 2.01 136 2.02 139 2.02
  29  1.000  0.167  0.500- 110 2.01 111 2.01 137 2.02 140 2.02 181 2.12 163 2.12
  30  1.000  0.167  0.833- 138 1.98 141 1.98 111 2.02 109 2.02 182 2.13 164 2.13
  31  1.000  0.499  0.168- 139 1.99 113 1.99 142 2.03 112 2.08 183 2.22 165 2.22
  32  1.000  0.499  0.498- 140 1.99 113 2.00 143 2.03 114 2.08 184 2.10 166 2.11
  33  1.000  0.486  0.833- 141 1.87 114 1.98 112 1.98 185 2.09 167 2.09
  34  1.000  0.835  0.168- 136 1.99 116 1.99 142 2.03 115 2.08 168 2.23 186 2.23
  35  1.000  0.835  0.498- 137 1.99 116 2.00 143 2.03 117 2.08 187 2.10 169 2.11
  36  1.000  0.847  0.833- 138 1.87 117 1.98 115 1.98 188 2.09 170 2.09
  37  0.334  0.167  0.167- 147 1.50 171 1.64 119 2.01 118 2.02
  38  0.334  0.167  0.500- 119 2.01 120 2.02 172 2.12 163 2.12 145 2.13 148 2.13
  39  0.334  0.167  0.833- 120 2.01 118 2.01 173 2.12 164 2.12 146 2.13 149 2.13
  40  0.334  0.500  0.167- 150 1.51 122 2.01 121 2.02 174 2.22 165 2.24
  41  0.334  0.500  0.500- 122 2.01 123 2.03 148 2.11 175 2.12 151 2.13 166 2.13
  42  0.335  0.499  0.833- 123 2.00 121 2.01 149 2.10 176 2.10 152 2.14 167 2.18
  43  0.334  0.834  0.167- 144 1.63 125 2.01 124 2.02 177 2.22 168 2.24
  44  0.334  0.834  0.500- 125 2.01 126 2.03 145 2.11 178 2.12 151 2.13 169 2.13
  45  0.335  0.835  0.833- 126 2.00 124 2.01 146 2.10 179 2.10 152 2.14 170 2.18
  46  0.667  0.167  0.167- 156 1.51 180 1.65 128 2.01 127 2.02
  47  0.667  0.167  0.500- 128 2.01 129 2.02 172 2.12 154 2.12 157 2.12 181 2.13
  48  0.666  0.167  0.833- 129 2.01 127 2.01 173 2.12 182 2.12 155 2.13 158 2.13
  49  0.667  0.500  0.167- 159 1.51 131 2.01 130 2.02 174 2.22 183 2.24
  50  0.667  0.500  0.500- 131 2.01 132 2.02 157 2.11 175 2.12 160 2.12 184 2.13
  51  0.665  0.499  0.833- 132 2.00 130 2.01 158 2.10 176 2.10 161 2.14 185 2.18
  52  0.667  0.834  0.167- 153 1.64 134 2.01 133 2.02 177 2.23 186 2.24
  53  0.667  0.834  0.500- 134 2.01 135 2.02 154 2.11 178 2.12 160 2.12 187 2.13
  54  0.665  0.835  0.833- 135 2.00 133 2.01 155 2.10 179 2.10 161 2.14 188 2.18
  55  0.167  0.000  0.167- 190 1.34 144 1.65 136 2.02
  56  0.167  0.000  0.500- 191 1.35 137 2.02 145 2.11 163 2.12 169 2.14
  57  0.168  0.002  0.833- 189 1.85 138 2.03 146 2.10 164 2.10 170 2.18
  58  0.167  0.333  0.167- 193 1.34 165 1.52 162 1.58 139 2.02 147 2.22
  59  0.167  0.333  0.500- 194 1.35 140 2.02 148 2.11 163 2.12 166 2.14
  60  0.168  0.331  0.833- 192 1.48 141 2.03 149 2.10 164 2.10 167 2.18
  61  0.168  0.667  0.171- 168 1.53 196 1.97 142 2.02 150 2.22
  62  0.168  0.667  0.498- 196 1.99 143 2.03 197 2.07 151 2.09 166 2.10 169 2.10
  63  0.181  0.667  0.831- 195 1.51 197 1.95 152 1.98 167 2.08 170 2.08
  64  0.500  0.000  0.167- 171 1.63 153 1.64 199 2.01 198 2.02
  65  0.500  0.000  0.500- 199 2.01 200 2.02 172 2.12 154 2.12 145 2.13 178 2.13
  66  0.500  0.000  0.833- 200 2.01 198 2.01 173 2.12 179 2.12 155 2.13 146 2.13
  67  0.500  0.333  0.167- 174 1.51 202 2.01 201 2.02 156 2.23 147 2.23
  68  0.500  0.333  0.500- 202 2.01 203 2.02 172 2.12 157 2.12 148 2.13 175 2.13
  69  0.500  0.333  0.833- 203 2.01 201 2.01 173 2.12 176 2.12 158 2.13 149 2.13
  70  0.500  0.667  0.167- 177 1.50 205 2.00 204 2.02 159 2.23 150 2.24
  71  0.500  0.667  0.500- 205 2.01 206 2.01 175 2.12 178 2.12 160 2.12 151 2.14
  72  0.500  0.667  0.833- 206 2.01 204 2.02 161 2.09 152 2.09 176 2.12 179 2.12
  73  0.833  0.000  0.167- 180 1.64 208 2.01 136 2.02 207 2.02
  74  0.833  0.000  0.500- 208 2.01 137 2.02 209 2.02 154 2.11 181 2.12 187 2.13
  75  0.832  0.002  0.833- 209 2.00 207 2.01 138 2.03 155 2.10 182 2.10 188 2.18
  76  0.833  0.333  0.167- 183 1.51 211 2.01 139 2.02 210 2.02 156 2.22
  77  0.833  0.333  0.500- 211 2.01 140 2.02 212 2.02 157 2.11 181 2.12 184 2.13
  78  0.832  0.332  0.833- 212 2.00 210 2.01 141 2.03 158 2.10 182 2.10 185 2.18
  79  0.832  0.667  0.169- 186 1.51 214 1.99 142 2.04 213 2.08 159 2.21
  80  0.832  0.667  0.498- 214 1.99 143 2.03 215 2.08 160 2.09 184 2.10 187 2.10
  81  0.819  0.667  0.833- 215 1.98 213 1.98 161 1.99 185 2.09 188 2.09
  82  0.167  0.167  0.000- 192 1.51 162 1.95 118 2.01 109 2.02
  83  0.167  0.167  0.333- 163 1.35 119 2.01 110 2.01 190 2.12 193 2.12
  84  0.167  0.167  0.666- 164 1.35 120 2.01 111 2.01 191 2.13 194 2.13
  85  0.167  0.497  0.000- 165 1.47 195 1.55 121 1.99 112 2.01
  86  0.167  0.500  0.334- 166 1.34 122 2.01 113 2.01 196 2.02 193 2.12
  87  0.167  0.500  0.666- 167 1.35 123 2.00 114 2.01 197 2.02 194 2.10
  88  0.167  0.836  0.000- 168 1.51 189 1.80 124 1.99 115 2.01
  89  0.167  0.834  0.334- 169 1.34 125 2.01 116 2.01 196 2.02 190 2.12
  90  0.167  0.834  0.666- 170 1.35 126 2.00 117 2.01 197 2.02 191 2.10
  91  0.500  0.167  0.000- 171 1.65 127 2.02 118 2.02 198 2.02 201 2.02
  92  0.500  0.167  0.333- 172 1.34 128 2.01 199 2.02 202 2.02 119 2.02
  93  0.500  0.167  0.666- 173 1.34 129 2.02 200 2.02 120 2.02 203 2.02
  94  0.500  0.500  0.000- 174 1.49 201 2.00 204 2.02 130 2.02 121 2.04
  95  0.500  0.500  0.333- 175 1.34 202 2.01 205 2.02 131 2.02 122 2.02
  96  0.500  0.500  0.666- 176 1.34 203 2.01 206 2.02 132 2.02 123 2.02
  97  0.500  0.834  0.000- 177 1.50 198 2.00 204 2.02 133 2.02 124 2.04
  98  0.500  0.834  0.333- 178 1.34 199 2.01 205 2.02 134 2.02 125 2.02
  99  0.500  0.834  0.666- 179 1.34 200 2.01 206 2.02 135 2.02 126 2.02
 100  0.833  0.167  0.000- 180 1.64 127 2.01 109 2.02 207 2.02 210 2.02
 101  0.833  0.167  0.333- 181 1.34 128 2.01 110 2.02 208 2.02 211 2.02
 102  0.833  0.167  0.666- 182 1.34 129 2.01 111 2.02 209 2.02 212 2.02
 103  0.833  0.500  0.000- 183 1.48 210 2.00 130 2.00 213 2.02 112 2.03
 104  0.833  0.500  0.333- 184 1.35 211 2.01 131 2.01 214 2.02 113 2.02
 105  0.833  0.500  0.666- 185 1.35 212 2.00 132 2.00 215 2.02 114 2.02
 106  0.833  0.834  0.000- 186 1.50 207 2.00 133 2.00 213 2.02 115 2.03
 107  0.833  0.834  0.333- 187 1.35 208 2.01 134 2.01 214 2.02 116 2.02
 108  0.833  0.834  0.666- 188 1.35 209 2.00 135 2.00 215 2.02 117 2.02
 109  1.000  0.167  0.000-   1 1.99   4 1.99  28 2.01 100 2.02  82 2.02  30 2.02
 110  0.000  0.167  0.333-  28 2.01   2 2.01   5 2.01  29 2.01  83 2.01 101 2.02
 111  0.000  0.167  0.666-   3 1.99   6 1.99  29 2.01  84 2.01 102 2.02  30 2.02
 112  0.001  0.504  0.996-   7 1.97  33 1.98  85 2.01 103 2.03  31 2.08   4 2.09
 113  0.000  0.500  0.333-  31 1.99  32 2.00  86 2.01   5 2.01   8 2.02 104 2.02
 114  0.000  0.504  0.670-  33 1.98   9 1.98  87 2.01 105 2.02   6 2.08  32 2.08
 115  0.001  0.829  0.996-   7 1.97  36 1.98  88 2.01 106 2.03  34 2.08   1 2.09
 116  0.000  0.834  0.333-  34 1.99  35 2.00  89 2.01   2 2.01   8 2.02 107 2.02
 117  0.000  0.830  0.670-  36 1.98   9 1.98  90 2.01 108 2.02  35 2.08   3 2.08
 118  0.333  0.167  1.000- 147 1.90  10 2.01  13 2.01  82 2.01  39 2.01  91 2.02  37 2.02
 119  0.333  0.167  0.333-  83 2.01  37 2.01  11 2.01  14 2.01  38 2.01  92 2.02
 120  0.333  0.167  0.667-  84 2.01  39 2.01  12 2.01  15 2.01  93 2.02  38 2.02
 121  0.332  0.501  0.999- 150 1.89  85 1.99  16 2.00  42 2.01  40 2.02  13 2.04  94 2.04
 122  0.333  0.500  0.333-  86 2.01  17 2.01  40 2.01  41 2.01  95 2.02  14 2.02
 123  0.332  0.501  0.668-  87 2.00  42 2.00  18 2.00  15 2.02  96 2.02  41 2.03
 124  0.332  0.832  0.999-  88 1.99  16 2.00  45 2.01  43 2.02  97 2.04  10 2.04
 125  0.333  0.833  0.333-  89 2.01  43 2.01  17 2.01  44 2.01  98 2.02  11 2.02
 126  0.332  0.833  0.668-  90 2.00  45 2.00  18 2.00  99 2.02  44 2.03  12 2.03
 127  0.667  0.167  1.000- 156 1.90 100 2.01  19 2.01  22 2.01  48 2.01  91 2.02  46 2.02
 128  0.667  0.167  0.333- 101 2.01  46 2.01  20 2.01  23 2.01  47 2.01  92 2.01
 129  0.667  0.167  0.667- 102 2.01  48 2.01  21 2.01  24 2.01  93 2.02  47 2.02
 130  0.667  0.501  0.999- 159 1.89 103 2.00  51 2.01  25 2.01  94 2.02  22 2.02  49 2.02
 131  0.667  0.500  0.333- 104 2.01  26 2.01  49 2.01  50 2.01  95 2.02  23 2.02
 132  0.667  0.501  0.667- 105 2.00  51 2.00  27 2.00  96 2.02  24 2.02  50 2.02
 133  0.667  0.833  0.999- 106 2.00  54 2.01  25 2.01  97 2.02  52 2.02  19 2.02
 134  0.667  0.833  0.333- 107 2.01  52 2.01  26 2.01  53 2.01  98 2.02  20 2.02
 135  0.667  0.833  0.667- 108 2.00  54 2.00  27 2.01  99 2.02  53 2.02  21 2.02
 136  0.000  0.999  0.166-  34 1.99   1 1.99  55 2.02  73 2.02  28 2.02   2 2.02
 137  0.000  0.999  0.501-  35 1.99   3 1.99  56 2.02  74 2.02   2 2.02  29 2.02
 138  0.000  0.002  0.833-  36 1.87  30 1.98  57 2.03   1 2.03  75 2.03   3 2.03
 139  0.000  0.334  0.166- 162 1.58  31 1.99   4 1.99  58 2.02  76 2.02  28 2.02   5 2.02
 140  0.000  0.334  0.501-  32 1.99   6 1.99  59 2.02  77 2.02   5 2.02  29 2.02
 141  0.000  0.331  0.833-  33 1.87  30 1.98  60 2.03   4 2.03  78 2.03   6 2.03
 142  0.001  0.667  0.169-   7 1.87   8 1.99  61 2.02  34 2.03  31 2.03  79 2.04
 143  1.000  0.667  0.497-   9 1.87   8 1.98  80 2.03  62 2.03  35 2.03  32 2.03
 144  0.278  0.944  0.112-  43 1.63  55 1.65  10 1.65
 145  0.333  1.000  0.445-  11 1.34  44 2.11  56 2.11  38 2.13  65 2.13
 146  0.333  0.999  0.778-  12 1.35  57 2.10  45 2.10  39 2.13  66 2.13
 147  0.333  0.278  0.111-  13 1.49  37 1.50 118 1.90  58 2.22  67 2.23
 148  0.333  0.334  0.445-  14 1.34  41 2.11  59 2.11  68 2.13  38 2.13
 149  0.333  0.334  0.778-  15 1.35  42 2.10  60 2.10  69 2.13  39 2.13
 150  0.333  0.611  0.111-  16 1.48  40 1.51 121 1.89  61 2.22  70 2.24
 151  0.332  0.667  0.444-  17 1.34  62 2.09  41 2.13  44 2.13  71 2.14
 152  0.336  0.667  0.778-  18 1.36  63 1.98  72 2.09  45 2.14  42 2.14
 153  0.611  0.944  0.112-  52 1.64  64 1.64  19 1.65
 154  0.667  1.000  0.445-  20 1.34  53 2.11  74 2.11  65 2.12  47 2.12
 155  0.667  0.999  0.778-  21 1.35  54 2.10  75 2.10  66 2.13  48 2.13
 156  0.667  0.278  0.111-  22 1.49  46 1.51 127 1.90  76 2.22  67 2.23
 157  0.667  0.334  0.445-  23 1.34  50 2.11  77 2.11  68 2.12  47 2.12
 158  0.667  0.334  0.778-  24 1.35  51 2.10  78 2.10  69 2.13  48 2.13
 159  0.667  0.611  0.111-  25 1.48  49 1.51 130 1.89  79 2.21  70 2.23
 160  0.667  0.667  0.445-  26 1.35  80 2.09  50 2.12  53 2.12  71 2.12
 161  0.664  0.667  0.778-  27 1.36  81 1.99  72 2.09  54 2.14  51 2.14
 162  0.083  0.250  0.111- 139 1.58  28 1.58  58 1.58   4 1.93  82 1.95
 163  0.166  0.167  0.445-  83 1.35  29 2.12  56 2.12  59 2.12  38 2.12
 164  0.167  0.167  0.778-  84 1.35  57 2.10  60 2.10  39 2.12  30 2.13
 165  0.166  0.445  0.110-  85 1.47  58 1.52  31 2.22  40 2.24
 166  0.166  0.501  0.445-  86 1.34  62 2.10  32 2.11  41 2.13  59 2.14
 167  0.163  0.503  0.778-  87 1.35  63 2.08  33 2.09  42 2.18  60 2.18
 168  0.166  0.778  0.111-  88 1.51  61 1.53  34 2.23  43 2.24
 169  0.166  0.832  0.445-  89 1.34  62 2.10  35 2.11  44 2.13  56 2.14
 170  0.163  0.830  0.778-  90 1.35  63 2.08  36 2.09  45 2.18  57 2.18
 171  0.444  0.110  0.112-  64 1.63  37 1.64  91 1.65
 172  0.500  0.167  0.445-  92 1.34  38 2.12  68 2.12  65 2.12  47 2.12
 173  0.500  0.167  0.778-  93 1.34  39 2.12  66 2.12  69 2.12  48 2.12
 174  0.500  0.445  0.111-  94 1.49  67 1.51 201 1.90  40 2.22  49 2.22
 175  0.500  0.500  0.445-  95 1.34  71 2.12  41 2.12  50 2.12  68 2.13
 176  0.500  0.500  0.778-  96 1.34  42 2.10  51 2.10  69 2.12  72 2.12
 177  0.500  0.778  0.111-  97 1.50  70 1.50 204 1.89  43 2.22  52 2.23
 178  0.500  0.833  0.445-  98 1.34  71 2.12  44 2.12  53 2.12  65 2.13
 179  0.500  0.834  0.778-  99 1.34  45 2.10  54 2.10  66 2.12  72 2.12
 180  0.778  0.111  0.111- 100 1.64  73 1.64  46 1.65
 181  0.834  0.167  0.445- 101 1.34  29 2.12  74 2.12  77 2.12  47 2.13
 182  0.833  0.167  0.778- 102 1.34  75 2.10  78 2.10  48 2.12  30 2.13
 183  0.834  0.445  0.110- 103 1.48  76 1.51 210 1.90  31 2.22  49 2.24
 184  0.834  0.501  0.445- 104 1.35  32 2.10  80 2.10  77 2.13  50 2.13
 185  0.837  0.504  0.778- 105 1.35  33 2.09  81 2.09  78 2.18  51 2.18
 186  0.834  0.777  0.110- 106 1.50  79 1.51  34 2.23  52 2.24
 187  0.834  0.833  0.445- 107 1.35  35 2.10  80 2.10  74 2.13  53 2.13
 188  0.837  0.830  0.778- 108 1.35  36 2.09  81 2.09  54 2.18  75 2.18
 189  0.111  0.971  0.972-   1 1.43  88 1.80  57 1.85
 190  0.166  0.000  0.278-  55 1.34  83 2.12   2 2.12  89 2.12  11 2.13
 191  0.166  0.999  0.612-  56 1.35  90 2.10   3 2.11  84 2.13  12 2.13
 192  0.166  0.278  0.944-  60 1.48  82 1.51   4 2.22  13 2.24
 193  0.166  0.333  0.278-  58 1.34  83 2.12   5 2.12  86 2.12  14 2.13
 194  0.166  0.334  0.612-  59 1.35  87 2.10   6 2.11  15 2.13  84 2.13
 195  0.163  0.611  0.941-  63 1.51  85 1.55
 196  0.167  0.667  0.334-  61 1.97  62 1.99  17 2.02  86 2.02  89 2.02   8 2.02
 197  0.163  0.667  0.670-  63 1.95   9 1.98  87 2.02  90 2.02  62 2.07  18 2.08
 198  0.500  1.000  1.000-  97 2.00  10 2.01  66 2.01  19 2.01  64 2.02  91 2.02
 199  0.500  1.000  0.333-  98 2.01  11 2.01  64 2.01  20 2.01  65 2.01  92 2.02
 200  0.500  1.000  0.667-  99 2.01  66 2.01  12 2.01  21 2.01  93 2.02  65 2.02
 201  0.500  0.334  1.000- 174 1.90  94 2.00  13 2.01  69 2.01  22 2.01  67 2.02  91 2.02
 202  0.500  0.334  0.333-  95 2.01  14 2.01  67 2.01  23 2.01  68 2.01  92 2.02
 203  0.500  0.334  0.667-  96 2.01  69 2.01  15 2.01  24 2.01  93 2.02  68 2.02
 204  0.501  0.667  0.000- 177 1.89  16 1.97  25 1.99  70 2.02  94 2.02  97 2.02  72 2.02
 205  0.500  0.667  0.333-  17 2.00  70 2.00  26 2.01  71 2.01  95 2.02  98 2.02
 206  0.500  0.667  0.666-  18 1.99  27 2.00  72 2.01  71 2.01  96 2.02  99 2.02
 207  0.834  0.999  0.999- 106 2.00   1 2.00  75 2.01  73 2.02 100 2.02  19 2.03
 208  0.834  1.000  0.333- 107 2.01   2 2.01  73 2.01  74 2.01 101 2.02  20 2.02
 209  0.834  0.999  0.667- 108 2.00   3 2.00  75 2.00 102 2.02  74 2.02  21 2.02
 210  0.834  0.334  0.999- 183 1.90 103 2.00   4 2.00  78 2.01  76 2.02 100 2.02  22 2.03
 211  0.834  0.334  0.333- 104 2.01   5 2.01  76 2.01  77 2.01 101 2.02  23 2.02
 212  0.834  0.334  0.667- 105 2.00   6 2.00  78 2.00 102 2.02  77 2.02  24 2.02
 213  0.836  0.667  0.996-   7 1.95  81 1.98 103 2.02 106 2.02  25 2.07  79 2.08
 214  0.833  0.667  0.333-  79 1.99  80 1.99   8 2.01  26 2.01 104 2.02 107 2.02
 215  0.837  0.667  0.670-   9 1.98  81 1.98 105 2.02 108 2.02  27 2.08  80 2.08
 
  LATTYP: Found a simple cubic cell.
 ALAT       =    12.0789003372
  
  Lattice vectors:
  
 A1 = (  12.0789003372,   0.0000000000,   0.0000000000)
 A2 = (   0.0000000000,  12.0789003372,   0.0000000000)
 A3 = (   0.0000000000,   0.0000000000,  12.0789003372)


Analysis of symmetry for initial positions (statically):
=====================================================================
 Subroutine PRICEL returns:
 Original cell was already a primitive cell.
 

 Routine SETGRP: Setting up the symmetry group for a 
 simple cubic supercell.


 Subroutine GETGRP returns: Found  1 space group operations
 (whereof  1 operations were pure point group operations)
 out of a pool of 48 trial point group operations.


The static configuration has the point symmetry C_1 .


Analysis of symmetry for dynamics (positions and initial velocities):
=====================================================================
 Subroutine PRICEL returns:
 Original cell was already a primitive cell.
 

 Routine SETGRP: Setting up the symmetry group for a 
 simple cubic supercell.


 Subroutine GETGRP returns: Found  1 space group operations
 (whereof  1 operations were pure point group operations)
 out of a pool of 48 trial point group operations.


The dynamic configuration has the point symmetry C_1 .


Analysis of structural, dynamic, and magnetic symmetry:
=====================================================================
 Subroutine PRICEL returns:
 Original cell was already a primitive cell.
 

 Routine SETGRP: Setting up the symmetry group for a 
 simple cubic supercell.


 Subroutine GETGRP returns: Found  1 space group operations
 (whereof  1 operations were pure point group operations)
 out of a pool of 48 trial point group operations.


The overall configuration has the point symmetry C_1 .


 Subroutine INISYM returns: Found  1 space group operations
 (whereof  1 operations are pure point group operations),
 and found     1 'primitive' translations


----------------------------------------------------------------------------------------

                                     Primitive cell                                     

  volume of cell :    1762.3095

  direct lattice vectors                    reciprocal lattice vectors
    12.078900337  0.000000000  0.000000000     0.082788993  0.000000000  0.000000000
     0.000000000 12.078900337  0.000000000     0.000000000  0.082788993  0.000000000
     0.000000000  0.000000000 12.078900337     0.000000000  0.000000000  0.082788993

  length of vectors
    12.078900337 12.078900337 12.078900337     0.082788993  0.082788993  0.082788993

  position of ions in fractional coordinates (direct lattice)
     0.999759145  0.001954927  0.001362875
     0.999943120  0.000366438  0.333360285
     0.999942489  0.001672409  0.665285571
     0.999734770  0.331423998  0.001353749
     0.999935690  0.333001364  0.333372482
     0.999935439  0.331722649  0.665285268
     0.997186996  0.666644310  0.014098823
     0.999729426  0.666645713  0.333666674
     0.999726058  0.666657562  0.652362255
     0.333770327  0.000489180  0.000315110
     0.333546117  0.000173155  0.333380258
     0.333565008  0.000191537  0.666309451
     0.333771212  0.332885814  0.000318082
     0.333548136  0.333199395  0.333383514
     0.333568868  0.333179461  0.666303955
     0.337734890  0.666638925  0.001368561
     0.333939432  0.666642871  0.333669269
     0.335192074  0.666635413  0.665018274
     0.666524080  0.000226364  0.000314669
     0.666528963  0.000165074  0.333368111
     0.666509005  0.000186438  0.666320266
     0.666509257  0.333132695  0.000318068
     0.666517754  0.333202091  0.333377534
     0.666495674  0.333181545  0.666308823
     0.665071587  0.666643067  0.001368428
     0.666326649  0.666645223  0.333416900
     0.665073495  0.666637706  0.665269485
     0.999975578  0.166658691  0.167004614
     0.999969152  0.166670962  0.499666154
     0.999975740  0.166651712  0.833317236
     0.999964433  0.498609924  0.168290398
     0.999964334  0.498600887  0.498370694
     0.999962795  0.485864526  0.833319354
     0.999977627  0.834720342  0.168280374
     0.999964661  0.834721864  0.498359426
     0.999977571  0.847355741  0.833307906
     0.333528557  0.166652134  0.166810154
     0.333509263  0.166656890  0.499863282
     0.333719086  0.166649479  0.833317851
     0.333535414  0.499645305  0.166833301
     0.333527009  0.499648807  0.499840609
     0.334971366  0.498595611  0.833326810
     0.333548424  0.833700210  0.166828309
     0.333535372  0.833694297  0.499840947
     0.334969546  0.834699716  0.833328188
     0.666523157  0.166646142  0.166799483
     0.666524209  0.166653489  0.499862398
     0.666332398  0.166644579  0.833328716
     0.666505160  0.499644719  0.166834253
     0.666512565  0.499655307  0.499839626
     0.665068265  0.498594580  0.833324899
     0.666502079  0.833705001  0.166826082
     0.666504798  0.833688258  0.499840318
     0.665078563  0.834705599  0.833329020
     0.166975709  0.000492277  0.167073028
     0.166966099  0.000226565  0.499840808
     0.167996447  0.001967452  0.833080783
     0.166960153  0.332881862  0.167068169
     0.166959438  0.333135490  0.499837523
     0.167993019  0.331424350  0.833071156
     0.167990877  0.666656618  0.171044014
     0.167981863  0.666648635  0.498361433
     0.180577912  0.666636046  0.830573667
     0.500038925  0.000170581  0.166851064
     0.500032610  0.000162246  0.499865931
     0.500038440  0.000358491  0.833280892
     0.500036300  0.333190039  0.166841901
     0.500028315  0.333184608  0.499862902
     0.500035855  0.332999359  0.833284898
     0.500331306  0.666653669  0.167236850
     0.500066041  0.666658520  0.499673285
     0.500331350  0.666649694  0.833084214
     0.833027257  0.000195218  0.166858650
     0.833011620  0.000186835  0.499839928
     0.832005677  0.001671557  0.833293706
     0.833017568  0.333168686  0.166859011
     0.833014796  0.333171538  0.499836825
     0.831984328  0.331710477  0.833280190
     0.831694765  0.666664152  0.168523678
     0.831956801  0.666650646  0.498359627
     0.819105555  0.666644147  0.833093323
     0.166844597  0.166662169  0.000186705
     0.166793614  0.166651004  0.333418458
     0.166825827  0.166650057  0.666393961
     0.166827485  0.496997663  0.000183355
     0.166827896  0.499539365  0.333660982
     0.166811285  0.499542836  0.666156783
     0.166832789  0.836316707  0.000184525
     0.166826666  0.833803262  0.333668904
     0.166811383  0.833791037  0.666153879
     0.500073705  0.166668249  0.000151781
     0.500031755  0.166656077  0.333371994
     0.500030801  0.166654541  0.666476172
     0.500331803  0.499545025  0.000182817
     0.500032973  0.499785610  0.333363959
     0.500032595  0.499753480  0.666446162
     0.500334754  0.833793103  0.000184243
     0.500035026  0.833561514  0.333376122
     0.500034957  0.833590904  0.666441161
     0.833124214  0.166653216  0.000186957
     0.833185888  0.166647156  0.333375737
     0.833153610  0.166647322  0.666435910
     0.832854651  0.499546015  0.000183054
     0.833142805  0.499750250  0.333371558
     0.833156469  0.499752680  0.666444901
     0.832883496  0.833796710  0.000183679
     0.833151300  0.833603355  0.333379603
     0.833163846  0.833592862  0.666442157
     0.999945564  0.166681085  0.000363687
     0.000044342  0.166676939  0.333266015
     0.000044328  0.166674392  0.666359527
     0.000713249  0.504268025  0.996443304
     0.000136376  0.499771893  0.333160643
     0.000134712  0.503683951  0.670385383
     0.000728360  0.829062990  0.996451412
     0.000141303  0.833560737  0.333166444
     0.000139981  0.829646562  0.670374704
     0.333122029  0.166678667  0.999794173
     0.333157527  0.166672052  0.333275550
     0.333006694  0.166671083  0.666925149
     0.331822601  0.501386448  0.999323590
     0.332901185  0.500341276  0.333166769
     0.332391759  0.500814358  0.667523079
     0.331831553  0.831925211  0.999322138
     0.332909315  0.832994149  0.333173087
     0.332399529  0.832501494  0.667517480
     0.666972244  0.166671906  0.999794504
     0.666810559  0.166668365  0.333301854
     0.666960518  0.166668490  0.666898315
     0.667476618  0.500603810  0.999323730
     0.666963538  0.500247398  0.333266862
     0.667471543  0.500719510  0.667422000
     0.667480996  0.832713588  0.999322011
     0.666960957  0.833092189  0.333271236
     0.667469939  0.832601016  0.667419021
     0.000156625  0.999225483  0.165904166
     0.000040984  0.999343544  0.500601539
     0.000156604  0.002495287  0.833478334
     0.000142267  0.334116764  0.165902657
     0.000040408  0.334014036  0.500617671
     0.000142015  0.330819779  0.833470879
     0.000715407  0.666667840  0.168622879
     0.999928591  0.666661863  0.497347409
     0.278224159  0.944180616  0.111559009
     0.332921985  0.999581179  0.444569158
     0.332676648  0.999324813  0.777777739
     0.332931647  0.277894920  0.110979071
     0.332926017  0.333764465  0.444569891
     0.332676916  0.334013478  0.777780307
     0.332582710  0.611265603  0.110631288
     0.331999636  0.666662491  0.444347636
     0.336022485  0.666650546  0.777790778
     0.610680451  0.944178827  0.111553178
     0.666953005  0.999679489  0.444665729
     0.667301459  0.999353796  0.777783329
     0.666942098  0.277991860  0.110880797
     0.666940863  0.333662842  0.444666039
     0.667289540  0.333980155  0.777781672
     0.667290148  0.611168073  0.110533046
     0.667292831  0.666664564  0.445134458
     0.664057200  0.666654391  0.777792382
     0.083131794  0.250004972  0.110748205
     0.166458851  0.166675842  0.444800507
     0.167032797  0.166672817  0.777779022
     0.165971332  0.445138537  0.110245231
     0.165967319  0.501397804  0.444513294
     0.163084871  0.503476431  0.777783248
     0.165978954  0.777805349  0.111038194
     0.165969782  0.831935600  0.444513213
     0.163095313  0.829846007  0.777782782
     0.444449831  0.110405664  0.111685455
     0.499946673  0.166677308  0.444538052
     0.499978110  0.166672680  0.777779223
     0.499946613  0.444651548  0.110864359
     0.499844057  0.500335265  0.444581001
     0.499947040  0.499677024  0.777777454
     0.499848258  0.777712595  0.110960386
     0.499846375  0.832986431  0.444587691
     0.499948555  0.833652621  0.777783500
     0.777842409  0.110974807  0.110955804
     0.833604168  0.166672580  0.444685618
     0.833013107  0.166668785  0.777782714
     0.834093636  0.445138078  0.110358320
     0.834192234  0.500826921  0.445089486
     0.836974132  0.503590093  0.777784566
     0.834198578  0.777236694  0.110458096
     0.834194745  0.832511826  0.445088836
     0.836982514  0.829735762  0.777786164
     0.110590944  0.971301383  0.971674134
     0.166464981  0.000248274  0.277774362
     0.165972814  0.999092687  0.611670423
     0.165973844  0.278451752  0.943875280
     0.166457040  0.333093698  0.277775897
     0.165969960  0.334249829  0.611668317
     0.163089627  0.611226818  0.941019391
     0.167024363  0.666660612  0.333854206
     0.163084090  0.666656354  0.669701428
     0.499886593  0.999603701  0.999802812
     0.499953478  0.999813695  0.333269209
     0.499953159  0.999664391  0.666933237
     0.499882349  0.333746973  0.999794416
     0.499949392  0.333529581  0.333273359
     0.499948660  0.333678807  0.666924887
     0.500536605  0.666666257  0.000362994
     0.499877762  0.666665537  0.333204528
     0.499877982  0.666660709  0.666430182
     0.834179416  0.999091314  0.999312314
     0.833603527  0.999662980  0.333268755
     0.834093072  0.999162694  0.667410798
     0.834162189  0.334249699  0.999306916
     0.833600342  0.333680705  0.333275722
     0.834084688  0.334178111  0.667402742
     0.836388314  0.666664012  0.996451277
     0.833102499  0.666664314  0.333205454
     0.837038826  0.666660433  0.670349453

  ion indices of the primitive-cell ions
   primitive index   ion index
                 1           1
                 2           2
                 3           3
                 4           4
                 5           5
                 6           6
                 7           7
                 8           8
                 9           9
                10          10
                11          11
                12          12
                13          13
                14          14
                15          15
                16          16
                17          17
                18          18
                19          19
                20          20
                21          21
                22          22
                23          23
                24          24
                25          25
                26          26
                27          27
                28          28
                29          29
                30          30
                31          31
                32          32
                33          33
                34          34
                35          35
                36          36
                37          37
                38          38
                39          39
                40          40
                41          41
                42          42
                43          43
                44          44
                45          45
                46          46
                47          47
                48          48
                49          49
                50          50
                51          51
                52          52
                53          53
                54          54
                55          55
                56          56
                57          57
                58          58
                59          59
                60          60
                61          61
                62          62
                63          63
                64          64
                65          65
                66          66
                67          67
                68          68
                69          69
                70          70
                71          71
                72          72
                73          73
                74          74
                75          75
                76          76
                77          77
                78          78
                79          79
                80          80
                81          81
                82          82
                83          83
                84          84
                85          85
                86          86
                87          87
                88          88
                89          89
                90          90
                91          91
                92          92
                93          93
                94          94
                95          95
                96          96
                97          97
                98          98
                99          99
               100         100
               101         101
               102         102
               103         103
               104         104
               105         105
               106         106
               107         107
               108         108
               109         109
               110         110
               111         111
               112         112
               113         113
               114         114
               115         115
               116         116
               117         117
               118         118
               119         119
               120         120
               121         121
               122         122
               123         123
               124         124
               125         125
               126         126
               127         127
               128         128
               129         129
               130         130
               131         131
               132         132
               133         133
               134         134
               135         135
               136         136
               137         137
               138         138
               139         139
               140         140
               141         141
               142         142
               143         143
               144         144
               145         145
               146         146
               147         147
               148         148
               149         149
               150         150
               151         151
               152         152
               153         153
               154         154
               155         155
               156         156
               157         157
               158         158
               159         159
               160         160
               161         161
               162         162
               163         163
               164         164
               165         165
               166         166
               167         167
               168         168
               169         169
               170         170
               171         171
               172         172
               173         173
               174         174
               175         175
               176         176
               177         177
               178         178
               179         179
               180         180
               181         181
               182         182
               183         183
               184         184
               185         185
               186         186
               187         187
               188         188
               189         189
               190         190
               191         191
               192         192
               193         193
               194         194
               195         195
               196         196
               197         197
               198         198
               199         199
               200         200
               201         201
               202         202
               203         203
               204         204
               205         205
               206         206
               207         207
               208         208
               209         209
               210         210
               211         211
               212         212
               213         213
               214         214
               215         215

----------------------------------------------------------------------------------------

 
 
 KPOINTS: Gamma-point only                        

Automatic generation of k-mesh.
 Grid dimensions read from file:
 generate k-points for:    1    1    1

 Generating k-lattice:

  Cartesian coordinates                     Fractional coordinates (reciprocal lattice)
     0.082788993  0.000000000  0.000000000     1.000000000  0.000000000  0.000000000
     0.000000000  0.082788993  0.000000000     0.000000000  1.000000000  0.000000000
     0.000000000  0.000000000  0.082788993     0.000000000  0.000000000  1.000000000

  Length of vectors
     0.082788993  0.082788993  0.082788993

  Shift w.r.t. Gamma in fractional coordinates (k-lattice)
     0.000000000  0.000000000  0.000000000

 
 Subroutine IBZKPT returns following result:
 ===========================================
 
 Found      1 irreducible k-points:
 
 Following reciprocal coordinates:
            Coordinates               Weight
  0.000000  0.000000  0.000000      1.000000
 
 Following cartesian coordinates:
            Coordinates               Weight
  0.000000  0.000000  0.000000      1.000000
 


--------------------------------------------------------------------------------------------------------




 Dimension of arrays:
   k-points           NKPTS =      1   k-points in BZ     NKDIM =      1   number of bands    NBANDS=    752
   number of dos      NEDOS =    301   number of ions     NIONS =    215
   non local maximal  LDIM  =      4   non local SUM 2l+1 LMDIM =      8
   total plane-waves  NPLWV = 512000
   max r-space proj   IRMAX =      1   max aug-charges    IRDMAX=   3893
   dimension x,y,z NGX =    80 NGY =   80 NGZ =   80
   dimension x,y,z NGXF=   160 NGYF=  160 NGZF=  160
   support grid    NGXF=   160 NGYF=  160 NGZF=  160
   ions per type =             108 107
   NGX,Y,Z   is equivalent  to a cutoff of  11.01, 11.01, 11.01 a.u.
   NGXF,Y,Z  is equivalent  to a cutoff of  22.02, 22.02, 22.02 a.u.

 SYSTEM =  Si                                      
 POSCAR =  Li   F                                  

 Startparameter for this run:
   NWRITE =      2    write-flag & timer
   PREC   = accura    normal or accurate (medium, high low for compatibility)
   ISTART =      0    job   : 0-new  1-cont  2-samecut
   ICHARG =      0    charge: 1-file 2-atom 10-const
   ISPIN  =      2    spin polarized calculation?
   LNONCOLLINEAR =      F non collinear calculations
   LSORBIT =      F    spin-orbit coupling
   INIWAV =      1    electr: 0-lowe 1-rand  2-diag
   LASPH  =      F    aspherical Exc in radial PAW
 Electronic Relaxation 1
   ENCUT  =  400.0 eV  29.40 Ry    5.42 a.u.  19.70 19.70 19.70*2*pi/ulx,y,z
   ENINI  =  400.0     initial cutoff
   ENAUG  =  628.9 eV  augmentation charge cutoff
   NELM   =     20;   NELMIN=  2; NELMDL= -5     # of ELM steps 
   EDIFF  = 0.1E-09   stopping-criterion for ELM
   LREAL  =      F    real-space projection
   NLSPLINE    = F    spline interpolate recip. space projectors
   LCOMPAT=      F    compatible to vasp.4.4
   GGA_COMPAT  = T    GGA compatible to vasp.4.4-vasp.4.6
   LMAXPAW     = -100 max onsite density
   LMAXMIX     =    2 max onsite mixed and CHGCAR
   VOSKOWN=      0    Vosko Wilk Nusair interpolation
   ROPT   =    0.00000   0.00000
 Ionic relaxation
   EDIFFG = -.1E-01   stopping-criterion for IOM
   NSW    =    500    number of steps for IOM
   NBLOCK =      1;   KBLOCK =    500    inner block; outer block 
   IBRION =      3    ionic relax: 0-MD 1-quasi-New 2-CG
   NFREE  =      0    steps in history (QN), initial steepest desc. (CG)
   ISIF   =      0    stress and relaxation
   IWAVPR =     11    prediction:  0-non 1-charg 2-wave 3-comb
   ISYM   =      2    0-nonsym 1-usesym 2-fastsym
   LCORR  =      T    Harris-Foulkes like correction to forces

   POTIM  = 0.0000    time-step for ionic-motion
   TEIN   =    0.0    initial temperature
   TEBEG  =    0.0;   TEEND  =   0.0 temperature during run
   SMASS  =  -3.00    Nose mass-parameter (am)
   estimated Nose-frequenzy (Omega)   =  0.10E-29 period in steps = 0.00E+00 mass=  -0.333E-26a.u.
   SCALEE = 1.0000    scale energy and forces
   NPACO  =    256;   APACO  = 10.0  distance and # of slots for P.C.
   PSTRESS=    0.0 pullay stress

  Mass of Ions in am
   POMASS =   7.01 19.00
  Ionic Valenz
   ZVAL   =   3.00  7.00
  Atomic Wigner-Seitz radii
   RWIGS  =  -1.00 -1.00
  virtual crystal weights 
   VCA    =   1.00  1.00
   NELECT =    1072.0000    total number of electrons
   NUPDOWN=      -1.0000    fix difference up-down

 DOS related values:
   EMIN   =  10.00;   EMAX   =-10.00  energy-range for DOS
   EFERMI =   0.00;   METHOD = LEGACY      
   ISMEAR =     0;   SIGMA  =   0.01  broadening in eV -4-tet -1-fermi 0-gaus

 Electronic relaxation 2 (details)
   IALGO  =     38    algorithm
   LDIAG  =      T    sub-space diagonalisation (order eigenvalues)
   LSUBROT=      F    optimize rotation matrix (better conditioning)
   TURBO    =      0    0=normal 1=particle mesh
   IRESTART =      0    0=no restart 2=restart with 2 vectors
   NREBOOT  =      0    no. of reboots
   NMIN     =      0    reboot dimension
   EREF     =   0.00    reference energy to select bands
   IMIX   =      4    mixing-type and parameters
     AMIX     =   0.40;   BMIX     =  1.00
     AMIX_MAG =   1.60;   BMIX_MAG =  1.00
     AMIN     =   0.10
     WC   =   100.;   INIMIX=   1;  MIXPRE=   1;  MAXMIX= -45

 Intra band minimization:
   WEIMIN = 0.0010     energy-eigenvalue tresh-hold
   EBREAK =  0.33E-13  absolut break condition
   DEPER  =   0.30     relativ break condition  

   TIME   =   0.40     timestep for ELM

  volume/ion in A,a.u.               =       8.20        55.31
  Fermi-wavevector in a.u.,A,eV,Ry     =   1.387115  2.621267 26.178794  1.924087
  Thomas-Fermi vector in A             =   2.511366
 
 Write flags
   LWAVE        =      T    write WAVECAR
   LDOWNSAMPLE  =      F    k-point downsampling of WAVECAR
   LCHARG       =      T    write CHGCAR
   LVTOT        =      F    write LOCPOT, total local potential
   LVHAR        =      F    write LOCPOT, Hartree potential only
   LELF         =      F    write electronic localiz. function (ELF)
   LORBIT       =      0    0 simple, 1 ext, 2 COOP (PROOUT), +10 PAW based schemes


 Dipole corrections
   LMONO  =      F    monopole corrections only (constant potential shift)
   LDIPOL =      F    correct potential (dipole corrections)
   IDIPOL =      0    1-x, 2-y, 3-z, 4-all directions 
   EPSILON=  1.0000000 bulk dielectric constant

 Exchange correlation treatment:
   GGA     =    --    GGA type
   LEXCH   =     8    internal setting for exchange type
   LIBXC   =     F    Libxc                    
   VOSKOWN =     0    Vosko Wilk Nusair interpolation
   LHFCALC =     F    Hartree Fock is set to
   LHFONE  =     F    Hartree Fock one center treatment
   AEXX    =    0.0000 exact exchange contribution

 Linear response parameters
   LEPSILON=     F    determine dielectric tensor
   LRPA    =     F    only Hartree local field effects (RPA)
   LNABLA  =     F    use nabla operator in PAW spheres
   LVEL    =     F    velocity operator in full k-point grid
   CSHIFT  =0.1000    complex shift for real part using Kramers Kronig
   OMEGAMAX=  -1.0    maximum frequency
   DEG_THRESHOLD= 0.2000000E-02 threshold for treating states as degnerate
   RTIME   =   -0.100 relaxation time in fs
  (WPLASMAI=    0.000 imaginary part of plasma frequency in eV, 0.658/RTIME)
   DFIELD  = 0.0000000 0.0000000 0.0000000 field for delta impulse in time
 
  Optional k-point grid parameters
   LKPOINTS_OPT  =     F    use optional k-point grid
   KPOINTS_OPT_MODE=     1    mode for optional k-point grid
 
 Orbital magnetization related:
   ORBITALMAG=     F  switch on orbital magnetization
   LCHIMAG   =     F  perturbation theory with respect to B field
   DQ        =  0.001000  dq finite difference perturbation B field
   LLRAUG    =     F  two centre corrections for induced B field
   LBONE     =     F  B-component reconstruction in AE one-centre
   LVGVCALC  =     T  calculate vGv susceptibility
   LVGVAPPL  =     F  apply vGv susceptibility instead of pGv for G=0

 Random number generation:
   RANDOM_GENERATOR = DEFAULT
   PCG_SEED         = not used


--------------------------------------------------------------------------------------------------------


 quickmin algorithm: (dynamic with friction)
 charge density and potential will be updated during run
 spin polarized calculation
 Variant of blocked Davidson
 Davidson routine will perform the subspace rotation
 perform sub-space diagonalisation
    after iterative eigenvector-optimisation
 modified Broyden-mixing scheme, WC =      100.0
 initial mixing is a Kerker type mixing with AMIX =  0.4000 and BMIX =      1.0000
 Hartree-type preconditioning will be used
 using additional bands           216
 reciprocal scheme for non local part
 use partial core corrections
 calculate Harris-corrections to forces 
   (improved forces if not selfconsistent)
 use gradient corrections 
 use of overlap-Matrix (Vanderbilt PP)
 Gauss-broadening in eV      SIGMA  =   0.01


--------------------------------------------------------------------------------------------------------


  energy-cutoff  :      400.00
  volume of cell :     1762.31
      direct lattice vectors                 reciprocal lattice vectors
    12.078900337  0.000000000  0.000000000     0.082788993  0.000000000  0.000000000
     0.000000000 12.078900337  0.000000000     0.000000000  0.082788993  0.000000000
     0.000000000  0.000000000 12.078900337     0.000000000  0.000000000  0.082788993

  length of vectors
    12.078900337 12.078900337 12.078900337     0.082788993  0.082788993  0.082788993


 
 k-points in units of 2pi/SCALE and weight: Gamma-point only                        
   0.00000000  0.00000000  0.00000000       1.000
 
 k-points in reciprocal lattice and weights: Gamma-point only                        
   0.00000000  0.00000000  0.00000000       1.000
 
 position of ions in fractional coordinates (direct lattice) 
   0.99975915  0.00195493  0.00136287
   0.99994312  0.00036644  0.33336028
   0.99994249  0.00167241  0.66528557
   0.99973477  0.33142400  0.00135375
   0.99993569  0.33300136  0.33337248
   0.99993544  0.33172265  0.66528527
   0.99718700  0.66664431  0.01409882
   0.99972943  0.66664571  0.33366667
   0.99972606  0.66665756  0.65236226
   0.33377033  0.00048918  0.00031511
   0.33354612  0.00017316  0.33338026
   0.33356501  0.00019154  0.66630945
   0.33377121  0.33288581  0.00031808
   0.33354814  0.33319939  0.33338351
   0.33356887  0.33317946  0.66630395
   0.33773489  0.66663893  0.00136856
   0.33393943  0.66664287  0.33366927
   0.33519207  0.66663541  0.66501827
   0.66652408  0.00022636  0.00031467
   0.66652896  0.00016507  0.33336811
   0.66650901  0.00018644  0.66632027
   0.66650926  0.33313270  0.00031807
   0.66651775  0.33320209  0.33337753
   0.66649567  0.33318155  0.66630882
   0.66507159  0.66664307  0.00136843
   0.66632665  0.66664522  0.33341690
   0.66507350  0.66663771  0.66526949
   0.99997558  0.16665869  0.16700461
   0.99996915  0.16667096  0.49966615
   0.99997574  0.16665171  0.83331724
   0.99996443  0.49860992  0.16829040
   0.99996433  0.49860089  0.49837069
   0.99996279  0.48586453  0.83331935
   0.99997763  0.83472034  0.16828037
   0.99996466  0.83472186  0.49835943
   0.99997757  0.84735574  0.83330791
   0.33352856  0.16665213  0.16681015
   0.33350926  0.16665689  0.49986328
   0.33371909  0.16664948  0.83331785
   0.33353541  0.49964530  0.16683330
   0.33352701  0.49964881  0.49984061
   0.33497137  0.49859561  0.83332681
   0.33354842  0.83370021  0.16682831
   0.33353537  0.83369430  0.49984095
   0.33496955  0.83469972  0.83332819
   0.66652316  0.16664614  0.16679948
   0.66652421  0.16665349  0.49986240
   0.66633240  0.16664458  0.83332872
   0.66650516  0.49964472  0.16683425
   0.66651256  0.49965531  0.49983963
   0.66506826  0.49859458  0.83332490
   0.66650208  0.83370500  0.16682608
   0.66650480  0.83368826  0.49984032
   0.66507856  0.83470560  0.83332902
   0.16697571  0.00049228  0.16707303
   0.16696610  0.00022657  0.49984081
   0.16799645  0.00196745  0.83308078
   0.16696015  0.33288186  0.16706817
   0.16695944  0.33313549  0.49983752
   0.16799302  0.33142435  0.83307116
   0.16799088  0.66665662  0.17104401
   0.16798186  0.66664864  0.49836143
   0.18057791  0.66663605  0.83057367
   0.50003893  0.00017058  0.16685106
   0.50003261  0.00016225  0.49986593
   0.50003844  0.00035849  0.83328089
   0.50003630  0.33319004  0.16684190
   0.50002831  0.33318461  0.49986290
   0.50003586  0.33299936  0.83328490
   0.50033131  0.66665367  0.16723685
   0.50006604  0.66665852  0.49967328
   0.50033135  0.66664969  0.83308421
   0.83302726  0.00019522  0.16685865
   0.83301162  0.00018683  0.49983993
   0.83200568  0.00167156  0.83329371
   0.83301757  0.33316869  0.16685901
   0.83301480  0.33317154  0.49983683
   0.83198433  0.33171048  0.83328019
   0.83169477  0.66666415  0.16852368
   0.83195680  0.66665065  0.49835963
   0.81910556  0.66664415  0.83309332
   0.16684460  0.16666217  0.00018670
   0.16679361  0.16665100  0.33341846
   0.16682583  0.16665006  0.66639396
   0.16682749  0.49699766  0.00018336
   0.16682790  0.49953937  0.33366098
   0.16681129  0.49954284  0.66615678
   0.16683279  0.83631671  0.00018453
   0.16682667  0.83380326  0.33366890
   0.16681138  0.83379104  0.66615388
   0.50007371  0.16666825  0.00015178
   0.50003176  0.16665608  0.33337199
   0.50003080  0.16665454  0.66647617
   0.50033180  0.49954502  0.00018282
   0.50003297  0.49978561  0.33336396
   0.50003259  0.49975348  0.66644616
   0.50033475  0.83379310  0.00018424
   0.50003503  0.83356151  0.33337612
   0.50003496  0.83359090  0.66644116
   0.83312421  0.16665322  0.00018696
   0.83318589  0.16664716  0.33337574
   0.83315361  0.16664732  0.66643591
   0.83285465  0.49954601  0.00018305
   0.83314280  0.49975025  0.33337156
   0.83315647  0.49975268  0.66644490
   0.83288350  0.83379671  0.00018368
   0.83315130  0.83360336  0.33337960
   0.83316385  0.83359286  0.66644216
   0.99994556  0.16668109  0.00036369
   0.00004434  0.16667694  0.33326601
   0.00004433  0.16667439  0.66635953
   0.00071325  0.50426802  0.99644330
   0.00013638  0.49977189  0.33316064
   0.00013471  0.50368395  0.67038538
   0.00072836  0.82906299  0.99645141
   0.00014130  0.83356074  0.33316644
   0.00013998  0.82964656  0.67037470
   0.33312203  0.16667867  0.99979417
   0.33315753  0.16667205  0.33327555
   0.33300669  0.16667108  0.66692515
   0.33182260  0.50138645  0.99932359
   0.33290118  0.50034128  0.33316677
   0.33239176  0.50081436  0.66752308
   0.33183155  0.83192521  0.99932214
   0.33290932  0.83299415  0.33317309
   0.33239953  0.83250149  0.66751748
   0.66697224  0.16667191  0.99979450
   0.66681056  0.16666836  0.33330185
   0.66696052  0.16666849  0.66689832
   0.66747662  0.50060381  0.99932373
   0.66696354  0.50024740  0.33326686
   0.66747154  0.50071951  0.66742200
   0.66748100  0.83271359  0.99932201
   0.66696096  0.83309219  0.33327124
   0.66746994  0.83260102  0.66741902
   0.00015662  0.99922548  0.16590417
   0.00004098  0.99934354  0.50060154
   0.00015660  0.00249529  0.83347833
   0.00014227  0.33411676  0.16590266
   0.00004041  0.33401404  0.50061767
   0.00014201  0.33081978  0.83347088
   0.00071541  0.66666784  0.16862288
   0.99992859  0.66666186  0.49734741
   0.27822416  0.94418062  0.11155901
   0.33292198  0.99958118  0.44456916
   0.33267665  0.99932481  0.77777774
   0.33293165  0.27789492  0.11097907
   0.33292602  0.33376447  0.44456989
   0.33267692  0.33401348  0.77778031
   0.33258271  0.61126560  0.11063129
   0.33199964  0.66666249  0.44434764
   0.33602249  0.66665055  0.77779078
   0.61068045  0.94417883  0.11155318
   0.66695300  0.99967949  0.44466573
   0.66730146  0.99935380  0.77778333
   0.66694210  0.27799186  0.11088080
   0.66694086  0.33366284  0.44466604
   0.66728954  0.33398015  0.77778167
   0.66729015  0.61116807  0.11053305
   0.66729283  0.66666456  0.44513446
   0.66405720  0.66665439  0.77779238
   0.08313179  0.25000497  0.11074821
   0.16645885  0.16667584  0.44480051
   0.16703280  0.16667282  0.77777902
   0.16597133  0.44513854  0.11024523
   0.16596732  0.50139780  0.44451329
   0.16308487  0.50347643  0.77778325
   0.16597895  0.77780535  0.11103819
   0.16596978  0.83193560  0.44451321
   0.16309531  0.82984601  0.77778278
   0.44444983  0.11040566  0.11168545
   0.49994667  0.16667731  0.44453805
   0.49997811  0.16667268  0.77777922
   0.49994661  0.44465155  0.11086436
   0.49984406  0.50033527  0.44458100
   0.49994704  0.49967702  0.77777745
   0.49984826  0.77771259  0.11096039
   0.49984638  0.83298643  0.44458769
   0.49994855  0.83365262  0.77778350
   0.77784241  0.11097481  0.11095580
   0.83360417  0.16667258  0.44468562
   0.83301311  0.16666878  0.77778271
   0.83409364  0.44513808  0.11035832
   0.83419223  0.50082692  0.44508949
   0.83697413  0.50359009  0.77778457
   0.83419858  0.77723669  0.11045810
   0.83419474  0.83251183  0.44508884
   0.83698251  0.82973576  0.77778616
   0.11059094  0.97130138  0.97167413
   0.16646498  0.00024827  0.27777436
   0.16597281  0.99909269  0.61167042
   0.16597384  0.27845175  0.94387528
   0.16645704  0.33309370  0.27777590
   0.16596996  0.33424983  0.61166832
   0.16308963  0.61122682  0.94101939
   0.16702436  0.66666061  0.33385421
   0.16308409  0.66665635  0.66970143
   0.49988659  0.99960370  0.99980281
   0.49995348  0.99981369  0.33326921
   0.49995316  0.99966439  0.66693324
   0.49988235  0.33374697  0.99979442
   0.49994939  0.33352958  0.33327336
   0.49994866  0.33367881  0.66692489
   0.50053660  0.66666626  0.00036299
   0.49987776  0.66666554  0.33320453
   0.49987798  0.66666071  0.66643018
   0.83417942  0.99909131  0.99931231
   0.83360353  0.99966298  0.33326876
   0.83409307  0.99916269  0.66741080
   0.83416219  0.33424970  0.99930692
   0.83360034  0.33368070  0.33327572
   0.83408469  0.33417811  0.66740274
   0.83638831  0.66666401  0.99645128
   0.83310250  0.66666431  0.33320545
   0.83703883  0.66666043  0.67034945
 
 position of ions in cartesian coordinates  (Angst):
  12.07599108  0.02361337  0.01646203
  12.07821329  0.00442617  4.02662566
  12.07820566  0.02020087  8.03591810
  12.07569666  4.00323744  0.01635180
  12.07812354  4.02229029  4.02677299
  12.07812051  4.00684482  8.03591444
  12.04492234  8.05233018  0.17029828
  12.07563210  8.05234713  4.03032650
  12.07559142  8.05249025  7.87981867
   4.03157852  0.00590875  0.00380619
   4.02887031  0.00209152  4.02686691
   4.02909849  0.00231355  8.04828545
   4.03158920  4.02089457  0.00384208
   4.02889470  4.02468228  4.02690624
   4.02914511  4.02444150  8.04821906
   4.07946608  8.05226514  0.01653071
   4.03362112  8.05231280  4.03035785
   4.04875166  8.05222272  8.03268945
   8.05087793  0.00273423  0.00380085
   8.05093692  0.00199392  4.02672019
   8.05069585  0.00225196  8.04841609
   8.05069889  4.02387663  0.00384192
   8.05080153  4.02471485  4.02683401
   8.05053483  4.02446668  8.04827787
   8.03333341  8.05231516  0.01652911
   8.04849318  8.05234120  4.02730951
   8.03335647  8.05225041  8.03572381
  12.07860535  2.01305372  2.01723209
  12.07852773  2.01320194  6.03541768
  12.07860730  2.01296942 10.06555585
  12.07847073  6.02265957  2.03276294
  12.07846953  6.02255043  6.01976995
  12.07845094  5.86870919 10.06558143
  12.07863009 10.08250383  2.03264186
  12.07847349 10.08252221  6.01963384
  12.07862941 10.23512555 10.06544315
   4.02865819  2.01297452  2.01488323
   4.02842515  2.01303197  6.03779877
   4.03095958  2.01294245 10.06556328
   4.02874102  6.03516584  2.01516282
   4.02863950  6.03520814  6.03752490
   4.04608574  6.02248670 10.06567149
   4.02889817 10.07018174  2.01510252
   4.02874052 10.07011032  6.03752898
   4.04606377 10.08225468 10.06568813
   8.05086678  2.01290214  2.01475433
   8.05087949  2.01299089  6.03778809
   8.04856263  2.01288326 10.06569451
   8.05064941  6.03515876  2.01517431
   8.05073884  6.03528665  6.03751303
   8.03329329  6.02247424 10.06564841
   8.05061219 10.07023962  2.01507562
   8.05064503 10.07003738  6.03752139
   8.03341768 10.08232574 10.06569818
   2.01688295  0.00594617  2.01805846
   2.01676687  0.00273666  6.03752730
   2.02921234  0.02376466 10.06269976
   2.01669505  4.02084683  2.01799977
   2.01668641  4.02391039  6.03748763
   2.02917094  4.00324169 10.06258347
   2.02914506  8.05247884  2.06602360
   2.02903618  8.05238242  6.01965808
   2.18118261  8.05223036 10.03241655
   6.03992034  0.00206043  2.01537738
   6.03984407  0.00195976  6.03783076
   6.03991448  0.00433018 10.06511685
   6.03988863  4.02456928  2.01526669
   6.03979218  4.02450367  6.03779417
   6.03988326  4.02226607 10.06516523
   6.04345198  8.05244322  2.02003724
   6.04024787  8.05250183  6.03550381
   6.04345251  8.05239521 10.06274119
  10.06205321  0.00235802  2.01546900
  10.06186434  0.00225676  6.03751667
  10.04971366  0.02019057 10.06527163
  10.06193619  4.02431135  2.01547336
  10.06190270  4.02434580  6.03747920
  10.04945578  4.00669779 10.06510837
  10.04595818  8.05256985  2.03558071
  10.04912329  8.05240672  6.01963627
   9.89389437  8.05232822 10.06285121
   2.01529926  2.01309573  0.00225519
   2.01468344  2.01296087  4.02732833
   2.01507254  2.01294943  8.04930624
   2.01509257  6.00318524  0.00221473
   2.01509753  6.03388621  4.03025775
   2.01489689  6.03392813  8.04644139
   2.01515663 10.10178615  0.00222886
   2.01508267 10.07142651  4.03035344
   2.01489807 10.07127884  8.04640631
   6.04034045  2.01316916  0.00183335
   6.03983373  2.01302215  4.02676709
   6.03982221  2.01300359  8.05029926
   6.04345799  6.03395457  0.00220823
   6.03984844  6.03686058  4.02667003
   6.03984387  6.03647248  8.04993678
   6.04349362 10.07130379  0.00222545
   6.03987325 10.06850645  4.02681695
   6.03987241 10.06886145  8.04987636
  10.06322435  2.01298758  0.00225823
  10.06396930  2.01291439  4.02681230
  10.06357942  2.01291639  8.04981294
  10.05996832  6.03396652  0.00221110
  10.06344891  6.03643347  4.02676183
  10.06361395  6.03646281  8.04992154
  10.06031674 10.07134736  0.00221864
  10.06355152 10.06901185  4.02685899
  10.06370306 10.06888510  8.04988839
  12.07824281  2.01332422  0.00439294
   0.00053560  2.01327413  4.02548698
   0.00053543  2.01324337  8.04889031
   0.00861526  6.09100321 12.03593936
   0.00164727  6.03669489  4.02421420
   0.00162718  6.08394825  8.09751823
   0.00879779 10.01416923 12.03603730
   0.00170678 10.06849707  4.02428428
   0.00169082 10.02121813  8.09738924
   4.02374778  2.01329501 12.07641418
   4.02417657  2.01321511  4.02560215
   4.02235466  2.01320340  8.05572241
   4.00805213  6.05619694 12.07073005
   4.02108023  6.04357241  4.02428819
   4.01492693  6.04928672  8.06294475
   4.00816026 10.04874171 12.07071251
   4.02117844 10.06165331  4.02436451
   4.01502079 10.05570257  8.06287711
   8.05629126  2.01321335 12.07641817
   8.05433828  2.01317057  4.02591988
   8.05614963  2.01317208  8.05539828
   8.06238355  6.04674353 12.07073174
   8.05618610  6.04243846  4.02549722
   8.06232225  6.04814105  8.06172382
   8.06243642 10.05826444 12.07071098
   8.05615493 10.06283752  4.02555005
   8.06230288 10.05690469  8.06168784
   0.00189186 12.06954502  2.00393989
   0.00049504 12.07097107  6.04671610
   0.00189160  0.03014032 10.06750173
   0.00171843  4.03576309  2.00392166
   0.00048808  4.03452225  6.04691096
   0.00171538  3.99593914 10.06741168
   0.00864133  8.05261440  2.03677895
  12.07803779  8.05254220  6.00740978
   3.36064189 11.40466356  1.34751015
   4.02133147 12.07384145  5.36990655
   4.01836808 12.07074482  9.39469979
   4.02144819  3.35666504  1.34050513
   4.02138018  4.03150771  5.36991541
   4.01837131  4.03451551  9.39473082
   4.01723341  7.38341630  1.33630430
   4.01019052  8.05254978  5.36723081
   4.05878211  8.05240551  9.39485729
   7.37634831 11.40464196  1.34743971
   8.05605887 12.07502892  5.37107302
   8.06026781 12.07109490  9.39476732
   8.05592713  3.35783597  1.33931810
   8.05591222  4.03028022  5.37107677
   8.06012386  4.03411301  9.39474730
   8.06013120  7.38223825  1.33511765
   8.06016361  8.05257482  5.37673476
   8.02108074  8.05245195  9.39487666
   1.00414066  3.01978514  1.33771653
   2.01063987  2.01326089  5.37270099
   2.01757251  2.01322435  9.39471529
   2.00475118  5.37678403  1.33164116
   2.00470270  6.05633410  5.36923177
   1.96988591  6.08144163  9.39476634
   2.00484324  9.39503329  1.34121928
   2.00473246 10.04886720  5.36923079
   1.97001204 10.02362721  9.39476071
   5.36846522  1.33357901  1.34903748
   6.03880604  2.01327859  5.36953082
   6.03918577  2.01322269  9.39471772
   6.03880531  5.37090174  1.33911954
   6.03756654  6.04349981  5.37004960
   6.03881047  6.03554898  9.39469635
   6.03761729  9.39391292  1.34027945
   6.03759455 10.06156008  5.37013041
   6.03882877 10.06960692  9.39476938
   9.39548094  1.34045364  1.34022410
  10.06902166  2.01322148  5.37131327
  10.06188230  2.01317564  9.39475989
  10.07493390  5.37677848  1.33300715
  10.07612485  6.04943847  5.37619155
  10.10972713  6.08281455  9.39478225
  10.07620149  9.38816457  1.33421234
  10.07615519 10.05582738  5.37618369
  10.10982838 10.02229558  9.39480156
   1.33581699 11.73225260 11.73675502
   2.01071392  0.00299888  3.35520884
   2.00476908 12.06794100  7.38830608
   2.00478152  3.36339097 11.40097544
   2.01061799  4.02340558  3.35522737
   2.00473460  4.03737037  7.38828064
   1.96994335  7.38294781 11.36647944
   2.01747064  8.05252709  4.03259168
   1.96987646  8.05247566  8.08925681
   6.03808033 12.07411348 12.07651852
   6.03888824 12.07664997  4.02552556
   6.03888438 12.07484654  8.05582010
   6.03802907  4.03129643 12.07641710
   6.03883888  4.02867057  4.02557569
   6.03883004  4.03047306  8.05571924
   6.04593176  8.05259528  0.00438457
   6.03797367  8.05258659  4.02474429
   6.03797633  8.05252827  8.04974375
  10.07597002 12.06792441 12.07059385
  10.06901392 12.07482950  4.02552008
  10.07492708 12.06878660  8.06158851
  10.07576194  4.03736880 12.07052865
  10.06897546  4.03049598  4.02560423
  10.07482582  4.03650409  8.06149121
  10.10265109  8.05256815 12.03603567
  10.06296205  8.05257180  4.02475547
  10.11050856  8.05252493  8.09708424
 


--------------------------------------------------------------------------------------------------------


 k-point   1 :   0.0000 0.0000 0.0000  plane waves:   31919

 maximum and minimum number of plane-waves per node :     31919    31919

 maximum number of plane-waves:     31919
 maximum index in each direction: 
   IXMAX=   19   IYMAX=   19   IZMAX=   19
   IXMIN=  -19   IYMIN=  -19   IZMIN=  -19


 serial   3D FFT for wavefunctions
 parallel 3D FFT for charge:
    minimum data exchange during FFTs selected (reduces bandwidth)


 total amount of memory used by VASP MPI-rank0  1460119. kBytes
=======================================================================

   base      :      30000. kBytes
   nonl-proj :     113886. kBytes
   fftplans  :     141100. kBytes
   grid      :     372121. kBytes
   one-center:       1320. kBytes
   wavefun   :     801692. kBytes
 
     INWAV:  cpu time      0.0001: real time      0.0003
 Broyden mixing: mesh for mixing (old mesh)
   NGX = 39   NGY = 39   NGZ = 39
  (NGX  =160   NGY  =160   NGZ  =160)
  gives a total of  59319 points

 charge density for first step will be calculated from the start-wavefunctions


--------------------------------------------------------------------------------------------------------


 Maximum index for augmentation-charges          3635 (set IRDMAX)


--------------------------------------------------------------------------------------------------------


 initial charge from wavefunction
 First call to EWALD:  gamma=   0.147
 Maximum number of real-space cells 3x 3x 3
 Maximum number of reciprocal cells 3x 3x 3

    FEWALD:  cpu time      0.2506: real time      0.2513


--------------------------------------- Ionic step        1  -------------------------------------------




--------------------------------------- Iteration      1(   1)  ---------------------------------------


    POTLOK:  cpu time      0.1305: real time      0.1312
    SETDIJ:  cpu time      0.7779: real time      0.7802
     EDDAV:  cpu time     11.8799: real time     11.9151
       DOS:  cpu time      0.0003: real time      0.0003
    --------------------------------------------
      LOOP:  cpu time     12.7887: real time     12.8268

 eigenvalue-minimisations  :  4104
 total energy-change (2. order) :-0.2172089E+05  (-0.8967948E+05)
 number of electron    1071.9999957 magnetization      -0.0000003
 augmentation part       91.8331165 magnetization      -0.2979933

 Free energy of the ion-electron system (eV)
  ---------------------------------------------------
  alpha Z        PSCENC =      2139.14908826
  Ewald energy   TEWEN  =    -56095.56813350
  -Hartree energ DENC   =      -644.40905466
  -exchange      EXHF   =         0.00000000
  -V(xc)+E(xc)   XCENC  =      3517.06728114
  PAW double counting   =     17499.96591312   -17906.51459677
  entropy T*S    EENTRO =         0.00000000
  eigenvalues    EBANDS =    -62682.56151142
  atomic energy  EATOM  =     92451.98304323
  Solvation  Ediel_sol  =         0.00000000
  ---------------------------------------------------
  free energy    TOTEN  =    -21720.88797059 eV

  energy without entropy =   -21720.88797059  energy(sigma->0) =   -21720.88797059


--------------------------------------------------------------------------------------------------------




--------------------------------------- Iteration      1(   2)  ---------------------------------------


     EDDAV:  cpu time      9.3074: real time      9.3379
       DOS:  cpu time      0.0003: real time      0.0003
    --------------------------------------------
      LOOP:  cpu time      9.3077: real time      9.3382

 eigenvalue-minimisations  :  3104
 total energy-change (2. order) :-0.1317939E+05  (-0.1298778E+05)
 number of electron    1071.9999957 magnetization      -0.0000003
 augmentation part       91.8331165 magnetization      -0.2979933

 Free energy of the ion-electron system (eV)
  ---------------------------------------------------
  alpha Z        PSCENC =      2139.14908826
  Ewald energy   TEWEN  =    -56095.56813350
  -Hartree energ DENC   =      -644.40905466
  -exchange      EXHF   =         0.00000000
  -V(xc)+E(xc)   XCENC  =      3517.06728114
  PAW double counting   =     17499.96591312   -17906.51459677
  entropy T*S    EENTRO =         0.00000000
  eigenvalues    EBANDS =    -75861.95363671
  atomic energy  EATOM  =     92451.98304323
  Solvation  Ediel_sol  =         0.00000000
  ---------------------------------------------------
  free energy    TOTEN  =    -34900.28009588 eV

  energy without entropy =   -34900.28009588  energy(sigma->0) =   -34900.28009588


--------------------------------------------------------------------------------------------------------




--------------------------------------- Iteration      1(   3)  ---------------------------------------


     EDDAV:  cpu time     12.3905: real time     12.4319
       DOS:  cpu time      0.0010: real time      0.0010
    --------------------------------------------
      LOOP:  cpu time     12.3915: real time     12.4329

 eigenvalue-minimisations  :  4424
 total energy-change (2. order) :-0.1493477E+04  (-0.1484504E+04)
 number of electron    1071.9999957 magnetization      -0.0000003
 augmentation part       91.8331165 magnetization      -0.2979933

 Free energy of the ion-electron system (eV)
  ---------------------------------------------------
  alpha Z        PSCENC =      2139.14908826
  Ewald energy   TEWEN  =    -56095.56813350
  -Hartree energ DENC   =      -644.40905466
  -exchange      EXHF   =         0.00000000
  -V(xc)+E(xc)   XCENC  =      3517.06728114
  PAW double counting   =     17499.96591312   -17906.51459677
  entropy T*S    EENTRO =        -0.00291797
  eigenvalues    EBANDS =    -77355.42788282
  atomic energy  EATOM  =     92451.98304323
  Solvation  Ediel_sol  =         0.00000000
  ---------------------------------------------------
  free energy    TOTEN  =    -36393.75725996 eV

  energy without entropy =   -36393.75434199  energy(sigma->0) =   -36393.75580098


--------------------------------------------------------------------------------------------------------




--------------------------------------- Iteration      1(   4)  ---------------------------------------


     EDDAV:  cpu time     13.3819: real time     13.4279
       DOS:  cpu time      0.0007: real time      0.0006
    --------------------------------------------
      LOOP:  cpu time     13.3825: real time     13.4285

 eigenval