       N       E                     dE             d eps       ncg     rms          rms(c)
DAV:   1     0.209365950424E+04    0.20937E+04   -0.15209E+05 10960   0.116E+03
DAV:   2    -0.907049956795E+02   -0.21844E+04   -0.20567E+04 11888   0.292E+02
DAV:   3    -0.207708657205E+03   -0.11700E+03   -0.10511E+03 12376   0.611E+01
DAV:   4    -0.211720080177E+03   -0.40114E+01   -0.39048E+01 12752   0.113E+01
DAV:   5    -0.211849289348E+03   -0.12921E+00   -0.12878E+00 12720   0.208E+00    0.402E+01
DAV:   6    -0.212734668398E+03   -0.88538E+00   -0.37768E+01 14512   0.228E+01    0.360E+01
DAV:   7    -0.212622256444E+03    0.11241E+00   -0.19200E+01 13512   0.204E+01    0.283E+01
DAV:   8    -0.226923585682E+03   -0.14301E+02   -0.28948E+01 13104   0.426E+01    0.383E+01
DAV:   9    -0.203008099470E+03    0.23915E+02   -0.15464E+01 13212   0.238E+01    0.142E+01
DAV:  10    -0.202147275053E+03    0.86082E+00   -0.99625E+00 11616   0.153E+01    0.143E+01
DAV:  11    -0.200462479138E+03    0.16848E+01   -0.43167E+00 13496   0.970E+00    0.767E+00
DAV:  12    -0.200294603483E+03    0.16788E+00   -0.26587E+00 11236   0.771E+00    0.823E+00
DAV:  13    -0.199849830131E+03    0.44477E+00   -0.93295E-01 11756   0.410E+00    0.209E+00
DAV:  14    -0.199843704864E+03    0.61253E-02   -0.31017E-01 11344   0.237E+00    0.240E+00
DAV:  15    -0.199800620736E+03    0.43084E-01   -0.13115E-01 11552   0.184E+00    0.157E+00
DAV:  16    -0.199791607291E+03    0.90134E-02   -0.60469E-02 11904   0.119E+00    0.984E-01
DAV:  17    -0.199788787256E+03    0.28200E-02   -0.36542E-02 11348   0.897E-01    0.795E-01
DAV:  18    -0.199786324055E+03    0.24632E-02   -0.90249E-03 11336   0.431E-01    0.480E-01
DAV:  19    -0.199785444422E+03    0.87963E-03   -0.36758E-03 11776   0.285E-01    0.234E-01
DAV:  20    -0.199786438683E+03   -0.99426E-03   -0.26847E-03 11388   0.228E-01    0.239E-01
DAV:  21    -0.199786302389E+03    0.13629E-03   -0.83010E-04 11624   0.149E-01    0.145E-01
DAV:  22    -0.199786384263E+03   -0.81874E-04   -0.66918E-04 11804   0.117E-01    0.100E-01
DAV:  23    -0.199786457534E+03   -0.73271E-04   -0.19622E-04 11480   0.682E-02    0.877E-02
DAV:  24    -0.199786577392E+03   -0.11986E-03   -0.33443E-04 10728   0.730E-02    0.719E-02
DAV:  25    -0.199786643996E+03   -0.66605E-04   -0.87507E-05 10808   0.404E-02    0.491E-02
DAV:  26    -0.199786710347E+03   -0.66350E-04   -0.57619E-05  7724   0.343E-02    0.186E-02
DAV:  27    -0.199786806984E+03   -0.96637E-04   -0.28228E-05  7948   0.213E-02    0.199E-02
DAV:  28    -0.199786856907E+03   -0.49924E-04   -0.14773E-05  6940   0.176E-02    0.145E-02
DAV:  29    -0.199786887081E+03   -0.30174E-04   -0.68504E-06  6796   0.967E-03    0.814E-03
DAV:  30    -0.199786899800E+03   -0.12719E-04   -0.34219E-06  6860   0.726E-03    0.496E-03
DAV:  31    -0.199786907871E+03   -0.80706E-05   -0.18222E-06  6576   0.381E-03
   1 F= -.19978691E+03 E0= -.19707663E+03  d E =-.199787E+03
       N       E                     dE             d eps       ncg     rms          rms(c)
DAV:   1    -0.199800398154E+03   -0.13498E-01   -0.25871E-01 10968   0.108E+00    0.105E-01
DAV:   2    -0.199801811661E+03   -0.14135E-02   -0.76739E-03 11152   0.204E-01    0.365E-01
DAV:   3    -0.199801004357E+03    0.80730E-03   -0.20008E-03 11824   0.161E-01    0.115E-01
DAV:   4    -0.199801030579E+03   -0.26222E-04   -0.77495E-04 11632   0.120E-01    0.119E-01
DAV:   5    -0.199800945977E+03    0.84602E-04   -0.29710E-04 11912   0.800E-02    0.712E-02
DAV:   6    -0.199800915692E+03    0.30284E-04   -0.74731E-05  9816   0.505E-02    0.424E-02
DAV:   7    -0.199800917527E+03   -0.18343E-05   -0.42352E-05  8352   0.333E-02
   2 F= -.19980092E+03 E0= -.19709155E+03  d E =-.140097E-01
       N       E                     dE             d eps       ncg     rms          rms(c)
DAV:   1    -0.199827092571E+03   -0.26177E-01   -0.10308E+00 10944   0.216E+00    0.213E-01
DAV:   2    -0.199832998385E+03   -0.59058E-02   -0.31281E-02 11164   0.423E-01    0.749E-01
DAV:   3    -0.199829517570E+03    0.34808E-02   -0.84612E-03 11812   0.343E-01    0.238E-01
DAV:   4    -0.199829557211E+03   -0.39640E-04   -0.31100E-03 11648   0.240E-01    0.230E-01
DAV:   5    -0.199829267372E+03    0.28984E-03   -0.11406E-03 12072   0.158E-01    0.147E-01
DAV:   6    -0.199829136139E+03    0.13123E-03   -0.31232E-04 11384   0.104E-01    0.856E-02
DAV:   7    -0.199829152482E+03   -0.16343E-04   -0.19054E-04 11864   0.676E-02    0.791E-02
DAV:   8    -0.199829107611E+03    0.44870E-04   -0.10680E-04 11076   0.555E-02    0.280E-02
DAV:   9    -0.199829102085E+03    0.55265E-05   -0.26073E-05  7156   0.253E-02
   3 F= -.19982910E+03 E0= -.19712192E+03  d E =-.281846E-01
       N       E                     dE             d eps       ncg     rms          rms(c)
DAV:   1    -0.199867523039E+03   -0.38415E-01   -0.23205E+00 10944   0.325E+00    0.329E-01
DAV:   2    -0.199881634803E+03   -0.14112E-01   -0.73779E-02 11172   0.646E-01    0.116E+00
DAV:   3    -0.199873123917E+03    0.85109E-02   -0.19932E-02 11812   0.528E-01    0.379E-01
DAV:   4    -0.199873030845E+03    0.93072E-04   -0.73523E-03 11656   0.365E-01    0.334E-01
DAV:   5    -0.199872474407E+03    0.55644E-03   -0.25380E-03 11868   0.239E-01    0.226E-01
DAV:   6    -0.199872179166E+03    0.29524E-03   -0.76645E-04 11436   0.165E-01    0.142E-01
DAV:   7    -0.199872161424E+03    0.17743E-04   -0.42009E-04 12220   0.102E-01    0.110E-01
DAV:   8    -0.199872085369E+03    0.76055E-04   -0.23396E-04 11320   0.777E-02    0.392E-02
DAV:   9    -0.199872075229E+03    0.10140E-04   -0.58618E-05 10312   0.376E-02    0.201E-02
DAV:  10    -0.199872076823E+03   -0.15936E-05   -0.12364E-05  5928   0.171E-02
   4 F= -.19987208E+03 E0= -.19716808E+03  d E =-.429747E-01
       N       E                     dE             d eps       ncg     rms          rms(c)
DAV:   1    -0.199922445396E+03   -0.50370E-01   -0.41100E+00 10944   0.434E+00    0.451E-01
DAV:   2    -0.199949183574E+03   -0.26738E-01   -0.13776E-01 11184   0.892E-01    0.161E+00
DAV:   3    -0.199932617932E+03    0.16566E-01   -0.37627E-02 11772   0.739E-01    0.538E-01
DAV:   4    -0.199932032768E+03    0.58516E-03   -0.13513E-02 11676   0.491E-01    0.424E-01
DAV:   5    -0.199931329982E+03    0.70279E-03   -0.43910E-03 11816   0.320E-01    0.319E-01
DAV:   6    -0.199930721651E+03    0.60833E-03   -0.14963E-03 11508   0.233E-01    0.200E-01
DAV:   7    -0.199930673520E+03    0.48130E-04   -0.80576E-04 13000   0.138E-01    0.150E-01
DAV:   8    -0.199930524466E+03    0.14905E-03   -0.44786E-04 11304   0.106E-01    0.486E-02
DAV:   9    -0.199930512038E+03    0.12428E-04   -0.10119E-04 11296   0.486E-02    0.279E-02
DAV:  10    -0.199930513768E+03   -0.17307E-05   -0.20592E-05  6252   0.230E-02
   5 F= -.19993051E+03 E0= -.19723097E+03  d E =-.584369E-01
       N       E                     dE             d eps       ncg     rms          rms(c)
DAV:   1    -0.199992223170E+03   -0.61711E-01   -0.63643E+00 10944   0.542E+00    0.584E-01
DAV:   2    -0.200036844765E+03   -0.44622E-01   -0.22739E-01 11212   0.116E+00    0.208E+00
DAV:   3    -0.200008509768E+03    0.28335E-01   -0.63125E-02 11716   0.977E-01    0.729E-01
DAV:   4    -0.200006871568E+03    0.16382E-02   -0.22025E-02 11756   0.623E-01    0.512E-01
DAV:   5    -0.200006274645E+03    0.59692E-03   -0.69319E-03 11856   0.411E-01    0.433E-01
DAV:   6    -0.200005096927E+03    0.11777E-02   -0.26625E-03 11588   0.315E-01    0.264E-01
DAV:   7    -0.200004997187E+03    0.99740E-04   -0.13881E-03 13412   0.178E-01    0.193E-01
DAV:   8    -0.200004743234E+03    0.25395E-03   -0.77464E-04 11288   0.139E-01    0.622E-02
DAV:   9    -0.200004725989E+03    0.17245E-04   -0.16435E-04 11368   0.616E-02    0.374E-02
DAV:  10    -0.200004727692E+03   -0.17029E-05   -0.35925E-05  7000   0.304E-02
   6 F= -.20000473E+03 E0= -.19731099E+03  d E =-.742139E-01
       N       E                     dE             d eps       ncg     rms          rms(c)
DAV:   1    -0.200076025845E+03   -0.71300E-01   -0.89925E+00 10944   0.647E+00    0.731E-01
DAV:   2    -0.200142993163E+03   -0.66967E-01   -0.34281E-01 11252   0.145E+00    0.256E+00
DAV:   3    -0.200099958188E+03    0.43035E-01   -0.94892E-02 11676   0.122E+00    0.946E-01
DAV:   4    -0.200096744931E+03    0.32133E-02   -0.33247E-02 11880   0.765E-01    0.622E-01
DAV:   5    -0.200096617421E+03    0.12751E-03   -0.10778E-02 11896   0.522E-01    0.581E-01
DAV:   6    -0.200094343472E+03    0.22739E-02   -0.45572E-03 11640   0.416E-01    0.331E-01
DAV:   7    -0.200094195148E+03    0.14832E-03   -0.22517E-03 13508   0.223E-01    0.240E-01
DAV:   8    -0.200093795632E+03    0.39952E-03   -0.12776E-03 11272   0.179E-01    0.831E-02
DAV:   9    -0.200093761904E+03    0.33727E-04   -0.25668E-04 11368   0.776E-02    0.464E-02
DAV:  10    -0.200093765253E+03   -0.33482E-05   -0.62148E-05 10124   0.386E-02
   7 F= -.20009377E+03 E0= -.19740729E+03  d E =-.890376E-01
       N       E                     dE             d eps       ncg     rms          rms(c)
DAV:   1    -0.200170694525E+03   -0.76933E-01   -0.11750E+01 10944   0.744E+00    0.885E-01
DAV:   2    -0.200259762723E+03   -0.89068E-01   -0.46844E-01 11244   0.171E+00    0.294E+00
DAV:   3    -0.200203159874E+03    0.56603E-01   -0.12532E-01 11628   0.143E+00    0.116E+00
DAV:   4    -0.200198587896E+03    0.45720E-02   -0.46463E-02 12164   0.911E-01    0.778E-01
DAV:   5    -0.200199158346E+03   -0.57045E-03   -0.16808E-02 11992   0.658E-01    0.759E-01
DAV:   6    -0.200195002585E+03    0.41558E-02   -0.75461E-03 11776   0.535E-01    0.400E-01
DAV:   7    -0.200194823376E+03    0.17921E-03   -0.34536E-03 13060   0.275E-01    0.289E-01
DAV:   8    -0.200194236748E+03    0.58663E-03   -0.20082E-03 11264   0.228E-01    0.108E-01
DAV:   9    -0.200194175497E+03    0.61251E-04   -0.36920E-04 11360   0.946E-02    0.540E-02
DAV:  10    -0.200194183387E+03   -0.78908E-05   -0.10320E-04 11208   0.488E-02    0.422E-02
DAV:  11    -0.200194188644E+03   -0.52568E-05   -0.60662E-05  8540   0.424E-02
   8 F= -.20019419E+03 E0= -.19751636E+03  d E =-.100423E+00
       N       E                     dE             d eps       ncg     rms          rms(c)
DAV:   1    -0.200270309286E+03   -0.76126E-01   -0.14119E+01 10944   0.820E+00    0.101E+00
DAV:   2    -0.200370079491E+03   -0.99770E-01   -0.55607E-01 11176   0.187E+00    0.307E+00
DAV:   3    -0.200309958120E+03    0.60121E-01   -0.13728E-01 11596   0.152E+00    0.128E+00
DAV:   4    -0.200305883372E+03    0.40747E-02   -0.56935E-02 12356   0.103E+00    0.955E-01
DAV:   5    -0.200306599554E+03   -0.71618E-03   -0.23768E-02 12080   0.785E-01    0.916E-01
DAV:   6    -0.200300457584E+03    0.61420E-02   -0.10974E-02 11852   0.644E-01    0.469E-01
DAV:   7    -0.200300120873E+03    0.33671E-03   -0.46653E-03 12548   0.319E-01    0.319E-01
DAV:   8    -0.200299397270E+03    0.72360E-03   -0.27007E-03 11264   0.265E-01    0.124E-01
DAV:   9    -0.200299321865E+03    0.75405E-04   -0.46910E-04 11340   0.108E-01    0.627E-02
DAV:  10    -0.200299324750E+03   -0.28847E-05   -0.15400E-04 11280   0.609E-02    0.505E-02
DAV:  11    -0.200299331192E+03   -0.64423E-05   -0.87592E-05 10268   0.511E-02
   9 F= -.20029933E+03 E0= -.19763117E+03  d E =-.105143E+00
       N       E                     dE             d eps       ncg     rms          rms(c)
DAV:   1    -0.200372056936E+03   -0.72732E-01   -0.14957E+01 10944   0.843E+00    0.106E+00
DAV:   2    -0.200452801377E+03   -0.80744E-01   -0.50931E-01 11052   0.171E+00    0.264E+00
DAV:   3    -0.200411175539E+03    0.41626E-01   -0.11122E-01 11620   0.136E+00    0.119E+00
DAV:   4    -0.200411645024E+03   -0.46949E-03   -0.61120E-02 12456   0.109E+00    0.111E+00
DAV:   5    -0.200409623777E+03    0.20212E-02   -0.28671E-02 12252   0.857E-01    0.937E-01
DAV:   6    -0.200403585719E+03    0.60381E-02   -0.12097E-02 12000   0.671E-01    0.506E-01
DAV:   7    -0.200402846977E+03    0.73874E-03   -0.48190E-03 12064   0.334E-01    0.292E-01
DAV:   8    -0.200402215450E+03    0.63153E-03   -0.27243E-03 11324   0.269E-01    0.117E-01
DAV:   9    -0.200402179120E+03    0.36330E-04   -0.47829E-04 11336   0.110E-01    0.705E-02
DAV:  10    -0.200402152954E+03    0.26166E-04   -0.16767E-04 11284   0.696E-02    0.442E-02
DAV:  11    -0.200402164656E+03   -0.11702E-04   -0.70961E-05 10080   0.458E-02    0.434E-02
DAV:  12    -0.200402165490E+03   -0.83411E-06   -0.32211E-05  7028   0.297E-02
  10 F= -.20040217E+03 E0= -.19774356E+03  d E =-.102834E+00
       N       E                     dE             d eps       ncg     rms          rms(c)
DAV:   1    -0.200466974326E+03   -0.64810E-01   -0.14470E+01 10944   0.785E+00    0.922E-01
DAV:   2    -0.200503252225E+03   -0.36278E-01   -0.35002E-01 11164   0.111E+00    0.114E+00
DAV:   3    -0.200505056243E+03   -0.18040E-02   -0.51127E-02 12144   0.934E-01    0.103E+00
DAV:   4    -0.200507160273E+03   -0.21040E-02   -0.60411E-02 11960   0.108E+00    0.114E+00
DAV:   5    -0.200497895784E+03    0.92645E-02   -0.24668E-02 12616   0.773E-01    0.611E-01
DAV:   6    -0.200497672416E+03    0.22337E-03   -0.84880E-03 11724   0.520E-01    0.536E-01
DAV:   7    -0.200495600315E+03    0.20721E-02   -0.44181E-03 12340   0.340E-01    0.165E-01
DAV:   8    -0.200495472107E+03    0.12821E-03   -0.15087E-03 11236   0.188E-01    0.101E-01
DAV:   9    -0.200495428227E+03    0.43880E-04   -0.40004E-04 11328   0.104E-01    0.635E-02
DAV:  10    -0.200495395156E+03    0.33070E-04   -0.92334E-05 11256   0.529E-02    0.254E-02
DAV:  11    -0.200495402798E+03   -0.76415E-05   -0.35606E-05  7820   0.301E-02
  11 F= -.20049540E+03 E0= -.19784355E+03  d E =-.932373E-01
       N       E                     dE             d eps       ncg     rms          rms(c)
DAV:   1    -0.200525768185E+03   -0.30373E-01   -0.68794E+00 10944   0.502E+00    0.893E-01
DAV:   2    -0.200538406564E+03   -0.12638E-01   -0.18861E-01 11440   0.769E-01    0.809E-01
DAV:   3    -0.200547623602E+03   -0.92170E-02   -0.49830E-02 13492   0.848E-01    0.129E+00
DAV:   4    -0.200541259123E+03    0.63645E-02   -0.59170E-02 12208   0.105E+00    0.999E-01
DAV:   5    -0.200533964138E+03    0.72950E-02   -0.20956E-02 12728   0.691E-01    0.517E-01
DAV:   6    -0.200534102848E+03   -0.13871E-03   -0.10419E-02 11672   0.537E-01    0.485E-01
DAV:   7    -0.200531864488E+03    0.22384E-02   -0.44345E-03 11880   0.384E-01    0.190E-01
DAV:   8    -0.200531587898E+03    0.27659E-03   -0.13325E-03 11556   0.192E-01    0.859E-02
DAV:   9    -0.200531613932E+03   -0.26034E-04   -0.39808E-04 11336   0.985E-02    0.670E-02
DAV:  10    -0.200531604422E+03    0.95104E-05   -0.12294E-04 11368   0.619E-02    0.285E-02
DAV:  11    -0.200531652015E+03   -0.47594E-04   -0.48779E-05  8268   0.355E-02    0.315E-02
DAV:  12    -0.200531684967E+03   -0.32952E-04   -0.25966E-05  7128   0.280E-02    0.119E-02
DAV:  13    -0.200531721410E+03   -0.36443E-04   -0.12541E-05  7008   0.160E-02    0.129E-02
DAV:  14    -0.200531752488E+03   -0.31077E-04   -0.68600E-06  6992   0.116E-02    0.513E-03
DAV:  15    -0.200531775773E+03   -0.23285E-04   -0.37285E-06  6824   0.729E-03    0.675E-03
DAV:  16    -0.200531799128E+03   -0.23356E-04   -0.37806E-06  7004   0.611E-03    0.311E-03
DAV:  17    -0.200531806091E+03   -0.69629E-05   -0.13164E-06  6620   0.386E-03
  12 F= -.20053181E+03 E0= -.19788436E+03  d E =-.364033E-01
       N       E                     dE             d eps       ncg     rms          rms(c)
DAV:   1    -0.200557688166E+03   -0.25889E-01   -0.46091E-01 10944   0.104E+00    0.224E-01
DAV:   2    -0.200558717204E+03   -0.10290E-02   -0.12014E-02 11724   0.176E-01    0.207E-01
DAV:   3    -0.200559330496E+03   -0.61329E-03   -0.36628E-03 13164   0.236E-01    0.343E-01
DAV:   4    -0.200558965563E+03    0.36493E-03   -0.39002E-03 12900   0.275E-01    0.278E-01
DAV:   5    -0.200558311644E+03    0.65392E-03   -0.13730E-03 13056   0.178E-01    0.109E-01
DAV:   6    -0.200558257595E+03    0.54048E-04   -0.46980E-04 11600   0.108E-01    0.748E-02
DAV:   7    -0.200558218603E+03    0.38992E-04   -0.17409E-04 11512   0.730E-02    0.476E-02
DAV:   8    -0.200558194925E+03    0.23678E-04   -0.48481E-05  9112   0.412E-02    0.179E-02
DAV:   9    -0.200558194707E+03    0.21818E-06   -0.16813E-05  6460   0.195E-02
  13 F= -.20055819E+03 E0= -.19791082E+03  d E =-.263886E-01
       N       E                     dE             d eps       ncg     rms          rms(c)
DAV:   1    -0.200584520925E+03   -0.26326E-01   -0.13402E+00 10944   0.189E+00    0.330E-01
DAV:   2    -0.200587429552E+03   -0.29086E-02   -0.33216E-02 11736   0.294E-01    0.324E-01
DAV:   3    -0.200588504293E+03   -0.10747E-02   -0.79411E-03 13028   0.347E-01    0.494E-01
DAV:   4    -0.200587779440E+03    0.72485E-03   -0.79229E-03 12848   0.392E-01    0.401E-01
DAV:   5    -0.200586468268E+03    0.13112E-02   -0.29211E-03 12976   0.260E-01    0.169E-01
DAV:   6    -0.200586367840E+03    0.10043E-03   -0.11300E-03 11652   0.171E-01    0.124E-01
DAV:   7    -0.200586272389E+03    0.95451E-04   -0.47458E-04 11500   0.121E-01    0.788E-02
DAV:   8    -0.200586210072E+03    0.62316E-04   -0.13199E-04 11680   0.682E-02    0.284E-02
DAV:   9    -0.200586212873E+03   -0.28008E-05   -0.48152E-05  9552   0.325E-02
  14 F= -.20058621E+03 E0= -.19793915E+03  d E =-.280182E-01
       N       E                     dE             d eps       ncg     rms          rms(c)
DAV:   1    -0.200609464928E+03   -0.23255E-01   -0.10522E+00 10944   0.199E+00    0.234E-01
DAV:   2    -0.200611377216E+03   -0.19123E-02   -0.21034E-02 11304   0.260E-01    0.153E-01
DAV:   3    -0.200612345556E+03   -0.96834E-03   -0.29507E-03 12300   0.231E-01    0.365E-01
DAV:   4    -0.200611462801E+03    0.88276E-03   -0.28397E-03 12028   0.231E-01    0.181E-01
DAV:   5    -0.200611288909E+03    0.17389E-03   -0.80182E-04 12304   0.137E-01    0.103E-01
DAV:   6    -0.200611383688E+03   -0.94779E-04   -0.48755E-04 11540   0.116E-01    0.119E-01
DAV:   7    -0.200611255761E+03    0.12793E-03   -0.25317E-04 11796   0.931E-02    0.312E-02
DAV:   8    -0.200611259464E+03   -0.37029E-05   -0.67716E-05 11068   0.403E-02
  15 F= -.20061126E+03 E0= -.19796530E+03  d E =-.250466E-01
       N       E                     dE             d eps       ncg     rms          rms(c)
DAV:   1    -0.200640290854E+03   -0.29035E-01   -0.16960E+00 10944   0.255E+00    0.302E-01
DAV:   2    -0.200643318262E+03   -0.30274E-02   -0.34048E-02 11248   0.331E-01    0.193E-01
DAV:   3    -0.200644610032E+03   -0.12918E-02   -0.41037E-03 12360   0.263E-01    0.428E-01
DAV:   4    -0.200643433393E+03    0.11766E-02   -0.40775E-03 11980   0.276E-01    0.224E-01
DAV:   5    -0.200643217240E+03    0.21615E-03   -0.13584E-03 12452   0.174E-01    0.141E-01
DAV:   6    -0.200643337747E+03   -0.12051E-03   -0.77554E-04 11588   0.148E-01    0.152E-01
DAV:   7    -0.200643121102E+03    0.21664E-03   -0.39264E-04 11976   0.118E-01    0.381E-02
DAV:   8    -0.200643128528E+03   -0.74252E-05   -0.11095E-04 11248   0.502E-02    0.354E-02
DAV:   9    -0.200643115832E+03    0.12695E-04   -0.31612E-05  7232   0.323E-02    0.125E-02
DAV:  10    -0.200643115408E+03    0.42400E-06   -0.78354E-06  5832   0.126E-02
  16 F= -.20064312E+03 E0= -.19799852E+03  d E =-.318559E-01
       N       E                     dE             d eps       ncg     rms          rms(c)
DAV:   1    -0.200676832404E+03   -0.33717E-01   -0.26268E+00 10944   0.316E+00    0.369E-01
DAV:   2    -0.200681647435E+03   -0.48150E-02   -0.52585E-02 11292   0.417E-01    0.258E-01
DAV:   3    -0.200684432517E+03   -0.27851E-02   -0.89608E-03 12304   0.394E-01    0.617E-01
DAV:   4    -0.200681843322E+03    0.25892E-02   -0.79671E-03 11956   0.389E-01    0.298E-01
DAV:   5    -0.200681313951E+03    0.52937E-03   -0.18528E-03 12220   0.212E-01    0.153E-01
DAV:   6    -0.200681575848E+03   -0.26190E-03   -0.12120E-03 11568   0.180E-01    0.192E-01
DAV:   7    -0.200681239932E+03    0.33592E-03   -0.61340E-04 11812   0.144E-01    0.476E-02
DAV:   8    -0.200681259291E+03   -0.19359E-04   -0.21079E-04 11212   0.686E-02    0.526E-02
DAV:   9    -0.200681232034E+03    0.27257E-04   -0.65978E-05  9448   0.454E-02    0.158E-02
DAV:  10    -0.200681230919E+03    0.11152E-05   -0.12076E-05  5972   0.168E-02
  17 F= -.20068123E+03 E0= -.19803832E+03  d E =-.381155E-01
       N       E                     dE             d eps       ncg     rms          rms(c)
DAV:   1    -0.200718988281E+03   -0.37756E-01   -0.36768E+00 10944   0.376E+00    0.436E-01
DAV:   2    -0.200725751986E+03   -0.67637E-02   -0.73956E-02 11224   0.501E-01    0.312E-01
DAV:   3    -0.200729601193E+03   -0.38492E-02   -0.12694E-02 12220   0.474E-01    0.727E-01
DAV:   4    -0.200726030623E+03    0.35706E-02   -0.11241E-02 11888   0.463E-01    0.354E-01
DAV:   5    -0.200725286083E+03    0.74454E-03   -0.26386E-03 12216   0.256E-01    0.184E-01
DAV:   6    -0.200725642417E+03   -0.35633E-03   -0.16697E-03 11552   0.214E-01    0.227E-01
DAV:   7    -0.200725167164E+03    0.47525E-03   -0.85698E-04 11808   0.171E-01    0.542E-02
DAV:   8    -0.200725201211E+03   -0.34047E-04   -0.29970E-04 11244   0.813E-02    0.662E-02
DAV:   9    -0.200725157234E+03    0.43977E-04   -0.98395E-05 10744   0.553E-02    0.174E-02
DAV:  10    -0.200725156122E+03    0.11116E-05   -0.16007E-05  6204   0.186E-02
  18 F= -.20072516E+03 E0= -.19808415E+03  d E =-.439252E-01
       N       E                     dE             d eps       ncg     rms          rms(c)
DAV:   1    -0.200765077771E+03   -0.39921E-01   -0.50879E+00 10944   0.442E+00    0.505E-01
DAV:   2    -0.200774595947E+03   -0.95182E-02   -0.10246E-01 11240   0.592E-01    0.372E-01
DAV:   3    -0.200779880421E+03   -0.52845E-02   -0.18027E-02 12284   0.562E-01    0.853E-01
DAV:   4    -0.200775092001E+03    0.47884E-02   -0.15833E-02 11884   0.551E-01    0.432E-01
DAV:   5    -0.200773864470E+03    0.12275E-02   -0.36189E-03 12232   0.300E-01    0.204E-01
DAV:   6    -0.200774381001E+03   -0.51653E-03   -0.22768E-03 11492   0.245E-01    0.263E-01
DAV:   7    -0.200773765928E+03    0.61507E-03   -0.11362E-03 11712   0.196E-01    0.662E-02
DAV:   8    -0.200773805909E+03   -0.39981E-04   -0.41447E-04 11216   0.968E-02    0.758E-02
DAV:   9    -0.200773750501E+03    0.55408E-04   -0.14197E-04 11436   0.651E-02    0.234E-02
DAV:  10    -0.200773747215E+03    0.32853E-05   -0.24030E-05  7064   0.239E-02
  19 F= -.20077375E+03 E0= -.19813480E+03  d E =-.485911E-01
       N       E                     dE             d eps       ncg     rms          rms(c)
DAV:   1    -0.200814525714E+03   -0.40775E-01   -0.64464E+00 10944   0.504E+00    0.573E-01
DAV:   2    -0.200826490489E+03   -0.11965E-01   -0.13161E-01 11172   0.670E-01    0.390E-01
DAV:   3    -0.200832378094E+03   -0.58876E-02   -0.19122E-02 12312   0.582E-01    0.897E-01
DAV:   4    -0.200827033739E+03    0.53444E-02   -0.17647E-02 11908   0.580E-01    0.446E-01
DAV:   5    -0.200825933995E+03    0.10997E-02   -0.45280E-03 12208   0.335E-01    0.249E-01
DAV:   6    -0.200826424812E+03   -0.49082E-03   -0.27851E-03 11480   0.279E-01    0.289E-01
DAV:   7    -0.200825670922E+03    0.75389E-03   -0.14121E-03 11812   0.221E-01    0.756E-02
DAV:   8    -0.200825731275E+03   -0.60353E-04   -0.53891E-04 11204   0.112E-01    0.899E-02
DAV:   9    -0.200825650386E+03    0.80889E-04   -0.18001E-04 11456   0.749E-02    0.242E-02
DAV:  10    -0.200825647217E+03    0.31694E-05   -0.27814E-05  7144   0.245E-02
  20 F= -.20082565E+03 E0= -.19818900E+03  d E =-.519000E-01
       N       E                     dE             d eps       ncg     rms          rms(c)
DAV:   1    -0.200863363234E+03   -0.37713E-01   -0.86854E+00 10944   0.580E+00    0.652E-01
DAV:   2    -0.200880161565E+03   -0.16798E-01   -0.17871E-01 11172   0.773E-01    0.458E-01
DAV:   3    -0.200888933482E+03   -0.87719E-02   -0.29246E-02 12708   0.707E-01    0.109E+00
DAV:   4    -0.200881327196E+03    0.76063E-02   -0.26612E-02 12044   0.714E-01    0.569E-01
DAV:   5    -0.200879013766E+03    0.23134E-02   -0.60315E-03 12324   0.385E-01    0.249E-01
DAV:   6    -0.200879729823E+03   -0.71606E-03   -0.36090E-03 11496   0.301E-01    0.315E-01
DAV:   7    -0.200878915318E+03    0.81450E-03   -0.17328E-03 11656   0.240E-01    0.103E-01
DAV:   8    -0.200878907022E+03    0.82965E-05   -0.62994E-04 11328   0.127E-01    0.820E-02
DAV:   9    -0.200878857066E+03    0.49956E-04   -0.22573E-04 11276   0.783E-02    0.394E-02
DAV:  10    -0.200878844018E+03    0.13049E-04   -0.45367E-05  8520   0.368E-02    0.173E-02
DAV:  11    -0.200878844137E+03   -0.11910E-06   -0.15027E-05  6156   0.190E-02
  21 F= -.20087884E+03 E0= -.19824442E+03  d E =-.531969E-01
       N       E                     dE             d eps       ncg     rms          rms(c)
DAV:   1    -0.200912569481E+03   -0.33725E-01   -0.83297E+00 10944   0.584E+00    0.698E-01
DAV:   2    -0.200927179149E+03   -0.14610E-01   -0.17617E-01 11424   0.779E-01    0.430E-01
DAV:   3    -0.200927437823E+03   -0.25867E-03   -0.81420E-03 11880   0.367E-01    0.447E-01
DAV:   4    -0.200928033105E+03   -0.59528E-03   -0.87282E-03 11780   0.448E-01    0.477E-01
DAV:   5    -0.200929717755E+03   -0.16846E-02   -0.13477E-02 11964   0.521E-01    0.623E-01
DAV:   6    -0.200926967399E+03    0.27504E-02   -0.76918E-03 12112   0.433E-01    0.294E-01
DAV:   7    -0.200926199749E+03    0.76765E-03   -0.18876E-03 11920   0.249E-01    0.107E-01
DAV:   8    -0.200926194033E+03    0.57157E-05   -0.55956E-04 11948   0.123E-01    0.921E-02
DAV:   9    -0.200926111302E+03    0.82732E-04   -0.20620E-04 11332   0.778E-02    0.286E-02
DAV:  10    -0.200926112132E+03   -0.83012E-06   -0.31816E-05  7024   0.280E-02
  22 F= -.20092611E+03 E0= -.19829454E+03  d E =-.472680E-01
       N       E                     dE             d eps       ncg     rms          rms(c)
DAV:   1    -0.200937998659E+03   -0.11887E-01   -0.75363E+00 10944   0.494E+00    0.713E-01
DAV:   2    -0.200954932486E+03   -0.16934E-01   -0.18955E-01 11680   0.747E-01    0.639E-01
DAV:   3    -0.200961987447E+03   -0.70550E-02   -0.37139E-02 13244   0.784E-01    0.112E+00
DAV:   4    -0.200955993657E+03    0.59938E-02   -0.36054E-02 12516   0.837E-01    0.765E-01
DAV:   5    -0.200951332076E+03    0.46616E-02   -0.11285E-02 12724   0.530E-01    0.354E-01
DAV:   6    -0.200951058001E+03    0.27408E-03   -0.53362E-03 11604   0.373E-01    0.292E-01
DAV:   7    -0.200950536849E+03    0.52115E-03   -0.25467E-03 11560   0.281E-01    0.187E-01
DAV:   8    -0.200950183034E+03    0.35382E-03   -0.76199E-04 11800   0.163E-01    0.707E-02
DAV:   9    -0.200950176547E+03    0.64871E-05   -0.28925E-04 11380   0.793E-02    0.554E-02
DAV:  10    -0.200950166132E+03    0.10415E-04   -0.89592E-05 11140   0.486E-02    0.292E-02
DAV:  11    -0.200950168443E+03   -0.23106E-05   -0.36000E-05  7008   0.330E-02
  23 F= -.20095017E+03 E0= -.19831927E+03  d E =-.240563E-01
       N       E                     dE             d eps       ncg     rms          rms(c)
DAV:   1    -0.200968258418E+03   -0.18092E-01   -0.27973E-01 10944   0.906E-01    0.208E-01
DAV:   2    -0.200968592750E+03   -0.33433E-03   -0.70403E-03 11632   0.155E-01    0.135E-01
DAV:   3    -0.200969283268E+03   -0.69052E-03   -0.22502E-03 14448   0.197E-01    0.305E-01
DAV:   4    -0.200968758631E+03    0.52464E-03   -0.28873E-03 12256   0.236E-01    0.194E-01
DAV:   5    -0.200968475967E+03    0.28266E-03   -0.90887E-04 13064   0.150E-01    0.101E-01
DAV:   6    -0.200968438071E+03    0.37896E-04   -0.38047E-04 11732   0.100E-01    0.752E-02
DAV:   7    -0.200968392066E+03    0.46005E-04   -0.14261E-04 11632   0.687E-02    0.394E-02
DAV:   8    -0.200968378751E+03    0.13315E-04   -0.37226E-05  8084   0.351E-02    0.172E-02
DAV:   9    -0.200968378438E+03    0.31315E-06   -0.13584E-05  6356   0.179E-02
  24 F= -.20096838E+03 E0= -.19833792E+03  d E =-.182100E-01
       N       E                     dE             d eps       ncg     rms          rms(c)
DAV:   1    -0.200984925472E+03   -0.16547E-01   -0.61861E-01 10944   0.155E+00    0.225E-01
DAV:   2    -0.200985902325E+03   -0.97685E-03   -0.14438E-02 11484   0.226E-01    0.147E-01
DAV:   3    -0.200986044683E+03   -0.14236E-03   -0.12649E-03 11804   0.153E-01    0.186E-01
DAV:   4    -0.200986192317E+03   -0.14763E-03   -0.19789E-03 11912   0.206E-01    0.233E-01
DAV:   5    -0.200985835926E+03    0.35639E-03   -0.13986E-03 11824   0.174E-01    0.115E-01
DAV:   6    -0.200985728542E+03    0.10738E-03   -0.36223E-04 11788   0.103E-01    0.606E-02
DAV:   7    -0.200985706093E+03    0.22450E-04   -0.14515E-04 11540   0.657E-02    0.422E-02
DAV:   8    -0.200985700649E+03    0.54442E-05   -0.50607E-05  8256   0.408E-02
  25 F= -.20098570E+03 E0= -.19835624E+03  d E =-.173222E-01
       N       E                     dE             d eps       ncg     rms          rms(c)
DAV:   1    -0.201003844913E+03   -0.18139E-01   -0.11182E+00 10944   0.212E+00    0.228E-01
DAV:   2    -0.201006122643E+03   -0.22777E-02   -0.23570E-02 11192   0.295E-01    0.188E-01
DAV:   3    -0.201007015214E+03   -0.89257E-03   -0.38132E-03 12148   0.268E-01    0.364E-01
DAV:   4    -0.201006324975E+03    0.69024E-03   -0.33907E-03 11764   0.258E-01    0.229E-01
DAV:   5    -0.201005926302E+03    0.39867E-03   -0.90291E-04 12012   0.154E-01    0.893E-02
DAV:   6    -0.201005998742E+03   -0.72441E-04   -0.40877E-04 11500   0.105E-01    0.108E-01
DAV:   7    -0.201005913925E+03    0.84818E-04   -0.20803E-04 11564   0.815E-02    0.361E-02
DAV:   8    -0.201005917149E+03   -0.32243E-05   -0.91137E-05 11104   0.480E-02
  26 F= -.20100592E+03 E0= -.19837714E+03  d E =-.202165E-01
       N       E                     dE             d eps       ncg     rms          rms(c)
DAV:   1    -0.201030118669E+03   -0.24205E-01   -0.18082E+00 10944   0.272E+00    0.290E-01
DAV:   2    -0.201033587996E+03   -0.34693E-02   -0.38067E-02 11192   0.368E-01    0.196E-01
DAV:   3    -0.201034378780E+03   -0.79078E-03   -0.34537E-03 12044   0.249E-01    0.352E-01
DAV:   4    -0.201033866028E+03    0.51275E-03   -0.36525E-03 11832   0.263E-01    0.248E-01
DAV:   5    -0.201033477111E+03    0.38892E-03   -0.14375E-03 12032   0.185E-01    0.128E-01
DAV:   6    -0.201033591677E+03   -0.11457E-03   -0.67761E-04 11516   0.141E-01    0.145E-01
DAV:   7    -0.201033422109E+03    0.16957E-03   -0.37198E-04 11836   0.115E-01    0.527E-02
DAV:   8    -0.201033420090E+03    0.20184E-05   -0.16194E-04 11296   0.666E-02    0.445E-02
DAV:   9    -0.201033402457E+03    0.17633E-04   -0.45201E-05  7944   0.372E-02    0.165E-02
DAV:  10    -0.201033400217E+03    0.22405E-05   -0.74434E-06  5868   0.137E-02
  27 F= -.20103340E+03 E0= -.19840594E+03  d E =-.274831E-01
       N       E                     dE             d eps       ncg     rms          rms(c)
DAV:   1    -0.201062300755E+03   -0.28898E-01   -0.28355E+00 10944   0.340E+00    0.358E-01
DAV:   2    -0.201067812122E+03   -0.55114E-02   -0.59880E-02 11152   0.458E-01    0.241E-01
DAV:   3    -0.201069555899E+03   -0.17438E-02   -0.64152E-03 12076   0.338E-01    0.498E-01
DAV:   4    -0.201068184915E+03    0.13710E-02   -0.64243E-03 11836   0.351E-01    0.298E-01
DAV:   5    -0.201067589509E+03    0.59541E-03   -0.18787E-03 12088   0.215E-01    0.145E-01
DAV:   6    -0.201067801175E+03   -0.21167E-03   -0.10259E-03 11496   0.170E-01    0.180E-01
DAV:   7    -0.201067529798E+03    0.27138E-03   -0.53824E-04 11780   0.137E-01    0.522E-02
DAV:   8    -0.201067545693E+03   -0.15894E-04   -0.21371E-04 11256   0.744E-02    0.566E-02
DAV:   9    -0.201067515757E+03    0.29936E-04   -0.70097E-05  9436   0.464E-02    0.173E-02
DAV:  10    -0.201067513627E+03    0.21298E-05   -0.10479E-05  5908   0.161E-02
  28 F= -.20106751E+03 E0= -.19844154E+03  d E =-.341134E-01
       N       E                     dE             d eps       ncg     rms          rms(c)
DAV:   1    -0.201100128663E+03   -0.32613E-01   -0.37898E+00 10944   0.396E+00    0.420E-01
DAV:   2    -0.201107425886E+03   -0.72972E-02   -0.81092E-02 11216   0.533E-01    0.264E-01
DAV:   3    -0.201108251995E+03   -0.82611E-03   -0.48724E-03 11904   0.299E-01    0.393E-01
DAV:   4    -0.201107905053E+03    0.34694E-03   -0.51438E-03 11904   0.315E-01    0.326E-01
DAV:   5    -0.201107410999E+03    0.49405E-03   -0.32285E-03 11976   0.267E-01    0.216E-01
DAV:   6    -0.201107513581E+03   -0.10258E-03   -0.14479E-03 11796   0.207E-01    0.210E-01
DAV:   7    -0.201107129541E+03    0.38404E-03   -0.76604E-04 11748   0.164E-01    0.612E-02
DAV:   8    -0.201107156781E+03   -0.27240E-04   -0.28213E-04 11400   0.862E-02    0.702E-02
DAV:   9    -0.201107108709E+03    0.48072E-04   -0.10179E-04 10496   0.569E-02    0.198E-02
DAV:  10    -0.201107106089E+03    0.26198E-05   -0.13245E-05  5924   0.173E-02
  29 F= -.20110711E+03 E0= -.19848304E+03  d E =-.395925E-01
       N       E                     dE             d eps       ncg     rms          rms(c)
DAV:   1    -0.201140951475E+03   -0.33843E-01   -0.53691E+00 10944   0.467E+00    0.494E-01
DAV:   2    -0.201151555103E+03   -0.10604E-01   -0.11517E-01 11144   0.624E-01    0.304E-01
DAV:   3    -0.201154102924E+03   -0.25478E-02   -0.96736E-03 12152   0.408E-01    0.607E-01
DAV:   4    -0.201152379604E+03    0.17233E-02   -0.10410E-02 11896   0.446E-01    0.409E-01
DAV:   5    -0.201151203117E+03    0.11765E-02   -0.36684E-03 12036   0.294E-01    0.193E-01
DAV:   6    -0.201151570712E+03   -0.36759E-03   -0.18492E-03 11460   0.226E-01    0.241E-01
DAV:   7    -0.201151102560E+03    0.46815E-03   -0.10028E-03 11532   0.186E-01    0.797E-02
DAV:   8    -0.201151094704E+03    0.78555E-05   -0.35303E-04 11368   0.988E-02    0.653E-02
DAV:   9    -0.201151062173E+03    0.32531E-04   -0.12272E-04 11224   0.582E-02    0.291E-02
DAV:  10    -0.201151055275E+03    0.68983E-05   -0.21316E-05  6572   0.255E-02
  30 F= -.20115106E+03 E0= -.19852900E+03  d E =-.439492E-01
       N       E                     dE             d eps       ncg     rms          rms(c)
DAV:   1    -0.201187438157E+03   -0.36376E-01   -0.56095E+00 10944   0.486E+00    0.541E-01
DAV:   2    -0.201198105797E+03   -0.10668E-01   -0.12341E-01 11428   0.667E-01    0.356E-01
DAV:   3    -0.201200731987E+03   -0.26262E-02   -0.10547E-02 11800   0.474E-01    0.620E-01
DAV:   4    -0.201198602948E+03    0.21290E-02   -0.11775E-02 11796   0.497E-01    0.401E-01
DAV:   5    -0.201197841212E+03    0.76174E-03   -0.44245E-03 11508   0.326E-01    0.240E-01
DAV:   6    -0.201197550854E+03    0.29036E-03   -0.14418E-03 11536   0.206E-01    0.138E-01
DAV:   7    -0.201197462915E+03    0.87939E-04   -0.89276E-04 11448   0.159E-01    0.944E-02
DAV:   8    -0.201197421592E+03    0.41323E-04   -0.28005E-04 11712   0.896E-02    0.600E-02
DAV:   9    -0.201197389099E+03    0.32494E-04   -0.80696E-05  9984   0.495E-02    0.273E-02
DAV:  10    -0.201197385154E+03    0.39444E-05   -0.18611E-05  6468   0.232E-02
  31 F= -.20119739E+03 E0= -.19857796E+03  d E =-.463299E-01
       N       E                     dE             d eps       ncg     rms          rms(c)
DAV:   1    -0.201220584295E+03   -0.23195E-01   -0.65553E+00 10944   0.492E+00    0.596E-01
DAV:   2    -0.201234309457E+03   -0.13725E-01   -0.15277E-01 11512   0.693E-01    0.451E-01
DAV:   3    -0.201240089694E+03   -0.57802E-02   -0.22913E-02 12880   0.630E-01    0.929E-01
DAV:   4    -0.201235547783E+03    0.45419E-02   -0.24101E-02 12036   0.684E-01    0.598E-01
DAV:   5    -0.201232620522E+03    0.29273E-02   -0.66391E-03 12404   0.411E-01    0.254E-01
DAV:   6    -0.201232805089E+03   -0.18457E-03   -0.34145E-03 11516   0.295E-01    0.264E-01
DAV:   7    -0.201232337480E+03    0.46761E-03   -0.16547E-03 11480   0.230E-01    0.144E-01
DAV:   8    -0.201232137854E+03    0.19963E-03   -0.48093E-04 11744   0.126E-01    0.562E-02
DAV:   9    -0.201232138792E+03   -0.93835E-06   -0.19264E-04 11304   0.631E-02    0.448E-02
DAV:  10    -0.201232131511E+03    0.72811E-05   -0.62317E-05  9868   0.416E-02
  32 F= -.20123213E+03 E0= -.19861419E+03  d E =-.347464E-01
       N       E                     dE             d eps       ncg     rms          rms(c)
DAV:   1    -0.201256674924E+03   -0.24536E-01   -0.11583E+00 10944   0.197E+00    0.378E-01
DAV:   2    -0.201258621219E+03   -0.19463E-02   -0.30587E-02 11516   0.347E-01    0.295E-01
DAV:   3    -0.201261675635E+03   -0.30544E-02   -0.99823E-03 12272   0.449E-01    0.648E-01
DAV:   4    -0.201258612412E+03    0.30632E-02   -0.10326E-02 12032   0.454E-01    0.302E-01
DAV:   5    -0.201258047247E+03    0.56517E-03   -0.28836E-03 12124   0.278E-01    0.209E-01
DAV:   6    -0.201257856360E+03    0.19089E-03   -0.14643E-03 11720   0.204E-01    0.155E-01
DAV:   7    -0.201257638062E+03    0.21830E-03   -0.56914E-04 11696   0.141E-01    0.741E-02
DAV:   8    -0.201257590569E+03    0.47493E-04   -0.15686E-04 11776   0.690E-02    0.324E-02
DAV:   9    -0.201257588652E+03    0.19175E-05   -0.51224E-05  9572   0.347E-02
  33 F= -.20125759E+03 E0= -.19864094E+03  d E =-.254571E-01
       N       E                     dE             d eps       ncg     rms          rms(c)
DAV:   1    -0.201274907898E+03   -0.17317E-01   -0.90993E-01 10944   0.190E+00    0.210E-01
DAV:   2    -0.201276748201E+03   -0.18403E-02   -0.19970E-02 11348   0.262E-01    0.148E-01
DAV:   3    -0.201277445994E+03   -0.69779E-03   -0.26273E-03 12008   0.222E-01    0.312E-01
DAV:   4    -0.201276937458E+03    0.50854E-03   -0.26818E-03 11796   0.231E-01    0.198E-01
DAV:   5    -0.201276625398E+03    0.31206E-03   -0.71450E-04 12028   0.136E-01    0.765E-02
DAV:   6    -0.201276684961E+03   -0.59564E-04   -0.33915E-04 11456   0.947E-02    0.955E-02
DAV:   7    -0.201276624765E+03    0.60196E-04   -0.18192E-04 11424   0.773E-02    0.438E-02
DAV:   8    -0.201276609273E+03    0.15493E-04   -0.55837E-05  8692   0.413E-02    0.195E-02
DAV:   9    -0.201276608395E+03    0.87721E-06   -0.19703E-05  6720   0.212E-02
  34 F= -.20127661E+03 E0= -.19866079E+03  d E =-.190197E-01
       N       E                     dE             d eps       ncg     rms          rms(c)
DAV:   1    -0.201300055696E+03   -0.23446E-01   -0.13042E+00 10944   0.234E+00    0.245E-01
DAV:   2    -0.201302622161E+03   -0.25665E-02   -0.28637E-02 11220   0.323E-01    0.166E-01
DAV:   3    -0.201302752208E+03   -0.13005E-03   -0.15993E-03 11784   0.190E-01    0.191E-01
DAV:   4    -0.201302725876E+03    0.26332E-04   -0.12547E-03 11652   0.182E-01    0.182E-01
DAV:   5    -0.201302609077E+03    0.11680E-03   -0.10956E-03 11952   0.150E-01    0.135E-01
DAV:   6    -0.201302615280E+03   -0.62034E-05   -0.57963E-04 11916   0.116E-01    0.118E-01
DAV:   7    -0.201302498467E+03    0.11681E-03   -0.26792E-04 11688   0.937E-02    0.426E-02
DAV:   8    -0.201302499593E+03   -0.11261E-05   -0.10088E-04 11232   0.533E-02    0.384E-02
DAV:   9    -0.201302485681E+03    0.13911E-04   -0.32180E-05  6700   0.327E-02    0.134E-02
DAV:  10    -0.201302484284E+03    0.13974E-05   -0.56097E-06  5700   0.114E-02
  35 F= -.20130248E+03 E0= -.19868795E+03  d E =-.258759E-01
       N       E                     dE             d eps       ncg     rms          rms(c)
DAV:   1    -0.201332042616E+03   -0.29557E-01   -0.21401E+00 10944   0.298E+00    0.308E-01
DAV:   2    -0.201336287128E+03   -0.42445E-02   -0.46709E-02 11220   0.410E-01    0.210E-01
DAV:   3    -0.201336798008E+03   -0.51088E-03   -0.33316E-03 11748   0.256E-01    0.307E-01
DAV:   4    -0.201336704102E+03    0.93906E-04   -0.36089E-03 11964   0.267E-01    0.282E-01
DAV:   5    -0.201336141286E+03    0.56282E-03   -0.18147E-03 11880   0.205E-01    0.133E-01
DAV:   6    -0.201336276755E+03   -0.13547E-03   -0.69514E-04 11788   0.143E-01    0.156E-01
DAV:   7    -0.201336075662E+03    0.20109E-03   -0.42663E-04 11644   0.121E-01    0.522E-02
DAV:   8    -0.201336077521E+03   -0.18585E-05   -0.16377E-04 11316   0.669E-02    0.479E-02
DAV:   9    -0.201336057843E+03    0.19677E-04   -0.51952E-05  8220   0.401E-02    0.186E-02
DAV:  10    -0.201336055005E+03    0.28387E-05   -0.88730E-06  5760   0.154E-02
  36 F= -.20133606E+03 E0= -.19872313E+03  d E =-.335707E-01
       N       E                     dE             d eps       ncg     rms          rms(c)
DAV:   1    -0.201371896663E+03   -0.35839E-01   -0.29886E+00 10944   0.355E+00    0.370E-01
DAV:   2    -0.201377828431E+03   -0.59318E-02   -0.66324E-02 11216   0.492E-01    0.253E-01
DAV:   3    -0.201378021140E+03   -0.19271E-03   -0.36838E-03 11652   0.279E-01    0.272E-01
DAV:   4    -0.201378017865E+03    0.32743E-05   -0.29569E-03 11800   0.255E-01    0.267E-01
DAV:   5    -0.201377869517E+03    0.14835E-03   -0.26959E-03 11716   0.236E-01    0.225E-01
DAV:   6    -0.201377766692E+03    0.10283E-03   -0.12512E-03 11932   0.185E-01    0.175E-01
DAV:   7    -0.201377511221E+03    0.25547E-03   -0.60761E-04 11740   0.141E-01    0.682E-02
DAV:   8    -0.201377507426E+03    0.37946E-05   -0.23534E-04 11580   0.806E-02    0.585E-02
DAV:   9    -0.201377480122E+03    0.27305E-04   -0.91937E-05 10888   0.516E-02    0.252E-02
DAV:  10    -0.201377474260E+03    0.58616E-05   -0.14404E-05  5952   0.205E-02
  37 F= -.20137747E+03 E0= -.19876659E+03  d E =-.414193E-01
       N       E                     dE             d eps       ncg     rms          rms(c)
DAV:   1    -0.201416720378E+03   -0.39240E-01   -0.42654E+00 10944   0.422E+00    0.436E-01
DAV:   2    -0.201425158967E+03   -0.84386E-02   -0.93477E-02 11272   0.574E-01    0.280E-01
DAV:   3    -0.201425970383E+03   -0.81142E-03   -0.58360E-03 11732   0.339E-01    0.393E-01
DAV:   4    -0.201425996596E+03   -0.26213E-04   -0.63957E-03 11980   0.357E-01    0.387E-01
DAV:   5    -0.201424941899E+03    0.10547E-02   -0.35344E-03 11856   0.283E-01    0.183E-01
DAV:   6    -0.201425176568E+03   -0.23467E-03   -0.12565E-03 11808   0.191E-01    0.207E-01
DAV:   7    -0.201424819600E+03    0.35697E-03   -0.80574E-04 11600   0.164E-01    0.741E-02
DAV:   8    -0.201424818096E+03    0.15044E-05   -0.30213E-04 11340   0.912E-02    0.652E-02
DAV:   9    -0.201424782603E+03    0.35493E-04   -0.96467E-05 10448   0.543E-02    0.265E-02
DAV:  10    -0.201424776751E+03    0.58521E-05   -0.16337E-05  5964   0.214E-02
  38 F= -.20142478E+03 E0= -.19881626E+03  d E =-.473025E-01
       N       E                     dE             d eps       ncg     rms          rms(c)
DAV:   1    -0.201465944680E+03   -0.41162E-01   -0.49276E+00 10944   0.458E+00    0.494E-01
DAV:   2    -0.201475865611E+03   -0.99209E-02   -0.11256E-01 11292   0.641E-01    0.343E-01
DAV:   3    -0.201477987636E+03   -0.21220E-02   -0.94413E-03 11808   0.461E-01    0.567E-01
DAV:   4    -0.201476320263E+03    0.16674E-02   -0.10310E-02 11748   0.467E-01    0.387E-01
DAV:   5    -0.201475494056E+03    0.82621E-03   -0.37721E-03 11524   0.308E-01    0.214E-01
DAV:   6    -0.201475483186E+03    0.10870E-04   -0.14459E-03 11672   0.209E-01    0.185E-01
DAV:   7    -0.201475243596E+03    0.23959E-03   -0.90856E-04 11500   0.171E-01    0.973E-02
DAV:   8    -0.201475236126E+03    0.74695E-05   -0.37617E-04 11732   0.104E-01    0.822E-02
DAV:   9    -0.201475171687E+03    0.64440E-04   -0.14373E-04 11220   0.669E-02    0.271E-02
DAV:  10    -0.201475165882E+03    0.58042E-05   -0.20291E-05  6232   0.233E-02
  39 F= -.20147517E+03 E0= -.19886958E+03  d E =-.503891E-01
       N       E                     dE             d eps       ncg     rms          rms(c)
DAV:   1    -0.201508985769E+03   -0.33814E-01   -0.65368E+00 10944   0.513E+00    0.565E-01
DAV:   2    -0.201522110918E+03   -0.13125E-01   -0.14628E-01 11312   0.691E-01    0.334E-01
DAV:   3    -0.201523785764E+03   -0.16748E-02   -0.96835E-03 11860   0.428E-01    0.534E-01
DAV:   4    -0.201523656004E+03    0.12976E-03   -0.11415E-02 12036   0.477E-01    0.520E-01
DAV:   5    -0.201521522075E+03    0.21339E-02   -0.58948E-03 11920   0.363E-01    0.202E-01
DAV:   6    -0.201521916696E+03   -0.39462E-03   -0.21040E-03 11628   0.241E-01    0.256E-01
DAV:   7    -0.201521392596E+03    0.52410E-03   -0.12921E-03 11528   0.207E-01    0.106E-01
DAV:   8    -0.201521315064E+03    0.77532E-04   -0.36523E-04 11516   0.103E-01    0.569E-02
DAV:   9    -0.201521303804E+03    0.11261E-04   -0.13026E-04 11348   0.561E-02    0.388E-02
DAV:  10    -0.201521292666E+03    0.11138E-04   -0.33373E-05  7040   0.327E-02    0.180E-02
DAV:  11    -0.201521293511E+03   -0.84599E-06   -0.12375E-05  6328   0.174E-02
  40 F= -.20152129E+03 E0= -.19891824E+03  d E =-.461276E-01
       N       E                     dE             d eps       ncg     rms          rms(c)
DAV:   1    -0.201547916726E+03   -0.26624E-01   -0.31345E+00 10944   0.348E+00    0.520E-01
DAV:   2    -0.201554470541E+03   -0.65538E-02   -0.85148E-02 11492   0.584E-01    0.438E-01
DAV:   3    -0.201558830706E+03   -0.43602E-02   -0.17116E-02 11968   0.596E-01    0.809E-01
DAV:   4    -0.201554309814E+03    0.45209E-02   -0.17067E-02 11884   0.590E-01    0.411E-01
DAV:   5    -0.201553559771E+03    0.75004E-03   -0.52278E-03 11744   0.392E-01    0.317E-01
DAV:   6    -0.201553154642E+03    0.40513E-03   -0.31969E-03 11816   0.312E-01    0.244E-01
DAV:   7    -0.201552589301E+03    0.56534E-03   -0.13103E-03 11668   0.217E-01    0.106E-01
DAV:   8    -0.201552518039E+03    0.71262E-04   -0.43326E-04 11728   0.113E-01    0.630E-02
DAV:   9    -0.201552502619E+03    0.15421E-04   -0.14317E-04 11512   0.614E-02    0.363E-02
DAV:  10    -0.201552499057E+03    0.35616E-05   -0.36582E-05  7072   0.328E-02
  41 F= -.20155250E+03 E0= -.19895214E+03  d E =-.312055E-01
       N       E                     dE             d eps       ncg     rms          rms(c)
DAV:   1    -0.201572449137E+03   -0.19947E-01   -0.11900E+00 10944   0.204E+00    0.281E-01
DAV:   2    -0.201575038685E+03   -0.25895E-02   -0.30321E-02 11604   0.299E-01    0.206E-01
DAV:   3    -0.201576054711E+03   -0.10160E-02   -0.41487E-03 12760   0.277E-01    0.399E-01
DAV:   4    -0.201575320814E+03    0.73390E-03   -0.50558E-03 11996   0.317E-01    0.283E-01
DAV:   5    -0.201574656260E+03    0.66455E-03   -0.16507E-03 12240   0.204E-01    0.122E-01
DAV:   6    -0.201574675224E+03   -0.18964E-04   -0.79907E-04 11592   0.143E-01    0.123E-01
DAV:   7    -0.201574565005E+03    0.11022E-03   -0.37947E-04 11588   0.111E-01    0.681E-02
DAV:   8    -0.201574519288E+03    0.45717E-04   -0.92549E-05 10464   0.558E-02    0.251E-02
DAV:   9    -0.201574518446E+03    0.84241E-06   -0.37098E-05  8500   0.282E-02
  42 F= -.20157452E+03 E0= -.19897473E+03  d E =-.220194E-01
       N       E                     dE             d eps       ncg     rms          rms(c)
DAV:   1    -0.201594205654E+03   -0.19686E-01   -0.10970E+00 10944   0.215E+00    0.228E-01
DAV:   2    -0.201596509400E+03   -0.23037E-02   -0.25215E-02 11260   0.299E-01    0.158E-01
DAV:   3    -0.201597068197E+03   -0.55880E-03   -0.23815E-03 11752   0.235E-01    0.281E-01
DAV:   4    -0.201596658824E+03    0.40937E-03   -0.24280E-03 11780   0.227E-01    0.191E-01
DAV:   5    -0.201596394092E+03    0.26473E-03   -0.75006E-04 11648   0.136E-01    0.790E-02
DAV:   6    -0.201596408017E+03   -0.13925E-04   -0.23375E-04 11232   0.769E-02    0.683E-02
DAV:   7    -0.201596376098E+03    0.31919E-04   -0.14951E-04 11260   0.685E-02    0.328E-02
DAV:   8    -0.201596383508E+03   -0.74092E-05   -0.60205E-05  8244   0.417E-02
  43 F= -.20159638E+03 E0= -.19899777E+03  d E =-.218651E-01
       N       E                     dE             d eps       ncg     rms          rms(c)
DAV:   1    -0.201621194689E+03   -0.24819E-01   -0.17285E+00 10944   0.271E+00    0.288E-01
DAV:   2    -0.201624818247E+03   -0.36236E-02   -0.40127E-02 11292   0.383E-01    0.206E-01
DAV:   3    -0.201624954026E+03   -0.13578E-03   -0.24891E-03 11716   0.249E-01    0.210E-01
DAV:   4    -0.201624745151E+03    0.20887E-03   -0.14643E-03 11288   0.213E-01    0.156E-01
DAV:   5    -0.201624725507E+03    0.19645E-04   -0.79522E-04 11780   0.147E-01    0.138E-01
DAV:   6    -0.201624925601E+03   -0.20009E-03   -0.10248E-03 11900   0.146E-01    0.193E-01
DAV:   7    -0.201624612571E+03    0.31303E-03   -0.71423E-04 11728   0.127E-01    0.568E-02
DAV:   8    -0.201624606479E+03    0.60914E-05   -0.15561E-04 11392   0.645E-02    0.439E-02
DAV:   9    -0.201624590286E+03    0.16193E-04   -0.46414E-05  7604   0.373E-02    0.173E-02
DAV:  10    -0.201624587475E+03    0.28110E-05   -0.75464E-06  5788   0.143E-02
  44 F= -.20162459E+03 E0= -.19902771E+03  d E =-.282040E-01
       N       E                     dE             d eps       ncg     rms          rms(c)
DAV:   1    -0.201653754134E+03   -0.29164E-01   -0.25655E+00 10944   0.330E+00    0.350E-01
DAV:   2    -0.201659126142E+03   -0.53720E-02   -0.59661E-02 11284   0.462E-01    0.243E-01
DAV:   3    -0.201659308520E+03   -0.18238E-03   -0.34238E-03 11668   0.289E-01    0.248E-01
DAV:   4    -0.201659652432E+03   -0.34391E-03   -0.32338E-03 11560   0.286E-01    0.324E-01
DAV:   5    -0.201658937284E+03    0.71515E-03   -0.24087E-03 11780   0.224E-01    0.148E-01
DAV:   6    -0.201658931575E+03    0.57088E-05   -0.67613E-04 11408   0.128E-01    0.114E-01
DAV:   7    -0.201658837467E+03    0.94108E-04   -0.38843E-04 11380   0.108E-01    0.508E-02
DAV:   8    -0.201658857700E+03   -0.20233E-04   -0.15338E-04 11260   0.655E-02    0.602E-02
DAV:   9    -0.201658824718E+03    0.32981E-04   -0.62200E-05  8136   0.461E-02    0.221E-02
DAV:  10    -0.201658820522E+03    0.41959E-05   -0.11531E-05  5904   0.171E-02
  45 F= -.20165882E+03 E0= -.19906397E+03  d E =-.342330E-01
       N       E                     dE             d eps       ncg     rms          rms(c)
DAV:   1    -0.201692024381E+03   -0.33200E-01   -0.34657E+00 10944   0.385E+00    0.410E-01
DAV:   2    -0.201699297704E+03   -0.72733E-02   -0.81338E-02 11292   0.541E-01    0.287E-01
DAV:   3    -0.201699625039E+03   -0.32734E-03   -0.47800E-03 11700   0.341E-01    0.304E-01
DAV:   4    -0.201700290541E+03   -0.66550E-03   -0.54757E-03 11632   0.358E-01    0.418E-01
DAV:   5    -0.201699028673E+03    0.12619E-02   -0.36834E-03 11712   0.279E-01    0.168E-01
DAV:   6    -0.201699072461E+03   -0.43788E-04   -0.93372E-04 11540   0.159E-01    0.147E-01
DAV:   7    -0.201698915440E+03    0.15702E-03   -0.58322E-04 11444   0.134E-01    0.715E-02
DAV:   8    -0.201698932806E+03   -0.17366E-04   -0.25765E-04 11572   0.855E-02    0.738E-02
DAV:   9    -0.201698883970E+03    0.48836E-04   -0.10186E-04  9988   0.572E-02    0.258E-02
DAV:  10    -0.201698877942E+03    0.60277E-05   -0.15886E-05  6064   0.213E-02
  46 F= -.20169888E+03 E0= -.19910645E+03  d E =-.400574E-01
       N       E                     dE             d eps       ncg     rms          rms(c)
DAV:   1    -0.201733894056E+03   -0.35010E-01   -0.45886E+00 10944   0.442E+00    0.472E-01
DAV:   2    -0.201743561834E+03   -0.96678E-02   -0.10749E-01 11296   0.617E-01    0.324E-01
DAV:   3    -0.201744022128E+03   -0.46029E-03   -0.62350E-03 11684   0.391E-01    0.345E-01
DAV:   4    -0.201744892114E+03   -0.86999E-03   -0.70968E-03 11640   0.410E-01    0.478E-01
DAV:   5    -0.201743213440E+03    0.16787E-02   -0.47711E-03 11704   0.317E-01    0.188E-01
DAV:   6    -0.201743260207E+03   -0.46767E-04   -0.12031E-03 11500   0.180E-01    0.166E-01
DAV:   7    -0.201743059363E+03    0.20084E-03   -0.74058E-04 11424   0.151E-01    0.778E-02
DAV:   8    -0.201743087541E+03   -0.28178E-04   -0.32594E-04 11476   0.958E-02    0.834E-02
DAV:   9    -0.201743025803E+03    0.61738E-04   -0.12615E-04 10504   0.641E-02    0.293E-02
DAV:  10    -0.201743017823E+03    0.79798E-05   -0.19847E-05  6188   0.239E-02
  47 F= -.20174302E+03 E0= -.19915335E+03  d E =-.441399E-01
       N       E                     dE             d eps       ncg     rms          rms(c)
DAV:   1    -0.201777487148E+03   -0.34461E-01   -0.55745E+00 10944   0.489E+00    0.528E-01
DAV:   2    -0.201789478221E+03   -0.11991E-01   -0.13202E-01 11272   0.693E-01    0.389E-01
DAV:   3    -0.201791816262E+03   -0.23380E-02   -0.11728E-02 11788   0.531E-01    0.595E-01
DAV:   4    -0.201790475875E+03    0.13404E-02   -0.13309E-02 11788   0.528E-01    0.476E-01
DAV:   5    -0.201788943530E+03    0.15323E-02   -0.48672E-03 11564   0.352E-01    0.224E-01
DAV:   6    -0.201789212183E+03   -0.26865E-03   -0.20486E-03 11724   0.244E-01    0.253E-01
DAV:   7    -0.201788687186E+03    0.52500E-03   -0.12271E-03 11544   0.199E-01    0.929E-02
DAV:   8    -0.201788689005E+03   -0.18183E-05   -0.47923E-04 11324   0.115E-01    0.807E-02
DAV:   9    -0.201788635150E+03    0.53855E-04   -0.15692E-04 11308   0.686E-02    0.325E-02
DAV:  10    -0.201788625054E+03    0.10096E-04   -0.25138E-05  6376   0.271E-02    0.120E-02
DAV:  11    -0.201788625815E+03   -0.76032E-06   -0.70671E-06  5976   0.119E-02
  48 F= -.20178863E+03 E0= -.19920209E+03  d E =-.456080E-01
       N       E                     dE             d eps       ncg     rms          rms(c)
DAV:   1    -0.201818692418E+03   -0.30067E-01   -0.71253E+00 10944   0.549E+00    0.594E-01
DAV:   2    -0.201834165516E+03   -0.15473E-01   -0.16806E-01 11192   0.767E-01    0.418E-01
DAV:   3    -0.201838038768E+03   -0.38733E-02   -0.16701E-02 11752   0.631E-01    0.727E-01
DAV:   4    -0.201835593842E+03    0.24449E-02   -0.18347E-02 11836   0.616E-01    0.537E-01
DAV:   5    -0.201833446299E+03    0.21475E-02   -0.58867E-03 11620   0.390E-01    0.232E-01
DAV:   6    -0.201833832977E+03   -0.38668E-03   -0.24492E-03 11772   0.264E-01    0.279E-01
DAV:   7    -0.201833246239E+03    0.58674E-03   -0.15169E-03 11708   0.215E-01    0.109E-01
DAV:   8    -0.201833186660E+03    0.59579E-04   -0.50975E-04 11280   0.122E-01    0.665E-02
DAV:   9    -0.201833163064E+03    0.23596E-04   -0.14877E-04 11320   0.638E-02    0.384E-02
DAV:  10    -0.201833149035E+03    0.14029E-04   -0.33058E-05  6824   0.324E-02    0.142E-02
DAV:  11    -0.201833149783E+03   -0.74850E-06   -0.97546E-06  5948   0.148E-02
  49 F= -.20183315E+03 E0= -.19924984E+03  d E =-.445240E-01
       N       E                     dE             d eps       ncg     rms          rms(c)
DAV:   1    -0.201855246106E+03   -0.22097E-01   -0.57852E+00 10944   0.493E+00    0.616E-01
DAV:   2    -0.201868261180E+03   -0.13015E-01   -0.14546E-01 11436   0.787E-01    0.575E-01
DAV:   3    -0.201872816057E+03   -0.45549E-02   -0.23473E-02 11852   0.718E-01    0.873E-01
DAV:   4    -0.201868357946E+03    0.44581E-02   -0.23350E-02 11876   0.688E-01    0.529E-01
DAV:   5    -0.201867031902E+03    0.13260E-02   -0.71675E-03 11736   0.460E-01    0.367E-01
DAV:   6    -0.201866743690E+03    0.28821E-03   -0.43730E-03 11844   0.363E-01    0.308E-01
DAV:   7    -0.201865933268E+03    0.81042E-03   -0.19993E-03 11628   0.265E-01    0.137E-01
DAV:   8    -0.201865805628E+03    0.12764E-03   -0.72873E-04 11552   0.148E-01    0.741E-02
DAV:   9    -0.201865777497E+03    0.28131E-04   -0.18446E-04 11540   0.722E-02    0.423E-02
DAV:  10    -0.201865765596E+03    0.11901E-04   -0.49008E-05  8004   0.377E-02    0.172E-02
DAV:  11    -0.201865772990E+03   -0.73942E-05   -0.11963E-05  6444   0.174E-02
  50 F= -.20186577E+03 E0= -.19928623E+03  d E =-.326232E-01
       N       E                     dE             d eps       ncg     rms          rms(c)
DAV:   1    -0.201881573435E+03   -0.15808E-01   -0.22194E+00 10944   0.276E+00    0.435E-01
DAV:   2    -0.201886738041E+03   -0.51646E-02   -0.63705E-02 11544   0.421E-01    0.282E-01
DAV:   3    -0.201887434317E+03   -0.69628E-03   -0.60298E-03 12280   0.348E-01    0.414E-01
DAV:   4    -0.201887971567E+03   -0.53725E-03   -0.96191E-03 12048   0.438E-01    0.499E-01
DAV:   5    -0.201885837149E+03    0.21344E-02   -0.52069E-03 12092   0.341E-01    0.167E-01
DAV:   6    -0.201885721957E+03    0.11519E-03   -0.12479E-03 11812   0.183E-01    0.135E-01
DAV:   7    -0.201885585852E+03    0.13610E-03   -0.58092E-04 11840   0.133E-01    0.851E-02
DAV:   8    -0.201885531601E+03    0.54252E-04   -0.16828E-04 11620   0.708E-02    0.426E-02
DAV:   9    -0.201885525362E+03    0.62385E-05   -0.85114E-05 11024   0.439E-02
  51 F= -.20188553E+03 E0= -.19930655E+03  d E =-.197524E-01
       N       E                     dE             d eps       ncg     rms          rms(c)
DAV:   1    -0.201894303490E+03   -0.87719E-02   -0.25671E-01 10944   0.102E+00    0.144E-01
DAV:   2    -0.201895007298E+03   -0.70381E-03   -0.72096E-03 11464   0.190E-01    0.167E-01
DAV:   3    -0.201895146942E+03   -0.13964E-03   -0.15589E-03 11892   0.181E-01    0.202E-01
DAV:   4    -0.201894914306E+03    0.23264E-03   -0.11232E-03 11836   0.156E-01    0.118E-01
DAV:   5    -0.201894833525E+03    0.80781E-04   -0.37640E-04 11540   0.107E-01    0.741E-02
DAV:   6    -0.201894827213E+03    0.63128E-05   -0.21887E-04 11624   0.823E-02    0.662E-02
DAV:   7    -0.201894799484E+03    0.27729E-04   -0.10960E-04  9988   0.609E-02    0.402E-02
DAV:   8    -0.201894786317E+03    0.13167E-04   -0.43445E-05  7256   0.363E-02    0.158E-02
DAV:   9    -0.201894786329E+03   -0.12402E-07   -0.11600E-05  6248   0.176E-02
  52 F= -.20189479E+03 E0= -.19931655E+03  d E =-.926097E-02
       N       E                     dE             d eps       ncg     rms          rms(c)
DAV:   1    -0.201904960702E+03   -0.10174E-01   -0.49328E-01 10944   0.146E+00    0.159E-01
DAV:   2    -0.201906061252E+03   -0.11006E-02   -0.11694E-02 11260   0.214E-01    0.134E-01
DAV:   3    -0.201906328059E+03   -0.26681E-03   -0.14095E-03 11756   0.184E-01    0.204E-01
DAV:   4    -0.201906145051E+03    0.18301E-03   -0.14922E-03 11896   0.174E-01    0.151E-01
DAV:   5    -0.201905987280E+03    0.15777E-03   -0.46830E-04 11564   0.113E-01    0.712E-02
DAV:   6    -0.201906006072E+03   -0.18791E-04   -0.20097E-04 11724   0.766E-02    0.765E-02
DAV:   7    -0.201905964937E+03    0.41135E-04   -0.11624E-04 10652   0.609E-02    0.339E-02
DAV:   8    -0.201905957519E+03    0.74175E-05   -0.41724E-05  7980   0.362E-02
  53 F= -.20190596E+03 E0= -.19932859E+03  d E =-.111712E-01
       N       E                     dE             d eps       ncg     rms          rms(c)
DAV:   1    -0.201918556122E+03   -0.12591E-01   -0.84310E-01 10944   0.191E+00    0.208E-01
DAV:   2    -0.201920409073E+03   -0.18530E-02   -0.19849E-02 11240   0.277E-01    0.168E-01
DAV:   3    -0.201920680992E+03   -0.27192E-03   -0.19537E-03 11752   0.224E-01    0.219E-01
DAV:   4    -0.201920678503E+03    0.24887E-05   -0.22767E-03 11844   0.218E-01    0.226E-01
DAV:   5    -0.201920298191E+03    0.38031E-03   -0.10273E-03 11736   0.155E-01    0.895E-02
DAV:   6    -0.201920312930E+03   -0.14739E-04   -0.31908E-04 11788   0.942E-02    0.874E-02
DAV:   7    -0.201920273977E+03    0.38954E-04   -0.18285E-04 11556   0.751E-02    0.534E-02
DAV:   8    -0.201920252438E+03    0.21538E-04   -0.84429E-05  9640   0.504E-02    0.233E-02
DAV:   9    -0.201920250918E+03    0.15199E-05   -0.20015E-05  6104   0.236E-02
  54 F= -.20192025E+03 E0= -.19934401E+03  d E =-.142934E-01
       N       E                     dE             d eps       ncg     rms          rms(c)
DAV:   1    -0.201934634410E+03   -0.14382E-01   -0.12569E+00 10944   0.233E+00    0.254E-01
DAV:   2    -0.201937405355E+03   -0.27709E-02   -0.29710E-02 11220   0.336E-01    0.203E-01
DAV:   3    -0.201937917913E+03   -0.51256E-03   -0.30622E-03 11776   0.274E-01    0.285E-01
DAV:   4    -0.201937754123E+03    0.16379E-03   -0.35648E-03 11864   0.269E-01    0.261E-01
DAV:   5    -0.201937262907E+03    0.49122E-03   -0.13449E-03 11672   0.185E-01    0.114E-01
DAV:   6    -0.201937298319E+03   -0.35412E-04   -0.49296E-04 11816   0.120E-01    0.119E-01
DAV:   7    -0.201937197740E+03    0.10058E-03   -0.28358E-04 11564   0.943E-02    0.517E-02
DAV:   8    -0.201937180275E+03    0.17465E-04   -0.99240E-05 10924   0.554E-02    0.265E-02
DAV:   9    -0.201937177331E+03    0.29440E-05   -0.26023E-05  6584   0.271E-02
  55 F= -.20193718E+03 E0= -.19936234E+03  d E =-.169264E-01
       N       E                     dE             d eps       ncg     rms          rms(c)
DAV:   1    -0.201952607470E+03   -0.15427E-01   -0.17376E+00 10944   0.275E+00    0.299E-01
DAV:   2    -0.201956472582E+03   -0.38651E-02   -0.41225E-02 11200   0.396E-01    0.243E-01
DAV:   3    -0.201957332367E+03   -0.85979E-03   -0.45994E-03 11808   0.334E-01    0.361E-01
DAV:   4    -0.201956884143E+03    0.44822E-03   -0.51851E-03 11872   0.324E-01    0.295E-01
DAV:   5    -0.201956268257E+03    0.61589E-03   -0.17364E-03 11612   0.215E-01    0.136E-01
DAV:   6    -0.201956309291E+03   -0.41034E-04   -0.68575E-04 11768   0.142E-01    0.139E-01
DAV:   7    -0.201956171222E+03    0.13807E-03   -0.38784E-04 11480   0.111E-01    0.602E-02
DAV:   8    -0.201956146983E+03    0.24239E-04   -0.13394E-04 11300   0.646E-02    0.305E-02
DAV:   9    -0.201956143206E+03    0.37764E-05   -0.35276E-05  6976   0.316E-02
  56 F= -.20195614E+03 E0= -.19938293E+03  d E =-.189659E-01
       N       E                     dE             d eps       ncg     rms          rms(c)
DAV:   1    -0.201971912558E+03   -0.15766E-01   -0.22855E+00 10944   0.315E+00    0.343E-01
DAV:   2    -0.201977064339E+03   -0.51518E-02   -0.54525E-02 11156   0.456E-01    0.285E-01
DAV:   3    -0.201978383160E+03   -0.13188E-02   -0.66534E-03 11808   0.397E-01    0.442E-01
DAV:   4    -0.201977520927E+03    0.86223E-03   -0.72131E-03 11876   0.380E-01    0.327E-01
DAV:   5    -0.201976780344E+03    0.74058E-03   -0.21789E-03 11580   0.245E-01    0.161E-01
DAV:   6    -0.201976801712E+03   -0.21368E-04   -0.90086E-04 11752   0.162E-01    0.154E-01
DAV:   7    -0.201976638337E+03    0.16338E-03   -0.49172E-04 11420   0.125E-01    0.697E-02
DAV:   8    -0.201976603529E+03    0.34807E-04   -0.17227E-04 11336   0.738E-02    0.336E-02
DAV:   9    -0.201976599882E+03    0.36472E-05   -0.47407E-05  8052   0.359E-02
  57 F= -.20197660E+03 E0= -.19940522E+03  d E =-.204567E-01
       N       E                     dE             d eps       ncg     rms          rms(c)
DAV:   1    -0.201992174265E+03   -0.15571E-01   -0.28398E+00 10944   0.352E+00    0.383E-01
DAV:   2    -0.201998711275E+03   -0.65370E-02   -0.68558E-02 11132   0.515E-01    0.334E-01
DAV:   3    -0.202000612046E+03   -0.19008E-02   -0.93299E-03 11824   0.464E-01    0.531E-01
DAV:   4    -0.201999105495E+03    0.15066E-02   -0.95601E-03 11852   0.436E-01    0.350E-01
DAV:   5    -0.201998316936E+03    0.78856E-03   -0.25860E-03 11616   0.273E-01    0.191E-01
DAV:   6    -0.201998294280E+03    0.22655E-04   -0.11645E-03 11720   0.185E-01    0.169E-01
DAV:   7    -0.201998105546E+03    0.18873E-03   -0.59594E-04 11368   0.139E-01    0.784E-02
DAV:   8    -0.201998061454E+03    0.44093E-04   -0.21814E-04 11248   0.833E-02    0.376E-02
DAV:   9    -0.201998057118E+03    0.43354E-05   -0.61123E-05  9320   0.405E-02
  58 F= -.20199806E+03 E0= -.19942873E+03  d E =-.214572E-01
       N       E                     dE             d eps       ncg     rms          rms(c)
DAV:   1    -0.202012518732E+03   -0.14457E-01   -0.35138E+00 10944   0.392E+00    0.424E-01
DAV:   2    -0.202020670918E+03   -0.81522E-02   -0.85053E-02 11072   0.570E-01    0.368E-01
DAV:   3    -0.202023283430E+03   -0.26125E-02   -0.12230E-02 11800   0.528E-01    0.612E-01
DAV:   4    -0.202021134401E+03    0.21490E-02   -0.12195E-02 11856   0.491E-01    0.383E-01
DAV:   5    -0.202020157921E+03    0.97648E-03   -0.30767E-03 11652   0.300E-01    0.208E-01
DAV:   6    -0.202020109206E+03    0.48715E-04   -0.13400E-03 11708   0.198E-01    0.177E-01
DAV:   7    -0.202019921302E+03    0.18790E-03   -0.69396E-04 11376   0.148E-01    0.872E-02
DAV:   8    -0.202019861342E+03    0.59960E-04   -0.25048E-04 11248   0.897E-02    0.387E-02
DAV:   9    -0.202019859111E+03    0.22313E-05   -0.76169E-05 10784   0.436E-02
  59 F= -.20201986E+03 E0= -.19945264E+03  d E =-.218020E-01
       N       E                     dE             d eps       ncg     rms          rms(c)
DAV:   1    -0.202032870712E+03   -0.13009E-01   -0.36716E+00 10944   0.402E+00    0.445E-01
DAV:   2    -0.202041703963E+03   -0.88333E-02   -0.91000E-02 11280   0.615E-01    0.441E-01
DAV:   3    -0.202044071044E+03   -0.23671E-02   -0.13920E-02 11836   0.554E-01    0.634E-01
DAV:   4    -0.202041810653E+03    0.22604E-02   -0.13153E-02 11828   0.512E-01    0.396E-01
DAV:   5    -0.202040969757E+03    0.84090E-03   -0.35914E-03 11716   0.327E-01    0.256E-01
DAV:   6    -0.202040815527E+03    0.15423E-03   -0.19164E-03 11712   0.238E-01    0.204E-01
DAV:   7    -0.202040528146E+03    0.28738E-03   -0.88137E-04 11428   0.172E-01    0.972E-02
DAV:   8    -0.202040460765E+03    0.67381E-04   -0.33867E-04 11336   0.104E-01    0.462E-02
DAV:   9    -0.202040453063E+03    0.77019E-05   -0.87024E-05 10840   0.489E-02
  60 F= -.20204045E+03 E0= -.19947566E+03  d E =-.205940E-01
       N       E                     dE             d eps       ncg     rms          rms(c)
DAV:   1    -0.202041403101E+03   -0.94234E-03   -0.31471E+00 10944   0.348E+00    0.438E-01
DAV:   2    -0.202048754642E+03   -0.73515E-02   -0.85384E-02 11368   0.518E-01    0.329E-01
DAV:   3    -0.202049445511E+03   -0.69087E-03   -0.70515E-03 11688   0.413E-01    0.430E-01
DAV:   4    -0.202049901339E+03   -0.45583E-03   -0.10001E-02 12012   0.446E-01    0.503E-01
DAV:   5    -0.202047895489E+03    0.20058E-02   -0.58593E-03 11908   0.357E-01    0.212E-01
DAV:   6    -0.202047883830E+03    0.11659E-04   -0.18696E-03 12056   0.225E-01    0.212E-01
DAV:   7    -0.202047542586E+03    0.34124E-03   -0.11764E-03 11752   0.180E-01    0.103E-01
DAV:   8    -0.202047444171E+03    0.98415E-04   -0.29227E-04 11936   0.962E-02    0.501E-02
DAV:   9    -0.202047435326E+03    0.88452E-05   -0.11533E-04 11400   0.497E-02    0.292E-02
DAV:  10    -0.202047437184E+03   -0.18581E-05   -0.31635E-05  6840   0.288E-02
  61 F= -.20204744E+03 E0= -.19948347E+03  d E =-.698412E-02
       N       E                     dE             d eps       ncg     rms          rms(c)
DAV:   1    -0.202053725287E+03   -0.62900E-02   -0.83594E-02 10944   0.486E-01    0.114E-01
DAV:   2    -0.202053910748E+03   -0.18546E-03   -0.26221E-03 11592   0.101E-01    0.828E-02
DAV:   3    -0.202053959469E+03   -0.48721E-04   -0.42681E-04 12004   0.102E-01    0.106E-01
DAV:   4    -0.202054051224E+03   -0.91755E-04   -0.78778E-04 11940   0.127E-01    0.151E-01
DAV:   5    -0.202053869004E+03    0.18222E-03   -0.51160E-04 12052   0.103E-01    0.543E-02
DAV:   6    -0.202053851727E+03    0.17277E-04   -0.10449E-04 10784   0.545E-02    0.377E-02
DAV:   7    -0.202053841693E+03    0.10035E-04   -0.40765E-05  6968   0.355E-02    0.214E-02
DAV:   8    -0.202053838335E+03    0.33581E-05   -0.11914E-05  6432   0.189E-02
  62 F= -.20205384E+03 E0= -.19949006E+03  d E =-.640115E-02
       N       E                     dE             d eps       ncg     rms          rms(c)
DAV:   1    -0.202059382236E+03   -0.55405E-02   -0.20765E-01 10944   0.840E-01    0.156E-01
DAV:   2    -0.202059885119E+03   -0.50288E-03   -0.65921E-03 11492   0.161E-01    0.131E-01
DAV:   3    -0.202060106369E+03   -0.22125E-03   -0.11584E-03 12016   0.159E-01    0.200E-01
DAV:   4    -0.202059922858E+03    0.18351E-03   -0.15384E-03 11976   0.174E-01    0.151E-01
DAV:   5    -0.202059778791E+03    0.14407E-03   -0.65697E-04 11848   0.128E-01    0.944E-02
DAV:   6    -0.202059725277E+03    0.53513E-04   -0.29495E-04 11920   0.913E-02    0.647E-02
DAV:   7    -0.202059687708E+03    0.37569E-04   -0.10855E-04 10324   0.592E-02    0.335E-02
DAV:   8    -0.202059679100E+03    0.86082E-05   -0.32611E-05  7128   0.314E-02
  63 F= -.20205968E+03 E0= -.19949645E+03  d E =-.584077E-02
       N       E                     dE             d eps       ncg     rms          rms(c)
DAV:   1    -0.202063742516E+03   -0.40548E-02   -0.19921E-01 10944   0.935E-01    0.982E-02
DAV:   2    -0.202064209060E+03   -0.46654E-03   -0.48028E-03 11116   0.137E-01    0.857E-02
DAV:   3    -0.202064287258E+03   -0.78198E-04   -0.53622E-04 11792   0.115E-01    0.115E-01
DAV:   4    -0.202064265410E+03    0.21848E-04   -0.58051E-04 11320   0.108E-01    0.107E-01
DAV:   5    -0.202064181266E+03    0.84144E-04   -0.22433E-04 10640   0.734E-02    0.433E-02
DAV:   6    -0.202064182663E+03   -0.13968E-05   -0.67506E-05  8976   0.443E-02
  64 F= -.20206418E+03 E0= -.19950153E+03  d E =-.450356E-02
       N       E                     dE             d eps       ncg     rms          rms(c)
DAV:   1    -0.202069211478E+03   -0.50302E-02   -0.33756E-01 10944   0.122E+00    0.132E-01
DAV:   2    -0.202070103168E+03   -0.89169E-03   -0.82262E-03 11096   0.199E-01    0.156E-01
DAV:   3    -0.202070168092E+03   -0.64924E-04   -0.12675E-03 11688   0.183E-01    0.169E-01
DAV:   4    -0.202070137189E+03    0.30903E-04   -0.11737E-03 11808   0.155E-01    0.160E-01
DAV:   5    -0.202069939426E+03    0.19776E-03   -0.49427E-04 11596   0.105E-01    0.563E-02
DAV:   6    -0.202069945502E+03   -0.60752E-05   -0.15268E-04 10780   0.663E-02    0.600E-02
DAV:   7    -0.202069927009E+03    0.18492E-04   -0.73866E-05  8660   0.458E-02    0.298E-02
DAV:   8    -0.202069921220E+03    0.57894E-05   -0.29903E-05  6900   0.299E-02
  65 F= -.20206992E+03 E0= -.19950771E+03  d E =-.573856E-02
       N       E                     dE             d eps       ncg     rms          rms(c)
DAV:   1    -0.202075776388E+03   -0.58494E-02   -0.50359E-01 10944   0.149E+00    0.154E-01
DAV:   2    -0.202076958201E+03   -0.11818E-02   -0.12114E-02 11060   0.222E-01    0.143E-01
DAV:   3    -0.202077266583E+03   -0.30838E-03   -0.17059E-03 11768   0.197E-01    0.219E-01
DAV:   4    -0.202076997810E+03    0.26877E-03   -0.15994E-03 11836   0.177E-01    0.139E-01
DAV:   5    -0.202076882318E+03    0.11549E-03   -0.42487E-04 11668   0.110E-01    0.816E-02
DAV:   6    -0.202076857618E+03    0.24700E-04   -0.17824E-04 11412   0.725E-02    0.589E-02
DAV:   7    -0.202076847189E+03    0.10429E-04   -0.93343E-05 10508   0.529E-02    0.384E-02
DAV:   8    -0.202076835800E+03    0.11388E-04   -0.44323E-05  7192   0.376E-02    0.170E-02
DAV:   9    -0.202076835059E+03    0.74128E-06   -0.13329E-05  5960   0.184E-02
  66 F= -.20207684E+03 E0= -.19951521E+03  d E =-.691384E-02
       N       E                     dE             d eps       ncg     rms          rms(c)
DAV:   1    -0.202083279491E+03   -0.64437E-02   -0.70342E-01 10944   0.176E+00    0.179E-01
DAV:   2    -0.202084911482E+03   -0.16320E-02   -0.16817E-02 11048   0.257E-01    0.160E-01
DAV:   3    -0.202085366592E+03   -0.45511E-03   -0.22835E-03 11776   0.227E-01    0.258E-01
DAV:   4    -0.202084976589E+03    0.39000E-03   -0.21703E-03 11816   0.207E-01    0.160E-01
DAV:   5    -0.202084811473E+03    0.16512E-03   -0.54557E-04 11652   0.125E-01    0.884E-02
DAV:   6    -0.202084798115E+03    0.13358E-04   -0.23417E-04 11648   0.823E-02    0.740E-02
DAV:   7    -0.202084771765E+03    0.26350E-04   -0.13189E-04 11220   0.633E-02    0.399E-02
DAV:   8    -0.202084759175E+03    0.12590E-04   -0.49082E-05  8576   0.399E-02    0.168E-02
DAV:   9    -0.202084758848E+03    0.32635E-06   -0.15535E-05  6276   0.194E-02
  67 F= -.20208476E+03 E0= -.19952384E+03  d E =-.792379E-02
       N       E                     dE             d eps       ncg     rms          rms(c)
DAV:   1    -0.202091651737E+03   -0.68926E-02   -0.91630E-01 10944   0.200E+00    0.202E-01
DAV:   2    -0.202093765422E+03   -0.21137E-02   -0.21824E-02 11044   0.292E-01    0.179E-01
DAV:   3    -0.202094374312E+03   -0.60889E-03   -0.29496E-03 11784   0.256E-01    0.296E-01
DAV:   4    -0.202093837547E+03    0.53676E-03   -0.27594E-03 11792   0.233E-01    0.175E-01
DAV:   5    -0.202093649338E+03    0.18821E-03   -0.67198E-04 11640   0.140E-01    0.103E-01
DAV:   6    -0.202093627381E+03    0.21956E-04   -0.30702E-04 11628   0.945E-02    0.836E-02
DAV:   7    -0.202093592477E+03    0.34904E-04   -0.16464E-04 11252   0.711E-02    0.434E-02
DAV:   8    -0.202093577891E+03    0.14586E-04   -0.60996E-05  9452   0.445E-02    0.185E-02
DAV:   9    -0.202093577284E+03    0.60743E-06   -0.17737E-05  6532   0.212E-02
  68 F= -.20209358E+03 E0= -.19953344E+03  d E =-.881844E-02
       N       E                     dE             d eps       ncg     rms          rms(c)
DAV:   1    -0.202100590662E+03   -0.70128E-02   -0.11752E+00 10944   0.227E+00    0.226E-01
DAV:   2    -0.202103278455E+03   -0.26878E-02   -0.27840E-02 11028   0.328E-01    0.194E-01
DAV:   3    -0.202104114670E+03   -0.83621E-03   -0.37754E-03 11784   0.289E-01    0.340E-01
DAV:   4    -0.202103369470E+03    0.74520E-03   -0.34915E-03 11804   0.262E-01    0.192E-01
DAV:   5    -0.202103143844E+03    0.22563E-03   -0.80953E-04 11632   0.153E-01    0.111E-01
DAV:   6    -0.202103116859E+03    0.26985E-04   -0.35943E-04 11676   0.102E-01    0.892E-02
DAV:   7    -0.202103080669E+03    0.36190E-04   -0.19882E-04 11332   0.770E-02    0.477E-02
DAV:   8    -0.202103061809E+03    0.18861E-04   -0.73632E-05 10088   0.485E-02    0.202E-02
DAV:   9    -0.202103061014E+03    0.79519E-06   -0.22539E-05  6972   0.232E-02
  69 F= -.20210306E+03 E0= -.19954370E+03  d E =-.948373E-02
       N       E                     dE             d eps       ncg     rms          rms(c)
DAV:   1    -0.202109976630E+03   -0.69148E-02   -0.13398E+00 10944   0.242E+00    0.241E-01
DAV:   2    -0.202113110661E+03   -0.31340E-02   -0.32084E-02 11072   0.360E-01    0.229E-01
DAV:   3    -0.202114014932E+03   -0.90427E-03   -0.46161E-03 11836   0.315E-01    0.368E-01
DAV:   4    -0.202113121623E+03    0.89331E-03   -0.39797E-03 11752   0.281E-01    0.200E-01
DAV:   5    -0.202112918211E+03    0.20341E-03   -0.92592E-04 11616   0.167E-01    0.133E-01
DAV:   6    -0.202112871575E+03    0.46636E-04   -0.49124E-04 11648   0.120E-01    0.103E-01
DAV:   7    -0.202112812246E+03    0.59329E-04   -0.24786E-04 11332   0.888E-02    0.531E-02
DAV:   8    -0.202112791042E+03    0.21204E-04   -0.97065E-05 10876   0.554E-02    0.239E-02
DAV:   9    -0.202112789388E+03    0.16536E-05   -0.25874E-05  6876   0.264E-02
  70 F= -.20211279E+03 E0= -.19955439E+03  d E =-.972837E-02
       N       E                     dE             d eps       ncg     rms          rms(c)
DAV:   1    -0.202116894516E+03   -0.41035E-02   -0.14786E+00 10944   0.248E+00    0.263E-01
DAV:   2    -0.202120326157E+03   -0.34316E-02   -0.37189E-02 11136   0.365E-01    0.216E-01
DAV:   3    -0.202121406522E+03   -0.10804E-02   -0.48254E-03 11800   0.327E-01    0.397E-01
DAV:   4    -0.202120382013E+03    0.10245E-02   -0.45557E-03 11872   0.298E-01    0.223E-01
DAV:   5    -0.202120073264E+03    0.30875E-03   -0.12083E-03 11716   0.182E-01    0.133E-01
DAV:   6    -0.202120022899E+03    0.50364E-04   -0.57144E-04 11948   0.127E-01    0.111E-01
DAV:   7    -0.202119954699E+03    0.68200E-04   -0.37244E-04 11492   0.102E-01    0.632E-02
DAV:   8    -0.202119914448E+03    0.40251E-04   -0.10977E-04 11100   0.592E-02    0.282E-02
DAV:   9    -0.202119911431E+03    0.30171E-05   -0.41787E-05  8808   0.291E-02
  71 F= -.20211991E+03 E0= -.19956205E+03  d E =-.712204E-02
       N       E                     dE             d eps       ncg     rms          rms(c)
DAV:   1    -0.202123517995E+03   -0.36035E-02   -0.22908E-01 10944   0.882E-01    0.159E-01
DAV:   2    -0.202124088441E+03   -0.57045E-03   -0.71060E-03 11504   0.172E-01    0.139E-01
DAV:   3    -0.202124314988E+03   -0.22655E-03   -0.13906E-03 11976   0.172E-01    0.207E-01
DAV:   4    -0.202124147546E+03    0.16744E-03   -0.16574E-03 11980   0.180E-01    0.164E-01
DAV:   5    -0.202123964535E+03    0.18301E-03   -0.68237E-04 11848   0.135E-01    0.938E-02
DAV:   6    -0.202123920578E+03    0.43957E-04   -0.30436E-04 11912   0.954E-02    0.706E-02
DAV:   7    -0.202123875176E+03    0.45402E-04   -0.12873E-04 10680   0.637E-02    0.355E-02
DAV:   8    -0.202123864315E+03    0.10861E-04   -0.36285E-05  7240   0.330E-02    0.141E-02
DAV:   9    -0.202123864360E+03   -0.44653E-07   -0.99178E-06  6128   0.157E-02
  72 F= -.20212386E+03 E0= -.19956643E+03  d E =-.395293E-02
       N       E                     dE             d eps       ncg     rms          rms(c)
DAV:   1    -0.202125730704E+03   -0.18664E-02   -0.75839E-02 10944   0.562E-01    0.587E-02
DAV:   2    -0.202125908899E+03   -0.17820E-03   -0.18932E-03 11152   0.841E-02    0.477E-02
DAV:   3    -0.202125923605E+03   -0.14705E-04   -0.15910E-04 11692   0.627E-02    0.577E-02
DAV:   4    -0.202125929068E+03   -0.54630E-05   -0.16925E-04  7692   0.589E-02    0.656E-02
DAV:   5    -0.202125897549E+03    0.31519E-04   -0.91771E-05  7120   0.448E-02    0.280E-02
DAV:   6    -0.202125897001E+03    0.54795E-06   -0.26803E-05  6836   0.278E-02
  73 F= -.20212590E+03 E0= -.19956869E+03  d E =-.203264E-02
       N       E                     dE             d eps       ncg     rms          rms(c)
DAV:   1    -0.202128313104E+03   -0.24156E-02   -0.12338E-01 10944   0.733E-01    0.718E-02
DAV:   2    -0.202128627517E+03   -0.31441E-03   -0.29351E-03 11076   0.117E-01    0.868E-02
DAV:   3    -0.202128676309E+03   -0.48792E-04   -0.48220E-04 11768   0.105E-01    0.108E-01
DAV:   4    -0.202128610730E+03    0.65580E-04   -0.36779E-04 11372   0.862E-02    0.668E-02
DAV:   5    -0.202128575327E+03    0.35402E-04   -0.84100E-05  8028   0.486E-02    0.266E-02
DAV:   6    -0.202128582587E+03   -0.72594E-05   -0.37295E-05  6704   0.334E-02
  74 F= -.20212858E+03 E0= -.19957140E+03  d E =-.268559E-02
       N       E                     dE             d eps       ncg     rms          rms(c)
DAV:   1    -0.202131555024E+03   -0.29797E-02   -0.19994E-01 10944   0.933E-01    0.909E-02
DAV:   2    -0.202132059786E+03   -0.50476E-03   -0.47466E-03 11032   0.147E-01    0.111E-01
DAV:   3    -0.202132119254E+03   -0.59468E-04   -0.79594E-04 11848   0.130E-01    0.129E-01
DAV:   4    -0.202132065429E+03    0.53825E-04   -0.59424E-04 11712   0.109E-01    0.103E-01
DAV:   5    -0.202131978490E+03    0.86938E-04   -0.17048E-04  9216   0.692E-02    0.359E-02
DAV:   6    -0.202131983957E+03   -0.54662E-05   -0.55295E-05  7916   0.398E-02
  75 F= -.20213198E+03 E0= -.19957528E+03  d E =-.340137E-02
       N       E                     dE             d eps       ncg     rms          rms(c)
DAV:   1    -0.202135426278E+03   -0.34478E-02   -0.29809E-01 10944   0.114E+00    0.109E-01
DAV:   2    -0.202136134399E+03   -0.70812E-03   -0.69601E-03 11016   0.170E-01    0.113E-01
DAV:   3    -0.202136327746E+03   -0.19335E-03   -0.10977E-03 11848   0.154E-01    0.175E-01
DAV:   4    -0.202136130936E+03    0.19681E-03   -0.85848E-04 11728   0.131E-01    0.968E-02
DAV:   5    -0.202136056625E+03    0.74311E-04   -0.18745E-04 10712   0.721E-02    0.398E-02
DAV:   6    -0.202136069263E+03   -0.12638E-04   -0.74592E-05  9688   0.459E-02    0.463E-02
DAV:   7    -0.202136057769E+03    0.11494E-04   -0.54999E-05  7740   0.420E-02    0.283E-02
DAV:   8    -0.202136051717E+03    0.60516E-05   -0.23550E-05  6244   0.264E-02
  76 F= -.20213605E+03 E0= -.19957965E+03  d E =-.406776E-02
       N       E                     dE             d eps       ncg     rms          rms(c)
DAV:   1    -0.202139905195E+03   -0.38474E-02   -0.41080E-01 10944   0.134E+00    0.124E-01
DAV:   2    -0.202140847282E+03   -0.94209E-03   -0.96213E-03 11024   0.196E-01    0.110E-01
DAV:   3    -0.202141180590E+03   -0.33331E-03   -0.14158E-03 11792   0.173E-01    0.212E-01
DAV:   4    -0.202140835420E+03    0.34517E-03   -0.11054E-03 11708   0.148E-01    0.880E-02
DAV:   5    -0.202140800315E+03    0.35105E-04   -0.19777E-04 11220   0.770E-02    0.628E-02
DAV:   6    -0.202140783801E+03    0.16515E-04   -0.10320E-04 10068   0.552E-02    0.438E-02
[...]
       N       E                     dE             d eps       ncg     rms          rms(c)
DAV:   1    -0.202354719833E+03   -0.83251E-04   -0.12004E-02 10944   0.216E-01    0.248E-02
DAV:   2    -0.202354903906E+03   -0.18407E-03   -0.52769E-04 11492   0.909E-02    0.132E-01
DAV:   3    -0.202354743147E+03    0.16076E-03   -0.27861E-04 10176   0.791E-02    0.215E-02
DAV:   4    -0.202354743063E+03    0.83906E-07   -0.20141E-05  6352   0.204E-02
 358 F= -.20235474E+03 E0= -.19980940E+03  d E =-.106191E-03
       N       E                     dE             d eps       ncg     rms          rms(c)
DAV:   1    -0.202354831429E+03   -0.88282E-04   -0.15498E-02 10944   0.245E-01    0.239E-02
DAV:   2    -0.202354869587E+03   -0.38158E-04   -0.34773E-04 10944   0.440E-02    0.338E-02
DAV:   3    -0.202354862828E+03    0.67588E-05   -0.35739E-05  6896   0.323E-02    0.218E-02
DAV:   4    -0.202354863581E+03   -0.75296E-06   -0.18512E-05  6064   0.199E-02
 359 F= -.20235486E+03 E0= -.19980946E+03  d E =-.120518E-03
       N       E                     dE             d eps       ncg     rms          rms(c)
DAV:   1    -0.202354953596E+03   -0.90768E-04   -0.18627E-02 10944   0.268E-01    0.301E-02
DAV:   2    -0.202355162607E+03   -0.20901E-03   -0.68916E-04 11412   0.987E-02    0.137E-01
DAV:   3    -0.202354993435E+03    0.16917E-03   -0.31732E-04 11200   0.853E-02    0.311E-02
DAV:   4    -0.202354990156E+03    0.32791E-05   -0.33285E-05  6536   0.266E-02
 360 F= -.20235499E+03 E0= -.19980964E+03  d E =-.126575E-03
       N       E                     dE             d eps       ncg     rms          rms(c)
DAV:   1    -0.202355073074E+03   -0.79639E-04   -0.21081E-02 10944   0.283E-01    0.290E-02
DAV:   2    -0.202355125467E+03   -0.52393E-04   -0.49099E-04 10944   0.525E-02    0.408E-02
DAV:   3    -0.202355115893E+03    0.95742E-05   -0.50820E-05  8140   0.377E-02    0.267E-02
DAV:   4    -0.202355117686E+03   -0.17931E-05   -0.29598E-05  6352   0.248E-02
 361 F= -.20235512E+03 E0= -.19980970E+03  d E =-.127530E-03
       N       E                     dE             d eps       ncg     rms          rms(c)
DAV:   1    -0.202355167657E+03   -0.51764E-04   -0.13281E-02 10944   0.218E-01    0.323E-02
DAV:   2    -0.202355395634E+03   -0.22798E-03   -0.67406E-04 11832   0.105E-01    0.145E-01
DAV:   3    -0.202355204583E+03    0.19105E-03   -0.35393E-04 11392   0.910E-02    0.388E-02
DAV:   4    -0.202355195209E+03    0.93740E-05   -0.39968E-05  6656   0.287E-02
 362 F= -.20235520E+03 E0= -.19980988E+03  d E =-.775228E-04
       N       E                     dE             d eps       ncg     rms          rms(c)
DAV:   1    -0.202355244244E+03   -0.39662E-04   -0.29939E-03 10944   0.102E-01    0.163E-02
DAV:   2    -0.202355260031E+03   -0.15786E-04   -0.10505E-04 10704   0.339E-02    0.318E-02
DAV:   3    -0.202355253620E+03    0.64111E-05   -0.28471E-05  6420   0.275E-02    0.209E-02
DAV:   4    -0.202355251425E+03    0.21947E-05   -0.12415E-05  5820   0.159E-02
 363 F= -.20235525E+03 E0= -.19980994E+03  d E =-.562162E-04
       N       E                     dE             d eps       ncg     rms          rms(c)
DAV:   1    -0.202355295954E+03   -0.42334E-04   -0.29788E-03 10944   0.108E-01    0.149E-02
DAV:   2    -0.202355322871E+03   -0.26917E-04   -0.10207E-04 10620   0.409E-02    0.479E-02
DAV:   3    -0.202355303883E+03    0.18989E-04   -0.42059E-05  6464   0.348E-02    0.214E-02
DAV:   4    -0.202355300867E+03    0.30161E-05   -0.12661E-05  5808   0.155E-02
 364 F= -.20235530E+03 E0= -.19980999E+03  d E =-.494416E-04
       N       E                     dE             d eps       ncg     rms          rms(c)
DAV:   1    -0.202355354721E+03   -0.50838E-04   -0.46961E-03 10944   0.134E-01    0.137E-02
DAV:   2    -0.202355366972E+03   -0.12251E-04   -0.10749E-04 10384   0.266E-02    0.205E-02
DAV:   3    -0.202355364195E+03    0.27771E-05   -0.12908E-05  5656   0.195E-02    0.125E-02
DAV:   4    -0.202355364685E+03   -0.49001E-06   -0.71557E-06  5608   0.120E-02
 365 F= -.20235536E+03 E0= -.19981002E+03  d E =-.638186E-04
       N       E                     dE             d eps       ncg     rms          rms(c)
DAV:   1    -0.202355426917E+03   -0.62722E-04   -0.68807E-03 10944   0.163E-01    0.174E-02
DAV:   2    -0.202355481538E+03   -0.54621E-04   -0.21238E-04 11156   0.518E-02    0.672E-02
DAV:   3    -0.202355442296E+03    0.39242E-04   -0.81596E-05  6744   0.445E-02    0.213E-02
DAV:   4    -0.202355440073E+03    0.22234E-05   -0.14553E-05  5856   0.171E-02
 366 F= -.20235544E+03 E0= -.19981013E+03  d E =-.753874E-04
       N       E                     dE             d eps       ncg     rms          rms(c)
DAV:   1    -0.202355509665E+03   -0.67369E-04   -0.93576E-03 10944   0.189E-01    0.179E-02
DAV:   2    -0.202355530545E+03   -0.20880E-04   -0.20342E-04 10936   0.315E-02    0.215E-02
DAV:   3    -0.202355528132E+03    0.24130E-05   -0.15724E-05  5964   0.216E-02    0.146E-02
DAV:   4    -0.202355527835E+03    0.29729E-06   -0.58795E-06  5768   0.132E-02
 367 F= -.20235553E+03 E0= -.19981022E+03  d E =-.877623E-04
       N       E                     dE             d eps       ncg     rms          rms(c)
DAV:   1    -0.202355604449E+03   -0.76317E-04   -0.12304E-02 10944   0.217E-01    0.219E-02
DAV:   2    -0.202355715869E+03   -0.11142E-03   -0.40889E-04 11304   0.692E-02    0.988E-02
DAV:   3    -0.202355627516E+03    0.88353E-04   -0.16641E-04  7592   0.605E-02    0.148E-02
DAV:   4    -0.202355628028E+03   -0.51155E-06   -0.10641E-05  5908   0.137E-02
 368 F= -.20235563E+03 E0= -.19981042E+03  d E =-.100193E-03
       N       E                     dE             d eps       ncg     rms          rms(c)
DAV:   1    -0.202355707751E+03   -0.80235E-04   -0.15176E-02 10944   0.241E-01    0.228E-02
DAV:   2    -0.202355752643E+03   -0.44892E-04   -0.34841E-04 10944   0.456E-02    0.432E-02
DAV:   3    -0.202355738801E+03    0.13843E-04   -0.48355E-05  7044   0.351E-02    0.206E-02
DAV:   4    -0.202355743394E+03   -0.45940E-05   -0.24402E-05  6204   0.228E-02
 369 F= -.20235574E+03 E0= -.19981055E+03  d E =-.115367E-03
       N       E                     dE             d eps       ncg     rms          rms(c)
DAV:   1    -0.202355815008E+03   -0.76207E-04   -0.17994E-02 10944   0.263E-01    0.249E-02
DAV:   2    -0.202355865177E+03   -0.50170E-04   -0.40980E-04 10944   0.474E-02    0.453E-02
DAV:   3    -0.202355855840E+03    0.93369E-05   -0.65945E-05  7028   0.385E-02    0.321E-02
DAV:   4    -0.202355850191E+03    0.56494E-05   -0.24443E-05  6312   0.240E-02
 370 F= -.20235585E+03 E0= -.19981060E+03  d E =-.106797E-03
       N       E                     dE             d eps       ncg     rms          rms(c)
DAV:   1    -0.202355901070E+03   -0.45229E-04   -0.14300E-02 10944   0.229E-01    0.268E-02
DAV:   2    -0.202355957606E+03   -0.56536E-04   -0.39951E-04 11052   0.537E-02    0.554E-02
DAV:   3    -0.202355932467E+03    0.25139E-04   -0.67016E-05  7848   0.416E-02    0.223E-02
DAV:   4    -0.202355938235E+03   -0.57674E-05   -0.29761E-05  6344   0.252E-02
 371 F= -.20235594E+03 E0= -.19981076E+03  d E =-.880438E-04
       N       E                     dE             d eps       ncg     rms          rms(c)
DAV:   1    -0.202355977704E+03   -0.45237E-04   -0.40339E-03 10944   0.118E-01    0.179E-02
DAV:   2    -0.202356011030E+03   -0.33326E-04   -0.15248E-04 11024   0.416E-02    0.523E-02
DAV:   3    -0.202355988883E+03    0.22147E-04   -0.55774E-05  6492   0.358E-02    0.200E-02
DAV:   4    -0.202355987172E+03    0.17113E-05   -0.12775E-05  5884   0.173E-02
 372 F= -.20235599E+03 E0= -.19981076E+03  d E =-.489373E-04
       N       E                     dE             d eps       ncg     rms          rms(c)
DAV:   1    -0.202356022876E+03   -0.33993E-04   -0.22293E-03 10944   0.929E-02    0.133E-02
DAV:   2    -0.202356040852E+03   -0.17976E-04   -0.78955E-05  9676   0.350E-02    0.386E-02
DAV:   3    -0.202356027047E+03    0.13805E-04   -0.26217E-05  6244   0.280E-02    0.105E-02
DAV:   4    -0.202356027278E+03   -0.23176E-06   -0.58912E-06  5584   0.108E-02
 373 F= -.20235603E+03 E0= -.19981080E+03  d E =-.401063E-04
       N       E                     dE             d eps       ncg     rms          rms(c)
DAV:   1    -0.202356071188E+03   -0.44141E-04   -0.36187E-03 10944   0.118E-01    0.125E-02
DAV:   2    -0.202356095291E+03   -0.24104E-04   -0.10572E-04  9916   0.339E-02    0.445E-02
DAV:   3    -0.202356078748E+03    0.16543E-04   -0.37806E-05  6296   0.291E-02    0.127E-02
DAV:   4    -0.202356078109E+03    0.63939E-06   -0.54389E-06  5660   0.115E-02
 374 F= -.20235608E+03 E0= -.19981082E+03  d E =-.508302E-04
       N       E                     dE             d eps       ncg     rms          rms(c)
DAV:   1    -0.202356130244E+03   -0.51496E-04   -0.53706E-03 10944   0.144E-01    0.143E-02
DAV:   2    -0.202356148851E+03   -0.18607E-04   -0.12742E-04 10752   0.316E-02    0.315E-02
DAV:   3    -0.202356140309E+03    0.85419E-05   -0.20299E-05  6112   0.241E-02    0.103E-02
DAV:   4    -0.202356140902E+03   -0.59275E-06   -0.51911E-06  5576   0.105E-02
 375 F= -.20235614E+03 E0= -.19981090E+03  d E =-.627931E-04
       N       E                     dE             d eps       ncg     rms          rms(c)
DAV:   1    -0.202356200198E+03   -0.59889E-04   -0.74695E-03 10944   0.170E-01    0.176E-02
DAV:   2    -0.202356274524E+03   -0.74326E-04   -0.26171E-04 11272   0.572E-02    0.819E-02
DAV:   3    -0.202356214356E+03    0.60168E-04   -0.11299E-04  6888   0.498E-02    0.141E-02
DAV:   4    -0.202356214208E+03    0.14751E-06   -0.87420E-06  5836   0.137E-02
 376 F= -.20235621E+03 E0= -.19981094E+03  d E =-.733062E-04
       N       E                     dE             d eps       ncg     rms          rms(c)
DAV:   1    -0.202356280055E+03   -0.65700E-04   -0.98818E-03 10944   0.195E-01    0.188E-02
DAV:   2    -0.202356311419E+03   -0.31364E-04   -0.22808E-04 10944   0.397E-02    0.389E-02
DAV:   3    -0.202356298873E+03    0.12547E-04   -0.33458E-05  6600   0.303E-02    0.143E-02
DAV:   4    -0.202356301955E+03   -0.30822E-05   -0.13010E-05  5940   0.166E-02
 377 F= -.20235630E+03 E0= -.19981109E+03  d E =-.877467E-04
       N       E                     dE             d eps       ncg     rms          rms(c)
DAV:   1    -0.202356372394E+03   -0.73521E-04   -0.12652E-02 10944   0.221E-01    0.208E-02
DAV:   2    -0.202356421684E+03   -0.49290E-04   -0.30740E-04 10972   0.472E-02    0.550E-02
DAV:   3    -0.202356398694E+03    0.22990E-04   -0.69654E-05  6764   0.391E-02    0.213E-02
DAV:   4    -0.202356396662E+03    0.20324E-05   -0.12552E-05  5884   0.178E-02
 378 F= -.20235640E+03 E0= -.19981112E+03  d E =-.947070E-04
       N       E                     dE             d eps       ncg     rms          rms(c)
DAV:   1    -0.202356473279E+03   -0.74584E-04   -0.15669E-02 10944   0.246E-01    0.238E-02
DAV:   2    -0.202356523898E+03   -0.50619E-04   -0.36118E-04 10948   0.507E-02    0.499E-02
DAV:   3    -0.202356502542E+03    0.21356E-04   -0.52649E-05  7384   0.388E-02    0.165E-02
DAV:   4    -0.202356502855E+03   -0.31298E-06   -0.93063E-06  5892   0.137E-02
 379 F= -.20235650E+03 E0= -.19981126E+03  d E =-.106193E-03
       N       E                     dE             d eps       ncg     rms          rms(c)
DAV:   1    -0.202356580549E+03   -0.78007E-04   -0.18291E-02 10944   0.266E-01    0.286E-02
DAV:   2    -0.202356823936E+03   -0.24339E-03   -0.75446E-04 11560   0.102E-01    0.152E-01
DAV:   3    -0.202356613758E+03    0.21018E-03   -0.37017E-04 11580   0.893E-02    0.185E-02
DAV:   4    -0.202356613997E+03   -0.23874E-06   -0.15034E-05  6488   0.160E-02
 380 F= -.20235661E+03 E0= -.19981128E+03  d E =-.111142E-03
       N       E                     dE             d eps       ncg     rms          rms(c)
DAV:   1    -0.202356676605E+03   -0.62847E-04   -0.19206E-02 10944   0.269E-01    0.281E-02
DAV:   2    -0.202356740850E+03   -0.64245E-04   -0.47289E-04 10992   0.581E-02    0.567E-02
DAV:   3    -0.202356713444E+03    0.27406E-04   -0.71808E-05  8788   0.445E-02    0.214E-02
DAV:   4    -0.202356718211E+03   -0.47669E-05   -0.24340E-05  6548   0.221E-02
 381 F= -.20235672E+03 E0= -.19981155E+03  d E =-.104214E-03
       N       E                     dE             d eps       ncg     rms          rms(c)
DAV:   1    -0.202356754533E+03   -0.41089E-04   -0.68498E-03 10944   0.154E-01    0.237E-02
DAV:   2    -0.202356870914E+03   -0.11638E-03   -0.37145E-04 11552   0.720E-02    0.105E-01
DAV:   3    -0.202356771076E+03    0.99839E-04   -0.17787E-04  7436   0.624E-02    0.178E-02
DAV:   4    -0.202356771493E+03   -0.41784E-06   -0.16140E-05  6304   0.189E-02
 382 F= -.20235677E+03 E0= -.19981154E+03  d E =-.532828E-04
       N       E                     dE             d eps       ncg     rms          rms(c)
DAV:   1    -0.202356799370E+03   -0.28295E-04   -0.12336E-03 10944   0.677E-02    0.112E-02
DAV:   2    -0.202356813583E+03   -0.14212E-04   -0.51025E-05  7900   0.305E-02    0.355E-02
DAV:   3    -0.202356801458E+03    0.12124E-04   -0.18252E-05  6144   0.250E-02    0.680E-03
DAV:   4    -0.202356802544E+03   -0.10854E-05   -0.44661E-06  5712   0.902E-03
 383 F= -.20235680E+03 E0= -.19981146E+03  d E =-.310504E-04
       N       E                     dE             d eps       ncg     rms          rms(c)
DAV:   1    -0.202356833282E+03   -0.31824E-04   -0.18376E-03 10944   0.843E-02    0.942E-03
DAV:   2    -0.202356844607E+03   -0.11325E-04   -0.53550E-05  8408   0.249E-02    0.307E-02
DAV:   3    -0.202356837236E+03    0.73715E-05   -0.21046E-05  6080   0.216E-02    0.110E-02
DAV:   4    -0.202356836531E+03    0.70471E-06   -0.33645E-06  5556   0.896E-03
 384 F= -.20235684E+03 E0= -.19981155E+03  d E =-.339874E-04
       N       E                     dE             d eps       ncg     rms          rms(c)
DAV:   1    -0.202356875407E+03   -0.38171E-04   -0.28984E-03 10944   0.106E-01    0.964E-03
DAV:   2    -0.202356882215E+03   -0.68077E-05   -0.62375E-05  8912   0.183E-02    0.137E-02
DAV:   3    -0.202356881231E+03    0.98377E-06   -0.70269E-06  5484   0.131E-02    0.833E-03
DAV:   4    -0.202356881426E+03   -0.19500E-06   -0.28963E-06  5472   0.800E-03
 385 F= -.20235688E+03 E0= -.19981161E+03  d E =-.448950E-04
       N       E                     dE             d eps       ncg     rms          rms(c)
DAV:   1    -0.202356928099E+03   -0.46867E-04   -0.44156E-03 10944   0.131E-01    0.124E-02
DAV:   2    -0.202356958803E+03   -0.30704E-04   -0.12798E-04 10480   0.369E-02    0.504E-02
DAV:   3    -0.202356936615E+03    0.22188E-04   -0.45038E-05  6336   0.318E-02    0.105E-02
DAV:   4    -0.202356936796E+03   -0.18092E-06   -0.51666E-06  5636   0.107E-02
 386 F= -.20235694E+03 E0= -.19981165E+03  d E =-.553693E-04
       N       E                     dE             d eps       ncg     rms          rms(c)
DAV:   1    -0.202356989992E+03   -0.53377E-04   -0.61612E-03 10944   0.154E-01    0.139E-02
DAV:   2    -0.202357005743E+03   -0.15751E-04   -0.13430E-04 10848   0.271E-02    0.233E-02
DAV:   3    -0.202357002435E+03    0.33083E-05   -0.15947E-05  5884   0.198E-02    0.135E-02
DAV:   4    -0.202357003557E+03   -0.11225E-05   -0.90968E-06  5704   0.140E-02
 387 F= -.20235700E+03 E0= -.19981173E+03  d E =-.667618E-04
       N       E                     dE             d eps       ncg     rms          rms(c)
DAV:   1    -0.202357061366E+03   -0.58932E-04   -0.82780E-03 10944   0.179E-01    0.165E-02
DAV:   2    -0.202357088508E+03   -0.27142E-04   -0.18950E-04 10968   0.362E-02    0.374E-02
DAV:   3    -0.202357079439E+03    0.90695E-05   -0.36961E-05  6428   0.294E-02    0.205E-02
DAV:   4    -0.202357077519E+03    0.19201E-05   -0.12386E-05  5872   0.169E-02
 388 F= -.20235708E+03 E0= -.19981179E+03  d E =-.739613E-04
       N       E                     dE             d eps       ncg     rms          rms(c)
DAV:   1    -0.202357141580E+03   -0.62141E-04   -0.10554E-02 10944   0.202E-01    0.192E-02
DAV:   2    -0.202357172867E+03   -0.31287E-04   -0.23837E-04 10944   0.400E-02    0.378E-02
DAV:   3    -0.202357161885E+03    0.10982E-04   -0.34097E-05  6452   0.299E-02    0.163E-02
DAV:   4    -0.202357164472E+03   -0.25872E-05   -0.15462E-05  5968   0.181E-02
 389 F= -.20235716E+03 E0= -.19981190E+03  d E =-.869536E-04
       N       E                     dE             d eps       ncg     rms          rms(c)
DAV:   1    -0.202357231373E+03   -0.69488E-04   -0.13285E-02 10944   0.227E-01    0.220E-02
DAV:   2    -0.202357290899E+03   -0.59526E-04   -0.33362E-04 10984   0.539E-02    0.636E-02
DAV:   3    -0.202357259582E+03    0.31317E-04   -0.89066E-05  6984   0.450E-02    0.255E-02
DAV:   4    -0.202357256406E+03    0.31759E-05   -0.19638E-05  6080   0.216E-02
 390 F= -.20235726E+03 E0= -.19981195E+03  d E =-.919339E-04
       N       E                     dE             d eps       ncg     rms          rms(c)
DAV:   1    -0.202357323433E+03   -0.63851E-04   -0.15210E-02 10944   0.242E-01    0.243E-02
DAV:   2    -0.202357375883E+03   -0.52450E-04   -0.36486E-04 10948   0.527E-02    0.529E-02
DAV:   3    -0.202357352564E+03    0.23319E-04   -0.59751E-05  7928   0.400E-02    0.189E-02
DAV:   4    -0.202357356313E+03   -0.37491E-05   -0.20927E-05  6172   0.212E-02
 391 F= -.20235736E+03 E0= -.19981209E+03  d E =-.999069E-04
       N       E                     dE             d eps       ncg     rms          rms(c)
DAV:   1    -0.202357403325E+03   -0.50761E-04   -0.15138E-02 10944   0.238E-01    0.264E-02
DAV:   2    -0.202357499833E+03   -0.96509E-04   -0.45647E-04 11092   0.688E-02    0.879E-02
DAV:   3    -0.202357435668E+03    0.64166E-04   -0.15042E-04  8004   0.582E-02    0.288E-02
DAV:   4    -0.202357431476E+03    0.41918E-05   -0.23544E-05  6400   0.236E-02
 392 F= -.20235743E+03 E0= -.19981211E+03  d E =-.751630E-04
       N       E                     dE             d eps       ncg     rms          rms(c)
DAV:   1    -0.202357471743E+03   -0.36075E-04   -0.46562E-03 10944   0.126E-01    0.221E-02
DAV:   2    -0.202357523881E+03   -0.52138E-04   -0.21711E-04 11448   0.562E-02    0.660E-02
DAV:   3    -0.202357482919E+03    0.40962E-04   -0.74043E-05  7908   0.452E-02    0.174E-02
DAV:   4    -0.202357484534E+03   -0.16148E-05   -0.17811E-05  6028   0.187E-02
 393 F= -.20235748E+03 E0= -.19981222E+03  d E =-.530578E-04
       N       E                     dE             d eps       ncg     rms          rms(c)
DAV:   1    -0.202357513152E+03   -0.30233E-04   -0.19849E-03 10944   0.872E-02    0.124E-02
DAV:   2    -0.202357528860E+03   -0.15708E-04   -0.71211E-05  8944   0.323E-02    0.363E-02
DAV:   3    -0.202357519954E+03    0.89056E-05   -0.32443E-05  6320   0.278E-02    0.200E-02
DAV:   4    -0.202357516588E+03    0.33663E-05   -0.85335E-06  5744   0.142E-02
 394 F= -.20235752E+03 E0= -.19981220E+03  d E =-.320540E-04
       N       E                     dE             d eps       ncg     rms          rms(c)
DAV:   1    -0.202357552179E+03   -0.32225E-04   -0.25887E-03 10944   0.100E-01    0.114E-02
DAV:   2    -0.202357565327E+03   -0.13148E-04   -0.68686E-05  9060   0.283E-02    0.310E-02
DAV:   3    -0.202357556670E+03    0.86573E-05   -0.16869E-05  5944   0.224E-02    0.750E-03
DAV:   4    -0.202357557239E+03   -0.56855E-06   -0.36882E-06  5500   0.862E-03
 395 F= -.20235756E+03 E0= -.19981224E+03  d E =-.406506E-04
       N       E                     dE             d eps       ncg     rms          rms(c)
DAV:   1    -0.202357599240E+03   -0.42570E-04   -0.39637E-03 10944   0.124E-01    0.130E-02
DAV:   2    -0.202357639624E+03   -0.40383E-04   -0.13896E-04 10576   0.426E-02    0.609E-02
DAV:   3    -0.202357606747E+03    0.32876E-04   -0.62921E-05  6436   0.373E-02    0.111E-02
DAV:   4    -0.202357606418E+03    0.32890E-06   -0.52279E-06  5692   0.107E-02
 396 F= -.20235761E+03 E0= -.19981227E+03  d E =-.491799E-04
