 vasp.6.5.1 10Mar25 (build Apr 25 2025 15:31:43) complex                        
  
 executed on             LinuxIFC date 2025.12.08  14:54:14
 running  384 mpi-ranks, on   16 nodes
 each image running on   48 cores
 distrk:  each k-point on   24 cores,    2 groups
 distr:  one band on NCORE=   6 cores,    4 groups


--------------------------------------------------------------------------------------------------------


 INCAR:
   SYSTEM = PBE-grap
   NWRITE = 0    write-flag
   ISTART = 0    job   : 0-new, 1-cont, 2-samecut
   ICHARG = 2    charge: 0-wave, 1-file, 2-atom, >10-const
   INIWAV = 1    electr: 0-lowe 1-rand  2-diag
   GGA = PE
   PREC = Normal   low | medium | high
   ENCUT = 370
   NELMDL = -5    number of delayed ELM steps
   NELMIN = 4
   NELM = 150    number of ELM steps
   EDIFF = 1E-05    energy stopping-criterion for ELM
   LREAL = AUTO   real-space projection (.FALSE., .TRUE., On, Auto)
   IALGO = 38    algorithm (8\=CG for small, 48\=RMM for big systems)
   LCHARG = .FALSE.
   LVTOT = .FALSE.
   LWAVE = .FALSE.
   NSW = 1000   max number of geometry steps
   EDIFFG = -0.026   force (eV/A) stopping-criterion for geometry steps
   ISIF = 2     (1:force\=y stress\=trace only ions\=y shape\=n volume\=n)
   ISYM = 0     (1-use symmetry, 0-no symmetry)
   ISMEAR = 0    (-1-Fermi, 1-Methfessel/Paxton)
   SIGMA = 0.41   broadening in eV
   IOPT = 3
   TIMESTEP = 0.05
   ICHAIN = 0     turn on NEB
   LCLIMB = .TRUE.
   POTIM = 0
   IBRION = 3
   IMAGES = 8      image number
   SPRING = -5     spring constant between images
   LPLANE = .TRUE.
   NPAR = 4
   KPAR = 2

 POTCAR:    PAW_PBE Pd 04Jan2005                  
 POTCAR:    PAW_PBE C 08Apr2002                   
 POTCAR:    PAW_PBE O 08Apr2002                   
 POTCAR:    PAW_PBE Pd 04Jan2005                  
  local pseudopotential read in
  partial core-charges read in
  partial kinetic energy density read in
  atomic valenz-charges read in
  non local Contribution for L=           2  read in
    real space projection operators read in
  non local Contribution for L=           2  read in
    real space projection operators read in
  non local Contribution for L=           0  read in
    real space projection operators read in
  non local Contribution for L=           0  read in
    real space projection operators read in
  non local Contribution for L=           1  read in
    real space projection operators read in
  non local Contribution for L=           1  read in
    real space projection operators read in
    PAW grid and wavefunctions read in
 
   number of l-projection  operators is LMAX  =           6
   number of lm-projection operators is LMMAX =          18
 
 POTCAR:    PAW_PBE C 08Apr2002                   
  local pseudopotential read in
  partial core-charges read in
  partial kinetic energy density read in
  atomic valenz-charges read in
  non local Contribution for L=           0  read in
    real space projection operators read in
  non local Contribution for L=           0  read in
    real space projection operators read in
  non local Contribution for L=           1  read in
    real space projection operators read in
  non local Contribution for L=           1  read in
    real space projection operators read in
    PAW grid and wavefunctions read in
 
   number of l-projection  operators is LMAX  =           4
   number of lm-projection operators is LMMAX =           8
 
 POTCAR:    PAW_PBE O 08Apr2002                   
  local pseudopotential read in
  partial core-charges read in
  partial kinetic energy density read in
  kinetic energy density of atom read in
  atomic valenz-charges read in
  non local Contribution for L=           0  read in
    real space projection operators read in
  non local Contribution for L=           0  read in
    real space projection operators read in
  non local Contribution for L=           1  read in
    real space projection operators read in
  non local Contribution for L=           1  read in
    real space projection operators read in
    PAW grid and wavefunctions read in
 
   number of l-projection  operators is LMAX  =           4
   number of lm-projection operators is LMMAX =           8
 
 Optimization of the real space projectors (new method)

 maximal supplied QI-value         = 14.36
 optimisation between [QCUT,QGAM] = [  9.77, 19.68] = [ 26.71,108.41] Ry 
 Optimized for a Real-space Cutoff    1.52 Angstroem

   l    n(q)    QCUT    max X(q) W(low)/X(q) W(high)/X(q)  e(spline) 
   2      8     9.766    59.108    0.18E-03    0.12E-03    0.98E-07
   2      8     9.766    58.101    0.18E-03    0.12E-03    0.10E-06
   0      9     9.766   102.235    0.37E-04    0.68E-04    0.73E-07
   0      9     9.766    58.388    0.33E-04    0.64E-04    0.69E-07
   1      8     9.766    22.191    0.23E-03    0.61E-04    0.11E-06
   1      8     9.766    15.590    0.19E-03    0.52E-04    0.93E-07
 Optimization of the real space projectors (new method)

 maximal supplied QI-value         = 25.13
 optimisation between [QCUT,QGAM] = [  9.80, 19.60] = [ 26.90,107.62] Ry 
 Optimized for a Real-space Cutoff    1.35 Angstroem

   l    n(q)    QCUT    max X(q) W(low)/X(q) W(high)/X(q)  e(spline) 
   0      8     9.802   115.676    0.45E-03    0.67E-03    0.24E-06
   0      8     9.802    87.132    0.44E-03    0.67E-03    0.24E-06
   1      7     9.802     4.429    0.38E-03    0.18E-03    0.24E-06
   1      7     9.802     2.733    0.25E-03    0.72E-04    0.26E-06
 Optimization of the real space projectors (new method)

 maximal supplied QI-value         = 24.76
 optimisation between [QCUT,QGAM] = [  9.65, 19.56] = [ 26.10,107.10] Ry 
 Optimized for a Real-space Cutoff    1.44 Angstroem

   l    n(q)    QCUT    max X(q) W(low)/X(q) W(high)/X(q)  e(spline) 
   0      8     9.655    20.381    0.19E-03    0.21E-03    0.36E-06
   0      8     9.655    15.268    0.21E-03    0.24E-03    0.37E-06
   1      8     9.655     5.964    0.43E-03    0.39E-03    0.31E-06
   1      8     9.655     5.382    0.36E-03    0.33E-03    0.28E-06
  PAW_PBE Pd 04Jan2005                  :
 energy of atom  1       EATOM= -809.7530
 kinetic energy error for atom=    0.0177 (will be added to EATOM!!)
  PAW_PBE C 08Apr2002                   :
 energy of atom  2       EATOM= -147.1560
 kinetic energy error for atom=    0.0545 (will be added to EATOM!!)
  PAW_PBE O 08Apr2002                   :
 energy of atom  3       EATOM= -432.3788
 kinetic energy error for atom=    0.2342 (will be added to EATOM!!)
 
 
 POSCAR: Pd  C  O
  positions in direct lattice
  velocities in cartesian coordinates


 exchange-correlation table for PE
   RHO(1)=    0.500       N(1)  =     2000
   RHO(2)=  100.500       N(2)  =     4000

 VTST: version 4.2, (11/09/24)

 CHAIN: initializing optimizer
 
 OPT: Using Quick-Min optimizer
 OPT: QM, Init
 OPT: QM, MAXMOVE       0.200000
 OPT: QM, TIMESTEP      0.050000
 
 CHAIN: Read ICHAIN            0
 CHAIN: Running the NEB
 NEB:          SPRING     -5.000000
 NEB:          LCLIMB      T
 NEB:     LTANGENTOLD      F
 NEB:           LDNEB      F
 NEB:        LDNEBORG      F
 NEB:        LNEBCELL      F
 NEB:          EFIRST      0.000000
 NEB:           ELAST      0.000000
 
 POSCAR: Pd  C  O
  positions in cartesian coordinates
  No initial velocities read in
 
 POSCAR: Pd  C  O
  positions in cartesian coordinates
  No initial velocities read in
 
 POSCAR: Pd  C  O
  positions in cartesian coordinates
  No initial velocities read in
 
 POSCAR: Pd  C  O
  positions in cartesian coordinates
  No initial velocities read in
 


--------------------------------------------------------------------------------------------------------


 ion  position               nearest neighbor table
   1  0.999  0.998  0.440-   4 2.76  19 2.76  25 2.76  13 2.78   7 2.78  10 2.79   3 2.81  27 2.83
                             9 2.83
   2  0.111  0.223  0.160-  31 2.77  32 2.77  28 2.77   5 2.77   8 2.77  26 2.77  20 2.77  14 2.77
                            11 2.77  12 2.80   9 2.80   3 2.81
   3  0.222  0.113  0.300-  15 2.74  12 2.75   6 2.77   9 2.77  27 2.78  21 2.78   2 2.81   4 2.81
                             5 2.81   1 2.81  20 2.82  13 2.99
   4  0.332  0.000  0.440-   1 2.76  16 2.77   7 2.77  22 2.78  19 2.78  13 2.81   3 2.81  21 2.83
                             6 2.84
   5  0.444  0.223  0.160-  32 2.77  29 2.77  33 2.77   2 2.77  20 2.77  23 2.77   8 2.77  17 2.77
                            14 2.77   6 2.79  15 2.80   3 2.81
   6  0.554  0.111  0.298-  21 2.76   3 2.77  24 2.77  15 2.77  18 2.77   9 2.78  23 2.78  16 2.78
                             5 2.79   7 2.79   8 2.79   4 2.84
   7  0.665  0.999  0.436-  22 2.76  10 2.77  25 2.77  16 2.77   4 2.77   9 2.78   1 2.78  24 2.78
                             6 2.79
   8  0.778  0.223  0.160-  33 2.77  31 2.77  30 2.77   2 2.77  26 2.77  23 2.77  11 2.77   5 2.77
                            17 2.77  18 2.78   6 2.79   9 2.80
   9  0.889  0.112  0.299-  18 2.76  12 2.76  27 2.76   3 2.77   7 2.78  24 2.78   6 2.78  26 2.80
                             2 2.80   8 2.80   1 2.83  10 2.84
  10  0.998  0.333  0.442-  13 2.74  19 2.77  16 2.77   7 2.77  22 2.78   1 2.79   9 2.84  12 2.84
                            18 2.85
  11  0.111  0.557  0.160-  34 2.77  35 2.77  31 2.77  14 2.77  17 2.77  23 2.77  20 2.77   8 2.77
                             2 2.77  18 2.79  21 2.79  12 2.81
  12  0.221  0.444  0.300-  15 2.75   3 2.75   9 2.76  18 2.77  24 2.77  21 2.78   2 2.80  22 2.80
                            14 2.81  11 2.81  10 2.84  13 2.97
  13  0.328  0.335  0.453-  38 2.26  22 2.74  10 2.74   1 2.78  25 2.79   4 2.81  16 2.82  12 2.97
                             3 2.99  15 3.00
  14  0.444  0.557  0.160-  35 2.77  36 2.77  32 2.77  11 2.77  23 2.77  26 2.77   2 2.77  17 2.77
                             5 2.77  24 2.78  15 2.80  12 2.81
  15  0.552  0.443  0.300-   3 2.74  12 2.75  16 2.77  25 2.77   6 2.77  24 2.77  18 2.79  27 2.79
                             5 2.80  14 2.80  17 2.82  13 3.00
  16  0.665  0.333  0.436-  19 2.76  25 2.77  15 2.77   4 2.77  10 2.77   7 2.77   6 2.78  18 2.78
                            13 2.82
  17  0.778  0.557  0.160-  36 2.77  34 2.77  33 2.77  11 2.77  26 2.77  20 2.77  14 2.77   8 2.77
                             5 2.77  27 2.78  18 2.79  15 2.82
  18  0.888  0.444  0.298-   9 2.76  12 2.77  19 2.77   6 2.77  21 2.78   8 2.78  16 2.78  27 2.78
                            11 2.79  15 2.79  17 2.79  10 2.85
  19  0.997  0.665  0.436-  25 2.76   1 2.76  16 2.76  10 2.77  18 2.77  21 2.78   4 2.78  27 2.78
                            22 2.79
  20  0.111  0.890  0.160-  29 2.77  28 2.77  34 2.77  23 2.77  26 2.77  11 2.77  17 2.77   5 2.77
                             2 2.77  27 2.79  21 2.80   3 2.82
  21  0.222  0.778  0.299-   6 2.76  24 2.76  12 2.78  27 2.78  18 2.78  19 2.78   3 2.78  11 2.79
                            23 2.79  20 2.80  22 2.82   4 2.83
  22  0.333  0.666  0.439-  13 2.74   7 2.76  25 2.77  10 2.78   4 2.78  19 2.79  12 2.80  24 2.82
                            21 2.82
  23  0.444  0.890  0.160-  29 2.77  35 2.77  30 2.77  20 2.77  11 2.77  14 2.77   5 2.77   8 2.77
                            26 2.77   6 2.78  24 2.78  21 2.79
  24  0.554  0.778  0.298-  21 2.76   6 2.77  12 2.77  15 2.77  27 2.77   9 2.78  14 2.78   7 2.78
                            23 2.78  25 2.79  26 2.79  22 2.82
  25  0.666  0.666  0.436-  19 2.76   1 2.76  16 2.77  22 2.77  15 2.77   7 2.77  27 2.79  24 2.79
                            13 2.79
  26  0.778  0.890  0.160-  28 2.77  30 2.77  36 2.77  20 2.77  17 2.77   8 2.77   2 2.77  14 2.77
                            23 2.77  27 2.78  24 2.79   9 2.80
  27  0.888  0.779  0.298-   9 2.76  24 2.77   3 2.78  21 2.78  26 2.78  19 2.78  17 2.78  18 2.78
                            20 2.79  25 2.79  15 2.79   1 2.83
  28  1.000  0.001  0.023-  26 2.77  20 2.77   2 2.77  30 2.77  29 2.77  31 2.77  32 2.77  36 2.77
                            34 2.77
  29  0.333  0.001  0.023-  20 2.77  23 2.77   5 2.77  28 2.77  32 2.77  34 2.77  35 2.77  33 2.77
                            30 2.77
  30  0.666  0.001  0.023-  26 2.77   8 2.77  23 2.77  28 2.77  31 2.77  33 2.77  36 2.77  35 2.77
                            29 2.77
  31  1.000  0.334  0.023-   2 2.77   8 2.77  11 2.77  33 2.77  32 2.77  28 2.77  30 2.77  35 2.77
                            34 2.77
  32  0.333  0.334  0.023-   5 2.77   2 2.77  14 2.77  31 2.77  29 2.77  28 2.77  33 2.77  35 2.77
                            36 2.77
  33  0.666  0.334  0.023-   8 2.77   5 2.77  17 2.77  31 2.77  30 2.77  29 2.77  34 2.77  32 2.77
                            36 2.77
  34  1.000  0.668  0.023-  11 2.77  17 2.77  20 2.77  36 2.77  35 2.77  28 2.77  29 2.77  33 2.77
                            31 2.77
  35  0.333  0.668  0.023-  14 2.77  11 2.77  23 2.77  34 2.77  29 2.77  30 2.77  31 2.77  36 2.77
                            32 2.77
  36  0.666  0.668  0.023-  17 2.77  26 2.77  14 2.77  34 2.77  28 2.77  30 2.77  35 2.77  32 2.77
                            33 2.77
  37  0.224  0.105  0.589-  39 1.16
  38  0.235  0.377  0.576-  13 2.26
  39  0.212  0.033  0.651-  37 1.16
 

IMPORTANT INFORMATION: All symmetrisations will be switched off!
NOSYMM: (Re-)initialisation of all symmetry stuff for point group C_1.


----------------------------------------------------------------------------------------

                                     Primitive cell                                     

  volume of cell :     988.1533

  direct lattice vectors                    reciprocal lattice vectors
     8.309900284  0.000000000  0.000000000     0.120338387  0.069477400  0.000000000
    -4.154950142  7.196584749  0.000000000     0.000000000  0.138954801  0.000000000
     0.000000000  0.000000000 16.523500443     0.000000000  0.000000000  0.060519864

  length of vectors
     8.309900284  8.309900284 16.523500443     0.138954801  0.138954801  0.060519864

  position of ions in fractional coordinates (direct lattice)
     0.998781887  0.997880569  0.440162933
     0.110930000  0.223300000  0.160240000
     0.222081549  0.113086987  0.300315780
     0.331632103  0.000112497  0.440162110
     0.444260000  0.223300000  0.160240000
     0.553601272  0.110694726  0.298310872
     0.665027450  0.999211736  0.436249851
     0.777600000  0.223300000  0.160240000
     0.888575341  0.111640393  0.299299066
     0.997902603  0.332788166  0.441508964
     0.110930000  0.556640000  0.160240000
     0.221213503  0.443848389  0.299709946
     0.327983253  0.335239114  0.453133902
     0.444260000  0.556640000  0.160240000
     0.551838748  0.443231229  0.299781933
     0.664861761  0.332796888  0.436000187
     0.777600000  0.556640000  0.160240000
     0.887967199  0.443732857  0.298455464
     0.997422107  0.665150156  0.435726576
     0.110930000  0.889970000  0.160240000
     0.222151028  0.778445610  0.298922494
     0.333000743  0.666144872  0.439128662
     0.444260000  0.889970000  0.160240000
     0.553871399  0.777697057  0.298291099
     0.665929117  0.666170994  0.436218224
     0.777600000  0.889970000  0.160240000
     0.888091281  0.778838399  0.298119594
     0.999820000  0.001080000  0.023370000
     0.333150000  0.001080000  0.023370000
     0.666490000  0.001080000  0.023370000
     0.999820000  0.334410000  0.023370000
     0.333150000  0.334410000  0.023370000
     0.666490000  0.334410000  0.023370000
     0.999820000  0.667750000  0.023370000
     0.333150000  0.667750000  0.023370000
     0.666490000  0.667750000  0.023370000
     0.224127167  0.105372545  0.589404536
     0.234567267  0.376703188  0.576074367
     0.211993299  0.032535663  0.650739921

  ion indices of the primitive-cell ions
   primitive index   ion index
                 1           1
                 2           2
                 3           3
                 4           4
                 5           5
                 6           6
                 7           7
                 8           8
                 9           9
                10          10
                11          11
                12          12
                13          13
                14          14
                15          15
                16          16
                17          17
                18          18
                19          19
                20          20
                21          21
                22          22
                23          23
                24          24
                25          25
                26          26
                27          27
                28          28
                29          29
                30          30
                31          31
                32          32
                33          33
                34          34
                35          35
                36          36
                37          37
                38          38
                39          39

----------------------------------------------------------------------------------------

 
 
 KPOINTS: Automatic mesh                          

Automatic generation of k-mesh.
 Grid dimensions read from file:
 generate k-points for:    4    4    1

 Generating k-lattice:

  Cartesian coordinates                     Fractional coordinates (reciprocal lattice)
     0.030084597  0.017369350  0.000000000     0.250000000  0.000000000  0.000000000
     0.000000000  0.034738700  0.000000000     0.000000000  0.250000000  0.000000000
     0.000000000  0.000000000  0.060519864     0.000000000  0.000000000  1.000000000

  Length of vectors
     0.034738700  0.034738700  0.060519864

  Shift w.r.t. Gamma in fractional coordinates (k-lattice)
     0.500000000  0.500000000  0.000000000

 
 Subroutine IBZKPT returns following result:
 ===========================================
 
 Found     24 irreducible k-points:
 
 Following reciprocal coordinates:
            Coordinates               Weight
  0.125000  0.125000  0.000000      2.000000
 -0.125000  0.250000  0.000000      2.000000
 -0.250000  0.125000  0.000000      2.000000
  0.375000  0.125000  0.000000      2.000000
 -0.125000  0.500000  0.000000      2.000000
  0.500000  0.375000  0.000000      2.000000
 -0.375000  0.500000  0.000000      2.000000
  0.125000  0.375000  0.000000      2.000000
  0.500000 -0.125000  0.000000      2.000000
 -0.375000  0.125000  0.000000      2.000000
 -0.125000 -0.250000  0.000000      2.000000
  0.250000 -0.375000  0.000000      2.000000
  0.375000 -0.250000  0.000000      2.000000
  0.125000 -0.375000  0.000000      2.000000
 -0.250000 -0.125000  0.000000      2.000000
 -0.125000  0.125000  0.000000      2.000000
 -0.125000  0.000000  0.000000      2.000000
  0.000000 -0.125000  0.000000      2.000000
  0.375000  0.375000  0.000000      2.000000
 -0.375000 -0.250000  0.000000      2.000000
  0.250000  0.375000  0.000000      2.000000
 -0.375000  0.375000  0.000000      2.000000
 -0.375000  0.000000  0.000000      2.000000
  0.000000 -0.375000  0.000000      2.000000
 
 Following cartesian coordinates:
            Coordinates               Weight
  0.015042  0.026054  0.000000      2.000000
 -0.015042  0.026054  0.000000      2.000000
 -0.030085  0.000000  0.000000      2.000000
  0.045127  0.043423  0.000000      2.000000
 -0.015042  0.060793  0.000000      2.000000
  0.060169  0.086847  0.000000      2.000000
 -0.045127  0.043423  0.000000      2.000000
  0.015042  0.060793  0.000000      2.000000
  0.060169  0.017369  0.000000      2.000000
 -0.045127 -0.008685  0.000000      2.000000
 -0.015042 -0.043423  0.000000      2.000000
  0.030085 -0.034739  0.000000      2.000000
  0.045127 -0.008685  0.000000      2.000000
  0.015042 -0.043423  0.000000      2.000000
 -0.030085 -0.034739  0.000000      2.000000
 -0.015042  0.008685  0.000000      2.000000
 -0.015042 -0.008685  0.000000      2.000000
  0.000000 -0.017369  0.000000      2.000000
  0.045127  0.078162  0.000000      2.000000
 -0.045127 -0.060793  0.000000      2.000000
  0.030085  0.069477  0.000000      2.000000
 -0.045127  0.026054  0.000000      2.000000
 -0.045127 -0.026054  0.000000      2.000000
  0.000000 -0.052108  0.000000      2.000000
 


--------------------------------------------------------------------------------------------------------




 Dimension of arrays:
   k-points           NKPTS =     24   k-points in BZ     NKDIM =     24   number of bands    NBANDS=    228
   number of dos      NEDOS =    301   number of ions     NIONS =     39
   non local maximal  LDIM  =      6   non local SUM 2l+1 LMDIM =     18
   total plane-waves  NPLWV = 128000
   max r-space proj   IRMAX =   1966   max aug-charges    IRDMAX=   6482
   dimension x,y,z NGX =    40 NGY =   40 NGZ =   80
   dimension x,y,z NGXF=    80 NGYF=   80 NGZF=  160
   support grid    NGXF=    80 NGYF=   80 NGZF=  160
   ions per type =              36   1   2
   NGX,Y,Z   is equivalent  to a cutoff of   8.00,  8.00,  8.05 a.u.
   NGXF,Y,Z  is equivalent  to a cutoff of  16.00, 16.00, 16.10 a.u.

 SYSTEM =  PBE-grap                                
 POSCAR =  Pd  C  O                                

 Startparameter for this run:
   NWRITE =      0    write-flag & timer
   PREC   = normal    normal or accurate (medium, high low for compatibility)
   ISTART =      0    job   : 0-new  1-cont  2-samecut
   ICHARG =      2    charge: 1-file 2-atom 10-const
   ISPIN  =      1    spin polarized calculation?
   LNONCOLLINEAR =      F non collinear calculations
   LSORBIT =      F    spin-orbit coupling
   INIWAV =      1    electr: 0-lowe 1-rand  2-diag
   LASPH  =      F    aspherical Exc in radial PAW
 Electronic Relaxation 1
   ENCUT  =  370.0 eV  27.19 Ry    5.21 a.u.  13.03 13.03 25.92*2*pi/ulx,y,z
   ENINI  =  370.0     initial cutoff
   ENAUG  =  644.9 eV  augmentation charge cutoff
   NELM   =    150;   NELMIN=  4; NELMDL= -5     # of ELM steps 
   EDIFF  = 0.1E-04   stopping-criterion for ELM
   LREAL  =      T    real-space projection
   NLSPLINE    = F    spline interpolate recip. space projectors
   LCOMPAT=      F    compatible to vasp.4.4
   GGA_COMPAT  = T    GGA compatible to vasp.4.4-vasp.4.6
   LMAXPAW     = -100 max onsite density
   LMAXMIX     =    2 max onsite mixed and CHGCAR
   VOSKOWN=      0    Vosko Wilk Nusair interpolation
   ROPT   =   -0.00050  -0.00050  -0.00050
 Ionic relaxation
   EDIFFG = -.3E-01   stopping-criterion for IOM
   NSW    =   1000    number of steps for IOM
   NBLOCK =      1;   KBLOCK =   1000    inner block; outer block 
   IBRION =      3    ionic relax: 0-MD 1-quasi-New 2-CG
   NFREE  =      0    steps in history (QN), initial steepest desc. (CG)
   ISIF   =      2    stress and relaxation
   IWAVPR =     11    prediction:  0-non 1-charg 2-wave 3-comb
   ISYM   =      0    0-nonsym 1-usesym 2-fastsym
   LCORR  =      T    Harris-Foulkes like correction to forces

   POTIM  = 0.0000    time-step for ionic-motion
   TEIN   =    0.0    initial temperature
   TEBEG  =    0.0;   TEEND  =   0.0 temperature during run
   SMASS  =  -3.00    Nose mass-parameter (am)
   estimated Nose-frequenzy (Omega)   =  0.10E-29 period in steps = 0.00E+00 mass=  -0.158E-26a.u.
   SCALEE = 1.0000    scale energy and forces
   NPACO  =    256;   APACO  = 10.0  distance and # of slots for P.C.
   PSTRESS=    0.0 pullay stress

  Mass of Ions in am
   POMASS = 106.42 12.01 16.00
  Ionic Valenz
   ZVAL   =  10.00  4.00  6.00
  Atomic Wigner-Seitz radii
   RWIGS  =  -1.00 -1.00 -1.00
  virtual crystal weights 
   VCA    =   1.00  1.00  1.00
   NELECT =     376.0000    total number of electrons
   NUPDOWN=      -1.0000    fix difference up-down

 DOS related values:
   EMIN   =  10.00;   EMAX   =-10.00  energy-range for DOS
   EFERMI =   0.00;   METHOD = LEGACY      
   ISMEAR =     0;   SIGMA  =   0.41  broadening in eV -4-tet -1-fermi 0-gaus
   EFERMI_NEDOS =   21; number of points for ismear=-14 and -15

 Electronic relaxation 2 (details)
   IALGO  =     38    algorithm
   LDIAG  =      T    sub-space diagonalisation (order eigenvalues)
   LSUBROT=      F    optimize rotation matrix (better conditioning)
   LROBUST=      F    robust break criterion during scf (extrapolated energy error)
   ISEARCH=      0    line search for conjugate gradient (0, 1=use gradient)
   TURBO    =      0    0=normal 1=particle mesh
   IRESTART =      0    0=no restart 2=restart with 2 vectors
   NREBOOT  =      0    no. of reboots
   NMIN     =      0    reboot dimension
   EREF     =   0.00    reference energy to select bands
   IMIX   =      4    mixing-type and parameters
     AMIX     =   0.40;   BMIX     =  1.00
     AMIX_MAG =   1.60;   BMIX_MAG =  1.00
     AMIN     =   0.10
     WC   =   100.;   INIMIX=   1;  MIXPRE=   1;  MAXMIX= -45

 Intra band minimization:
   WEIMIN = 0.0010     energy-eigenvalue tresh-hold
   EBREAK =  0.11E-07  absolut break condition
   DEPER  =   0.30     relativ break condition  

   TIME   =   0.40     timestep for ELM

  volume/ion in A,a.u.               =      25.34       170.98
  Fermi-wavevector in a.u.,A,eV,Ry     =   1.186304  2.241790 19.147714  1.407317
  Thomas-Fermi vector in A             =   2.322480
 
 Write flags
   LWAVE        =      F    write WAVECAR
   LDOWNSAMPLE  =      F    k-point downsampling of WAVECAR
   LCHARG       =      F    write CHGCAR
   LVTOT        =      F    write LOCPOT, total local potential
   LVHAR        =      F    write LOCPOT, Hartree potential only
   WRT_POTENTIAL= false  ! write potential to hdf5 file
   LELF         =      F    write electronic localiz. function (ELF)
   LORBIT       =      0    0 simple, 1 ext, 2 COOP (PROOUT), +10 PAW based schemes


 Python interface
   PLUGINS active      =      F    recompile with -DPLUGINS to activate
 
 Dipole corrections
   LMONO      =      F    monopole corrections only (constant potential shift)
   LDIPOL     =      F    correct potential (dipole corrections)
   IDIPOL     =      0    1-x, 2-y, 3-z, 4-all directions 
   EPSILON    =  1.0000000 bulk dielectric constant
   LVACPOTAV  =      F  vacuum potentials using an averaging scheme for the charge density
   VACPOTFLAT =  0.1000000 required flatness to determine vacuum potential
 
Coulomb truncation method
  LTRUNCATE          =      F  Coulomb kernel truncation to be used

 
 Exchange correlation treatment:
   GGA     = PE    functional components
   XC_C    = 1    coefficients multiplying the functional components
   LIBXC   =     F    Libxc                    
   VOSKOWN =     0    Vosko Wilk Nusair interpolation
   LHFCALC =     F    Hartree Fock is set to
   LHFONE  =     F    Hartree Fock one center treatment
   AEXX    =    0.0000 exact exchange contribution

 Parameters of functionals:
   PE:
     No parameter
 
 Van der Waals corrections
   IVDW    =     0    specifies the selected vdW correction

 Linear response parameters
   LEPSILON=     F    determine dielectric tensor
   LRPA    =     F    only Hartree local field effects (RPA)
   LNABLA  =     F    use nabla operator in PAW spheres
   LVEL    =     F    velocity operator in full k-point grid
   CSHIFT  =0.1000    complex shift for real part using Kramers Kronig
   OMEGAMAX=  -1.0    maximum frequency
   DEG_THRESHOLD= 0.2000000E-02 threshold for treating states as degnerate
   RTIME   =   -0.100 relaxation time in fs
  (WPLASMAI=    0.000 imaginary part of plasma frequency in eV, 0.658/RTIME)
   DFIELD  = 0.0000000 0.0000000 0.0000000 field for delta impulse in time
 
  Optional k-point grid parameters
   LKPOINTS_OPT  =     F    use optional k-point grid
   KPOINTS_OPT_MODE=     1    mode for optional k-point grid
 
 Orbital magnetization related:
   ORBITALMAG=     F  switch on orbital magnetization
   LCHIMAG   =     F  perturbation theory with respect to B field
   DQ        =  0.001000  dq finite difference perturbation B field
   LLRAUG    =     F  two centre corrections for induced B field
   LBONE     =     F  B-component reconstruction in AE one-centre
   LVGVCALC  =     T  calculate vGv susceptibility
   LVGVAPPL  =     F  apply vGv susceptibility instead of pGv for G=0

 Random number generation:
   RANDOM_GENERATOR = DEFAULT
   PCG_SEED         = not used


--------------------------------------------------------------------------------------------------------


 quickmin algorithm: (dynamic with friction)
   using selective dynamics as specified on POSCAR
 charge density and potential will be updated during run
 non-spin polarized calculation
 Variant of blocked Davidson
 Davidson routine will perform the subspace rotation
 perform sub-space diagonalisation
    after iterative eigenvector-optimisation
 modified Broyden-mixing scheme, WC =      100.0
 initial mixing is a Kerker type mixing with AMIX =  0.4000 and BMIX =      1.0000
 Hartree-type preconditioning will be used
 using additional bands           40
 real space projection scheme for non local part
 use partial core corrections
 calculate Harris-corrections to forces 
   (improved forces if not selfconsistent)
 use gradient corrections 
 use of overlap-Matrix (Vanderbilt PP)
 Gauss-broadening in eV      SIGMA  =   0.41


--------------------------------------------------------------------------------------------------------


  energy-cutoff  :      370.00
  volume of cell :      988.15
      direct lattice vectors                 reciprocal lattice vectors
     8.309900284  0.000000000  0.000000000     0.120338387  0.069477400  0.000000000
    -4.154950142  7.196584749  0.000000000     0.000000000  0.138954801  0.000000000
     0.000000000  0.000000000 16.523500443     0.000000000  0.000000000  0.060519864

  length of vectors
     8.309900284  8.309900284 16.523500443     0.138954801  0.138954801  0.060519864


 
 k-points in units of 2pi/SCALE and weight: Automatic mesh                          
   0.01504230  0.02605403  0.00000000       0.042
  -0.01504230  0.02605403  0.00000000       0.042
  -0.03008460  0.00000000  0.00000000       0.042
   0.04512690  0.04342338  0.00000000       0.042
  -0.01504230  0.06079273  0.00000000       0.042
   0.06016919  0.08684675  0.00000000       0.042
  -0.04512690  0.04342338  0.00000000       0.042
   0.01504230  0.06079273  0.00000000       0.042
   0.06016919  0.01736935  0.00000000       0.042
  -0.04512690 -0.00868468  0.00000000       0.042
  -0.01504230 -0.04342338  0.00000000       0.042
   0.03008460 -0.03473870  0.00000000       0.042
   0.04512690 -0.00868468  0.00000000       0.042
   0.01504230 -0.04342338  0.00000000       0.042
  -0.03008460 -0.03473870  0.00000000       0.042
  -0.01504230  0.00868468  0.00000000       0.042
  -0.01504230 -0.00868468  0.00000000       0.042
   0.00000000 -0.01736935  0.00000000       0.042
   0.04512690  0.07816208  0.00000000       0.042
  -0.04512690 -0.06079273  0.00000000       0.042
   0.03008460  0.06947740  0.00000000       0.042
  -0.04512690  0.02605403  0.00000000       0.042
  -0.04512690 -0.02605403  0.00000000       0.042
   0.00000000 -0.05210805  0.00000000       0.042
 
 k-points in reciprocal lattice and weights: Automatic mesh                          
   0.12500000  0.12500000  0.00000000       0.042
  -0.12500000  0.25000000  0.00000000       0.042
  -0.25000000  0.12500000  0.00000000       0.042
   0.37500000  0.12500000  0.00000000       0.042
  -0.12500000  0.50000000  0.00000000       0.042
   0.50000000  0.37500000  0.00000000       0.042
  -0.37500000  0.50000000  0.00000000       0.042
   0.12500000  0.37500000  0.00000000       0.042
   0.50000000 -0.12500000  0.00000000       0.042
  -0.37500000  0.12500000  0.00000000       0.042
  -0.12500000 -0.25000000  0.00000000       0.042
   0.25000000 -0.37500000  0.00000000       0.042
   0.37500000 -0.25000000  0.00000000       0.042
   0.12500000 -0.37500000  0.00000000       0.042
  -0.25000000 -0.12500000  0.00000000       0.042
  -0.12500000  0.12500000  0.00000000       0.042
  -0.12500000  0.00000000  0.00000000       0.042
   0.00000000 -0.12500000  0.00000000       0.042
   0.37500000  0.37500000  0.00000000       0.042
  -0.37500000 -0.25000000  0.00000000       0.042
   0.25000000  0.37500000  0.00000000       0.042
  -0.37500000  0.37500000  0.00000000       0.042
  -0.37500000  0.00000000  0.00000000       0.042
   0.00000000 -0.37500000  0.00000000       0.042
 
 position of ions in fractional coordinates (direct lattice) 
   0.99878189  0.99788057  0.44016293
   0.11093000  0.22330000  0.16024000
   0.22208155  0.11308699  0.30031578
   0.33163210  0.00011250  0.44016211
   0.44426000  0.22330000  0.16024000
   0.55360127  0.11069473  0.29831087
   0.66502745  0.99921174  0.43624985
   0.77760000  0.22330000  0.16024000
   0.88857534  0.11164039  0.29929907
   0.99790260  0.33278817  0.44150896
   0.11093000  0.55664000  0.16024000
   0.22121350  0.44384839  0.29970995
   0.32798325  0.33523911  0.45313390
   0.44426000  0.55664000  0.16024000
   0.55183875  0.44323123  0.29978193
   0.66486176  0.33279689  0.43600019
   0.77760000  0.55664000  0.16024000
   0.88796720  0.44373286  0.29845546
   0.99742211  0.66515016  0.43572658
   0.11093000  0.88997000  0.16024000
   0.22215103  0.77844561  0.29892249
   0.33300074  0.66614487  0.43912866
   0.44426000  0.88997000  0.16024000
   0.55387140  0.77769706  0.29829110
   0.66592912  0.66617099  0.43621822
   0.77760000  0.88997000  0.16024000
   0.88809128  0.77883840  0.29811959
   0.99982000  0.00108000  0.02337000
   0.33315000  0.00108000  0.02337000
   0.66649000  0.00108000  0.02337000
   0.99982000  0.33441000  0.02337000
   0.33315000  0.33441000  0.02337000
   0.66649000  0.33441000  0.02337000
   0.99982000  0.66775000  0.02337000
   0.33315000  0.66775000  0.02337000
   0.66649000  0.66775000  0.02337000
   0.22412717  0.10537254  0.58940454
   0.23456727  0.37670319  0.57607437
   0.21199330  0.03253566  0.65073992
 
 position of ions in cartesian coordinates  (Angst):
   4.15363387  7.18133209  7.27303242
  -0.00598313  1.60699737  2.64772571
   1.37560473  0.81384009  4.96226793
   2.75536229  0.00080960  7.27301882
   2.76395593  1.60699737  2.64772571
   4.14044030  0.79662398  4.92913983
   1.37463685  7.19091194  7.20837461
   5.53397809  1.60699737  2.64772571
   6.92011222  0.80342955  4.94546825
   6.90975289  2.39493824  7.29527357
  -1.39099421  4.00590693  2.64772571
  -0.00590578  3.19419255  4.95225742
   1.33260632  2.41257670  7.48735823
   1.37894485  4.00590693  2.64772571
   2.74412131  3.18975110  4.95344690
   4.14218046  2.39500101  7.20424929
   4.14896701  4.00590693  2.64772571
   5.53523099  3.19336111  4.93152900
   5.52481252  4.78680947  7.19972827
  -2.77596374  6.40474453  2.64772571
  -1.38834980  5.60214980  4.93924596
  -0.00059576  4.79396803  7.25594264
  -0.00602468  6.40474453  2.64772571
   1.37132360  5.59676278  4.92881311
   2.76589729  4.79415602  7.20785201
   2.76399748  6.40474453  2.64772571
   4.14391528  5.60497654  4.92597924
   8.30391716  0.00777231  0.38615421
   2.76395593  0.00777231  0.38615421
   5.53397809  0.00777231  0.38615421
   6.91894762  2.40660991  0.38615421
   1.37898640  2.40660991  0.38615421
   4.14900856  2.40660991  0.38615421
   5.53393654  4.80551947  0.38615421
  -0.00602468  4.80551947  0.38615421
   2.76399748  4.80551947  0.38615421
   1.42465674  0.75832245  9.73902611
   0.38404763  2.71097642  9.51876507
   1.62645911  0.23414566 10.75250137
 


--------------------------------------------------------------------------------------------------------


 k-point     1 :   0.1250 0.1250 0.0000  plane waves:   15951
 k-point     2 :  -0.1250 0.2500 0.0000  plane waves:   15951
 k-point     3 :  -0.2500 0.1250 0.0000  plane waves:   15951
 k-point     4 :   0.3750 0.1250 0.0000  plane waves:   15982
 k-point     5 :  -0.1250 0.5000 0.0000  plane waves:   15982
 k-point     6 :   0.5000 0.3750 0.0000  plane waves:   15982
 k-point     7 :  -0.3750 0.5000 0.0000  plane waves:   15982
 k-point     8 :   0.1250 0.3750 0.0000  plane waves:   15982
 k-point     9 :   0.5000-0.1250 0.0000  plane waves:   15982
 k-point    10 :  -0.3750 0.1250 0.0000  plane waves:   15967
 k-point    11 :  -0.1250-0.2500 0.0000  plane waves:   15967
 k-point    12 :   0.2500-0.3750 0.0000  plane waves:   15967
 k-point    13 :   0.3750-0.2500 0.0000  plane waves:   15967
 k-point    14 :   0.1250-0.3750 0.0000  plane waves:   15967
 k-point    15 :  -0.2500-0.1250 0.0000  plane waves:   15967
 k-point    16 :  -0.1250 0.1250 0.0000  plane waves:   15947
 k-point    17 :  -0.1250 0.0000 0.0000  plane waves:   15947
 k-point    18 :   0.0000-0.1250 0.0000  plane waves:   15947
 k-point    19 :   0.3750 0.3750 0.0000  plane waves:   16001
 k-point    20 :  -0.3750-0.2500 0.0000  plane waves:   16001
 k-point    21 :   0.2500 0.3750 0.0000  plane waves:   16001
 k-point    22 :  -0.3750 0.3750 0.0000  plane waves:   15956
 k-point    23 :  -0.3750 0.0000 0.0000  plane waves:   15956
 k-point    24 :   0.0000-0.3750 0.0000  plane waves:   15956

 maximum and minimum number of plane-waves per node :      2691     2615

 maximum number of plane-waves:     16001
 maximum index in each direction: 
   IXMAX=   13   IYMAX=   13   IZMAX=   25
   IXMIN=  -13   IYMIN=  -13   IZMIN=  -25


 real space projection operators:
  total allocation   :       9690.92 KBytes
  max/ min on nodes  :       1708.38       1433.45


 parallel 3D FFT for wavefunctions:
    minimum data exchange during FFTs selected (reduces bandwidth)
 parallel 3D FFT for charge:
    minimum data exchange during FFTs selected (reduces bandwidth)


 total amount of memory used by VASP MPI-rank0   101481. kBytes
=======================================================================

   base                                    :      30000. kBytes
   nonlr-proj                              :       3354. kBytes
   fftplans                                :       2350. kBytes
   grid                                    :       4208. kBytes
   one-center                              :        108. kBytes
   wavefun                                 :      61461. kBytes
 
     INWAV:  cpu time      0.0000: real time      0.0000
 Broyden mixing: mesh for mixing (old mesh)
   NGX = 27   NGY = 27   NGZ = 51
  (NGX  = 80   NGY  = 80   NGZ  =160)
  gives a total of  37179 points

 initial charge density was supplied:
 charge density of overlapping atoms calculated
 number of electron     376.0000000 magnetization 
 keeping initial charge density in first step


--------------------------------------------------------------------------------------------------------


 Maximum index for non-local projection operator          382
 Maximum index for augmentation-charges          592 (set IRDMAX)


--------------------------------------------------------------------------------------------------------


 First call to EWALD:  gamma=   0.178
 Maximum number of real-space cells   4x   4x   2
 Maximum number of reciprocal cells   2x   2x   4

    FEWALD:  cpu time      0.0071: real time      0.0072


--------------------------------------- Ionic step        1  -------------------------------------------




--------------------------------------- Iteration      1(   1)  ---------------------------------------


    POTLOK:  cpu time      0.0561: real time      0.0566
    SETDIJ:  cpu time      0.0192: real time      0.0193
     EDDAV:  cpu time     14.0741: real time     14.1690
       DOS:  cpu time      0.0360: real time      0.0369
    --------------------------------------------
      LOOP:  cpu time     14.1854: real time     14.2819

 eigenvalue-minimisations  : 10960
 total energy-change (2. order) : 0.2093660E+04  (-0.1520860E+05)
 number of electron     376.0000000 magnetization 
 augmentation part      376.0000000 magnetization 

 Free energy of the ion-electron system (eV)
  ---------------------------------------------------
  alpha Z        PSCENC =       918.22725072
  Ewald energy   TEWEN  =     21513.28164545
  -Hartree energ DENC   =    -54178.34422204
  -exchange      EXHF   =         0.00000000
  -V(xc)+E(xc)   XCENC  =      -994.90442700
  PAW double counting   =     29844.20032359   -27608.36462881
  entropy T*S    EENTRO =        -1.23727757
  eigenvalues    EBANDS =      2438.93751337
  atomic energy  EATOM  =     30161.86332653
  Solvation  Ediel_sol  =         0.00000000
  ---------------------------------------------------
  free energy    TOTEN  =      2093.65950424 eV

  energy without entropy =     2094.89678181  energy(sigma->0) =     2094.27814302


--------------------------------------------------------------------------------------------------------




--------------------------------------- Iteration      1(   2)  ---------------------------------------


     EDDAV:  cpu time     15.1437: real time     15.2459
       DOS:  cpu time      0.0350: real time      0.0360
    --------------------------------------------
      LOOP:  cpu time     15.1787: real time     15.2819

 eigenvalue-minimisations  : 11888
 total energy-change (2. order) :-0.2184364E+04  (-0.2056714E+04)
 number of electron     376.0000000 magnetization 
 augmentation part      376.0000000 magnetization 

 Free energy of the ion-electron system (eV)
  ---------------------------------------------------
  alpha Z        PSCENC =       918.22725072
  Ewald energy   TEWEN  =     21513.28164545
  -Hartree energ DENC   =    -54178.34422204
  -exchange      EXHF   =         0.00000000
  -V(xc)+E(xc)   XCENC  =      -994.90442700
  PAW double counting   =     29844.20032359   -27608.36462881
  entropy T*S    EENTRO =        -3.52071394
  eigenvalues    EBANDS =       256.85644982
  atomic energy  EATOM  =     30161.86332653
  Solvation  Ediel_sol  =         0.00000000
  ---------------------------------------------------
  free energy    TOTEN  =       -90.70499568 eV

  energy without entropy =      -87.18428174  energy(sigma->0) =      -88.94463871


--------------------------------------------------------------------------------------------------------




--------------------------------------- Iteration      1(   3)  ---------------------------------------


     EDDAV:  cpu time     15.8074: real time     15.9123
       DOS:  cpu time      0.0323: real time      0.0331
    --------------------------------------------
      LOOP:  cpu time     15.8397: real time     15.9454

 eigenvalue-minimisations  : 12376
 total energy-change (2. order) :-0.1170037E+03  (-0.1051079E+03)
 number of electron     376.0000000 magnetization 
 augmentation part      376.0000000 magnetization 

 Free energy of the ion-electron system (eV)
  ---------------------------------------------------
  alpha Z        PSCENC =       918.22725072
  Ewald energy   TEWEN  =     21513.28164545
  -Hartree energ DENC   =    -54178.34422204
  -exchange      EXHF   =         0.00000000
  -V(xc)+E(xc)   XCENC  =      -994.90442700
  PAW double counting   =     29844.20032359   -27608.36462881
  entropy T*S    EENTRO =        -5.40432578
  eigenvalues    EBANDS =       141.73640013
  atomic energy  EATOM  =     30161.86332653
  Solvation  Ediel_sol  =         0.00000000
  ---------------------------------------------------
  free energy    TOTEN  =      -207.70865721 eV

  energy without entropy =     -202.30433143  energy(sigma->0) =     -205.00649432


--------------------------------------------------------------------------------------------------------




--------------------------------------- Iteration      1(   4)  ---------------------------------------


     EDDAV:  cpu time     16.2946: real time     16.3989
       DOS:  cpu time      0.0324: real time      0.0333
    --------------------------------------------
      LOOP:  cpu time     16.3271: real time     16.4322

 eigenvalue-minimisations  : 12752
 total energy-change (2. order) :-0.4011423E+01  (-0.3904784E+01)
 number of electron     376.0000000 magnetization 
 augmentation part      376.0000000 magnetization 

 Free energy of the ion-electron system (eV)
  ---------------------------------------------------
  alpha Z        PSCENC =       918.22725072
  Ewald energy   TEWEN  =     21513.28164545
  -Hartree energ DENC   =    -54178.34422204
  -exchange      EXHF   =         0.00000000
  -V(xc)+E(xc)   XCENC  =      -994.90442700
  PAW double counting   =     29844.20032359   -27608.36462881
  entropy T*S    EENTRO =        -5.46255659
  eigenvalues    EBANDS =       137.78320797
  atomic energy  EATOM  =     30161.86332653
  Solvation  Ediel_sol  =         0.00000000
  ---------------------------------------------------
  free energy    TOTEN  =      -211.72008018 eV

  energy without entropy =     -206.25752359  energy(sigma->0) =     -208.98880188


--------------------------------------------------------------------------------------------------------




--------------------------------------- Iteration      1(   5)  ---------------------------------------


     EDDAV:  cpu time     16.2030: real time     16.3153
       DOS:  cpu time      0.0352: real time      0.0360
    CHARGE:  cpu time      0.2699: real time      0.2725
    MIXING:  cpu time      0.0872: real time      0.0895
    --------------------------------------------
      LOOP:  cpu time     16.5953: real time     16.7134

 eigenvalue-minimisations  : 12720
 total energy-change (2. order) :-0.1292092E+00  (-0.1287808E+00)
 number of electron     376.0000129 magnetization 
 augmentation part      146.2702165 magnetization 

 Broyden mixing:
  rms(total) = 0.40184E+01    rms(broyden)= 0.40177E+01
  rms(prec ) = 0.42251E+01
  weight for this iteration     100.00

 Free energy of the ion-electron system (eV)
  ---------------------------------------------------
  alpha Z        PSCENC =       918.22725072
  Ewald energy   TEWEN  =     21513.28164545
  -Hartree energ DENC   =    -54178.34422204
  -exchange      EXHF   =         0.00000000
  -V(xc)+E(xc)   XCENC  =      -994.90442700
  PAW double counting   =     29844.20032359   -27608.36462881
  entropy T*S    EENTRO =        -5.46427126
  eigenvalues    EBANDS =       137.65571347
  atomic energy  EATOM  =     30161.86332653
  Solvation  Ediel_sol  =         0.00000000
  ---------------------------------------------------
  free energy    TOTEN  =      -211.84928935 eV

  energy without entropy =     -206.38501809  energy(sigma->0) =     -209.11715372


--------------------------------------------------------------------------------------------------------




--------------------------------------- Iteration      1(   6)  ---------------------------------------


    POTLOK:  cpu time      0.0552: real time      0.0578
    SETDIJ:  cpu time      0.0157: real time      0.0159
     EDDAV:  cpu time     17.7960: real time     17.9144
       DOS:  cpu time      0.0356: real time      0.0365
    CHARGE:  cpu time      0.2679: real time      0.2704
    MIXING:  cpu time      0.0871: real time      0.0894
    --------------------------------------------
      LOOP:  cpu time     18.2575: real time     18.3844

 eigenvalue-minimisations  : 14512
 total energy-change (2. order) :-0.8853791E+00  (-0.3776766E+01)
 number of electron     376.0000141 magnetization 
 augmentation part      154.3139362 magnetization 

 Broyden mixing:
  rms(total) = 0.35977E+01    rms(broyden)= 0.35967E+01
  rms(prec ) = 0.44916E+01
  weight for this iteration     100.00

 eigenvalues of (default mixing * dielectric matrix)
  average eigenvalue GAMMA=   0.6045
  0.6045

 Free energy of the ion-electron system (eV)
  ---------------------------------------------------
  alpha Z        PSCENC =       918.22725072
  Ewald energy   TEWEN  =     21513.28164545
  -Hartree energ DENC   =    -53947.35041904
  -exchange      EXHF   =         0.00000000
  -V(xc)+E(xc)   XCENC  =     -1000.13368896
  PAW double counting   =     31874.32403358   -29682.62657079
  entropy T*S    EENTRO =        -4.48606062
  eigenvalues    EBANDS =       -45.83418527
  atomic energy  EATOM  =     30161.86332653
  Solvation  Ediel_sol  =         0.00000000
  ---------------------------------------------------
  free energy    TOTEN  =      -212.73466840 eV

  energy without entropy =     -208.24860778  energy(sigma->0) =     -210.49163809


--------------------------------------------------------------------------------------------------------




--------------------------------------- Iteration      1(   7)  ---------------------------------------


    POTLOK:  cpu time      0.0544: real time      0.0546
    SETDIJ:  cpu time      0.0152: real time      0.0154
     EDDAV:  cpu time     16.8447: real time     16.9554
       DOS:  cpu time      0.0454: real time      0.0466
    CHARGE:  cpu time      0.2705: real time      0.2731
    MIXING:  cpu time      0.0873: real time      0.0896
    --------------------------------------------
      LOOP:  cpu time     17.3174: real time     17.4347

 eigenvalue-minimisations  : 13512
 total energy-change (2. order) : 0.1124120E+00  (-0.1920007E+01)
 number of electron     376.0000133 magnetization 
 augmentation part      151.3207903 magnetization 

 Broyden mixing:
  rms(total) = 0.28323E+01    rms(broyden)= 0.28311E+01
  rms(prec ) = 0.44603E+01
  weight for this iteration     100.00

 eigenvalues of (default mixing * dielectric matrix)
  average eigenvalue GAMMA=   0.7697
  1.2606  0.2788

 Free energy of the ion-electron system (eV)
  ---------------------------------------------------
  alpha Z        PSCENC =       918.22725072
  Ewald energy   TEWEN  =     21513.28164545
  -Hartree energ DENC   =    -54061.71204060
  -exchange      EXHF   =         0.00000000
  -V(xc)+E(xc)   XCENC  =     -1001.82014727
  PAW double counting   =     32542.48203164   -30355.79420956
  entropy T*S    EENTRO =        -4.70506759
  eigenvalues    EBANDS =        75.55495424
  atomic energy  EATOM  =     30161.86332653
  Solvation  Ediel_sol  =         0.00000000
  ---------------------------------------------------
  free energy    TOTEN  =      -212.62225644 eV

  energy without entropy =     -207.91718885  energy(sigma->0) =     -210.26972265


--------------------------------------------------------------------------------------------------------




--------------------------------------- Iteration      1(   8)  ---------------------------------------


    POTLOK:  cpu time      0.0544: real time      0.0563
    SETDIJ:  cpu time      0.0150: real time      0.0152
     EDDAV:  cpu time     16.3928: real time     16.5016
       DOS:  cpu time      0.0484: real time      0.0498
    CHARGE:  cpu time      0.2716: real time      0.2742
    MIXING:  cpu time      0.0861: real time      0.0883
    --------------------------------------------
      LOOP:  cpu time     16.8683: real time     16.9854

 eigenvalue-minimisations  : 13104
 total energy-change (2. order) :-0.1430133E+02  (-0.2894799E+01)
 number of electron     376.0000134 magnetization 
 augmentation part      150.6365946 magnetization 

 Broyden mixing:
  rms(total) = 0.38325E+01    rms(broyden)= 0.38322E+01
  rms(prec ) = 0.64420E+01
  weight for this iteration     100.00

 eigenvalues of (default mixing * dielectric matrix)
  average eigenvalue GAMMA=   0.7667
  1.8263  0.3212  0.1526

 Free energy of the ion-electron system (eV)
  ---------------------------------------------------
  alpha Z        PSCENC =       918.22725072
  Ewald energy   TEWEN  =     21513.28164545
  -Hartree energ DENC   =    -54065.99355521
  -exchange      EXHF   =         0.00000000
  -V(xc)+E(xc)   XCENC  =     -1002.17479942
  PAW double counting   =     33308.67256114   -31131.87941175
  entropy T*S    EENTRO =        -4.13062147
  eigenvalues    EBANDS =        75.21001833
  atomic energy  EATOM  =     30161.86332653
  Solvation  Ediel_sol  =         0.00000000
  ---------------------------------------------------
  free energy    TOTEN  =      -226.92358568 eV

  energy without entropy =     -222.79296421  energy(sigma->0) =     -224.85827495


--------------------------------------------------------------------------------------------------------




--------------------------------------- Iteration      1(   9)  ---------------------------------------


    POTLOK:  cpu time      0.0541: real time      0.0546
    SETDIJ:  cpu time      0.0155: real time      0.0157
     EDDAV:  cpu time     16.4037: real time     16.5104
       DOS:  cpu time      0.0353: real time      0.0362
    CHARGE:  cpu time      0.2679: real time      0.2705
    MIXING:  cpu time      0.0863: real time      0.0885
    --------------------------------------------
      LOOP:  cpu time     16.8628: real time     16.9759

 eigenvalue-minimisations  : 13212
 total energy-change (2. order) : 0.2391549E+02  (-0.1546437E+01)
 number of electron     376.0000140 magnetization 
 augmentation part      152.4486899 magnetization 

 Broyden mixing:
  rms(total) = 0.14173E+01    rms(broyden)= 0.14170E+01
  rms(prec ) = 0.19488E+01
  weight for this iteration     100.00

 eigenvalues of (default mixing * dielectric matrix)
  average eigenvalue GAMMA=   0.7134
  1.8841  0.4100  0.4100  0.1496

 Free energy of the ion-electron system (eV)
  ---------------------------------------------------
  alpha Z        PSCENC =       918.22725072
  Ewald energy   TEWEN  =     21513.28164545
  -Hartree energ DENC   =    -54045.69096829
  -exchange      EXHF   =         0.00000000
  -V(xc)+E(xc)   XCENC  =     -1002.47547437
  PAW double counting   =     34429.03090327   -32268.65689873
  entropy T*S    EENTRO =        -5.17591860
  eigenvalues    EBANDS =        96.58803455
  atomic energy  EATOM  =     30161.86332653
  Solvation  Ediel_sol  =         0.00000000
  ---------------------------------------------------
  free energy    TOTEN  =      -203.00809947 eV

  energy without entropy =     -197.83218087  energy(sigma->0) =     -200.42014017


--------------------------------------------------------------------------------------------------------




--------------------------------------- Iteration      1(  10)  ---------------------------------------


    POTLOK:  cpu time      0.0550: real time      0.0564
    SETDIJ:  cpu time      0.0150: real time      0.0152
     EDDAV:  cpu time     15.2952: real time     15.3913
       DOS:  cpu time      0.0376: real time      0.0386
    CHARGE:  cpu time      0.2679: real time      0.2704
    MIXING:  cpu time      0.0867: real time      0.0889
    --------------------------------------------
      LOOP:  cpu time     15.7573: real time     15.8608

 eigenvalue-minimisations  : 11616
 total energy-change (2. order) : 0.8608244E+00  (-0.9962503E+00)
 number of electron     376.0000129 magnetization 
 augmentation part      152.6435761 magnetization 

 Broyden mixing:
  rms(total) = 0.14287E+01    rms(broyden)= 0.14283E+01
  rms(prec ) = 0.18443E+01
  weight for this iteration     100.00

 eigenvalues of (default mixing * dielectric matrix)
  average eigenvalue GAMMA=   0.6967
  2.0457  0.7425  0.3681  0.1529  0.1740

 Free energy of the ion-electron system (eV)
  ---------------------------------------------------
  alpha Z        PSCENC =       918.22725072
  Ewald energy   TEWEN  =     21513.28164545
  -Hartree energ DENC   =    -54020.72863787
  -exchange      EXHF   =         0.00000000
  -V(xc)+E(xc)   XCENC  =     -1002.04164644
  PAW double counting   =     34610.72379271   -32450.98253425
  entropy T*S    EENTRO =        -5.25245274
  eigenvalues    EBANDS =        72.76198085
  atomic energy  EATOM  =     30161.86332653
  Solvation  Ediel_sol  =         0.00000000
  ---------------------------------------------------
  free energy    TOTEN  =      -202.14727505 eV

  energy without entropy =     -196.89482231  energy(sigma->0) =     -199.52104868


--------------------------------------------------------------------------------------------------------




--------------------------------------- Iteration      1(  11)  ---------------------------------------


    POTLOK:  cpu time      0.0544: real time      0.0548
    SETDIJ:  cpu time      0.0153: real time      0.0156
     EDDAV:  cpu time     16.8357: real time     16.9440
       DOS:  cpu time      0.0298: real time      0.0306
    CHARGE:  cpu time      0.2674: real time      0.2700
    MIXING:  cpu time      0.0867: real time      0.0889
    --------------------------------------------
      LOOP:  cpu time     17.2893: real time     17.4037

 eigenvalue-minimisations  : 13496
 total energy-change (2. order) : 0.1684796E+01  (-0.4316721E+00)
 number of electron     376.0000128 magnetization 
 augmentation part      152.6343667 magnetization 

 Broyden mixing:
  rms(total) = 0.76717E+00    rms(broyden)= 0.76655E+00
  rms(prec ) = 0.97967E+00
  weight for this iteration     100.00

 eigenvalues of (default mixing * dielectric matrix)
  average eigenvalue GAMMA=   0.6617
  2.1057  0.8481  0.3183  0.3183  0.1535  0.2264

 Free energy of the ion-electron system (eV)
  ---------------------------------------------------
  alpha Z        PSCENC =       918.22725072
  Ewald energy   TEWEN  =     21513.28164545
  -Hartree energ DENC   =    -54046.35745479
  -exchange      EXHF   =         0.00000000
  -V(xc)+E(xc)   XCENC  =     -1001.51339989
  PAW double counting   =     34966.63363629   -32809.22904619
  entropy T*S    EENTRO =        -5.32132890
  eigenvalues    EBANDS =       101.95289164
  atomic energy  EATOM  =     30161.86332653
  Solvation  Ediel_sol  =         0.00000000
  ---------------------------------------------------
  free energy    TOTEN  =      -200.46247914 eV

  energy without entropy =     -195.14115024  energy(sigma->0) =     -197.80181469


--------------------------------------------------------------------------------------------------------




--------------------------------------- Iteration      1(  12)  ---------------------------------------


    POTLOK:  cpu time      0.0546: real time      0.0563
    SETDIJ:  cpu time      0.0147: real time      0.0149
     EDDAV:  cpu time     14.5730: real time     14.6681
       DOS:  cpu time      0.0350: real time      0.0359
    CHARGE:  cpu time      0.2670: real time      0.2696
    MIXING:  cpu time      0.0869: real time      0.0891
    --------------------------------------------
      LOOP:  cpu time     15.0313: real time     15.1340

 eigenvalue-minimisations  : 11236
 total energy-change (2. order) : 0.1678757E+00  (-0.2658693E+00)
 number of electron     376.0000134 magnetization 
 augmentation part      152.8820467 magnetization 

 Broyden mixing:
  rms(total) = 0.82294E+00    rms(broyden)= 0.82250E+00
  rms(prec ) = 0.11123E+01
  weight for this iteration     100.00

 eigenvalues of (default mixing * dielectric matrix)
  average eigenvalue GAMMA=   0.6612
  2.2272  0.8103  0.5255  0.5255  0.2194  0.1543  0.1663

 Free energy of the ion-electron system (eV)
  ---------------------------------------------------
  alpha Z        PSCENC =       918.22725072
  Ewald energy   TEWEN  =     21513.28164545
  -Hartree energ DENC   =    -54030.92027398
  -exchange      EXHF   =         0.00000000
  -V(xc)+E(xc)   XCENC  =     -1001.36292382
  PAW double counting   =     35067.91355783   -32911.21828317
  entropy T*S    EENTRO =        -5.29646377
  eigenvalues    EBANDS =        87.21756074
  atomic energy  EATOM  =     30161.86332653
  Solvation  Ediel_sol  =         0.00000000
  ---------------------------------------------------
  free energy    TOTEN  =      -200.29460348 eV

  energy without entropy =     -194.99813971  energy(sigma->0) =     -197.64637160


--------------------------------------------------------------------------------------------------------




--------------------------------------- Iteration      1(  13)  ---------------------------------------


    POTLOK:  cpu time      0.0544: real time      0.0548
    SETDIJ:  cpu time      0.0154: real time      0.0156
     EDDAV:  cpu time     15.0421: real time     15.1414
       DOS:  cpu time      0.0354: real time      0.0363
    CHARGE:  cpu time      0.2680: real time      0.2706
    MIXING:  cpu time      0.0870: real time      0.0892
    --------------------------------------------
      LOOP:  cpu time     15.5023: real time     15.6079

 eigenvalue-minimisations  : 11756
 total energy-change (2. order) : 0.4447734E+00  (-0.9329502E-01)
 number of electron     376.0000133 magnetization 
 augmentation part      152.6314556 magnetization 

 Broyden mixing:
  rms(total) = 0.20853E+00    rms(broyden)= 0.20767E+00
  rms(prec ) = 0.28188E+00
  weight for this iteration     100.00

 eigenvalues of (default mixing * dielectric matrix)
  average eigenvalue GAMMA=   0.6845
  2.2507  0.8965  0.8965  0.4376  0.4376  0.2302  0.1565  0.1702

 Free energy of the ion-electron system (eV)
  ---------------------------------------------------
  alpha Z        PSCENC =       918.22725072
  Ewald energy   TEWEN  =     21513.28164545
  -Hartree energ DENC   =    -54036.62679055
  -exchange      EXHF   =         0.00000000
  -V(xc)+E(xc)   XCENC  =     -1001.66347051
  PAW double counting   =     35164.87179175   -33009.67884398
  entropy T*S    EENTRO =        -5.40790152
  eigenvalues    EBANDS =        95.28316198
  atomic energy  EATOM  =     30161.86332653
  Solvation  Ediel_sol  =         0.00000000
  ---------------------------------------------------
  free energy    TOTEN  =      -199.84983013 eV

  energy without entropy =     -194.44192861  energy(sigma->0) =     -197.14587937


--------------------------------------------------------------------------------------------------------




--------------------------------------- Iteration      1(  14)  ---------------------------------------


    POTLOK:  cpu time      0.0550: real time      0.0562
    SETDIJ:  cpu time      0.0154: real time      0.0156
     EDDAV:  cpu time     14.5586: real time     14.6519
       DOS:  cpu time      0.0345: real time      0.0354
    CHARGE:  cpu time      0.2668: real time      0.2694
    MIXING:  cpu time      0.0875: real time      0.0897
    --------------------------------------------
      LOOP:  cpu time     15.0178: real time     15.1182

 eigenvalue-minimisations  : 11344
 total energy-change (2. order) : 0.6125267E-02  (-0.3101734E-01)
 number of electron     376.0000133 magnetization 
 augmentation part      152.7356369 magnetization 

 Broyden mixing:
  rms(total) = 0.23972E+00    rms(broyden)= 0.23967E+00
  rms(prec ) = 0.29093E+00
  weight for this iteration     100.00

 eigenvalues of (default mixing * dielectric matrix)
  average eigenvalue GAMMA=   0.7100
  2.3036  1.1737  1.1737  0.4704  0.4704  0.1561  0.1707  0.2573  0.2139

 Free energy of the ion-electron system (eV)
  ---------------------------------------------------
  alpha Z        PSCENC =       918.22725072
  Ewald energy   TEWEN  =     21513.28164545
  -Hartree energ DENC   =    -54035.48767756
  -exchange      EXHF   =         0.00000000
  -V(xc)+E(xc)   XCENC  =     -1001.65716043
  PAW double counting   =     35161.91512975   -33006.74417426
  entropy T*S    EENTRO =        -5.38649789
  eigenvalues    EBANDS =        94.14445283
  atomic energy  EATOM  =     30161.86332653
  Solvation  Ediel_sol  =         0.00000000
  ---------------------------------------------------
  free energy    TOTEN  =      -199.84370486 eV

  energy without entropy =     -194.45720697  energy(sigma->0) =     -197.15045592


--------------------------------------------------------------------------------------------------------




--------------------------------------- Iteration      1(  15)  ---------------------------------------


    POTLOK:  cpu time      0.0543: real time      0.0547
    SETDIJ:  cpu time      0.0155: real time      0.0157
     EDDAV:  cpu time     14.8009: real time     14.8979
       DOS:  cpu time      0.0355: real time      0.0364
    CHARGE:  cpu time      0.2679: real time      0.2706
    MIXING:  cpu time      0.0878: real time      0.0900
    --------------------------------------------
      LOOP:  cpu time     15.2619: real time     15.3652

 eigenvalue-minimisations  : 11552
 total energy-change (2. order) : 0.4308413E-01  (-0.1311530E-01)
 number of electron     376.0000133 magnetization 
 augmentation part      152.7583547 magnetization 

 Broyden mixing:
  rms(total) = 0.15665E+00    rms(broyden)= 0.15656E+00
  rms(prec ) = 0.19119E+00
  weight for this iteration     100.00

 eigenvalues of (default mixing * dielectric matrix)
  average eigenvalue GAMMA=   0.7345
  2.4069  1.3724  1.1337  0.7711  0.4308  0.4308  0.1562  0.1700  0.2236  0.2496

 Free energy of the ion-electron system (eV)
  ---------------------------------------------------
  alpha Z        PSCENC =       918.22725072
  Ewald energy   TEWEN  =     21513.28164545
  -Hartree energ DENC   =    -54036.84305981
  -exchange      EXHF   =         0.00000000
  -V(xc)+E(xc)   XCENC  =     -1001.62380036
  PAW double counting   =     35152.99225357   -32997.76616612
  entropy T*S    EENTRO =        -5.40885977
  eigenvalues    EBANDS =        95.47678906
  atomic energy  EATOM  =     30161.86332653
  Solvation  Ediel_sol  =         0.00000000
  ---------------------------------------------------
  free energy    TOTEN  =      -199.80062074 eV

  energy without entropy =     -194.39176097  energy(sigma->0) =     -197.09619085


--------------------------------------------------------------------------------------------------------




--------------------------------------- Iteration      1(  16)  ---------------------------------------


    POTLOK:  cpu time      0.0545: real time      0.0561
    SETDIJ:  cpu time      0.0147: real time      0.0149
     EDDAV:  cpu time     15.0685: real time     15.1899
       DOS:  cpu time      0.0355: real time      0.0364
    CHARGE:  cpu time      0.2671: real time      0.2699
    MIXING:  cpu time      0.0879: real time      0.0902
    --------------------------------------------
      LOOP:  cpu time     15.5282: real time     15.6575

 eigenvalue-minimisations  : 11904
 total energy-change (2. order) : 0.9013445E-02  (-0.6046877E-02)
 number of electron     376.0000133 magnetization 
 augmentation part      152.6572248 magnetization 

 Broyden mixing:
  rms(total) = 0.98369E-01    rms(broyden)= 0.98222E-01
  rms(prec ) = 0.12545E+00
  weight for this iteration     100.00

 eigenvalues of (default mixing * dielectric matrix)
  average eigenvalue GAMMA=   0.7193
  2.4554  1.3444  1.2812  0.8206  0.4619  0.4619  0.2970  0.1562  0.1700  0.2304
  0.2333

 Free energy of the ion-electron system (eV)
  ---------------------------------------------------
  alpha Z        PSCENC =       918.22725072
  Ewald energy   TEWEN  =     21513.28164545
  -Hartree energ DENC   =    -54041.36969950
  -exchange      EXHF   =         0.00000000
  -V(xc)+E(xc)   XCENC  =     -1001.62451287
  PAW double counting   =     35152.18614014   -32996.98838229
  entropy T*S    EENTRO =        -5.41807952
  eigenvalues    EBANDS =       100.05070405
  atomic energy  EATOM  =     30161.86332653
  Solvation  Ediel_sol  =         0.00000000
  ---------------------------------------------------
  free energy    TOTEN  =      -199.79160729 eV

  energy without entropy =     -194.37352777  energy(sigma->0) =     -197.08256753


--------------------------------------------------------------------------------------------------------




--------------------------------------- Iteration      1(  17)  ---------------------------------------


    POTLOK:  cpu time      0.0539: real time      0.0543
    SETDIJ:  cpu time      0.0155: real time      0.0156
     EDDAV:  cpu time     14.5754: real time     14.6889
       DOS:  cpu time      0.0344: real time      0.0354
    CHARGE:  cpu time      0.2679: real time      0.2706
    MIXING:  cpu time      0.0885: real time      0.0908
    --------------------------------------------
      LOOP:  cpu time     15.0356: real time     15.1557

 eigenvalue-minimisations  : 11348
 total energy-change (2. order) : 0.2820034E-02  (-0.3654201E-02)
 number of electron     376.0000133 magnetization 
 augmentation part      152.6214966 magnetization 

 Broyden mixing:
  rms(total) = 0.79523E-01    rms(broyden)= 0.79435E-01
  rms(prec ) = 0.10320E+00
  weight for this iteration     100.00

 eigenvalues of (default mixing * dielectric matrix)
  average eigenvalue GAMMA=   0.7293
  2.4111  1.4368  1.4368  0.7987  0.7987  0.4180  0.4180  0.1562  0.1700  0.2604
  0.2314  0.2163

 Free energy of the ion-electron system (eV)
  ---------------------------------------------------
  alpha Z        PSCENC =       918.22725072
  Ewald energy   TEWEN  =     21513.28164545
  -Hartree energ DENC   =    -54043.67338049
  -exchange      EXHF   =         0.00000000
  -V(xc)+E(xc)   XCENC  =     -1001.63204600
  PAW double counting   =     35147.84967922   -32992.66416459
  entropy T*S    EENTRO =        -5.42470585
  eigenvalues    EBANDS =       102.38360775
  atomic energy  EATOM  =     30161.86332653
  Solvation  Ediel_sol  =         0.00000000
  ---------------------------------------------------
  free energy    TOTEN  =      -199.78878726 eV

  energy without entropy =     -194.36408141  energy(sigma->0) =     -197.07643433


--------------------------------------------------------------------------------------------------------




--------------------------------------- Iteration      1(  18)  ---------------------------------------


    POTLOK:  cpu time      0.0547: real time      0.0560
    SETDIJ:  cpu time      0.0153: real time      0.0155
     EDDAV:  cpu time     14.6247: real time     14.7181
       DOS:  cpu time      0.0354: real time      0.0363
    CHARGE:  cpu time      0.2669: real time      0.2695
    MIXING:  cpu time      0.0888: real time      0.0910
    --------------------------------------------
      LOOP:  cpu time     15.0859: real time     15.1864

 eigenvalue-minimisations  : 11336
 total energy-change (2. order) : 0.2463201E-02  (-0.9024852E-03)
 number of electron     376.0000133 magnetization 
 augmentation part      152.6374595 magnetization 

 Broyden mixing:
  rms(total) = 0.47975E-01    rms(broyden)= 0.47963E-01
  rms(prec ) = 0.63477E-01
  weight for this iteration     100.00

 eigenvalues of (default mixing * dielectric matrix)
  average eigenvalue GAMMA=   0.7291
  2.3473  1.5853  1.5853  0.8843  0.8843  0.4255  0.4255  0.3124  0.1562  0.1700
  0.2498  0.2358  0.2162

 Free energy of the ion-electron system (eV)
  ---------------------------------------------------
  alpha Z        PSCENC =       918.22725072
  Ewald energy   TEWEN  =     21513.28164545
  -Hartree energ DENC   =    -54045.51027138
  -exchange      EXHF   =         0.00000000
  -V(xc)+E(xc)   XCENC  =     -1001.60814442
  PAW double counting   =     35135.56737611   -32980.27903116
  entropy T*S    EENTRO =        -5.41985452
  eigenvalues    EBANDS =       104.09137862
  atomic energy  EATOM  =     30161.86332653
  Solvation  Ediel_sol  =         0.00000000
  ---------------------------------------------------
  free energy    TOTEN  =      -199.78632406 eV

  energy without entropy =     -194.36646953  energy(sigma->0) =     -197.07639679


--------------------------------------------------------------------------------------------------------




--------------------------------------- Iteration      1(  19)  ---------------------------------------


    POTLOK:  cpu time      0.0540: real time      0.0544
    SETDIJ:  cpu time      0.0152: real time      0.0154
     EDDAV:  cpu time     15.1112: real time     15.2095
       DOS:  cpu time      0.0354: real time      0.0363
    CHARGE:  cpu time      0.2677: real time      0.2703
    MIXING:  cpu time      0.0891: real time      0.0914
    --------------------------------------------
      LOOP:  cpu time     15.5725: real time     15.6772

 eigenvalue-minimisations  : 11776
 total energy-change (2. order) : 0.8796331E-03  (-0.3675818E-03)
 number of electron     376.0000133 magnetization 
 augmentation part      152.6464883 magnetization 

 Broyden mixing:
  rms(total) = 0.23379E-01    rms(broyden)= 0.23341E-01
  rms(prec ) = 0.34523E-01
  weight for this iteration     100.00

 eigenvalues of (default mixing * dielectric matrix)
  average eigenvalue GAMMA=   0.7896
  2.3193  2.3193  1.4871  1.0420  1.0420  0.6742  0.4302  0.4302  0.2944  0.1562
  0.1700  0.2395  0.2342  0.2155

 Free energy of the ion-electron system (eV)
  ---------------------------------------------------
  alpha Z        PSCENC =       918.22725072
  Ewald energy   TEWEN  =     21513.28164545
  -Hartree energ DENC   =    -54046.98219197
  -exchange      EXHF   =         0.00000000
  -V(xc)+E(xc)   XCENC  =     -1001.58825030
  PAW double counting   =     35124.88000916   -32969.50407029
  entropy T*S    EENTRO =        -5.41872592
  eigenvalues    EBANDS =       105.45556220
  atomic energy  EATOM  =     30161.86332653
  Solvation  Ediel_sol  =         0.00000000
  ---------------------------------------------------
  free energy    TOTEN  =      -199.78544442 eV

  energy without entropy =     -194.36671850  energy(sigma->0) =     -197.07608146


--------------------------------------------------------------------------------------------------------




--------------------------------------- Iteration      1(  20)  ---------------------------------------


    POTLOK:  cpu time      0.0543: real time      0.0559
    SETDIJ:  cpu time      0.0153: real time      0.0155
     EDDAV:  cpu time     14.6439: real time     14.7403
       DOS:  cpu time      0.0348: real time      0.0358
    CHARGE:  cpu time      0.2679: real time      0.2704
    MIXING:  cpu time      0.0896: real time      0.0918
    --------------------------------------------
      LOOP:  cpu time     15.1059: real time     15.2099

 eigenvalue-minimisations  : 11388
 total energy-change (2. order) :-0.9942609E-03  (-0.2684655E-03)
 number of electron     376.0000133 magnetization 
 augmentation part      152.6445077 magnetization 

 Broyden mixing:
  rms(total) = 0.23893E-01    rms(broyden)= 0.23884E-01
  rms(prec ) = 0.39013E-01
  weight for this iteration     100.00

 eigenvalues of (default mixing * dielectric matrix)
  average eigenvalue GAMMA=   0.7772
  2.4214  2.4214  1.5032  1.0405  1.0405  0.7080  0.4303  0.4303  0.3539  0.1562
  0.1700  0.2885  0.2516  0.2272  0.2149

 Free energy of the ion-electron system (eV)
  ---------------------------------------------------
  alpha Z        PSCENC =       918.22725072
  Ewald energy   TEWEN  =     21513.28164545
  -Hartree energ DENC   =    -54049.75560380
  -exchange      EXHF   =         0.00000000
  -V(xc)+E(xc)   XCENC  =     -1001.56378398
  PAW double counting   =     35106.00922268   -32950.50976937
  entropy T*S    EENTRO =        -5.42110149
  eigenvalues    EBANDS =       108.08237458
  atomic energy  EATOM  =     30161.86332653
  Solvation  Ediel_sol  =         0.00000000
  ---------------------------------------------------
  free energy    TOTEN  =      -199.78643868 eV

  energy without entropy =     -194.36533719  energy(sigma->0) =     -197.07588794


--------------------------------------------------------------------------------------------------------




--------------------------------------- Iteration      1(  21)  ---------------------------------------


    POTLOK:  cpu time      0.0539: real time      0.0542
    SETDIJ:  cpu time      0.0149: real time      0.0150
     EDDAV:  cpu time     14.8170: real time     14.9249
       DOS:  cpu time      0.0280: real time      0.0287
    CHARGE:  cpu time      0.2674: real time      0.2699
    MIXING:  cpu time      0.0901: real time      0.0924
    --------------------------------------------
      LOOP:  cpu time     15.2713: real time     15.3852

 eigenvalue-minimisations  : 11624
 total energy-change (2. order) : 0.1362947E-03  (-0.8301002E-04)
 number of electron     376.0000133 magnetization 
 augmentation part      152.6447618 magnetization 

 Broyden mixing:
  rms(total) = 0.14484E-01    rms(broyden)= 0.14482E-01
  rms(prec ) = 0.24821E-01
  weight for this iteration     100.00

 eigenvalues of (default mixing * dielectric matrix)
  average eigenvalue GAMMA=   0.7801
  2.4423  2.4423  1.5212  1.0737  1.0737  0.7452  0.7452  0.4318  0.4318  0.1562
  0.1700  0.3040  0.2158  0.2282  0.2475  0.2526

 Free energy of the ion-electron system (eV)
  ---------------------------------------------------
  alpha Z        PSCENC =       918.22725072
  Ewald energy   TEWEN  =     21513.28164545
  -Hartree energ DENC   =    -54050.64343332
  -exchange      EXHF   =         0.00000000
  -V(xc)+E(xc)   XCENC  =     -1001.55787522
  PAW double counting   =     35102.69903858   -32947.19161037
  entropy T*S    EENTRO =        -5.42095237
  eigenvalues    EBANDS =       108.95630761
  atomic energy  EATOM  =     30161.86332653
  Solvation  Ediel_sol  =         0.00000000
  ---------------------------------------------------
  free energy    TOTEN  =      -199.78630239 eV

  energy without entropy =     -194.36535002  energy(sigma->0) =     -197.07582620


--------------------------------------------------------------------------------------------------------




--------------------------------------- Iteration      1(  22)  ---------------------------------------


    POTLOK:  cpu time      0.0548: real time      0.0561
    SETDIJ:  cpu time      0.0154: real time      0.0156
     EDDAV:  cpu time     14.9027: real time     14.9992
       DOS:  cpu time      0.0291: real time      0.0298
    CHARGE:  cpu time      0.2674: real time      0.2700
    MIXING:  cpu time      0.0907: real time      0.0929
    --------------------------------------------
      LOOP:  cpu time     15.3601: real time     15.4637

 eigenvalue-minimisations  : 11804
 total energy-change (2. order) :-0.8187409E-04  (-0.6691837E-04)
 number of electron     376.0000133 magnetization 
 augmentation part      152.6478321 magnetization 

 Broyden mixing:
  rms(total) = 0.10010E-01    rms(broyden)= 0.10006E-01
  rms(prec ) = 0.14416E-01
  weight for this iteration     100.00

 eigenvalues of (default mixing * dielectric matrix)
  average eigenvalue GAMMA=   0.7686
  2.4841  2.4841  1.4671  1.0522  1.0522  0.9034  0.8700  0.4333  0.4333  0.3375
  0.1562  0.1700  0.2881  0.2581  0.2143  0.2310  0.2310

 Free energy of the ion-electron system (eV)
  ---------------------------------------------------
  alpha Z        PSCENC =       918.22725072
  Ewald energy   TEWEN  =     21513.28164545
  -Hartree energ DENC   =    -54051.59325078
  -exchange      EXHF   =         0.00000000
  -V(xc)+E(xc)   XCENC  =     -1001.55243419
  PAW double counting   =     35101.46593335   -32945.97628117
  entropy T*S    EENTRO =        -5.41954945
  eigenvalues    EBANDS =       109.91697528
  atomic energy  EATOM  =     30161.86332653
  Solvation  Ediel_sol  =         0.00000000
  ---------------------------------------------------
  free energy    TOTEN  =      -199.78638426 eV

  energy without entropy =     -194.36683481  energy(sigma->0) =     -197.07660954


--------------------------------------------------------------------------------------------------------




--------------------------------------- Iteration      1(  23)  ---------------------------------------


    POTLOK:  cpu time      0.0541: real time      0.0544
    SETDIJ:  cpu time      0.0153: real time      0.0156
     EDDAV:  cpu time     14.5652: real time     14.6652
       DOS:  cpu time      0.0354: real time      0.0363
    CHARGE:  cpu time      0.2676: real time      0.2702
    MIXING:  cpu time      0.0912: real time      0.0933
    --------------------------------------------
      LOOP:  cpu time     15.0287: real time     15.1350

 eigenvalue-minimisations  : 11480
 total energy-change (2. order) :-0.7327124E-04  (-0.1962233E-04)
[...]
   1.00000000000000        1.00000000000000        1.00000000000000     
   1.00000000000000        1.00000000000000        1.00000000000000     
  0.000000000000000E+000  0.000000000000000E+000  0.000000000000000E+000
   1.00000000000000        1.00000000000000        1.00000000000000     
   1.00000000000000        1.00000000000000        1.00000000000000     
  0.000000000000000E+000  0.000000000000000E+000  0.000000000000000E+000
   1.00000000000000        1.00000000000000        1.00000000000000     
   1.00000000000000        1.00000000000000        1.00000000000000     
  0.000000000000000E+000  0.000000000000000E+000  0.000000000000000E+000
   1.00000000000000        1.00000000000000        1.00000000000000     
   1.00000000000000        1.00000000000000        1.00000000000000     
  0.000000000000000E+000  0.000000000000000E+000  0.000000000000000E+000
   1.00000000000000        1.00000000000000        1.00000000000000     
   1.00000000000000        1.00000000000000        1.00000000000000     
  0.000000000000000E+000  0.000000000000000E+000  0.000000000000000E+000
   1.00000000000000        1.00000000000000        1.00000000000000     
   1.00000000000000        1.00000000000000        1.00000000000000     
  0.000000000000000E+000  0.000000000000000E+000  0.000000000000000E+000
   1.00000000000000        1.00000000000000        1.00000000000000     
  0.000000000000000E+000  0.000000000000000E+000  0.000000000000000E+000
  0.000000000000000E+000  0.000000000000000E+000  0.000000000000000E+000
  0.000000000000000E+000  0.000000000000000E+000  0.000000000000000E+000
  0.000000000000000E+000  0.000000000000000E+000  0.000000000000000E+000
  0.000000000000000E+000  0.000000000000000E+000  0.000000000000000E+000
  0.000000000000000E+000  0.000000000000000E+000  0.000000000000000E+000
  0.000000000000000E+000  0.000000000000000E+000  0.000000000000000E+000
  0.000000000000000E+000  0.000000000000000E+000  0.000000000000000E+000
  0.000000000000000E+000  0.000000000000000E+000  0.000000000000000E+000
   1.00000000000000        1.00000000000000        1.00000000000000     
   1.00000000000000        1.00000000000000        1.00000000000000     
   1.00000000000000        1.00000000000000        1.00000000000000     
 NEB: the previous image is higher in energy: F
 NEB: the next image is higher in energy    : F
 NEB: image is at an extrema
 NEB: diff energy (min, max):     1.091049    1.179864

 NEB: Tangent
 ----------------------------------------------
      0.01825     -0.05576     -0.06027
      0.00000      0.00000      0.00000
      0.00171     -0.02607     -0.00939
      0.00219     -0.04064     -0.03263
      0.00000      0.00000      0.00000
      0.00379     -0.02387     -0.00262
      0.01268     -0.03839      0.00722
      0.00000      0.00000      0.00000
      0.00186     -0.02497     -0.00330
      0.03490     -0.06074     -0.02244
      0.00000      0.00000      0.00000
      0.00074     -0.01934     -0.00206
     -0.00771     -0.05077     -0.04168
      0.00000      0.00000      0.00000
      0.00041     -0.02463     -0.00477
      0.01877     -0.04561     -0.00218
      0.00000      0.00000      0.00000
      0.00249     -0.02878     -0.02063
      0.01302     -0.04543     -0.05426
      0.00000      0.00000      0.00000
      0.00333     -0.02090     -0.00543
     -0.00526     -0.04258      0.00070
      0.00000      0.00000      0.00000
      0.00217     -0.02143      0.00359
      0.01441     -0.04264     -0.00109
      0.00000      0.00000      0.00000
     -0.00021     -0.03205     -0.01970
      0.00000      0.00000      0.00000
      0.00000      0.00000      0.00000
      0.00000      0.00000      0.00000
      0.00000      0.00000      0.00000
      0.00000      0.00000      0.00000
      0.00000      0.00000      0.00000
      0.00000      0.00000      0.00000
      0.00000      0.00000      0.00000
      0.00000      0.00000      0.00000
     -0.34635      0.66189      0.25283
      0.35037     -0.04392      0.37436
     -0.17863      0.20283      0.02750

 NEB: forces: par spring, perp REAL, dneb     1.967508    0.064771    0.000000
 NEB: distance to prev, next image, angle between     1.415272    1.021771  111.026528
 NEB: projections on to tangent (spring, REAL)    -1.967508    0.022394

 stress matrix after NEB project (eV)
    -10.41242      1.35534     -0.01289
      1.35534     -9.15277     -1.07539
     -0.01289     -1.07539     -3.36875
 after stress write
 before force*Free
 force:  -5.623818802862469E-004 -8.425833642657672E-003 -4.319264920616643E-003
  0.000000000000000E+000  0.000000000000000E+000  0.000000000000000E+000
 -5.719448430038375E-004 -2.550753178400954E-003 -2.414581237110314E-003
  1.921562541757057E-003 -1.109258126242805E-002 -2.582198629339442E-003
  0.000000000000000E+000  0.000000000000000E+000  0.000000000000000E+000
 -1.440175573110847E-003 -3.309399620775379E-003 -1.129721821987300E-003
 -1.011054559745161E-003 -7.535516412142590E-003 -8.974317239403805E-004
  0.000000000000000E+000  0.000000000000000E+000  0.000000000000000E+000
 -1.129438360650457E-003 -2.868927599992394E-003 -1.244344534343977E-003
  7.823194962339182E-004 -9.659206031972602E-003  8.080888152210966E-004
  0.000000000000000E+000  0.000000000000000E+000  0.000000000000000E+000
 -1.361341725854122E-004 -3.005391398743831E-003  1.221672086324388E-004
 -4.441947012605134E-004 -1.284511473174343E-002  3.971040145822002E-003
  0.000000000000000E+000  0.000000000000000E+000  0.000000000000000E+000
 -2.485824418675509E-003 -3.665118477430569E-003  1.026564984832201E-003
 -1.752580644597858E-005 -8.525868913789619E-003 -7.944793949326964E-004
  0.000000000000000E+000  0.000000000000000E+000  0.000000000000000E+000
 -1.773016193959351E-003 -3.851771230968906E-003 -1.178721723566178E-003
 -1.241437692925720E-004 -9.506141682690962E-003 -1.664976857803837E-003
  0.000000000000000E+000  0.000000000000000E+000  0.000000000000000E+000
 -1.018239467934039E-003 -4.662495118106361E-003 -6.844909114579140E-004
  7.298614476586127E-004 -1.068824750195683E-002  7.671178830521579E-004
  0.000000000000000E+000  0.000000000000000E+000  0.000000000000000E+000
 -3.416399577208002E-004 -1.444008775674104E-003 -2.345112972478472E-004
 -2.513185469968930E-003 -1.085996752765931E-002 -5.190636398816176E-004
  0.000000000000000E+000  0.000000000000000E+000  0.000000000000000E+000
 -1.366478894115611E-003 -3.243937977410011E-003  4.040210440684595E-005
  0.000000000000000E+000  0.000000000000000E+000  0.000000000000000E+000
  0.000000000000000E+000  0.000000000000000E+000  0.000000000000000E+000
  0.000000000000000E+000  0.000000000000000E+000  0.000000000000000E+000
  0.000000000000000E+000  0.000000000000000E+000  0.000000000000000E+000
  0.000000000000000E+000  0.000000000000000E+000  0.000000000000000E+000
  0.000000000000000E+000  0.000000000000000E+000  0.000000000000000E+000
  0.000000000000000E+000  0.000000000000000E+000  0.000000000000000E+000
  0.000000000000000E+000  0.000000000000000E+000  0.000000000000000E+000
  0.000000000000000E+000  0.000000000000000E+000  0.000000000000000E+000
  4.985925886471667E-003 -3.199868478317595E-002 -2.721984640119884E-003
  6.796295364927204E-003 -2.240131127544749E-002  4.256386966233330E-003
 -1.178421283141978E-003 -4.401355817901693E-002 -6.851280711594701E-003
 A:    8.30990028380000       0.000000000000000E+000  0.000000000000000E+000
  -4.15495014190000        7.19658474870000       0.000000000000000E+000
  0.000000000000000E+000  0.000000000000000E+000   16.5235004425000     
 B:   0.120338387447258       6.947740038638753E-002  0.000000000000000E+000
  0.000000000000000E+000  0.138954800772775       0.000000000000000E+000
  0.000000000000000E+000  0.000000000000000E+000  6.051986402517384E-002
 force:  -6.530811461832248E-004 -1.170810035160042E-003 -2.614013256844225E-004
  0.000000000000000E+000  0.000000000000000E+000  0.000000000000000E+000
 -2.460466199784703E-004 -3.544393997252273E-004 -1.461301281476522E-004
 -5.394459720341557E-004 -1.541367419376507E-003 -1.562743099336133E-004
  0.000000000000000E+000  0.000000000000000E+000  0.000000000000000E+000
 -4.032368886002594E-004 -4.598569649823401E-004 -6.837061105294304E-005
 -6.452167662255547E-004 -1.047096181769250E-003 -5.431244590474918E-005
  0.000000000000000E+000  0.000000000000000E+000  0.000000000000000E+000
 -3.352404225859795E-004 -3.986512630884588E-004 -7.530756201896574E-005
 -5.769534582526294E-004 -1.342193049795940E-003  4.890542521744460E-005
  0.000000000000000E+000  0.000000000000000E+000  0.000000000000000E+000
 -2.251889483337256E-004 -4.176135630566608E-004  7.393542854770240E-006
 -9.458988532887297E-004 -1.784890358452847E-003  2.403268096636541E-004
  0.000000000000000E+000  0.000000000000000E+000  0.000000000000000E+000
 -5.537830059404178E-004 -5.092858078399814E-004  6.212757329504942E-005
 -5.944642354516382E-004 -1.184710416330433E-003 -4.808178495212918E-005
  0.000000000000000E+000  0.000000000000000E+000  0.000000000000000E+000
 -4.809729617097379E-004 -5.352221040215908E-004 -7.133607843374365E-005
 -6.754012728263401E-004 -1.320924023636095E-003 -1.007641730393494E-004
  0.000000000000000E+000  0.000000000000000E+000  0.000000000000000E+000
 -4.464713357265886E-004 -6.478760802405057E-004 -4.142529688790026E-005
 -6.547613014511023E-004 -1.485183302244521E-003  4.642586997359580E-005
  0.000000000000000E+000  0.000000000000000E+000  0.000000000000000E+000
 -1.414383774686373E-004 -2.006519517379340E-004 -1.419259182180684E-005
 -1.056954998914292E-003 -1.509044624204705E-003 -3.141366090604730E-005
  0.000000000000000E+000  0.000000000000000E+000  0.000000000000000E+000
 -3.898202442837079E-004 -4.507607553702470E-004  2.445129865033193E-006
  0.000000000000000E+000  0.000000000000000E+000  0.000000000000000E+000
  0.000000000000000E+000  0.000000000000000E+000  0.000000000000000E+000
  0.000000000000000E+000  0.000000000000000E+000  0.000000000000000E+000
  0.000000000000000E+000  0.000000000000000E+000  0.000000000000000E+000
  0.000000000000000E+000  0.000000000000000E+000  0.000000000000000E+000
  0.000000000000000E+000  0.000000000000000E+000  0.000000000000000E+000
  0.000000000000000E+000  0.000000000000000E+000  0.000000000000000E+000
  0.000000000000000E+000  0.000000000000000E+000  0.000000000000000E+000
  0.000000000000000E+000  0.000000000000000E+000  0.000000000000000E+000
 -1.623187153408983E-003 -4.446370869037043E-003 -1.647341402986671E-004
 -7.385296478337518E-004 -3.112769745328725E-003  2.575959604349633E-004
 -3.199756920979954E-003 -6.115895208066242E-003 -4.146385770640076E-004
 Free:    1.00000000000000        1.00000000000000        1.00000000000000     
  0.000000000000000E+000  0.000000000000000E+000  0.000000000000000E+000
   1.00000000000000        1.00000000000000        1.00000000000000     
   1.00000000000000        1.00000000000000        1.00000000000000     
  0.000000000000000E+000  0.000000000000000E+000  0.000000000000000E+000
   1.00000000000000        1.00000000000000        1.00000000000000     
   1.00000000000000        1.00000000000000        1.00000000000000     
  0.000000000000000E+000  0.000000000000000E+000  0.000000000000000E+000
   1.00000000000000        1.00000000000000        1.00000000000000     
   1.00000000000000        1.00000000000000        1.00000000000000     
  0.000000000000000E+000  0.000000000000000E+000  0.000000000000000E+000
   1.00000000000000        1.00000000000000        1.00000000000000     
   1.00000000000000        1.00000000000000        1.00000000000000     
  0.000000000000000E+000  0.000000000000000E+000  0.000000000000000E+000
   1.00000000000000        1.00000000000000        1.00000000000000     
   1.00000000000000        1.00000000000000        1.00000000000000     
  0.000000000000000E+000  0.000000000000000E+000  0.000000000000000E+000
   1.00000000000000        1.00000000000000        1.00000000000000     
   1.00000000000000        1.00000000000000        1.00000000000000     
  0.000000000000000E+000  0.000000000000000E+000  0.000000000000000E+000
   1.00000000000000        1.00000000000000        1.00000000000000     
   1.00000000000000        1.00000000000000        1.00000000000000     
  0.000000000000000E+000  0.000000000000000E+000  0.000000000000000E+000
   1.00000000000000        1.00000000000000        1.00000000000000     
   1.00000000000000        1.00000000000000        1.00000000000000     
  0.000000000000000E+000  0.000000000000000E+000  0.000000000000000E+000
   1.00000000000000        1.00000000000000        1.00000000000000     
  0.000000000000000E+000  0.000000000000000E+000  0.000000000000000E+000
  0.000000000000000E+000  0.000000000000000E+000  0.000000000000000E+000
  0.000000000000000E+000  0.000000000000000E+000  0.000000000000000E+000
  0.000000000000000E+000  0.000000000000000E+000  0.000000000000000E+000
  0.000000000000000E+000  0.000000000000000E+000  0.000000000000000E+000
  0.000000000000000E+000  0.000000000000000E+000  0.000000000000000E+000
  0.000000000000000E+000  0.000000000000000E+000  0.000000000000000E+000
  0.000000000000000E+000  0.000000000000000E+000  0.000000000000000E+000
  0.000000000000000E+000  0.000000000000000E+000  0.000000000000000E+000
   1.00000000000000        1.00000000000000        1.00000000000000     
   1.00000000000000        1.00000000000000        1.00000000000000     
   1.00000000000000        1.00000000000000        1.00000000000000     
 force:  -6.530811461832248E-004 -1.170810035160042E-003 -2.614013256844225E-004
  0.000000000000000E+000  0.000000000000000E+000  0.000000000000000E+000
 -2.460466199784703E-004 -3.544393997252273E-004 -1.461301281476522E-004
 -5.394459720341557E-004 -1.541367419376507E-003 -1.562743099336133E-004
  0.000000000000000E+000  0.000000000000000E+000  0.000000000000000E+000
 -4.032368886002594E-004 -4.598569649823401E-004 -6.837061105294304E-005
 -6.452167662255547E-004 -1.047096181769250E-003 -5.431244590474918E-005
  0.000000000000000E+000  0.000000000000000E+000  0.000000000000000E+000
 -3.352404225859795E-004 -3.986512630884588E-004 -7.530756201896574E-005
 -5.769534582526294E-004 -1.342193049795940E-003  4.890542521744460E-005
  0.000000000000000E+000  0.000000000000000E+000  0.000000000000000E+000
 -2.251889483337256E-004 -4.176135630566608E-004  7.393542854770240E-006
 -9.458988532887297E-004 -1.784890358452847E-003  2.403268096636541E-004
  0.000000000000000E+000  0.000000000000000E+000  0.000000000000000E+000
 -5.537830059404178E-004 -5.092858078399814E-004  6.212757329504942E-005
 -5.944642354516382E-004 -1.184710416330433E-003 -4.808178495212918E-005
  0.000000000000000E+000  0.000000000000000E+000  0.000000000000000E+000
 -4.809729617097379E-004 -5.352221040215908E-004 -7.133607843374365E-005
 -6.754012728263401E-004 -1.320924023636095E-003 -1.007641730393494E-004
  0.000000000000000E+000  0.000000000000000E+000  0.000000000000000E+000
 -4.464713357265886E-004 -6.478760802405057E-004 -4.142529688790026E-005
 -6.547613014511023E-004 -1.485183302244521E-003  4.642586997359580E-005
  0.000000000000000E+000  0.000000000000000E+000  0.000000000000000E+000
 -1.414383774686373E-004 -2.006519517379340E-004 -1.419259182180684E-005
 -1.056954998914292E-003 -1.509044624204705E-003 -3.141366090604730E-005
  0.000000000000000E+000  0.000000000000000E+000  0.000000000000000E+000
 -3.898202442837079E-004 -4.507607553702470E-004  2.445129865033193E-006
  0.000000000000000E+000  0.000000000000000E+000  0.000000000000000E+000
  0.000000000000000E+000  0.000000000000000E+000  0.000000000000000E+000
  0.000000000000000E+000  0.000000000000000E+000  0.000000000000000E+000
  0.000000000000000E+000  0.000000000000000E+000  0.000000000000000E+000
  0.000000000000000E+000  0.000000000000000E+000  0.000000000000000E+000
  0.000000000000000E+000  0.000000000000000E+000  0.000000000000000E+000
  0.000000000000000E+000  0.000000000000000E+000  0.000000000000000E+000
  0.000000000000000E+000  0.000000000000000E+000  0.000000000000000E+000
  0.000000000000000E+000  0.000000000000000E+000  0.000000000000000E+000
 -1.623187153408983E-003 -4.446370869037043E-003 -1.647341402986671E-004
 -7.385296478337518E-004 -3.112769745328725E-003  2.575959604349633E-004
 -3.199756920979954E-003 -6.115895208066242E-003 -4.146385770640076E-004
 after force*Free
 -5.623818802862474E-004 -8.425833642657672E-003 -4.319264920616642E-003
  0.000000000000000E+000  0.000000000000000E+000  0.000000000000000E+000
 -5.719448430038378E-004 -2.550753178400954E-003 -2.414581237110313E-003
  1.921562541757057E-003 -1.109258126242805E-002 -2.582198629339442E-003
  0.000000000000000E+000  0.000000000000000E+000  0.000000000000000E+000
 -1.440175573110847E-003 -3.309399620775379E-003 -1.129721821987300E-003
 -1.011054559745161E-003 -7.535516412142589E-003 -8.974317239403804E-004
  0.000000000000000E+000  0.000000000000000E+000  0.000000000000000E+000
 -1.129438360650457E-003 -2.868927599992394E-003 -1.244344534343977E-003
  7.823194962339186E-004 -9.659206031972602E-003  8.080888152210965E-004
  0.000000000000000E+000  0.000000000000000E+000  0.000000000000000E+000
 -1.361341725854121E-004 -3.005391398743831E-003  1.221672086324388E-004
 -4.441947012605134E-004 -1.284511473174343E-002  3.971040145822002E-003
  0.000000000000000E+000  0.000000000000000E+000  0.000000000000000E+000
 -2.485824418675508E-003 -3.665118477430569E-003  1.026564984832200E-003
 -1.752580644597858E-005 -8.525868913789619E-003 -7.944793949326964E-004
  0.000000000000000E+000  0.000000000000000E+000  0.000000000000000E+000
 -1.773016193959352E-003 -3.851771230968906E-003 -1.178721723566178E-003
 -1.241437692925725E-004 -9.506141682690962E-003 -1.664976857803837E-003
  0.000000000000000E+000  0.000000000000000E+000  0.000000000000000E+000
 -1.018239467934039E-003 -4.662495118106361E-003 -6.844909114579139E-004
  7.298614476586134E-004 -1.068824750195683E-002  7.671178830521578E-004
  0.000000000000000E+000  0.000000000000000E+000  0.000000000000000E+000
 -3.416399577208002E-004 -1.444008775674104E-003 -2.345112972478472E-004
 -2.513185469968929E-003 -1.085996752765931E-002 -5.190636398816175E-004
  0.000000000000000E+000  0.000000000000000E+000  0.000000000000000E+000
 -1.366478894115611E-003 -3.243937977410011E-003  4.040210440684594E-005
  0.000000000000000E+000  0.000000000000000E+000  0.000000000000000E+000
  0.000000000000000E+000  0.000000000000000E+000  0.000000000000000E+000
  0.000000000000000E+000  0.000000000000000E+000  0.000000000000000E+000
  0.000000000000000E+000  0.000000000000000E+000  0.000000000000000E+000
  0.000000000000000E+000  0.000000000000000E+000  0.000000000000000E+000
  0.000000000000000E+000  0.000000000000000E+000  0.000000000000000E+000
  0.000000000000000E+000  0.000000000000000E+000  0.000000000000000E+000
  0.000000000000000E+000  0.000000000000000E+000  0.000000000000000E+000
  0.000000000000000E+000  0.000000000000000E+000  0.000000000000000E+000
  4.985925886471667E-003 -3.199868478317595E-002 -2.721984640119884E-003
  6.796295364927204E-003 -2.240131127544749E-002  4.256386966233329E-003
 -1.178421283141978E-003 -4.401355817901693E-002 -6.851280711594700E-003
 before force check
 after force check
 before ML stuff 
  FORCES: max atom, RMS     0.044559    0.010974
  FORCE total and by dimension    0.068533    0.044014
 into some ML stuff
  Stress total and by dimension   14.475059   10.412420
 
 OPT: Flag T
 OPT: QM Step
 another before ML stuff


--------------------------------------------------------------------------------------------------------


      MLFF:  cpu time      2.1526: real time      2.1673
    WAVPRE:  cpu time      0.0228: real time      0.0230
    FEWALD:  cpu time      0.0065: real time      0.0065

 real space projection operators:
  total allocation   :       9689.50 KBytes
  max/ min on nodes  :       1708.59       1432.17

