<?xml version="1.0" encoding="ISO-8859-1"?>
<modeling>
 <generator>
  <i name="program" type="string">vasp </i>
  <i name="version" type="string">6.5.1  </i>
  <i name="subversion" type="string">10Mar25 (build Apr 25 2025 15:31:43) complex                          parallel </i>
  <i name="platform" type="string">LinuxIFC </i>
  <i name="date" type="string">2025 12 08 </i>
  <i name="time" type="string">14:54:14 </i>
 </generator>
 <incar>
  <i type="string" name="SYSTEM">PBE-grap</i>
  <i type="int" name="ISTART">     0</i>
  <i type="string" name="PREC">Normal   low | medium | high</i>
  <i type="int" name="IALGO">    38</i>
  <i type="int" name="ICHARG">     2</i>
  <i type="int" name="INIWAV">     1</i>
  <i type="int" name="NELM">   150</i>
  <i type="int" name="NELMDL">    -5</i>
  <i type="int" name="NELMIN">     4</i>
  <i type="int" name="IBRION">     3</i>
  <i name="EDIFF">      0.00001000</i>
  <i name="EDIFFG">     -0.02600000</i>
  <i type="int" name="NSW">  1000</i>
  <i type="int" name="ISIF">     2</i>
  <i type="int" name="ISYM">     0</i>
  <i name="ENCUT">    370.00000000</i>
  <i name="POTIM">      0.00000000</i>
  <i type="string" name="LREAL">AUTO   real-space projection (.FALSE., .TRUE., On, Auto)</i>
  <i type="logical" name="LPLANE"> T  </i>
  <i type="int" name="ISMEAR">     0</i>
  <i name="SIGMA">      0.41000000</i>
  <i type="int" name="NWRITE">     0</i>
  <i type="logical" name="LWAVE"> F  </i>
  <i type="logical" name="LCHARG"> F  </i>
  <i type="logical" name="LVTOT"> F  </i>
  <i type="string" name="GGA">PE</i>
  <i name="SPRING">     -5.00000000</i>
 </incar>
 <primitive_cell>
  <structure name="primitive_cell" >
   <crystal>
    <varray name="basis" >
     <v>       8.30990028       0.00000000       0.00000000 </v>
     <v>      -4.15495014       7.19658475       0.00000000 </v>
     <v>       0.00000000       0.00000000      16.52350044 </v>
    </varray>
    <i name="volume">    988.15327180 </i>
    <varray name="rec_basis" >
     <v>       0.12033839       0.06947740       0.00000000 </v>
     <v>       0.00000000       0.13895480       0.00000000 </v>
     <v>       0.00000000       0.00000000       0.06051986 </v>
    </varray>
   </crystal>
   <varray name="positions" >
    <v>       0.99878189       0.99788057       0.44016293 </v>
    <v>       0.11093000       0.22330000       0.16024000 </v>
    <v>       0.22208155       0.11308699       0.30031578 </v>
    <v>       0.33163210       0.00011250       0.44016211 </v>
    <v>       0.44426000       0.22330000       0.16024000 </v>
    <v>       0.55360127       0.11069473       0.29831087 </v>
    <v>       0.66502745       0.99921174       0.43624985 </v>
    <v>       0.77760000       0.22330000       0.16024000 </v>
    <v>       0.88857534       0.11164039       0.29929907 </v>
    <v>       0.99790260       0.33278817       0.44150896 </v>
    <v>       0.11093000       0.55664000       0.16024000 </v>
    <v>       0.22121350       0.44384839       0.29970995 </v>
    <v>       0.32798325       0.33523911       0.45313390 </v>
    <v>       0.44426000       0.55664000       0.16024000 </v>
    <v>       0.55183875       0.44323123       0.29978193 </v>
    <v>       0.66486176       0.33279689       0.43600019 </v>
    <v>       0.77760000       0.55664000       0.16024000 </v>
    <v>       0.88796720       0.44373286       0.29845546 </v>
    <v>       0.99742211       0.66515016       0.43572658 </v>
    <v>       0.11093000       0.88997000       0.16024000 </v>
    <v>       0.22215103       0.77844561       0.29892249 </v>
    <v>       0.33300074       0.66614487       0.43912866 </v>
    <v>       0.44426000       0.88997000       0.16024000 </v>
    <v>       0.55387140       0.77769706       0.29829110 </v>
    <v>       0.66592912       0.66617099       0.43621822 </v>
    <v>       0.77760000       0.88997000       0.16024000 </v>
    <v>       0.88809128       0.77883840       0.29811959 </v>
    <v>       0.99982000       0.00108000       0.02337000 </v>
    <v>       0.33315000       0.00108000       0.02337000 </v>
    <v>       0.66649000       0.00108000       0.02337000 </v>
    <v>       0.99982000       0.33441000       0.02337000 </v>
    <v>       0.33315000       0.33441000       0.02337000 </v>
    <v>       0.66649000       0.33441000       0.02337000 </v>
    <v>       0.99982000       0.66775000       0.02337000 </v>
    <v>       0.33315000       0.66775000       0.02337000 </v>
    <v>       0.66649000       0.66775000       0.02337000 </v>
    <v>       0.22412717       0.10537254       0.58940454 </v>
    <v>       0.23456727       0.37670319       0.57607437 </v>
    <v>       0.21199330       0.03253566       0.65073992 </v>
   </varray>
  </structure>
  <varray name="primitive_index" >
   <v type="int" >        1 </v>
   <v type="int" >        2 </v>
   <v type="int" >        3 </v>
   <v type="int" >        4 </v>
   <v type="int" >        5 </v>
   <v type="int" >        6 </v>
   <v type="int" >        7 </v>
   <v type="int" >        8 </v>
   <v type="int" >        9 </v>
   <v type="int" >       10 </v>
   <v type="int" >       11 </v>
   <v type="int" >       12 </v>
   <v type="int" >       13 </v>
   <v type="int" >       14 </v>
   <v type="int" >       15 </v>
   <v type="int" >       16 </v>
   <v type="int" >       17 </v>
   <v type="int" >       18 </v>
   <v type="int" >       19 </v>
   <v type="int" >       20 </v>
   <v type="int" >       21 </v>
   <v type="int" >       22 </v>
   <v type="int" >       23 </v>
   <v type="int" >       24 </v>
   <v type="int" >       25 </v>
   <v type="int" >       26 </v>
   <v type="int" >       27 </v>
   <v type="int" >       28 </v>
   <v type="int" >       29 </v>
   <v type="int" >       30 </v>
   <v type="int" >       31 </v>
   <v type="int" >       32 </v>
   <v type="int" >       33 </v>
   <v type="int" >       34 </v>
   <v type="int" >       35 </v>
   <v type="int" >       36 </v>
   <v type="int" >       37 </v>
   <v type="int" >       38 </v>
   <v type="int" >       39 </v>
  </varray>
 </primitive_cell>
 <kpoints>
  <generation param="Monkhorst-Pack">
   <v type="int" name="divisions">       4        4        1 </v>
   <v name="usershift">      0.00000000       0.00000000       0.00000000 </v>
   <v name="genvec1">      0.25000000       0.00000000       0.00000000 </v>
   <v name="genvec2">      0.00000000       0.25000000       0.00000000 </v>
   <v name="genvec3">      0.00000000       0.00000000       1.00000000 </v>
   <v name="shift">      0.50000000       0.50000000       0.00000000 </v>
  </generation>
  <varray name="kpointlist" >
   <v>       0.12500000       0.12500000       0.00000000 </v>
   <v>      -0.12500000       0.25000000       0.00000000 </v>
   <v>      -0.25000000       0.12500000       0.00000000 </v>
   <v>       0.37500000       0.12500000       0.00000000 </v>
   <v>      -0.12500000       0.50000000       0.00000000 </v>
   <v>       0.50000000       0.37500000       0.00000000 </v>
   <v>      -0.37500000       0.50000000       0.00000000 </v>
   <v>       0.12500000       0.37500000       0.00000000 </v>
   <v>       0.50000000      -0.12500000       0.00000000 </v>
   <v>      -0.37500000       0.12500000       0.00000000 </v>
   <v>      -0.12500000      -0.25000000       0.00000000 </v>
   <v>       0.25000000      -0.37500000       0.00000000 </v>
   <v>       0.37500000      -0.25000000       0.00000000 </v>
   <v>       0.12500000      -0.37500000       0.00000000 </v>
   <v>      -0.25000000      -0.12500000       0.00000000 </v>
   <v>      -0.12500000       0.12500000       0.00000000 </v>
   <v>      -0.12500000       0.00000000       0.00000000 </v>
   <v>       0.00000000      -0.12500000       0.00000000 </v>
   <v>       0.37500000       0.37500000       0.00000000 </v>
   <v>      -0.37500000      -0.25000000       0.00000000 </v>
   <v>       0.25000000       0.37500000       0.00000000 </v>
   <v>      -0.37500000       0.37500000       0.00000000 </v>
   <v>      -0.37500000       0.00000000       0.00000000 </v>
   <v>       0.00000000      -0.37500000       0.00000000 </v>
  </varray>
  <varray name="weights" >
   <v>       0.04166667 </v>
   <v>       0.04166667 </v>
   <v>       0.04166667 </v>
   <v>       0.04166667 </v>
   <v>       0.04166667 </v>
   <v>       0.04166667 </v>
   <v>       0.04166667 </v>
   <v>       0.04166667 </v>
   <v>       0.04166667 </v>
   <v>       0.04166667 </v>
   <v>       0.04166667 </v>
   <v>       0.04166667 </v>
   <v>       0.04166667 </v>
   <v>       0.04166667 </v>
   <v>       0.04166667 </v>
   <v>       0.04166667 </v>
   <v>       0.04166667 </v>
   <v>       0.04166667 </v>
   <v>       0.04166667 </v>
   <v>       0.04166667 </v>
   <v>       0.04166667 </v>
   <v>       0.04166667 </v>
   <v>       0.04166667 </v>
   <v>       0.04166667 </v>
  </varray>
 </kpoints>
 <parameters>
  <separator name="general" >
   <i type="string" name="SYSTEM">PBE-grap</i>
   <i type="logical" name="LCOMPAT"> F  </i>
  </separator>
  <separator name="electronic" >
   <i type="string" name="PREC">normal</i>
   <i name="ENMAX">    370.00000000</i>
   <i name="ENAUG">    644.87300000</i>
   <i name="EDIFF">      0.00001000</i>
   <i type="int" name="IALGO">    38</i>
   <i type="int" name="IWAVPR">    11</i>
   <i type="int" name="NBANDS">   228</i>
   <i type="int" name="NBANDSLOW">    -1</i>
   <i type="int" name="NBANDSHIGH">    -1</i>
   <i name="NELECT">    376.00000000</i>
   <i type="int" name="TURBO">     0</i>
   <i type="int" name="IRESTART">     0</i>
   <i type="int" name="NREBOOT">     0</i>
   <i type="int" name="NMIN">     0</i>
   <i name="EREF">      0.00000000</i>
   <separator name="electronic smearing" >
    <i type="int" name="ISMEAR">     0</i>
    <i name="SIGMA">      0.41000000</i>
    <i name="KSPACING">      0.50000000</i>
    <i type="logical" name="KGAMMA"> T  </i>
    <i type="logical" name="KBLOWUP"> T  </i>
   </separator>
   <separator name="electronic projectors" >
    <i type="logical" name="LREAL"> T  </i>
    <v name="ROPT">     -0.00050000     -0.00050000     -0.00050000</v>
    <i type="int" name="LMAXPAW">  -100</i>
    <i type="int" name="LMAXMIX">     2</i>
    <i type="logical" name="NLSPLINE"> F  </i>
   </separator>
   <separator name="electronic startup" >
    <i type="int" name="ISTART">     0</i>
    <i type="int" name="ICHARG">     2</i>
    <i type="int" name="INIWAV">     1</i>
   </separator>
   <separator name="electronic spin" >
    <i type="int" name="ISPIN">     1</i>
    <i type="logical" name="LNONCOLLINEAR"> F  </i>
    <v name="MAGMOM">      1.00000000      1.00000000      1.00000000      1.00000000      1.00000000      1.00000000      1.00000000      1.00000000      1.00000000      1.00000000      1.00000000      1.00000000      1.00000000      1.00000000      1.00000000      1.00000000      1.00000000      1.00000000      1.00000000      1.00000000
      1.00000000      1.00000000      1.00000000      1.00000000      1.00000000      1.00000000      1.00000000      1.00000000      1.00000000      1.00000000      1.00000000      1.00000000      1.00000000      1.00000000      1.00000000      1.00000000      1.00000000      1.00000000      1.00000000</v>
    <i name="NUPDOWN">     -1.00000000</i>
    <i type="logical" name="LSORBIT"> F  </i>
    <v name="SAXIS">      0.00000000      0.00000000      1.00000000</v>
    <i type="logical" name="LSPIRAL"> F  </i>
    <v name="QSPIRAL">      0.00000000      0.00000000      0.00000000</v>
    <i type="logical" name="LZEROZ"> F  </i>
   </separator>
   <separator name="electronic exchange-correlation" >
    <i type="logical" name="LASPH"> F  </i>
   </separator>
   <separator name="electronic convergence" >
    <i type="int" name="NELM">   150</i>
    <i type="int" name="NELMDL">    -5</i>
    <i type="int" name="NELMIN">     4</i>
    <i name="ENINI">    370.00000000</i>
    <separator name="electronic convergence detail" >
     <i type="logical" name="LDIAG"> T  </i>
     <i type="logical" name="LSUBROT"> F  </i>
     <i type="logical" name="LROBUST"> F  </i>
     <i type="int" name="ISEARCH">     0</i>
     <i name="WEIMIN">      0.00100000</i>
     <i name="EBREAK">      0.00000001</i>
     <i name="DEPER">      0.30000000</i>
     <i type="int" name="NRMM">     4</i>
     <i name="TIME">      0.40000000</i>
    </separator>
   </separator>
   <separator name="electronic mixer" >
    <i name="AMIX">      0.40000000</i>
    <i name="BMIX">      1.00000000</i>
    <i name="AMIN">      0.10000000</i>
    <i name="AMIX_MAG">      1.60000000</i>
    <i name="BMIX_MAG">      1.00000000</i>
    <separator name="electronic mixer details" >
     <i type="int" name="IMIX">     4</i>
     <i type="logical" name="MIXFIRST"> F  </i>
     <i type="int" name="MAXMIX">   -45</i>
     <i name="WC">    100.00000000</i>
     <i type="int" name="INIMIX">     1</i>
     <i type="int" name="MIXPRE">     1</i>
     <i type="int" name="MREMOVE">     5</i>
    </separator>
   </separator>
   <separator name="electronic dipolcorrection" >
    <i type="logical" name="LDIPOL"> F  </i>
    <i type="logical" name="LMONO"> F  </i>
    <i type="int" name="IDIPOL">     0</i>
    <i name="EPSILON">      1.00000000</i>
    <v name="DIPOL">   -100.00000000   -100.00000000   -100.00000000</v>
    <i name="EFIELD">      0.00000000</i>
    <i type="logical" name="LVACPOTAV"> F  </i>
   </separator>
  </separator>
  <separator name="grids" >
   <i type="int" name="NGX">    40</i>
   <i type="int" name="NGY">    40</i>
   <i type="int" name="NGZ">    80</i>
   <i type="int" name="NGXF">    80</i>
   <i type="int" name="NGYF">    80</i>
   <i type="int" name="NGZF">   160</i>
   <i type="logical" name="ADDGRID"> F  </i>
  </separator>
  <separator name="ionic" >
   <i type="int" name="NSW">  1000</i>
   <i type="int" name="IBRION">     3</i>
   <i type="int" name="MDALGO">     0</i>
   <i type="int" name="ISIF">     2</i>
   <i name="PSTRESS">      0.00000000</i>
   <i name="EDIFFG">     -0.02600000</i>
   <i type="int" name="NFREE">     0</i>
   <i name="POTIM">      0.00000000</i>
   <i name="SMASS">     -3.00000000</i>
   <i name="SCALEE">      1.00000000</i>
  </separator>
  <separator name="ionic md" >
   <i name="TEBEG">      0.00010000</i>
   <i name="TEEND">      0.00010000</i>
   <i type="int" name="NBLOCK">     1</i>
   <i type="int" name="KBLOCK">  1000</i>
   <i type="int" name="NPACO">   256</i>
   <i name="APACO">     10.00000000</i>
  </separator>
  <separator name="symmetry" >
   <i type="int" name="ISYM">     0</i>
   <i name="SYMPREC">      0.00001000</i>
  </separator>
  <separator name="dos" >
   <i type="int" name="LORBIT">     0</i>
   <v name="RWIGS">     -1.00000000     -1.00000000     -1.00000000</v>
   <i type="int" name="NEDOS">   301</i>
   <i name="EMIN">     10.00000000</i>
   <i name="EMAX">    -10.00000000</i>
   <i name="EFERMI">      0.00000000</i>
  </separator>
  <separator name="writing" >
   <i type="int" name="NWRITE">     0</i>
   <i type="logical" name="LWAVE"> F  </i>
   <i type="logical" name="LDOWNSAMPLE"> F  </i>
   <i type="logical" name="LCHARG"> F  </i>
   <i type="logical" name="LPARD"> F  </i>
   <i type="logical" name="LVTOT"> F  </i>
   <i type="logical" name="LVHAR"> F  </i>
   <i type="logical" name="LELF"> F  </i>
   <i type="logical" name="LOPTICS"> F  </i>
   <v name="STM">      0.00000000      0.00000000      0.00000000      0.00000000      0.00000000      0.00000000      0.00000000</v>
  </separator>
  <separator name="performance" >
   <i type="int" name="NPAR">     4</i>
   <i type="int" name="NSIM">     4</i>
   <i type="int" name="NBLK">    -1</i>
   <i type="logical" name="LPLANE"> T  </i>
   <i type="logical" name="LSCALAPACK"> T  </i>
   <i type="logical" name="LSCAAWARE"> F  </i>
   <i type="logical" name="LSCALU"> F  </i>
   <i type="logical" name="LASYNC"> F  </i>
   <i type="logical" name="LORBITALREAL"> F  </i>
  </separator>
  <separator name="miscellaneous" >
   <i type="int" name="IDIOT">     3</i>
   <i type="int" name="PHON_NSTRUCT">    -1</i>
   <i type="logical" name="LMUSIC"> F  </i>
   <v name="POMASS">    106.42000000     12.01100000     16.00000000</v>
   <v name="DARWINR">      0.00000000      0.00000000      0.00000000</v>
   <v name="DARWINV">      1.00000000      1.00000000      1.00000000</v>
   <i type="logical" name="LCORR"> T  </i>
  </separator>
  <i type="logical" name="GGA_COMPAT"> T  </i>
  <i type="logical" name="LBERRY"> F  </i>
  <i type="int" name="ICORELEVEL">     0</i>
  <i type="logical" name="LDAU"> F  </i>
  <i type="int" name="I_CONSTRAINED_M">     0</i>
  <separator name="electronic exchange-correlation" >
   <i type="string" name="GGA    ">PE</i>
   <i type="string" name="XC_C">1</i>
   <i type="int" name="VOSKOWN">     0</i>
   <i type="logical" name="LHFCALC"> F  </i>
   <i type="string" name="PRECFOCK"></i>
   <i type="logical" name="LSYMGRAD"> F  </i>
   <i type="logical" name="LHFONE"> F  </i>
   <i type="logical" name="LRHFCALC"> F  </i>
   <i type="logical" name="LTHOMAS"> F  </i>
   <i type="logical" name="LMODELHF"> F  </i>
   <i type="logical" name="LFOCKACE"> F  </i>
   <i name="ENCUT4O">     -1.00000000</i>
   <i type="int" name="EXXOEP">     0</i>
   <i type="int" name="FOURORBIT">     0</i>
   <i name="AEXX">      0.00000000</i>
   <i name="HFALPHA">      0.00000000</i>
   <i name="MCALPHA">      0.00000000</i>
   <i name="ALDAX">      1.00000000</i>
   <i name="AGGAX">      1.00000000</i>
   <i name="AMGGAX">      1.00000000</i>
   <i name="ALDAC">      1.00000000</i>
   <i name="AGGAC">      1.00000000</i>
   <i name="AMGGAC">      1.00000000</i>
   <i type="int" name="NKREDX">     1</i>
   <i type="int" name="NKREDY">     1</i>
   <i type="int" name="NKREDZ">     1</i>
   <i type="logical" name="SHIFTRED"> F  </i>
   <i type="logical" name="ODDONLY"> F  </i>
   <i type="logical" name="EVENONLY"> F  </i>
   <i type="int" name="LMAXFOCK">     0</i>
   <i type="int" name="NMAXFOCKAE">     0</i>
   <i type="logical" name="LFOCKAEDFT"> F  </i>
   <i name="HFSCREEN">      0.00000000</i>
   <i name="HFSCREENC">      0.00000000</i>
   <i type="int" name="NBANDSGWLOW">     0</i>
  </separator>
  <separator name="vdW DFT" >
   <i type="logical" name="LUSE_VDW"> F  </i>
   <i type="int" name="IVDW_NL">    -1</i>
   <i type="logical" name="LSPIN_VDW"> F  </i>
   <i name="ZAB_VDW">     -0.84910000</i>
   <i name="GAMMA_VDW">      1.39626340</i>
   <i name="ALPHA_VDW">      0.00000000</i>
   <i name="PARAM1">      0.12340000</i>
   <i name="PARAM2">      1.00000000</i>
   <i name="BPARAM">      6.30000000</i>
   <i name="CPARAM">      0.00930000</i>
  </separator>
  <separator name="model GW" >
   <i type="int" name="MODEL_GW">     0</i>
   <i name="MODEL_EPS0">     15.20235803</i>
   <i name="MODEL_ALPHA">      1.00000000</i>
  </separator>
  <separator name="linear response parameters" >
   <i type="logical" name="LEPSILON"> F  </i>
   <i type="logical" name="LRPA"> F  </i>
   <i type="logical" name="LNABLA"> F  </i>
   <i type="logical" name="LVEL"> F  </i>
   <i name="CSHIFT">      0.10000000</i>
   <i name="OMEGAMAX">     -1.00000000</i>
   <i name="DEG_THRESHOLD">      0.00200000</i>
   <i name="RTIME">     -0.10000000</i>
   <i name="WPLASMAI">      0.00000000</i>
   <v name="DFIELD">      0.00000000      0.00000000      0.00000000</v>
   <v name="WPLASMA">      0.00000000      0.00000000      0.00000000      0.00000000      0.00000000      0.00000000      0.00000000      0.00000000      0.00000000</v>
  </separator>
  <separator name="orbital magnetization" >
   <i type="logical" name="NUCIND"> F  </i>
   <v name="MAGPOS">      0.00000000      0.00000000      0.00000000</v>
   <i type="logical" name="LNICSALL"> T  </i>
   <i type="logical" name="ORBITALMAG"> F  </i>
   <i type="logical" name="LMAGBLOCH"> F  </i>
   <i type="logical" name="LCHIMAG"> F  </i>
   <i type="logical" name="LGAUGE"> T  </i>
   <i type="int" name="MAGATOM">     0</i>
   <v name="MAGDIPOL">      0.00000000      0.00000000      0.00000000</v>
   <v name="AVECCONST">      0.00000000      0.00000000      0.00000000</v>
  </separator>
  <separator name="response functions" >
   <i type="logical" name="LALL_IN_ONE"> F  </i>
   <i type="int" name="IALL_IN_ONE">    -1</i>
   <i type="int" name="NBANDS_WAVE">    -1</i>
   <i type="logical" name="LFINITE_TEMPERATURE"> F  </i>
   <i type="logical" name="LADDER"> F  </i>
   <i type="logical" name="LRPAFORCE"> F  </i>
   <i type="logical" name="LFXC"> F  </i>
   <i type="logical" name="LHARTREE"> T  </i>
   <i type="int" name="IBSE">     2</i>
   <v type="int" name="KPOINT">    -1     0     0     0</v>
   <i type="logical" name="LTCTC"> F  </i>
   <i type="logical" name="LTCTE"> F  </i>
   <i type="logical" name="LTETE"> F  </i>
   <i type="logical" name="LTRIPLET"> F  </i>
   <i type="logical" name="LFXCEPS"> F  </i>
   <i type="logical" name="LFXHEG"> F  </i>
   <i type="int" name="NATURALO">     2</i>
   <i type="logical" name="LHOLEGF"> F  </i>
   <i type="logical" name="L2ORDER"> F  </i>
   <i type="logical" name="LDMP1"> F  </i>
   <i type="logical" name="LMP2LT"> F  </i>
   <i type="logical" name="LSMP2LT"> F  </i>
   <i type="logical" name="LGWLF"> F  </i>
   <i name="ENCUTGW">     -1.60000002</i>
   <i name="ENCUTGWSOFT">     -1.60000002</i>
   <i name="ENCUTLF">     -1.00000000</i>
   <i type="logical" name="ESF_SPLINES"> F  </i>
   <i name="ESF_CONV">      0.01000000</i>
   <i type="int" name="ESF_NINTER">    15</i>
   <i type="int" name="LMAXMP2">    -1</i>
   <i name="SCISSOR">      0.00000000</i>
   <i type="int" name="NOMEGA">     0</i>
   <i type="int" name="NOMEGAR">     0</i>
   <i type="int" name="NBANDSGW">    -1</i>
   <i type="int" name="NBANDSO">    -1</i>
   <i type="int" name="NBANDSV">    -1</i>
   <i type="int" name="NELMGW">     1</i>
   <i type="int" name="NELMHF">     1</i>
   <i type="int" name="DIM">     3</i>
   <i type="int" name="IESPILON">     4</i>
   <i type="int" name="ANTIRES">     0</i>
   <i name="OMEGAMAX">    -30.00000000</i>
   <i name="OMEGAMIN">    -30.00000000</i>
   <i name="OMEGATL">   -200.00000000</i>
   <i type="int" name="OMEGAGRID">     0</i>
   <i name="CSHIFT">     -0.10000000</i>
   <i type="logical" name="LSELFENERGY"> F  </i>
   <i type="logical" name="LSPECTRAL"> F  </i>
   <i type="logical" name="LSPECTRALGW"> F  </i>
   <i type="logical" name="LSINGLES"> F  </i>
   <i type="logical" name="LFERMIGW"> F  </i>
   <i type="logical" name="ODDONLYGW"> F  </i>
   <i type="logical" name="EVENONLYGW"> F  </i>
   <i type="int" name="NKREDLFX">     1</i>
   <i type="int" name="NKREDLFY">     1</i>
   <i type="int" name="NKREDLFZ">     1</i>
   <i type="int" name="MAXMEM">  2800</i>
   <i type="int" name="TELESCOPE">     0</i>
   <i type="int" name="NTAUPAR">    -1</i>
   <i type="int" name="NOMEGAPAR">    -1</i>
   <i name="DAMP_NEWTON">      0.80000001</i>
   <i name="LAMBDA">      1.00000000</i>
  </separator>
  <separator name="External order field" >
   <i name="OFIELD_KAPPA">      0.00000000</i>
   <v name="OFIELD_K">      0.00000000      0.00000000      0.00000000</v>
   <i name="OFIELD_Q6_NEAR">      0.00000000</i>
   <i name="OFIELD_Q6_FAR">      0.00000000</i>
   <i name="OFIELD_A">      0.00000000</i>
  </separator>
  <separator name="optional k-points parameters" >
   <i type="int" name="KPOINTS_OPT_MODE">     1</i>
   <i type="logical" name="LKPOINTS_OPT"> F  </i>
  </separator>
 </parameters>
 <atominfo>
  <atoms>      39 </atoms>
  <types>       3 </types>
  <array name="atoms" >
   <dimension dim="1">ion</dimension>
   <field type="string">element</field>
   <field type="int">atomtype</field>
   <set>
    <rc><c>Pd</c><c>   1</c></rc>
    <rc><c>Pd</c><c>   1</c></rc>
    <rc><c>Pd</c><c>   1</c></rc>
    <rc><c>Pd</c><c>   1</c></rc>
    <rc><c>Pd</c><c>   1</c></rc>
    <rc><c>Pd</c><c>   1</c></rc>
    <rc><c>Pd</c><c>   1</c></rc>
    <rc><c>Pd</c><c>   1</c></rc>
    <rc><c>Pd</c><c>   1</c></rc>
    <rc><c>Pd</c><c>   1</c></rc>
    <rc><c>Pd</c><c>   1</c></rc>
    <rc><c>Pd</c><c>   1</c></rc>
    <rc><c>Pd</c><c>   1</c></rc>
    <rc><c>Pd</c><c>   1</c></rc>
    <rc><c>Pd</c><c>   1</c></rc>
    <rc><c>Pd</c><c>   1</c></rc>
    <rc><c>Pd</c><c>   1</c></rc>
    <rc><c>Pd</c><c>   1</c></rc>
    <rc><c>Pd</c><c>   1</c></rc>
    <rc><c>Pd</c><c>   1</c></rc>
    <rc><c>Pd</c><c>   1</c></rc>
    <rc><c>Pd</c><c>   1</c></rc>
    <rc><c>Pd</c><c>   1</c></rc>
    <rc><c>Pd</c><c>   1</c></rc>
    <rc><c>Pd</c><c>   1</c></rc>
    <rc><c>Pd</c><c>   1</c></rc>
    <rc><c>Pd</c><c>   1</c></rc>
    <rc><c>Pd</c><c>   1</c></rc>
    <rc><c>Pd</c><c>   1</c></rc>
    <rc><c>Pd</c><c>   1</c></rc>
    <rc><c>Pd</c><c>   1</c></rc>
    <rc><c>Pd</c><c>   1</c></rc>
    <rc><c>Pd</c><c>   1</c></rc>
    <rc><c>Pd</c><c>   1</c></rc>
    <rc><c>Pd</c><c>   1</c></rc>
    <rc><c>Pd</c><c>   1</c></rc>
    <rc><c>C </c><c>   2</c></rc>
    <rc><c>O </c><c>   3</c></rc>
    <rc><c>O </c><c>   3</c></rc>
   </set>
  </array>
  <array name="atomtypes" >
   <dimension dim="1">type</dimension>
   <field type="int">atomspertype</field>
   <field type="string">element</field>
   <field>mass</field>
   <field>valence</field>
   <field type="string">pseudopotential</field>
   <set>
    <rc><c>  36</c><c>Pd</c><c>    106.42000000</c><c>     10.00000000</c><c>  PAW_PBE Pd 04Jan2005                  </c></rc>
    <rc><c>   1</c><c>C </c><c>     12.01100000</c><c>      4.00000000</c><c>  PAW_PBE C 08Apr2002                   </c></rc>
    <rc><c>   2</c><c>O </c><c>     16.00000000</c><c>      6.00000000</c><c>  PAW_PBE O 08Apr2002                   </c></rc>
   </set>
  </array>
 </atominfo>
 <structure name="initialpos" >
  <crystal>
   <varray name="basis" >
    <v>       8.30990028       0.00000000       0.00000000 </v>
    <v>      -4.15495014       7.19658475       0.00000000 </v>
    <v>       0.00000000       0.00000000      16.52350044 </v>
   </varray>
   <i name="volume">    988.15327180 </i>
   <varray name="rec_basis" >
    <v>       0.12033839       0.06947740       0.00000000 </v>
    <v>       0.00000000       0.13895480       0.00000000 </v>
    <v>       0.00000000       0.00000000       0.06051986 </v>
   </varray>
  </crystal>
  <varray name="positions" >
   <v>       0.99878189       0.99788057       0.44016293 </v>
   <v>       0.11093000       0.22330000       0.16024000 </v>
   <v>       0.22208155       0.11308699       0.30031578 </v>
   <v>       0.33163210       0.00011250       0.44016211 </v>
   <v>       0.44426000       0.22330000       0.16024000 </v>
   <v>       0.55360127       0.11069473       0.29831087 </v>
   <v>       0.66502745       0.99921174       0.43624985 </v>
   <v>       0.77760000       0.22330000       0.16024000 </v>
   <v>       0.88857534       0.11164039       0.29929907 </v>
   <v>       0.99790260       0.33278817       0.44150896 </v>
   <v>       0.11093000       0.55664000       0.16024000 </v>
   <v>       0.22121350       0.44384839       0.29970995 </v>
   <v>       0.32798325       0.33523911       0.45313390 </v>
   <v>       0.44426000       0.55664000       0.16024000 </v>
   <v>       0.55183875       0.44323123       0.29978193 </v>
   <v>       0.66486176       0.33279689       0.43600019 </v>
   <v>       0.77760000       0.55664000       0.16024000 </v>
   <v>       0.88796720       0.44373286       0.29845546 </v>
   <v>       0.99742211       0.66515016       0.43572658 </v>
   <v>       0.11093000       0.88997000       0.16024000 </v>
   <v>       0.22215103       0.77844561       0.29892249 </v>
   <v>       0.33300074       0.66614487       0.43912866 </v>
   <v>       0.44426000       0.88997000       0.16024000 </v>
   <v>       0.55387140       0.77769706       0.29829110 </v>
   <v>       0.66592912       0.66617099       0.43621822 </v>
   <v>       0.77760000       0.88997000       0.16024000 </v>
   <v>       0.88809128       0.77883840       0.29811959 </v>
   <v>       0.99982000       0.00108000       0.02337000 </v>
   <v>       0.33315000       0.00108000       0.02337000 </v>
   <v>       0.66649000       0.00108000       0.02337000 </v>
   <v>       0.99982000       0.33441000       0.02337000 </v>
   <v>       0.33315000       0.33441000       0.02337000 </v>
   <v>       0.66649000       0.33441000       0.02337000 </v>
   <v>       0.99982000       0.66775000       0.02337000 </v>
   <v>       0.33315000       0.66775000       0.02337000 </v>
   <v>       0.66649000       0.66775000       0.02337000 </v>
   <v>       0.22412717       0.10537254       0.58940454 </v>
   <v>       0.23456727       0.37670319       0.57607437 </v>
   <v>       0.21199330       0.03253566       0.65073992 </v>
  </varray>
  <varray name="selective"  type="logical" >
   <v type="logical" >  T  T  T </v>
   <v type="logical" >  F  F  F </v>
   <v type="logical" >  T  T  T </v>
   <v type="logical" >  T  T  T </v>
   <v type="logical" >  F  F  F </v>
   <v type="logical" >  T  T  T </v>
   <v type="logical" >  T  T  T </v>
   <v type="logical" >  F  F  F </v>
   <v type="logical" >  T  T  T </v>
   <v type="logical" >  T  T  T </v>
   <v type="logical" >  F  F  F </v>
   <v type="logical" >  T  T  T </v>
   <v type="logical" >  T  T  T </v>
   <v type="logical" >  F  F  F </v>
   <v type="logical" >  T  T  T </v>
   <v type="logical" >  T  T  T </v>
   <v type="logical" >  F  F  F </v>
   <v type="logical" >  T  T  T </v>
   <v type="logical" >  T  T  T </v>
   <v type="logical" >  F  F  F </v>
   <v type="logical" >  T  T  T </v>
   <v type="logical" >  T  T  T </v>
   <v type="logical" >  F  F  F </v>
   <v type="logical" >  T  T  T </v>
   <v type="logical" >  T  T  T </v>
   <v type="logical" >  F  F  F </v>
   <v type="logical" >  T  T  T </v>
   <v type="logical" >  F  F  F </v>
   <v type="logical" >  F  F  F </v>
   <v type="logical" >  F  F  F </v>
   <v type="logical" >  F  F  F </v>
   <v type="logical" >  F  F  F </v>
   <v type="logical" >  F  F  F </v>
   <v type="logical" >  F  F  F </v>
   <v type="logical" >  F  F  F </v>
   <v type="logical" >  F  F  F </v>
   <v type="logical" >  T  T  T </v>
   <v type="logical" >  T  T  T </v>
   <v type="logical" >  T  T  T </v>
  </varray>
  <nose>
   <v>      -3.00000000       0.00000000       0.00010000       0.00010000 </v>
  </nose>
 </structure>
 <calculation>
  <scstep>
   <time name="dav">   14.07   14.17</time>
   <time name="total">   14.19   14.28</time>
   <energy>
    <i name="alphaZ">    918.22725072 </i>
    <i name="ewald">  21513.28164545 </i>
    <i name="hartreedc"> -54178.34422204 </i>
    <i name="XCdc">   -994.90442700 </i>
    <i name="pawpsdc">  29844.20032359 </i>
    <i name="pawaedc"> -27608.36462881 </i>
    <i name="eentropy">     -1.23727757 </i>
    <i name="bandstr">   2438.93751337 </i>
    <i name="atom">  30161.86332653 </i>
    <i name="e_fr_energy">   2093.65950424 </i>
    <i name="e_wo_entrp">   2094.89678181 </i>
    <i name="e_0_energy">   2094.27814302 </i>
   </energy>
  </scstep>
  <scstep>
   <time name="dav">   15.14   15.25</time>
   <time name="total">   15.18   15.28</time>
   <energy>
    <i name="e_fr_energy">    -90.70499568 </i>
    <i name="e_wo_entrp">    -87.18428174 </i>
    <i name="e_0_energy">    -88.94463871 </i>
   </energy>
  </scstep>
  <scstep>
   <time name="dav">   15.81   15.91</time>
   <time name="total">   15.84   15.95</time>
   <energy>
    <i name="e_fr_energy">   -207.70865721 </i>
    <i name="e_wo_entrp">   -202.30433143 </i>
    <i name="e_0_energy">   -205.00649432 </i>
   </energy>
  </scstep>
  <scstep>
   <time name="dav">   16.29   16.40</time>
   <time name="total">   16.33   16.43</time>
   <energy>
    <i name="e_fr_energy">   -211.72008018 </i>
    <i name="e_wo_entrp">   -206.25752359 </i>
    <i name="e_0_energy">   -208.98880188 </i>
   </energy>
  </scstep>
  <scstep>
   <time name="dav">   16.20   16.32</time>
   <time name="total">   16.60   16.71</time>
   <energy>
    <i name="e_fr_energy">   -211.84928935 </i>
    <i name="e_wo_entrp">   -206.38501809 </i>
    <i name="e_0_energy">   -209.11715372 </i>
   </energy>
  </scstep>
  <scstep>
   <time name="dav">   17.80   17.91</time>
   <time name="total">   18.26   18.38</time>
   <energy>
    <i name="e_fr_energy">   -212.73466840 </i>
    <i name="e_wo_entrp">   -208.24860778 </i>
    <i name="e_0_energy">   -210.49163809 </i>
   </energy>
  </scstep>
  <scstep>
   <time name="dav">   16.84   16.96</time>
   <time name="total">   17.32   17.43</time>
   <energy>
    <i name="e_fr_energy">   -212.62225644 </i>
    <i name="e_wo_entrp">   -207.91718885 </i>
    <i name="e_0_energy">   -210.26972265 </i>
   </energy>
  </scstep>
  <scstep>
   <time name="dav">   16.39   16.50</time>
   <time name="total">   16.87   16.99</time>
   <energy>
    <i name="e_fr_energy">   -226.92358568 </i>
    <i name="e_wo_entrp">   -222.79296421 </i>
    <i name="e_0_energy">   -224.85827495 </i>
   </energy>
  </scstep>
  <scstep>
   <time name="dav">   16.40   16.51</time>
   <time name="total">   16.86   16.98</time>
   <energy>
    <i name="e_fr_energy">   -203.00809947 </i>
    <i name="e_wo_entrp">   -197.83218087 </i>
    <i name="e_0_energy">   -200.42014017 </i>
   </energy>
  </scstep>
  <scstep>
   <time name="dav">   15.30   15.39</time>
   <time name="total">   15.76   15.86</time>
   <energy>
    <i name="e_fr_energy">   -202.14727505 </i>
    <i name="e_wo_entrp">   -196.89482231 </i>
    <i name="e_0_energy">   -199.52104868 </i>
   </energy>
  </scstep>
  <scstep>
   <time name="dav">   16.84   16.94</time>
   <time name="total">   17.29   17.40</time>
   <energy>
    <i name="e_fr_energy">   -200.46247914 </i>
    <i name="e_wo_entrp">   -195.14115024 </i>
    <i name="e_0_energy">   -197.80181469 </i>
   </energy>
  </scstep>
  <scstep>
   <time name="dav">   14.57   14.67</time>
   <time name="total">   15.03   15.13</time>
   <energy>
    <i name="e_fr_energy">   -200.29460348 </i>
    <i name="e_wo_entrp">   -194.99813971 </i>
    <i name="e_0_energy">   -197.64637160 </i>
   </energy>
  </scstep>
  <scstep>
   <time name="dav">   15.04   15.14</time>
   <time name="total">   15.50   15.61</time>
   <energy>
    <i name="e_fr_energy">   -199.84983013 </i>
    <i name="e_wo_entrp">   -194.44192861 </i>
    <i name="e_0_energy">   -197.14587937 </i>
   </energy>
  </scstep>
  <scstep>
   <time name="dav">   14.56   14.65</time>
   <time name="total">   15.02   15.12</time>
   <energy>
    <i name="e_fr_energy">   -199.84370486 </i>
    <i name="e_wo_entrp">   -194.45720697 </i>
    <i name="e_0_energy">   -197.15045592 </i>
   </energy>
  </scstep>
  <scstep>
   <time name="dav">   14.80   14.90</time>
   <time name="total">   15.26   15.37</time>
   <energy>
    <i name="e_fr_energy">   -199.80062074 </i>
    <i name="e_wo_entrp">   -194.39176097 </i>
    <i name="e_0_energy">   -197.09619085 </i>
   </energy>
  </scstep>
  <scstep>
   <time name="dav">   15.07   15.19</time>
   <time name="total">   15.53   15.66</time>
   <energy>
    <i name="e_fr_energy">   -199.79160729 </i>
    <i name="e_wo_entrp">   -194.37352777 </i>
    <i name="e_0_energy">   -197.08256753 </i>
   </energy>
  </scstep>
  <scstep>
   <time name="dav">   14.58   14.69</time>
   <time name="total">   15.04   15.16</time>
   <energy>
    <i name="e_fr_energy">   -199.78878726 </i>
    <i name="e_wo_entrp">   -194.36408141 </i>
    <i name="e_0_energy">   -197.07643433 </i>
   </energy>
  </scstep>
  <scstep>
   <time name="dav">   14.62   14.72</time>
   <time name="total">   15.09   15.19</time>
   <energy>
    <i name="e_fr_energy">   -199.78632406 </i>
    <i name="e_wo_entrp">   -194.36646953 </i>
    <i name="e_0_energy">   -197.07639679 </i>
   </energy>
  </scstep>
  <scstep>
   <time name="dav">   15.11   15.21</time>
   <time name="total">   15.57   15.68</time>
   <energy>
    <i name="e_fr_energy">   -199.78544442 </i>
    <i name="e_wo_entrp">   -194.36671850 </i>
    <i name="e_0_energy">   -197.07608146 </i>
   </energy>
  </scstep>
  <scstep>
   <time name="dav">   14.64   14.74</time>
   <time name="total">   15.11   15.21</time>
   <energy>
    <i name="e_fr_energy">   -199.78643868 </i>
    <i name="e_wo_entrp">   -194.36533719 </i>
    <i name="e_0_energy">   -197.07588794 </i>
   </energy>
  </scstep>
  <scstep>
   <time name="dav">   14.82   14.92</time>
   <time name="total">   15.27   15.39</time>
   <energy>
    <i name="e_fr_energy">   -199.78630239 </i>
    <i name="e_wo_entrp">   -194.36535002 </i>
    <i name="e_0_energy">   -197.07582620 </i>
   </energy>
  </scstep>
  <scstep>
   <time name="dav">   14.90   15.00</time>
   <time name="total">   15.36   15.46</time>
   <energy>
    <i name="e_fr_energy">   -199.78638426 </i>
    <i name="e_wo_entrp">   -194.36683481 </i>
    <i name="e_0_energy">   -197.07660954 </i>
   </energy>
  </scstep>
  <scstep>
   <time name="dav">   14.57   14.67</time>
   <time name="total">   15.03   15.14</time>
   <energy>
    <i name="e_fr_energy">   -199.78645753 </i>
    <i name="e_wo_entrp">   -194.36685369 </i>
    <i name="e_0_energy">   -197.07665561 </i>
   </energy>
  </scstep>
  <scstep>
   <time name="dav">   13.81   13.90</time>
   <time name="total">   14.27   14.37</time>
   <energy>
    <i name="e_fr_energy">   -199.78657739 </i>
    <i name="e_wo_entrp">   -194.36540115 </i>
    <i name="e_0_energy">   -197.07598927 </i>
   </energy>
  </scstep>
  <scstep>
   <time name="dav">   14.06   14.14</time>
   <time name="total">   14.52   14.61</time>
   <energy>
    <i name="e_fr_energy">   -199.78664400 </i>
    <i name="e_wo_entrp">   -194.36569835 </i>
    <i name="e_0_energy">   -197.07617117 </i>
   </energy>
  </scstep>
  <scstep>
   <time name="dav">   11.07   11.14</time>
   <time name="total">   11.53   11.60</time>
   <energy>
    <i name="e_fr_energy">   -199.78671035 </i>
    <i name="e_wo_entrp">   -194.36634845 </i>
    <i name="e_0_energy">   -197.07652940 </i>
   </energy>
  </scstep>
  <scstep>
   <time name="dav">   11.28   11.37</time>
   <time name="total">   11.75   11.84</time>
   <energy>
    <i name="e_fr_energy">   -199.78680698 </i>
    <i name="e_wo_entrp">   -194.36612636 </i>
    <i name="e_0_energy">   -197.07646667 </i>
   </energy>
  </scstep>
  <scstep>
   <time name="dav">   10.25   10.33</time>
   <time name="total">   10.71   10.80</time>
   <energy>
    <i name="e_fr_energy">   -199.78685691 </i>
    <i name="e_wo_entrp">   -194.36629628 </i>
    <i name="e_0_energy">   -197.07657659 </i>
   </energy>
  </scstep>
  <scstep>
   <time name="dav">   10.18   10.24</time>
   <time name="total">   10.64   10.71</time>
   <energy>
    <i name="e_fr_energy">   -199.78688708 </i>
    <i name="e_wo_entrp">   -194.36627052 </i>
    <i name="e_0_energy">   -197.07657880 </i>
   </energy>
  </scstep>
  <scstep>
   <time name="dav">   10.20   10.27</time>
   <time name="total">   10.67   10.74</time>
   <energy>
    <i name="e_fr_energy">   -199.78689980 </i>
    <i name="e_wo_entrp">   -194.36625054 </i>
    <i name="e_0_energy">   -197.07657517 </i>
   </energy>
  </scstep>
  <scstep>
   <time name="dav">   10.22   10.29</time>
   <time name="total">   10.33   10.40</time>
   <energy>
    <i name="alphaZ">    918.22725072 </i>
    <i name="ewald">  21513.28164545 </i>
    <i name="hartreedc"> -54055.81951105 </i>
    <i name="XCdc">  -1001.52906029 </i>
    <i name="pawpsdc">  35097.54227431 </i>
    <i name="pawaedc"> -32942.07850319 </i>
    <i name="eentropy">     -5.42056490 </i>
    <i name="bandstr">    114.14623455 </i>
    <i name="atom">  30161.86332653 </i>
    <i name="e_fr_energy">   -199.78690787 </i>
    <i name="e_wo_entrp">   -194.36634297 </i>
    <i name="e_0_energy">   -197.07662542 </i>
   </energy>
  </scstep>
  <structure>
   <crystal>
    <varray name="basis" >
     <v>       8.30990028       0.00000000       0.00000000 </v>
     <v>      -4.15495014       7.19658475       0.00000000 </v>
     <v>       0.00000000       0.00000000      16.52350044 </v>
    </varray>
    <i name="volume">    988.15327180 </i>
    <varray name="rec_basis" >
     <v>       0.12033839       0.06947740       0.00000000 </v>
     <v>       0.00000000       0.13895480       0.00000000 </v>
     <v>       0.00000000       0.00000000       0.06051986 </v>
    </varray>
   </crystal>
   <varray name="positions" >
    <v>       0.99878189       0.99788057       0.44016293 </v>
    <v>       0.11093000       0.22330000       0.16024000 </v>
    <v>       0.22208155       0.11308699       0.30031578 </v>
    <v>       0.33163210       0.00011250       0.44016211 </v>
    <v>       0.44426000       0.22330000       0.16024000 </v>
    <v>       0.55360127       0.11069473       0.29831087 </v>
    <v>       0.66502745       0.99921174       0.43624985 </v>
    <v>       0.77760000       0.22330000       0.16024000 </v>
    <v>       0.88857534       0.11164039       0.29929907 </v>
    <v>       0.99790260       0.33278817       0.44150896 </v>
    <v>       0.11093000       0.55664000       0.16024000 </v>
    <v>       0.22121350       0.44384839       0.29970995 </v>
    <v>       0.32798325       0.33523911       0.45313390 </v>
    <v>       0.44426000       0.55664000       0.16024000 </v>
    <v>       0.55183875       0.44323123       0.29978193 </v>
    <v>       0.66486176       0.33279689       0.43600019 </v>
    <v>       0.77760000       0.55664000       0.16024000 </v>
    <v>       0.88796720       0.44373286       0.29845546 </v>
    <v>       0.99742211       0.66515016       0.43572658 </v>
    <v>       0.11093000       0.88997000       0.16024000 </v>
    <v>       0.22215103       0.77844561       0.29892249 </v>
    <v>       0.33300074       0.66614487       0.43912866 </v>
    <v>       0.44426000       0.88997000       0.16024000 </v>
    <v>       0.55387140       0.77769706       0.29829110 </v>
    <v>       0.66592912       0.66617099       0.43621822 </v>
    <v>       0.77760000       0.88997000       0.16024000 </v>
    <v>       0.88809128       0.77883840       0.29811959 </v>
    <v>       0.99982000       0.00108000       0.02337000 </v>
    <v>       0.33315000       0.00108000       0.02337000 </v>
    <v>       0.66649000       0.00108000       0.02337000 </v>
    <v>       0.99982000       0.33441000       0.02337000 </v>
    <v>       0.33315000       0.33441000       0.02337000 </v>
    <v>       0.66649000       0.33441000       0.02337000 </v>
    <v>       0.99982000       0.66775000       0.02337000 </v>
    <v>       0.33315000       0.66775000       0.02337000 </v>
    <v>       0.66649000       0.66775000       0.02337000 </v>
    <v>       0.22412717       0.10537254       0.58940454 </v>
    <v>       0.23456727       0.37670319       0.57607437 </v>
    <v>       0.21199330       0.03253566       0.65073992 </v>
   </varray>
  </structure>
  <varray name="forces" >
   <v>       0.04225959       0.03857662       0.09101445 </v>
   <v>       0.01247632      -0.01060116       0.26437497 </v>
   <v>       0.00012421       0.05033304       0.14823607 </v>
   <v>      -0.09764521       0.08723480       0.17483696 </v>
   <v>      -0.03288881       0.01265398       0.23592276 </v>
   <v>      -0.02368532      -0.01514138       0.04783620 </v>
   <v>      -0.00721902       0.00546483      -0.01281938 </v>
   <v>       0.01163402       0.00425869       0.18460210 </v>
   <v>       0.01862652       0.00643632       0.05103902 </v>
   <v>       0.09321775       0.05711576       0.23779205 </v>
   <v>       0.00843480      -0.00901115       0.19267293 </v>
   <v>       0.00708525      -0.01557733       0.13162949 </v>
   <v>      -0.34436709       0.26801141       1.08481720 </v>
   <v>       0.00091284      -0.03807389       0.22922030 </v>
   <v>      -0.04175553      -0.02602902       0.12195135 </v>
   <v>      -0.01634443       0.00057595       0.02253566 </v>
   <v>      -0.01588592      -0.02451068       0.16298730 </v>
   <v>       0.02697964      -0.02136090       0.07093779 </v>
   <v>       0.01794109       0.01633495       0.03078248 </v>
   <v>       0.00177414       0.01500939       0.21351247 </v>
   <v>       0.00555891       0.02040211       0.06284048 </v>
   <v>      -0.04357897      -0.04501565       0.06758335 </v>
   <v>      -0.01763704      -0.01587446       0.16532581 </v>
   <v>      -0.00700674      -0.01119882       0.01075895 </v>
   <v>      -0.01171218       0.00625810       0.02691675 </v>
   <v>       0.01011328       0.00964974       0.18000809 </v>
   <v>       0.00206626       0.01316055       0.03912633 </v>
   <v>      -0.00100931       0.00079887      -0.13432744 </v>
   <v>       0.00438470       0.00289905      -0.14423768 </v>
   <v>      -0.00039813       0.00250274      -0.14105200 </v>
   <v>       0.00089607      -0.00114577      -0.14296734 </v>
   <v>       0.00201807       0.00075221      -0.14713991 </v>
   <v>      -0.00012183      -0.00594942      -0.14010918 </v>
   <v>       0.01218487      -0.00146081      -0.13825755 </v>
   <v>      -0.00236034       0.00179092      -0.14662978 </v>
   <v>      -0.00881344      -0.00148674      -0.13725657 </v>
   <v>      -0.10138899      -0.12163073      -0.54106372 </v>
   <v>       0.69118321      -0.74484013      -2.20357888 </v>
   <v>      -0.19605326       0.48868802      -0.21982188 </v>
  </varray>
  <varray name="stress" >
   <v>     -25.70129400       1.41722401       1.08057059 </v>
   <v>       1.41722417     -25.37829120      -0.03320048 </v>
   <v>       1.08057031      -0.03320031     -23.51749760 </v>
  </varray>
  <energy>
   <i name="e_fr_energy">   -199.78690787 </i>
   <i name="e_wo_entrp">   -194.36634297 </i>
   <i name="e_0_energy">   -197.07662542 </i>
  </energy>
  <time name="totalsc">  597.47  601.29</time>
 </calculation>
 <calculation>
  <scstep>
   <time name="dav">   13.97   14.06</time>
   <time name="total">   14.42   14.52</time>
   <energy>
    <i name="alphaZ">    918.22725072 </i>
    <i name="ewald">  21509.63561594 </i>
    <i name="hartreedc"> -54052.17088522 </i>
    <i name="XCdc">  -1001.52590857 </i>
    <i name="pawpsdc">  35097.50497540 </i>
    <i name="pawaedc"> -32942.04060541 </i>
    <i name="eentropy">     -5.41726544 </i>
    <i name="bandstr">    114.12309789 </i>
    <i name="atom">  30161.86332653 </i>
    <i name="e_fr_energy">   -199.80039815 </i>
    <i name="e_wo_entrp">   -194.38313271 </i>
    <i name="e_0_energy">   -197.09176543 </i>
   </energy>
  </scstep>
  <scstep>
   <time name="dav">   14.11   14.20</time>
   <time name="total">   14.57   14.67</time>
   <energy>
    <i name="e_fr_energy">   -199.80181166 </i>
    <i name="e_wo_entrp">   -194.37758962 </i>
    <i name="e_0_energy">   -197.08970064 </i>
   </energy>
  </scstep>
  <scstep>
   <time name="dav">   14.72   14.81</time>
   <time name="total">   15.18   15.27</time>
   <energy>
    <i name="e_fr_energy">   -199.80100436 </i>
    <i name="e_wo_entrp">   -194.38300062 </i>
    <i name="e_0_energy">   -197.09200249 </i>
   </energy>
  </scstep>
  <scstep>
   <time name="dav">   14.52   14.61</time>
   <time name="total">   14.98   15.07</time>
   <energy>
    <i name="e_fr_energy">   -199.80103058 </i>
    <i name="e_wo_entrp">   -194.38268122 </i>
    <i name="e_0_energy">   -197.09185590 </i>
   </energy>
  </scstep>
  <scstep>
   <time name="dav">   14.70   14.80</time>
   <time name="total">   15.16   15.26</time>
   <energy>
    <i name="e_fr_energy">   -199.80094598 </i>
    <i name="e_wo_entrp">   -194.38229274 </i>
    <i name="e_0_energy">   -197.09161936 </i>
   </energy>
  </scstep>
  <scstep>
   <time name="dav">   12.84   12.92</time>
   <time name="total">   13.30   13.39</time>
   <energy>
    <i name="e_fr_energy">   -199.80091569 </i>
    <i name="e_wo_entrp">   -194.38187524 </i>
    <i name="e_0_energy">   -197.09139547 </i>
   </energy>
  </scstep>
  <scstep>
   <time name="dav">   11.48   11.55</time>
   <time name="total">   11.58   11.66</time>
   <energy>
    <i name="alphaZ">    918.22725072 </i>
    <i name="ewald">  21509.63561594 </i>
    <i name="hartreedc"> -54052.40437738 </i>
    <i name="XCdc">  -1001.52295111 </i>
    <i name="pawpsdc">  35097.72664701 </i>
    <i name="pawaedc"> -32942.26259390 </i>
    <i name="eentropy">     -5.41874471 </i>
    <i name="bandstr">    114.35490937 </i>
    <i name="atom">  30161.86332653 </i>
    <i name="e_fr_energy">   -199.80091753 </i>
    <i name="e_wo_entrp">   -194.38217282 </i>
    <i name="e_0_energy">   -197.09154517 </i>
   </energy>
  </scstep>
  <structure>
   <crystal>
    <varray name="basis" >
     <v>       8.30990028       0.00000000       0.00000000 </v>
     <v>      -4.15495014       7.19658475       0.00000000 </v>
     <v>       0.00000000       0.00000000      16.52350044 </v>
    </varray>
    <i name="volume">    988.15327180 </i>
    <varray name="rec_basis" >
     <v>       0.12033839       0.06947740       0.00000000 </v>
     <v>       0.00000000       0.13895480       0.00000000 </v>
     <v>       0.00000000       0.00000000       0.06051986 </v>
    </varray>
   </crystal>
   <varray name="positions" >
    <v>       0.99879757       0.99789863       0.44016625 </v>
    <v>       0.11093000       0.22330000       0.16024000 </v>
    <v>       0.22209063       0.11310470       0.30033805 </v>
    <v>       0.33162204       0.00014298       0.44017779 </v>
    <v>       0.44426000       0.22330000       0.16024000 </v>
    <v>       0.55359446       0.11069154       0.29831766 </v>
    <v>       0.66502791       0.99921589       0.43624919 </v>
    <v>       0.77760000       0.22330000       0.16024000 </v>
    <v>       0.88858111       0.11164181       0.29930353 </v>
    <v>       0.99792957       0.33280243       0.44152546 </v>
    <v>       0.11093000       0.55664000       0.16024000 </v>
    <v>       0.22121419       0.44384470       0.29972992 </v>
    <v>       0.32792853       0.33533014       0.45327549 </v>
    <v>       0.44426000       0.55664000       0.16024000 </v>
    <v>       0.55182303       0.44322394       0.29979996 </v>
    <v>       0.66485600       0.33279782       0.43600512 </v>
    <v>       0.77760000       0.55664000       0.16024000 </v>
    <v>       0.88797203       0.44372833       0.29846496 </v>
    <v>       0.99743587       0.66516024       0.43573346 </v>
    <v>       0.11093000       0.88997000       0.16024000 </v>
    <v>       0.22215475       0.77845281       0.29892961 </v>
    <v>       0.33298317       0.66614120       0.43912456 </v>
    <v>       0.44426000       0.88997000       0.16024000 </v>
    <v>       0.55387110       0.77769475       0.29829105 </v>
    <v>       0.66592423       0.66617332       0.43622405 </v>
    <v>       0.77760000       0.88997000       0.16024000 </v>
    <v>       0.88809425       0.77884235       0.29812586 </v>
    <v>       0.99982000       0.00108000       0.02337000 </v>
    <v>       0.33315000       0.00108000       0.02337000 </v>
    <v>       0.66649000       0.00108000       0.02337000 </v>
    <v>       0.99982000       0.33441000       0.02337000 </v>
    <v>       0.33315000       0.33441000       0.02337000 </v>
    <v>       0.66649000       0.33441000       0.02337000 </v>
    <v>       0.99982000       0.66775000       0.02337000 </v>
    <v>       0.33315000       0.66775000       0.02337000 </v>
    <v>       0.66649000       0.66775000       0.02337000 </v>
    <v>       0.22411378       0.10557884       0.58947669 </v>
    <v>       0.23469465       0.37610317       0.57592495 </v>
    <v>       0.21203985       0.03265008       0.65079140 </v>
   </varray>
  </structure>
  <varray name="forces" >
   <v>       0.04193888       0.03828670       0.09252697 </v>
   <v>       0.01269134      -0.01040107       0.26576040 </v>
   <v>      -0.00001701       0.05022703       0.14760804 </v>
   <v>      -0.09756890       0.08826736       0.17625469 </v>
   <v>      -0.03320374       0.01273692       0.23724386 </v>
   <v>      -0.02381248      -0.01497988       0.04761116 </v>
   <v>      -0.00763407       0.00565043      -0.01221726 </v>
   <v>       0.01145223       0.00436859       0.18521927 </v>
   <v>       0.01834385       0.00624808       0.05060900 </v>
   <v>       0.08753923       0.05545905       0.23217918 </v>
   <v>       0.00842832      -0.00914434       0.19331762 </v>
   <v>       0.00702259      -0.01555129       0.13053805 </v>
   <v>      -0.33358312       0.26555805       1.07702101 </v>
   <v>       0.00075394      -0.03853073       0.23042980 </v>
   <v>      -0.04153833      -0.02587081       0.12098354 </v>
   <v>      -0.01702466       0.00087836       0.02328665 </v>
   <v>      -0.01597258      -0.02471388       0.16388238 </v>
   <v>       0.02635466      -0.02111739       0.07050654 </v>
   <v>       0.01683092       0.01547624       0.03056633 </v>
   <v>       0.00170410       0.01527851       0.21438216 </v>
   <v>       0.00500125       0.02057785       0.06203834 </v>
   <v>      -0.04391395      -0.04011530       0.06348235 </v>
   <v>      -0.01790873      -0.01578638       0.16584037 </v>
   <v>      -0.00689727      -0.01121642       0.01051009 </v>
   <v>      -0.01055953       0.00635063       0.02710963 </v>
   <v>       0.01018139       0.00965589       0.18061352 </v>
   <v>       0.00194941       0.01290040       0.03857443 </v>
   <v>      -0.00111131       0.00070759      -0.13471295 </v>
   <v>       0.00426682       0.00287142      -0.14457074 </v>
   <v>      -0.00047092       0.00245435      -0.14135438 </v>
   <v>       0.00079801      -0.00113251      -0.14344478 </v>
   <v>       0.00194175       0.00076656      -0.14725525 </v>
   <v>      -0.00025963      -0.00595811      -0.14037356 </v>
   <v>       0.01209677      -0.00142274      -0.13850754 </v>
   <v>      -0.00244669       0.00177622      -0.14698444 </v>
   <v>      -0.00893009      -0.00145548      -0.13763712 </v>
   <v>      -0.10539514      -0.11724358      -0.54682495 </v>
   <v>       0.69695372      -0.75394442      -2.18550220 </v>
   <v>      -0.19800102       0.49208811      -0.21871021 </v>
  </varray>
  <varray name="stress" >
   <v>     -25.70346390       1.42464928       1.08874667 </v>
   <v>       1.42464949     -25.40468308      -0.02379418 </v>
   <v>       1.08874661      -0.02379411     -23.53847944 </v>
  </varray>
  <energy>
   <i name="e_fr_energy">   -199.80091753 </i>
   <i name="e_wo_entrp">   -194.38217282 </i>
   <i name="e_0_energy">   -197.09154517 </i>
  </energy>
  <time name="totalsc">  177.07  178.21</time>
 </calculation>
 <calculation>
  <scstep>
   <time name="dav">   13.70   13.80</time>
   <time name="total">   14.16   14.26</time>
   <energy>
    <i name="alphaZ">    918.22725072 </i>
    <i name="ewald">  21502.59965773 </i>
    <i name="hartreedc"> -54045.29794719 </i>
    <i name="XCdc">  -1001.51566858 </i>
    <i name="pawpsdc">  35097.70854379 </i>
    <i name="pawaedc"> -32942.24522674 </i>
    <i name="eentropy">     -5.41164974 </i>
    <i name="bandstr">    114.24462092 </i>
    <i name="atom">  30161.86332653 </i>
    <i name="e_fr_energy">   -199.82709257 </i>
    <i name="e_wo_entrp">   -194.41544283 </i>
    <i name="e_0_energy">   -197.12126770 </i>
   </energy>
  </scstep>
  <scstep>
   <time name="dav">   13.99   14.08</time>
   <time name="total">   14.44   14.54</time>
   <energy>
    <i name="e_fr_energy">   -199.83299838 </i>
    <i name="e_wo_entrp">   -194.40730703 </i>
    <i name="e_0_energy">   -197.12015271 </i>
   </energy>
  </scstep>
  <scstep>
   <time name="dav">   14.56   14.65</time>
   <time name="total">   15.01   15.11</time>
   <energy>
    <i name="e_fr_energy">   -199.82951757 </i>
    <i name="e_wo_entrp">   -194.41622324 </i>
    <i name="e_0_energy">   -197.12287041 </i>
   </energy>
  </scstep>
  <scstep>
   <time name="dav">   14.38   14.47</time>
   <time name="total">   14.83   14.93</time>
   <energy>
    <i name="e_fr_energy">   -199.82955721 </i>
    <i name="e_wo_entrp">   -194.41577395 </i>
    <i name="e_0_energy">   -197.12266558 </i>
   </energy>
  </scstep>
  <scstep>
   <time name="dav">   14.78   14.87</time>
   <time name="total">   15.23   15.34</time>
   <energy>
    <i name="e_fr_energy">   -199.82926737 </i>
    <i name="e_wo_entrp">   -194.41463689 </i>
    <i name="e_0_energy">   -197.12195213 </i>
   </energy>
  </scstep>
  <scstep>
   <time name="dav">   14.16   14.25</time>
   <time name="total">   14.61   14.70</time>
   <energy>
    <i name="e_fr_energy">   -199.82913614 </i>
    <i name="e_wo_entrp">   -194.41378930 </i>
    <i name="e_0_energy">   -197.12146272 </i>
   </energy>
  </scstep>
  <scstep>
   <time name="dav">   14.64   14.74</time>
   <time name="total">   15.10   15.20</time>
   <energy>
    <i name="e_fr_energy">   -199.82915248 </i>
    <i name="e_wo_entrp">   -194.41450059 </i>
    <i name="e_0_energy">   -197.12182654 </i>
   </energy>
  </scstep>
  <scstep>
   <time name="dav">   14.04   14.13</time>
   <time name="total">   14.50   14.60</time>
   <energy>
    <i name="e_fr_energy">   -199.82910761 </i>
    <i name="e_wo_entrp">   -194.41454607 </i>
    <i name="e_0_energy">   -197.12182684 </i>
   </energy>
  </scstep>
  <scstep>
   <time name="dav">   10.45   10.51</time>
   <time name="total">   10.55   10.61</time>
   <energy>
    <i name="alphaZ">    918.22725072 </i>
    <i name="ewald">  21502.59965773 </i>
    <i name="hartreedc"> -54045.77295191 </i>
    <i name="XCdc">  -1001.50850476 </i>
    <i name="pawpsdc">  35098.35588683 </i>
    <i name="pawaedc"> -32942.89769952 </i>
    <i name="eentropy">     -5.41436020 </i>
    <i name="bandstr">    114.71829249 </i>
    <i name="atom">  30161.86332653 </i>
    <i name="e_fr_energy">   -199.82910208 </i>
    <i name="e_wo_entrp">   -194.41474188 </i>
    <i name="e_0_energy">   -197.12192198 </i>
   </energy>
  </scstep>
  <structure>
   <crystal>
    <varray name="basis" >
     <v>       8.30990028       0.00000000       0.00000000 </v>
     <v>      -4.15495014       7.19658475       0.00000000 </v>
     <v>       0.00000000       0.00000000      16.52350044 </v>
    </varray>
    <i name="volume">    988.15327180 </i>
    <varray name="rec_basis" >
     <v>       0.12033839       0.06947740       0.00000000 </v>
     <v>       0.00000000       0.13895480       0.00000000 </v>
     <v>       0.00000000       0.00000000       0.06051986 </v>
    </varray>
   </crystal>
   <varray name="positions" >
    <v>       0.99882847       0.99793432       0.44017327 </v>
    <v>       0.11093000       0.22330000       0.16024000 </v>
    <v>       0.22210868       0.11314012       0.30038248 </v>
    <v>       0.33160231       0.00020465       0.44020943 </v>
    <v>       0.44426000       0.22330000       0.16024000 </v>
    <v>       0.55358074       0.11068521       0.29833113 </v>
    <v>       0.66502857       0.99922424       0.43624798 </v>
    <v>       0.77760000       0.22330000       0.16024000 </v>
    <v>       0.88859239       0.11164449       0.29931232 </v>
    <v>       0.99797939       0.33282976       0.44155702 </v>
    <v>       0.11093000       0.55664000       0.16024000 </v>
    <v>       0.22121544       0.44383726       0.29976955 </v>
    <v>       0.32782361       0.33551164       0.45355794 </v>
    <v>       0.44426000       0.55664000       0.16024000 </v>
    <v>       0.55179157       0.44320933       0.29983582 </v>
    <v>       0.66484404       0.33279987       0.43601513 </v>
    <v>       0.77760000       0.55664000       0.16024000 </v>
    <v>       0.88798133       0.44371936       0.29848381 </v>
    <v>       0.99746230       0.66517968       0.43574710 </v>
    <v>       0.11093000       0.88997000       0.16024000 </v>
    <v>       0.22216189       0.77846728       0.29894358 </v>
    <v>       0.33294948       0.66613710       0.43911527 </v>
    <v>       0.44426000       0.88997000       0.16024000 </v>
    <v>       0.55387049       0.77769010       0.29829087 </v>
    <v>       0.66591513       0.66617794       0.43623573 </v>
    <v>       0.77760000       0.88997000       0.16024000 </v>
    <v>       0.88809998       0.77885001       0.29813819 </v>
    <v>       0.99982000       0.00108000       0.02337000 </v>
    <v>       0.33315000       0.00108000       0.02337000 </v>
    <v>       0.66649000       0.00108000       0.02337000 </v>
    <v>       0.99982000       0.33441000       0.02337000 </v>
    <v>       0.33315000       0.33441000       0.02337000 </v>
    <v>       0.66649000       0.33441000       0.02337000 </v>
    <v>       0.99982000       0.66775000       0.02337000 </v>
    <v>       0.33315000       0.66775000       0.02337000 </v>
    <v>       0.66649000       0.66775000       0.02337000 </v>
    <v>       0.22408437       0.10598705       0.58961425 </v>
    <v>       0.23494933       0.37490527       0.57562340 </v>
    <v>       0.21213209       0.03288594       0.65089033 </v>
   </varray>
  </structure>
  <varray name="forces" >
   <v>       0.04107681       0.03746650       0.09457901 </v>
   <v>       0.01319220      -0.00996051       0.26751000 </v>
   <v>      -0.00078240       0.04915018       0.14521818 </v>
   <v>      -0.09669607       0.08877214       0.17877046 </v>
   <v>      -0.03352886       0.01292093       0.23874787 </v>
   <v>      -0.02245919      -0.01478731       0.04707201 </v>
   <v>      -0.00817354       0.00613615      -0.01275487 </v>
   <v>       0.01142505       0.00465501       0.18583901 </v>
   <v>       0.01781665       0.00588237       0.04973840 </v>
   <v>       0.07632728       0.05183894       0.22103589 </v>
   <v>       0.00873476      -0.00935749       0.19402953 </v>
   <v>       0.00697912      -0.01530849       0.12804743 </v>
   <v>      -0.32605741       0.26071741       1.07241208 </v>
   <v>       0.00064117      -0.03923001       0.23176717 </v>
   <v>      -0.04166091      -0.02590238       0.12080217 </v>
   <v>      -0.01788240       0.00156126       0.02410279 </v>
   <v>      -0.01584899      -0.02503465       0.16493126 </v>
   <v>       0.02552847      -0.02049598       0.06986970 </v>
   <v>       0.01567342       0.01545094       0.03003258 </v>
   <v>       0.00186159       0.01589444       0.21527731 </v>
   <v>       0.00404647       0.02091199       0.06064124 </v>
   <v>      -0.04373259      -0.03093765       0.05552716 </v>
   <v>      -0.01816151      -0.01555832       0.16611490 </v>
   <v>      -0.00642655      -0.01089764       0.00977254 </v>
   <v>      -0.01007873       0.00741132       0.02740651 </v>
   <v>       0.01053537       0.00981072       0.18109689 </v>
   <v>       0.00206933       0.01244271       0.03763987 </v>
   <v>      -0.00104278       0.00062307      -0.13452815 </v>
   <v>       0.00425346       0.00284918      -0.14444122 </v>
   <v>      -0.00037475       0.00248650      -0.14121480 </v>
   <v>       0.00083585      -0.00099416      -0.14320331 </v>
   <v>       0.00198139       0.00086292      -0.14707499 </v>
   <v>      -0.00019963      -0.00586175      -0.14019125 </v>
   <v>       0.01222668      -0.00128104      -0.13830672 </v>
   <v>      -0.00242487       0.00182191      -0.14676350 </v>
   <v>      -0.00885175      -0.00129770      -0.13749904 </v>
   <v>      -0.11121789      -0.10921166      -0.56044916 </v>
   <v>       0.71282541      -0.77369192      -2.15443992 </v>
   <v>      -0.20242967       0.50014204      -0.21711501 </v>
  </varray>
  <varray name="stress" >
   <v>     -25.76084193       1.44506687       1.08811351 </v>
   <v>       1.44506689     -25.49744024      -0.01556441 </v>
   <v>       1.08811333      -0.01556441     -23.50373427 </v>
  </varray>
  <energy>
   <i name="e_fr_energy">   -199.82910208 </i>
   <i name="e_wo_entrp">   -194.41474188 </i>
   <i name="e_0_energy">   -197.12192198 </i>
  </energy>
  <time name="totalsc">  182.75  184.02</time>
 </calculation>
 <calculation>
  <scstep>
   <time name="dav">   13.87   13.96</time>
   <time name="total">   14.32   14.43</time>
   <energy>
    <i name="alphaZ">    918.22725072 </i>
    <i name="ewald">  21492.76695047 </i>
    <i name="hartreedc"> -54035.80691740 </i>
    <i name="XCdc">  -1001.49736922 </i>
    <i name="pawpsdc">  35098.31388110 </i>
    <i name="pawaedc"> -32942.85617328 </i>
    <i name="eentropy">     -5.40337658 </i>
    <i name="bandstr">    114.52490462 </i>
    <i name="atom">  30161.86332653 </i>
    <i name="e_fr_energy">   -199.86752304 </i>
    <i name="e_wo_entrp">   -194.46414646 </i>
    <i name="e_0_energy">   -197.16583475 </i>
   </energy>
  </scstep>
  <scstep>
   <time name="dav">   14.06   14.14</time>
   <time name="total">   14.51   14.61</time>
   <energy>
    <i name="e_fr_energy">   -199.88163480 </i>
    <i name="e_wo_entrp">   -194.45586034 </i>
    <i name="e_0_energy">   -197.16874757 </i>
   </energy>
  </scstep>
  <scstep>
   <time name="dav">   14.64   14.73</time>
   <time name="total">   15.09   15.19</time>
   <energy>
    <i name="e_fr_energy">   -199.87312392 </i>
    <i name="e_wo_entrp">   -194.46671342 </i>
    <i name="e_0_energy">   -197.16991867 </i>
   </energy>
  </scstep>
  <scstep>
   <time name="dav">   14.49   14.58</time>
   <time name="total">   14.94   15.04</time>
   <energy>
    <i name="e_fr_energy">   -199.87303085 </i>
    <i name="e_wo_entrp">   -194.46584012 </i>
    <i name="e_0_energy">   -197.16943548 </i>
   </energy>
  </scstep>
  <scstep>
   <time name="dav">   14.70   14.79</time>
   <time name="total">   15.16   15.26</time>
   <energy>
    <i name="e_fr_energy">   -199.87247441 </i>
    <i name="e_wo_entrp">   -194.46421035 </i>
    <i name="e_0_energy">   -197.16834238 </i>
   </energy>
  </scstep>
  <scstep>
   <time name="dav">   14.29   14.38</time>
   <time name="total">   14.74   14.84</time>
   <energy>
    <i name="e_fr_energy">   -199.87217917 </i>
    <i name="e_wo_entrp">   -194.46262946 </i>
    <i name="e_0_energy">   -197.16740431 </i>
   </energy>
  </scstep>
  <scstep>
   <time name="dav">   15.42   15.52</time>
   <time name="total">   15.87   15.98</time>
   <energy>
    <i name="e_fr_energy">   -199.87216142 </i>
    <i name="e_wo_entrp">   -194.46361367 </i>
    <i name="e_0_energy">   -197.16788755 </i>
   </energy>
  </scstep>
  <scstep>
   <time name="dav">   14.29   14.39</time>
   <time name="total">   14.75   14.85</time>
   <energy>
    <i name="e_fr_energy">   -199.87208537 </i>
    <i name="e_wo_entrp">   -194.46400792 </i>
    <i name="e_0_energy">   -197.16804664 </i>
   </energy>
  </scstep>
  <scstep>
   <time name="dav">   13.23   13.32</time>
   <time name="total">   13.68   13.78</time>
   <energy>
    <i name="e_fr_energy">   -199.87207523 </i>
    <i name="e_wo_entrp">   -194.46416028 </i>
    <i name="e_0_energy">   -197.16811776 </i>
   </energy>
  </scstep>
  <scstep>
   <time name="dav">    9.30    9.36</time>
   <time name="total">    9.40    9.46</time>
   <energy>
    <i name="alphaZ">    918.22725072 </i>
    <i name="ewald">  21492.76695047 </i>
    <i name="hartreedc"> -54036.54480904 </i>
    <i name="XCdc">  -1001.48657383 </i>
    <i name="pawpsdc">  35099.48313648 </i>
    <i name="pawaedc"> -32944.03524567 </i>
    <i name="eentropy">     -5.40799531 </i>
    <i name="bandstr">    115.26188283 </i>
    <i name="atom">  30161.86332653 </i>
    <i name="e_fr_energy">   -199.87207682 </i>
    <i name="e_wo_entrp">   -194.46408151 </i>
    <i name="e_0_energy">   -197.16807917 </i>
   </energy>
  </scstep>
  <structure>
   <crystal>
    <varray name="basis" >
     <v>       8.30990028       0.00000000       0.00000000 </v>
     <v>      -4.15495014       7.19658475       0.00000000 </v>
     <v>       0.00000000       0.00000000      16.52350044 </v>
    </varray>
    <i name="volume">    988.15327180 </i>
    <varray name="rec_basis" >
     <v>       0.12033839       0.06947740       0.00000000 </v>
     <v>       0.00000000       0.13895480       0.00000000 </v>
     <v>       0.00000000       0.00000000       0.06051986 </v>
    </varray>
   </crystal>
   <varray name="positions" >
    <v>       0.99887308       0.99798628       0.44018455 </v>
    <v>       0.11093000       0.22330000       0.16024000 </v>
    <v>       0.22213450       0.11319229       0.30044812 </v>
    <v>       0.33157367       0.00029753       0.44025758 </v>
    <v>       0.44426000       0.22330000       0.16024000 </v>
    <v>       0.55356130       0.11067576       0.29835097 </v>
    <v>       0.66502909       0.99923699       0.43624577 </v>
    <v>       0.77760000       0.22330000       0.16024000 </v>
    <v>       0.88860853       0.11164808       0.29932509 </v>
    <v>       0.99804178       0.33286685       0.44160007 </v>
    <v>       0.11093000       0.55664000       0.16024000 </v>
    <v>       0.22121719       0.44382617       0.29982782 </v>
    <v>       0.32766742       0.33578178       0.45398375 </v>
    <v>       0.44426000       0.55664000       0.16024000 </v>
    <v>       0.55174374       0.44318703       0.29988974 </v>
    <v>       0.66482531       0.33280352       0.43603027 </v>
    <v>       0.77760000       0.55664000       0.16024000 </v>
    <v>       0.88799467       0.44370636       0.29851170 </v>
    <v>       0.99750038       0.66520840       0.43576705 </v>
    <v>       0.11093000       0.88997000       0.16024000 </v>
    <v>       0.22217182       0.77848915       0.29896379 </v>
    <v>       0.33290378       0.66613997       0.43909825 </v>
    <v>       0.44426000       0.88997000       0.16024000 </v>
    <v>       0.55387000       0.77768336       0.29829024 </v>
    <v>       0.66590241       0.66618573       0.43625326 </v>
    <v>       0.77760000       0.88997000       0.16024000 </v>
    <v>       0.88810826       0.77886088       0.29815613 </v>
    <v>       0.99982000       0.00108000       0.02337000 </v>
    <v>       0.33315000       0.00108000       0.02337000 </v>
    <v>       0.66649000       0.00108000       0.02337000 </v>
    <v>       0.99982000       0.33441000       0.02337000 </v>
    <v>       0.33315000       0.33441000       0.02337000 </v>
    <v>       0.66649000       0.33441000       0.02337000 </v>
    <v>       0.99982000       0.66775000       0.02337000 </v>
    <v>       0.33315000       0.66775000       0.02337000 </v>
    <v>       0.66649000       0.66775000       0.02337000 </v>
    <v>       0.22403428       0.10658664       0.58979804 </v>
    <v>       0.23533355       0.37311593       0.57516154 </v>
    <v>       0.21226771       0.03325928       0.65102723 </v>
   </varray>
  </structure>
  <varray name="forces" >
   <v>       0.04064539       0.03684085       0.09794662 </v>
   <v>       0.01407265      -0.00945367       0.27040974 </v>
   <v>      -0.00048660       0.04836702       0.14231536 </v>
   <v>      -0.09509626       0.09067481       0.18237034 </v>
   <v>      -0.03407729       0.01322356       0.24184392 </v>
   <v>      -0.02265687      -0.01440263       0.04670014 </v>
   <v>      -0.00882493       0.00671851      -0.01253597 </v>
   <v>       0.01115713       0.00493480       0.18673578 </v>
   <v>       0.01731855       0.00506605       0.04846157 </v>
   <v>       0.06014906       0.04675521       0.20447436 </v>
   <v>       0.00908646      -0.00973801       0.19501173 </v>
   <v>       0.00709506      -0.01510080       0.12555744 </v>
   <v>      -0.30781258       0.25261404       1.05033558 </v>
   <v>       0.00065450      -0.04045838       0.23428541 </v>
   <v>      -0.04118779      -0.02427544       0.12030082 </v>
   <v>      -0.01952961       0.00255253       0.02550955 </v>
   <v>      -0.01593276      -0.02563215       0.16674091 </v>
   <v>       0.02271152      -0.01925878       0.06862806 </v>
   <v>       0.01306991       0.01436620       0.02929669 </v>
   <v>       0.00193706       0.01679932       0.21693207 </v>
   <v>       0.00190238       0.02111156       0.05804897 </v>
   <v>      -0.04384530      -0.01738030       0.04512014 </v>
   <v>      -0.01857784      -0.01518161       0.16678108 </v>
   <v>      -0.00556606      -0.01083457       0.00877485 </v>
   <v>      -0.00843034       0.00864093       0.02690285 </v>
   <v>       0.01104364       0.00982439       0.18194240 </v>
   <v>       0.00201685       0.01164718       0.03627423 </v>
   <v>      -0.00109532       0.00032443      -0.13477914 </v>
   <v>       0.00422141       0.00281247      -0.14433180 </v>
   <v>      -0.00024688       0.00238903      -0.14130112 </v>
   <v>       0.00079097      -0.00100206      -0.14355487 </v>
   <v>       0.00209554       0.00094051      -0.14707280 </v>
   <v>      -0.00027074      -0.00581661      -0.13990060 </v>
   <v>       0.01216453      -0.00109648      -0.13814637 </v>
   <v>      -0.00229632       0.00188946      -0.14697808 </v>
   <v>      -0.00880738      -0.00110476      -0.13765479 </v>
   <v>      -0.12116790      -0.09841980      -0.57556792 </v>
   <v>       0.73310536      -0.80278794      -2.09841543 </v>
   <v>      -0.20932920       0.51345112      -0.21746172 </v>
  </varray>
  <varray name="stress" >
   <v>     -25.76266178       1.46877016       1.08698403 </v>
   <v>       1.46877017     -25.56181642       0.01144111 </v>
   <v>       1.08698432       0.01144100     -23.38673808 </v>
  </varray>
  <energy>
   <i name="e_fr_energy">   -199.87207682 </i>
   <i name="e_wo_entrp">   -194.46408151 </i>
   <i name="e_0_energy">   -197.16807917 </i>
  </energy>
  <time name="totalsc">  182.15  183.47</time>
 </calculation>
 <calculation>
  <scstep>
   <time name="dav">   13.87   13.97</time>
   <time name="total">   14.33   14.43</time>
   <energy>
    <i name="alphaZ">    918.22725072 </i>
    <i name="ewald">  21481.15361971 </i>
    <i name="hartreedc"> -54024.74228813 </i>
    <i name="XCdc">  -1001.46922076 </i>
    <i name="pawpsdc">  35099.45122147 </i>
    <i name="pawaedc"> -32944.00349664 </i>
    <i name="eentropy">     -5.39229817 </i>
    <i name="bandstr">    114.98943986 </i>
    <i name="atom">  30161.86332653 </i>
    <i name="e_fr_energy">   -199.92244540 </i>
    <i name="e_wo_entrp">   -194.53014723 </i>
    <i name="e_0_energy">   -197.22629631 </i>
   </energy>
  </scstep>
  <scstep>
   <time name="dav">   14.33   14.42</time>
   <time name="total">   14.78   14.88</time>
   <energy>
    <i name="e_fr_energy">   -199.94918357 </i>
    <i name="e_wo_entrp">   -194.52510977 </i>
    <i name="e_0_energy">   -197.23714667 </i>
   </energy>
  </scstep>
  <scstep>
   <time name="dav">   14.89   14.98</time>
   <time name="total">   15.35   15.45</time>
   <energy>
    <i name="e_fr_energy">   -199.93261793 </i>
    <i name="e_wo_entrp">   -194.53526400 </i>
    <i name="e_0_energy">   -197.23394097 </i>
   </energy>
  </scstep>
  <scstep>
   <time name="dav">   14.77   14.86</time>
   <time name="total">   15.23   15.33</time>
   <energy>
    <i name="e_fr_energy">   -199.93203277 </i>
    <i name="e_wo_entrp">   -194.53373802 </i>
    <i name="e_0_energy">   -197.23288539 </i>
   </energy>
  </scstep>
  <scstep>
   <time name="dav">   14.88   14.98</time>
   <time name="total">   15.34   15.45</time>
   <energy>
    <i name="e_fr_energy">   -199.93132998 </i>
    <i name="e_wo_entrp">   -194.53177820 </i>
    <i name="e_0_energy">   -197.23155409 </i>
   </energy>
  </scstep>
  <scstep>
   <time name="dav">   14.62   14.71</time>
   <time name="total">   15.07   15.17</time>
   <energy>
    <i name="e_fr_energy">   -199.93072165 </i>
    <i name="e_wo_entrp">   -194.52931790 </i>
    <i name="e_0_energy">   -197.23001977 </i>
   </energy>
  </scstep>
  <scstep>
   <time name="dav">   15.98   16.09</time>
   <time name="total">   16.44   16.56</time>
   <energy>
    <i name="e_fr_energy">   -199.93067352 </i>
    <i name="e_wo_entrp">   -194.53075970 </i>
    <i name="e_0_energy">   -197.23071661 </i>
   </energy>
  </scstep>
  <scstep>
   <time name="dav">   14.43   14.52</time>
   <time name="total">   14.89   14.99</time>
   <energy>
    <i name="e_fr_energy">   -199.93052447 </i>
    <i name="e_wo_entrp">   -194.53136267 </i>
    <i name="e_0_energy">   -197.23094357 </i>
   </energy>
  </scstep>
  <scstep>
   <time name="dav">   14.37   14.46</time>
   <time name="total">   14.83   14.93</time>
   <energy>
    <i name="e_fr_energy">   -199.93051204 </i>
    <i name="e_wo_entrp">   -194.53152054 </i>
    <i name="e_0_energy">   -197.23101629 </i>
   </energy>
  </scstep>
  <scstep>
   <time name="dav">    9.54    9.60</time>
   <time name="total">    9.66    9.73</time>
   <energy>
    <i name="alphaZ">    918.22725072 </i>
    <i name="ewald">  21481.15361971 </i>
    <i name="hartreedc"> -54025.77275696 </i>
    <i name="XCdc">  -1001.45468898 </i>
    <i name="pawpsdc">  35101.40900569 </i>
    <i name="pawaedc"> -32945.97828943 </i>
    <i name="eentropy">     -5.39908894 </i>
    <i name="bandstr">    116.02110789 </i>
    <i name="atom">  30161.86332653 </i>
    <i name="e_fr_energy">   -199.93051377 </i>
    <i name="e_wo_entrp">   -194.53142482 </i>
    <i name="e_0_energy">   -197.23096930 </i>
   </energy>
  </scstep>
  <structure>
   <crystal>
    <varray name="basis" >
     <v>       8.30990028       0.00000000       0.00000000 </v>
     <v>      -4.15495014       7.19658475       0.00000000 </v>
     <v>       0.00000000       0.00000000      16.52350044 </v>
    </varray>
    <i name="volume">    988.15327180 </i>
    <varray name="rec_basis" >
     <v>       0.12033839       0.06947740       0.00000000 </v>
     <v>       0.00000000       0.13895480       0.00000000 </v>
     <v>       0.00000000       0.00000000       0.06051986 </v>
    </varray>
   </crystal>
   <varray name="positions" >
    <v>       0.99893138       0.99805355       0.44020220 </v>
    <v>       0.11093000       0.22330000       0.16024000 </v>
    <v>       0.22216892       0.11326139       0.30053453 </v>
    <v>       0.33153808       0.00042446       0.44032427 </v>
    <v>       0.44426000       0.22330000       0.16024000 </v>
    <v>       0.55353472       0.11066320       0.29837715 </v>
    <v>       0.66502889       0.99925426       0.43624254 </v>
    <v>       0.77760000       0.22330000       0.16024000 </v>
    <v>       0.88862885       0.11165174       0.29934156 </v>
    <v>       0.99810231       0.33290966       0.44165024 </v>
    <v>       0.11093000       0.55664000       0.16024000 </v>
    <v>       0.22121935       0.44381113       0.29990433 </v>
    <v>       0.32746850       0.33613794       0.45455045 </v>
    <v>       0.44426000       0.55664000       0.16024000 </v>
    <v>       0.55168031       0.44315867       0.29996213 </v>
    <v>       0.66479827       0.33280955       0.43605090 </v>
    <v>       0.77760000       0.55664000       0.16024000 </v>
    <v>       0.88800961       0.44369010       0.29854825 </v>
    <v>       0.99754625       0.66524434       0.43579275 </v>
    <v>       0.11093000       0.88997000       0.16024000 </v>
    <v>       0.22218256       0.77851845       0.29898925 </v>
    <v>       0.33285137       0.66616099       0.43907098 </v>
    <v>       0.44426000       0.88997000       0.16024000 </v>
    <v>       0.55386988       0.77767415       0.29828882 </v>
    <v>       0.66588828       0.66619744       0.43627611 </v>
    <v>       0.77760000       0.88997000       0.16024000 </v>
    <v>       0.88811842       0.77887410       0.29817912 </v>
    <v>       0.99982000       0.00108000       0.02337000 </v>
    <v>       0.33315000       0.00108000       0.02337000 </v>
    <v>       0.66649000       0.00108000       0.02337000 </v>
[...]
    <v>       0.44426000       0.88997000       0.16024000 </v>
    <v>       0.55694448       0.78276770       0.29747181 </v>
    <v>       0.67023028       0.67556749       0.43568678 </v>
    <v>       0.77760000       0.88997000       0.16024000 </v>
    <v>       0.89095327       0.78313391       0.29875584 </v>
    <v>       0.99982000       0.00108000       0.02337000 </v>
    <v>       0.33315000       0.00108000       0.02337000 </v>
    <v>       0.66649000       0.00108000       0.02337000 </v>
    <v>       0.99982000       0.33441000       0.02337000 </v>
    <v>       0.33315000       0.33441000       0.02337000 </v>
    <v>       0.66649000       0.33441000       0.02337000 </v>
    <v>       0.99982000       0.66775000       0.02337000 </v>
    <v>       0.33315000       0.66775000       0.02337000 </v>
    <v>       0.66649000       0.66775000       0.02337000 </v>
    <v>       0.17941034       0.03549997       0.53653353 </v>
    <v>       0.15263200       0.23378296       0.52024728 </v>
    <v>       0.16846567      -0.00876152       0.60544784 </v>
   </varray>
  </structure>
  <varray name="forces" >
   <v>       0.00010444      -0.01093546      -0.00713415 </v>
   <v>      -0.02628102       0.00543565       0.13291302 </v>
   <v>      -0.00072824      -0.00430369      -0.00217517 </v>
   <v>       0.00264081      -0.01361471      -0.00498645 </v>
   <v>       0.03686115       0.03881699       0.17192542 </v>
   <v>      -0.00098181      -0.00499365      -0.00153568 </v>
   <v>      -0.00064360      -0.00901618      -0.00047006 </v>
   <v>      -0.03595095       0.04242974       0.12133872 </v>
   <v>      -0.00111773      -0.00399099      -0.00126772 </v>
   <v>       0.00280308      -0.01219136      -0.00109843 </v>
   <v>      -0.05254265       0.02592349       0.10227279 </v>
   <v>      -0.00011168      -0.00378038      -0.00007139 </v>
   <v>      -0.00146727      -0.01552843       0.00212381 </v>
   <v>       0.03382011       0.00698319       0.11875811 </v>
   <v>      -0.00251512      -0.00468990       0.00102341 </v>
   <v>       0.00090761      -0.01037132      -0.00089479 </v>
   <v>       0.04497457       0.01694825       0.11421981 </v>
   <v>      -0.00178207      -0.00506089      -0.00192238 </v>
   <v>       0.00038406      -0.01129383      -0.00399078 </v>
   <v>      -0.01453429       0.00616280       0.16551744 </v>
   <v>      -0.00099593      -0.00566484      -0.00071363 </v>
   <v>       0.00046181      -0.01235741       0.00096186 </v>
   <v>      -0.02647875       0.05985180       0.17047767 </v>
   <v>      -0.00008574      -0.00193908       0.00014875 </v>
   <v>      -0.00192069      -0.01273967      -0.00048029 </v>
   <v>       0.03227052       0.03000270       0.16291957 </v>
   <v>      -0.00138473      -0.00452714      -0.00058625 </v>
   <v>       0.00041915      -0.00393938      -0.13066775 </v>
   <v>       0.00981773      -0.00955147      -0.15334874 </v>
   <v>      -0.00863051      -0.01216633      -0.14452463 </v>
   <v>       0.01813662      -0.00611363      -0.12781144 </v>
   <v>      -0.00616332      -0.00131710      -0.14467185 </v>
   <v>      -0.01102144      -0.02097102      -0.12123522 </v>
   <v>       0.02889138       0.01874524      -0.13846995 </v>
   <v>       0.00265960       0.00621133      -0.16098360 </v>
   <v>      -0.02281329       0.00565484      -0.13951681 </v>
   <v>      -0.01050315      -0.00252811       0.01062610 </v>
   <v>       0.02279834      -0.02466511       0.02075463 </v>
   <v>      -0.00929699      -0.03491493      -0.00742394 </v>
  </varray>
  <varray name="stress" >
   <v>     -16.88676380       2.19750392      -0.01795429 </v>
   <v>       2.19750389     -14.85289099      -1.75473078 </v>
   <v>      -0.01795435      -1.75473060      -5.46864413 </v>
  </varray>
  <energy>
   <i name="e_fr_energy">   -202.35751659 </i>
   <i name="e_wo_entrp">   -197.26688246 </i>
   <i name="e_0_energy">   -199.81219952 </i>
  </energy>
  <time name="totalsc">  161.04  161.95</time>
 </calculation>
 <calculation>
  <scstep>
   <time name="dav">   13.60   13.69</time>
   <time name="total">   14.05   14.15</time>
   <energy>
    <i name="alphaZ">    918.22725072 </i>
    <i name="ewald">  24213.60446997 </i>
    <i name="hartreedc"> -56753.32198779 </i>
    <i name="XCdc">   -998.45990386 </i>
    <i name="pawpsdc">  35451.18796944 </i>
    <i name="pawaedc"> -33299.25281277 </i>
    <i name="eentropy">     -5.09072607 </i>
    <i name="bandstr">    108.88486165 </i>
    <i name="atom">  30161.86332653 </i>
    <i name="e_fr_energy">   -202.35755218 </i>
    <i name="e_wo_entrp">   -197.26682611 </i>
    <i name="e_0_energy">   -199.81218914 </i>
   </energy>
  </scstep>
  <scstep>
   <time name="dav">   11.90   11.98</time>
   <time name="total">   12.36   12.44</time>
   <energy>
    <i name="e_fr_energy">   -202.35756533 </i>
    <i name="e_wo_entrp">   -197.26715005 </i>
    <i name="e_0_energy">   -199.81235769 </i>
   </energy>
  </scstep>
  <scstep>
   <time name="dav">    9.03    9.09</time>
   <time name="total">    9.48    9.54</time>
   <energy>
    <i name="e_fr_energy">   -202.35755667 </i>
    <i name="e_wo_entrp">   -197.26689727 </i>
    <i name="e_0_energy">   -199.81222697 </i>
   </energy>
  </scstep>
  <scstep>
   <time name="dav">    8.60    8.66</time>
   <time name="total">    8.70    8.76</time>
   <energy>
    <i name="alphaZ">    918.22725072 </i>
    <i name="ewald">  24213.60446997 </i>
    <i name="hartreedc"> -56753.30936783 </i>
    <i name="XCdc">   -998.45993264 </i>
    <i name="pawpsdc">  35451.17752433 </i>
    <i name="pawaedc"> -33299.24258556 </i>
    <i name="eentropy">     -5.09062670 </i>
    <i name="bandstr">    108.87238394 </i>
    <i name="atom">  30161.86332653 </i>
    <i name="e_fr_energy">   -202.35755724 </i>
    <i name="e_wo_entrp">   -197.26693054 </i>
    <i name="e_0_energy">   -199.81224389 </i>
   </energy>
  </scstep>
  <structure>
   <crystal>
    <varray name="basis" >
     <v>       8.30990028       0.00000000       0.00000000 </v>
     <v>      -4.15495014       7.19658475       0.00000000 </v>
     <v>       0.00000000       0.00000000      16.52350044 </v>
    </varray>
    <i name="volume">    988.15327180 </i>
    <varray name="rec_basis" >
     <v>       0.12033839       0.06947740       0.00000000 </v>
     <v>       0.00000000       0.13895480       0.00000000 </v>
     <v>       0.00000000       0.00000000       0.06051986 </v>
    </varray>
   </crystal>
   <varray name="positions" >
    <v>       0.99081138       0.99513879       0.44137130 </v>
    <v>       0.11093000       0.22330000       0.16024000 </v>
    <v>       0.22274799       0.11578592       0.29794767 </v>
    <v>       0.33291814       0.01562676       0.44532639 </v>
    <v>       0.44426000       0.22330000       0.16024000 </v>
    <v>       0.55380809       0.11446912       0.29971071 </v>
    <v>       0.66534783       1.00798347       0.43628801 </v>
    <v>       0.77760000       0.22330000       0.16024000 </v>
    <v>       0.89005858       0.11540556       0.29900960 </v>
    <v>       1.00391643       0.34281430       0.44092992 </v>
    <v>       0.11093000       0.55664000       0.16024000 </v>
    <v>       0.22316370       0.45001094       0.29738956 </v>
    <v>       0.35049597       0.35526495       0.43424044 </v>
    <v>       0.44426000       0.55664000       0.16024000 </v>
    <v>       0.55732109       0.44935458       0.29859990 </v>
    <v>       0.67465030       0.34292041       0.43648862 </v>
    <v>       0.77760000       0.55664000       0.16024000 </v>
    <v>       0.89131487       0.44701291       0.29902537 </v>
    <v>       1.00190672       0.66924541       0.43570223 </v>
    <v>       0.11093000       0.88997000       0.16024000 </v>
    <v>       0.22418593       0.78443261       0.29848610 </v>
    <v>       0.33798339       0.68180593       0.43578024 </v>
    <v>       0.44426000       0.88997000       0.16024000 </v>
    <v>       0.55694354       0.78276629       0.29747180 </v>
    <v>       0.67021906       0.67555163       0.43568651 </v>
    <v>       0.77760000       0.88997000       0.16024000 </v>
    <v>       0.89094926       0.78312940       0.29875604 </v>
    <v>       0.99982000       0.00108000       0.02337000 </v>
    <v>       0.33315000       0.00108000       0.02337000 </v>
    <v>       0.66649000       0.00108000       0.02337000 </v>
    <v>       0.99982000       0.33441000       0.02337000 </v>
    <v>       0.33315000       0.33441000       0.02337000 </v>
    <v>       0.66649000       0.33441000       0.02337000 </v>
    <v>       0.99982000       0.66775000       0.02337000 </v>
    <v>       0.33315000       0.66775000       0.02337000 </v>
    <v>       0.66649000       0.66775000       0.02337000 </v>
    <v>       0.17939303       0.03545175       0.53653292 </v>
    <v>       0.15262400       0.23374963       0.52024960 </v>
    <v>       0.16843174      -0.00882646       0.60544228 </v>
   </varray>
  </structure>
  <varray name="forces" >
   <v>       0.00033194      -0.01076495      -0.00712503 </v>
   <v>      -0.02625483       0.00538416       0.13317100 </v>
   <v>      -0.00065627      -0.00440200      -0.00236423 </v>
   <v>       0.00231319      -0.01284667      -0.00479911 </v>
   <v>       0.03688174       0.03879487       0.17221496 </v>
   <v>      -0.00134709      -0.00427594      -0.00108589 </v>
   <v>      -0.00055349      -0.00915169      -0.00077840 </v>
   <v>      -0.03598023       0.04238662       0.12156739 </v>
   <v>      -0.00108188      -0.00400006      -0.00137289 </v>
   <v>       0.00295189      -0.01233708      -0.00111747 </v>
   <v>      -0.05255339       0.02594141       0.10254123 </v>
   <v>      -0.00008512      -0.00382447      -0.00000612 </v>
   <v>      -0.00157401      -0.01581428       0.00206736 </v>
   <v>       0.03387204       0.00701489       0.11908855 </v>
   <v>      -0.00255732      -0.00479001       0.00099639 </v>
   <v>       0.00089491      -0.01054787      -0.00115978 </v>
   <v>       0.04493970       0.01695164       0.11452251 </v>
   <v>      -0.00169832      -0.00515604      -0.00196008 </v>
   <v>       0.00050464      -0.01153827      -0.00438739 </v>
   <v>      -0.01452950       0.00612953       0.16582641 </v>
   <v>      -0.00091584      -0.00563307      -0.00084009 </v>
   <v>       0.00050046      -0.01257719       0.00065476 </v>
   <v>      -0.02649938       0.05983503       0.17080080 </v>
   <v>      -0.00018321      -0.00222788       0.00004627 </v>
   <v>      -0.00196032      -0.01285763      -0.00071140 </v>
   <v>       0.03229913       0.02995724       0.16319911 </v>
   <v>      -0.00138558      -0.00457249      -0.00072654 </v>
   <v>       0.00044721      -0.00393111      -0.13070412 </v>
   <v>       0.00982106      -0.00953088      -0.15333501 </v>
   <v>      -0.00860694      -0.01214831      -0.14456702 </v>
   <v>       0.01815289      -0.00610489      -0.12794661 </v>
   <v>      -0.00613203      -0.00131577      -0.14476779 </v>
   <v>      -0.01101379      -0.02095907      -0.12130036 </v>
   <v>       0.02889275       0.01876187      -0.13851294 </v>
   <v>       0.00268027       0.00622275      -0.16108429 </v>
   <v>      -0.02277938       0.00565904      -0.13957675 </v>
   <v>      -0.01052514      -0.00211975       0.00741374 </v>
   <v>       0.02249560      -0.02426060       0.02056327 </v>
   <v>      -0.00910636      -0.03535108      -0.00444442 </v>
  </varray>
  <varray name="stress" >
   <v>     -16.88224426       2.19637629      -0.01836100 </v>
   <v>       2.19637614     -14.84327514      -1.74894541 </v>
   <v>      -0.01836115      -1.74894561      -5.47346492 </v>
  </varray>
  <energy>
   <i name="e_fr_energy">   -202.35755724 </i>
   <i name="e_wo_entrp">   -197.26693054 </i>
   <i name="e_0_energy">   -199.81224389 </i>
  </energy>
  <time name="totalsc">  167.07  167.97</time>
 </calculation>
 <calculation>
  <scstep>
   <time name="dav">   13.61   13.69</time>
   <time name="total">   14.06   14.16</time>
   <energy>
    <i name="alphaZ">    918.22725072 </i>
    <i name="ewald">  24213.83858870 </i>
    <i name="hartreedc"> -56753.53975864 </i>
    <i name="XCdc">   -998.45990876 </i>
    <i name="pawpsdc">  35451.17585414 </i>
    <i name="pawaedc"> -33299.24092575 </i>
    <i name="eentropy">     -5.09075009 </i>
    <i name="bandstr">    108.86872391 </i>
    <i name="atom">  30161.86332653 </i>
    <i name="e_fr_energy">   -202.35759924 </i>
    <i name="e_wo_entrp">   -197.26684915 </i>
    <i name="e_0_energy">   -199.81222420 </i>
   </energy>
  </scstep>
  <scstep>
   <time name="dav">   13.40   13.48</time>
   <time name="total">   13.85   13.94</time>
   <energy>
    <i name="e_fr_energy">   -202.35763962 </i>
    <i name="e_wo_entrp">   -197.26755369 </i>
    <i name="e_0_energy">   -199.81259666 </i>
   </energy>
  </scstep>
  <scstep>
   <time name="dav">    9.54    9.60</time>
   <time name="total">   10.00   10.07</time>
   <energy>
    <i name="e_fr_energy">   -202.35760675 </i>
    <i name="e_wo_entrp">   -197.26695247 </i>
    <i name="e_0_energy">   -199.81227961 </i>
   </energy>
  </scstep>
  <scstep>
   <time name="dav">    8.83    8.89</time>
   <time name="total">    8.94    9.00</time>
   <energy>
    <i name="alphaZ">    918.22725072 </i>
    <i name="ewald">  24213.83858870 </i>
    <i name="hartreedc"> -56753.53712127 </i>
    <i name="XCdc">   -998.45990595 </i>
    <i name="pawpsdc">  35451.18406183 </i>
    <i name="pawaedc"> -33299.24934051 </i>
    <i name="eentropy">     -5.09067903 </i>
    <i name="bandstr">    108.86621256 </i>
    <i name="atom">  30161.86332653 </i>
    <i name="e_fr_energy">   -202.35760642 </i>
    <i name="e_wo_entrp">   -197.26692739 </i>
    <i name="e_0_energy">   -199.81226690 </i>
   </energy>
  </scstep>
  <structure>
   <crystal>
    <varray name="basis" >
     <v>       8.30990028       0.00000000       0.00000000 </v>
     <v>      -4.15495014       7.19658475       0.00000000 </v>
     <v>       0.00000000       0.00000000      16.52350044 </v>
    </varray>
    <i name="volume">    988.15327180 </i>
    <varray name="rec_basis" >
     <v>       0.12033839       0.06947740       0.00000000 </v>
     <v>       0.00000000       0.13895480       0.00000000 </v>
     <v>       0.00000000       0.00000000       0.06051986 </v>
    </varray>
   </crystal>
   <varray name="positions" >
    <v>       0.99080303       0.99512362       0.44136775 </v>
    <v>       0.11093000       0.22330000       0.16024000 </v>
    <v>       0.22274386       0.11577997       0.29794611 </v>
    <v>       0.33291154       0.01560655       0.44532372 </v>
    <v>       0.44426000       0.22330000       0.16024000 </v>
    <v>       0.55380274       0.11446323       0.29970993 </v>
    <v>       0.66533924       1.00796984       0.43628713 </v>
    <v>       0.77760000       0.22330000       0.16024000 </v>
    <v>       0.89005408       0.11540026       0.29900862 </v>
    <v>       1.00390983       0.34279665       0.44092982 </v>
    <v>       0.11093000       0.55664000       0.16024000 </v>
    <v>       0.22316079       0.45000551       0.29738963 </v>
    <v>       0.35048160       0.35524013       0.43424356 </v>
    <v>       0.44426000       0.55664000       0.16024000 </v>
    <v>       0.55731362       0.44934780       0.29860086 </v>
    <v>       0.67464260       0.34290481       0.43648778 </v>
    <v>       0.77760000       0.55664000       0.16024000 </v>
    <v>       0.89130845       0.44700581       0.29902454 </v>
    <v>       1.00189789       0.66922798       0.43570066 </v>
    <v>       0.11093000       0.88997000       0.16024000 </v>
    <v>       0.22417993       0.78442399       0.29848562 </v>
    <v>       0.33797477       0.68178636       0.43578074 </v>
    <v>       0.44426000       0.88997000       0.16024000 </v>
    <v>       0.55694192       0.78276394       0.29747171 </v>
    <v>       0.67020490       0.67553156       0.43568598 </v>
    <v>       0.77760000       0.88997000       0.16024000 </v>
    <v>       0.89094419       0.78312363       0.29875616 </v>
    <v>       0.99982000       0.00108000       0.02337000 </v>
    <v>       0.33315000       0.00108000       0.02337000 </v>
    <v>       0.66649000       0.00108000       0.02337000 </v>
    <v>       0.99982000       0.33441000       0.02337000 </v>
    <v>       0.33315000       0.33441000       0.02337000 </v>
    <v>       0.66649000       0.33441000       0.02337000 </v>
    <v>       0.99982000       0.66775000       0.02337000 </v>
    <v>       0.33315000       0.66775000       0.02337000 </v>
    <v>       0.66649000       0.66775000       0.02337000 </v>
    <v>       0.17937191       0.03539424       0.53652991 </v>
    <v>       0.15261467       0.23370878       0.52025277 </v>
    <v>       0.16838928      -0.00890755       0.60543776 </v>
   </varray>
  </structure>
  <varray name="forces" >
   <v>       0.00025506      -0.01092314      -0.00701883 </v>
   <v>      -0.02628712       0.00534985       0.13275027 </v>
   <v>      -0.00049547      -0.00371847      -0.00283518 </v>
   <v>       0.00201959      -0.01291262      -0.00404351 </v>
   <v>       0.03688211       0.03877986       0.17183350 </v>
   <v>      -0.00127024      -0.00437851      -0.00124710 </v>
   <v>      -0.00044324      -0.00925491      -0.00057392 </v>
   <v>      -0.03600069       0.04232497       0.12116435 </v>
   <v>      -0.00104599      -0.00398727      -0.00139237 </v>
   <v>       0.00234528      -0.01237979      -0.00019699 </v>
   <v>      -0.05256940       0.02585291       0.10216089 </v>
   <v>      -0.00010280      -0.00387177       0.00003005 </v>
   <v>      -0.00078950      -0.01511894       0.00210416 </v>
   <v>       0.03387230       0.00696693       0.11876448 </v>
   <v>      -0.00246726      -0.00476808       0.00081284 </v>
   <v>       0.00082314      -0.01056848      -0.00089196 </v>
   <v>       0.04488267       0.01687298       0.11424822 </v>
   <v>      -0.00166155      -0.00514056      -0.00210266 </v>
   <v>       0.00045912      -0.01154076      -0.00409501 </v>
   <v>      -0.01456110       0.00603238       0.16544835 </v>
   <v>      -0.00086900      -0.00559869      -0.00092774 </v>
   <v>       0.00049425      -0.01259554       0.00079828 </v>
   <v>      -0.02652214       0.05976371       0.17044635 </v>
   <v>      -0.00024445      -0.00240403      -0.00007364 </v>
   <v>      -0.00186770      -0.01276984      -0.00056803 </v>
   <v>       0.03230247       0.02988419       0.16280697 </v>
   <v>      -0.00137607      -0.00467957      -0.00084178 </v>
   <v>       0.00044335      -0.00395969      -0.13057244 </v>
   <v>       0.00981854      -0.00955726      -0.15320750 </v>
   <v>      -0.00860658      -0.01217464      -0.14443376 </v>
   <v>       0.01815925      -0.00612551      -0.12781011 </v>
   <v>      -0.00613299      -0.00133524      -0.14463654 </v>
   <v>      -0.01102225      -0.02098972      -0.12116136 </v>
   <v>       0.02889578       0.01874625      -0.13837165 </v>
   <v>       0.00268005       0.00619556      -0.16094658 </v>
   <v>      -0.02278076       0.00563518      -0.13942576 </v>
   <v>      -0.01052630      -0.00235401       0.00860190 </v>
   <v>       0.02248877      -0.02436835       0.02102338 </v>
   <v>      -0.00917910      -0.03492936      -0.00561958 </v>
  </varray>
  <varray name="stress" >
   <v>     -16.88254667       2.19752431      -0.02089929 </v>
   <v>       2.19752434     -14.84016982      -1.74362331 </v>
   <v>      -0.02089921      -1.74362331      -5.46203954 </v>
  </varray>
  <energy>
   <i name="e_fr_energy">   -202.35760642 </i>
   <i name="e_wo_entrp">   -197.26692739 </i>
   <i name="e_0_energy">   -199.81226690 </i>
  </energy>
