PBE-grap                                
           1
     8.309900    0.000000    0.000000
    -4.154950    7.196585    0.000000
     0.000000    0.000000   16.523500
   Pd   C    O 
    36     1     2
Direct configuration=     1
   0.99879757  0.99789863  0.44016625
   0.11093000  0.22330000  0.16024000
   0.22209063  0.11310470  0.30033805
   0.33162204  0.00014298  0.44017779
   0.44426000  0.22330000  0.16024000
   0.55359446  0.11069154  0.29831766
   0.66502791  0.99921589  0.43624919
   0.77760000  0.22330000  0.16024000
   0.88858111  0.11164181  0.29930353
   0.99792957  0.33280243  0.44152546
   0.11093000  0.55664000  0.16024000
   0.22121419  0.44384470  0.29972992
   0.32792853  0.33533014  0.45327549
   0.44426000  0.55664000  0.16024000
   0.55182303  0.44322394  0.29979996
   0.66485600  0.33279782  0.43600512
   0.77760000  0.55664000  0.16024000
   0.88797203  0.44372833  0.29846496
   0.99743587  0.66516024  0.43573346
   0.11093000  0.88997000  0.16024000
   0.22215475  0.77845281  0.29892961
   0.33298317  0.66614120  0.43912456
   0.44426000  0.88997000  0.16024000
   0.55387110  0.77769475  0.29829105
   0.66592423  0.66617332  0.43622405
   0.77760000  0.88997000  0.16024000
   0.88809425  0.77884235  0.29812586
   0.99982000  0.00108000  0.02337000
   0.33315000  0.00108000  0.02337000
   0.66649000  0.00108000  0.02337000
   0.99982000  0.33441000  0.02337000
   0.33315000  0.33441000  0.02337000
   0.66649000  0.33441000  0.02337000
   0.99982000  0.66775000  0.02337000
   0.33315000  0.66775000  0.02337000
   0.66649000  0.66775000  0.02337000
   0.22411378  0.10557884  0.58947669
   0.23469465  0.37610317  0.57592495
   0.21203985  0.03265008  0.65079140
Direct configuration=     2
   0.99882847  0.99793432  0.44017327
   0.11093000  0.22330000  0.16024000
   0.22210868  0.11314012  0.30038248
   0.33160231  0.00020465  0.44020943
   0.44426000  0.22330000  0.16024000
   0.55358074  0.11068521  0.29833113
   0.66502857  0.99922424  0.43624798
   0.77760000  0.22330000  0.16024000
   0.88859239  0.11164449  0.29931232
   0.99797939  0.33282976  0.44155702
   0.11093000  0.55664000  0.16024000
   0.22121544  0.44383726  0.29976955
   0.32782361  0.33551164  0.45355794
   0.44426000  0.55664000  0.16024000
   0.55179157  0.44320933  0.29983582
   0.66484404  0.33279987  0.43601513
   0.77760000  0.55664000  0.16024000
   0.88798133  0.44371936  0.29848381
   0.99746230  0.66517968  0.43574710
   0.11093000  0.88997000  0.16024000
   0.22216189  0.77846728  0.29894358
   0.33294948  0.66613710  0.43911527
   0.44426000  0.88997000  0.16024000
   0.55387049  0.77769010  0.29829087
   0.66591513  0.66617794  0.43623573
   0.77760000  0.88997000  0.16024000
   0.88809998  0.77885001  0.29813819
   0.99982000  0.00108000  0.02337000
   0.33315000  0.00108000  0.02337000
   0.66649000  0.00108000  0.02337000
   0.99982000  0.33441000  0.02337000
   0.33315000  0.33441000  0.02337000
   0.66649000  0.33441000  0.02337000
   0.99982000  0.66775000  0.02337000
   0.33315000  0.66775000  0.02337000
   0.66649000  0.66775000  0.02337000
   0.22408437  0.10598705  0.58961425
   0.23494933  0.37490527  0.57562340
   0.21213209  0.03288594  0.65089033
Direct configuration=     3
   0.99887308  0.99798628  0.44018455
   0.11093000  0.22330000  0.16024000
   0.22213450  0.11319229  0.30044812
   0.33157367  0.00029753  0.44025758
   0.44426000  0.22330000  0.16024000
   0.55356130  0.11067576  0.29835097
   0.66502909  0.99923699  0.43624577
   0.77760000  0.22330000  0.16024000
   0.88860853  0.11164808  0.29932509
   0.99804178  0.33286685  0.44160007
   0.11093000  0.55664000  0.16024000
   0.22121719  0.44382617  0.29982782
   0.32766742  0.33578178  0.45398375
   0.44426000  0.55664000  0.16024000
   0.55174374  0.44318703  0.29988974
   0.66482531  0.33280352  0.43603027
   0.77760000  0.55664000  0.16024000
   0.88799467  0.44370636  0.29851170
   0.99750038  0.66520840  0.43576705
   0.11093000  0.88997000  0.16024000
   0.22217182  0.77848915  0.29896379
   0.33290378  0.66613997  0.43909825
   0.44426000  0.88997000  0.16024000
   0.55387000  0.77768336  0.29829024
   0.66590241  0.66618573  0.43625326
   0.77760000  0.88997000  0.16024000
   0.88810826  0.77886088  0.29815613
   0.99982000  0.00108000  0.02337000
   0.33315000  0.00108000  0.02337000
   0.66649000  0.00108000  0.02337000
   0.99982000  0.33441000  0.02337000
   0.33315000  0.33441000  0.02337000
   0.66649000  0.33441000  0.02337000
   0.99982000  0.66775000  0.02337000
   0.33315000  0.66775000  0.02337000
   0.66649000  0.66775000  0.02337000
   0.22403428  0.10658664  0.58979804
   0.23533355  0.37311593  0.57516154
   0.21226771  0.03325928  0.65102723
Direct configuration=     4
   0.99893138  0.99805355  0.44020220
   0.11093000  0.22330000  0.16024000
   0.22216892  0.11326139  0.30053453
   0.33153808  0.00042446  0.44032427
   0.44426000  0.22330000  0.16024000
   0.55353472  0.11066320  0.29837715
   0.66502889  0.99925426  0.43624254
   0.77760000  0.22330000  0.16024000
   0.88862885  0.11165174  0.29934156
   0.99810231  0.33290966  0.44165024
   0.11093000  0.55664000  0.16024000
   0.22121935  0.44381113  0.29990433
   0.32746850  0.33613794  0.45455045
   0.44426000  0.55664000  0.16024000
   0.55168031  0.44315867  0.29996213
   0.66479827  0.33280955  0.43605090
   0.77760000  0.55664000  0.16024000
   0.88800961  0.44369010  0.29854825
   0.99754625  0.66524434  0.43579275
   0.11093000  0.88997000  0.16024000
   0.22218256  0.77851845  0.29898925
   0.33285137  0.66616099  0.43907098
   0.44426000  0.88997000  0.16024000
   0.55386988  0.77767415  0.29828882
   0.66588828  0.66619744  0.43627611
   0.77760000  0.88997000  0.16024000
   0.88811842  0.77887410  0.29817912
   0.99982000  0.00108000  0.02337000
   0.33315000  0.00108000  0.02337000
   0.66649000  0.00108000  0.02337000
   0.99982000  0.33441000  0.02337000
   0.33315000  0.33441000  0.02337000
   0.66649000  0.33441000  0.02337000
   0.99982000  0.66775000  0.02337000
   0.33315000  0.66775000  0.02337000
   0.66649000  0.66775000  0.02337000
   0.22395186  0.10735640  0.58999400
   0.23584711  0.37074846  0.57452286
   0.21244342  0.03379698  0.65118570
Direct configuration=     5
   0.99900387  0.99813432  0.44023017
   0.11093000  0.22330000  0.16024000
   0.22221123  0.11334707  0.30064126
   0.33149489  0.00059045  0.44041363
   0.44426000  0.22330000  0.16024000
   0.55350000  0.11064714  0.29840984
   0.66502633  0.99927615  0.43623811
   0.77760000  0.22330000  0.16024000
   0.88865241  0.11165421  0.29936096
   0.99814412  0.33295606  0.44170213
   0.11093000  0.55664000  0.16024000
   0.22122098  0.44378984  0.29999738
   0.32724344  0.33657386  0.45525236
   0.44426000  0.55664000  0.16024000
   0.55160113  0.44312384  0.30005463
   0.66476118  0.33281908  0.43607760
   0.77760000  0.55664000  0.16024000
   0.88802524  0.44367049  0.29859307
   0.99759706  0.66528649  0.43582430
   0.11093000  0.88997000  0.16024000
   0.22219386  0.77855693  0.29901948
   0.33279776  0.66621131  0.43902986
   0.44426000  0.88997000  0.16024000
   0.55387005  0.77766227  0.29828628
   0.66587476  0.66621479  0.43630428
   0.77760000  0.88997000  0.16024000
   0.88812801  0.77888879  0.29820634
   0.99982000  0.00108000  0.02337000
   0.33315000  0.00108000  0.02337000
   0.66649000  0.00108000  0.02337000
   0.99982000  0.33441000  0.02337000
   0.33315000  0.33441000  0.02337000
   0.66649000  0.33441000  0.02337000
   0.99982000  0.66775000  0.02337000
   0.33315000  0.66775000  0.02337000
   0.66649000  0.66775000  0.02337000
   0.22382050  0.10825359  0.59015324
   0.23648790  0.36782911  0.57368686
   0.21265693  0.03454552  0.65133844
Direct configuration=     6
   0.99909485  0.99822994  0.44027741
   0.11093000  0.22330000  0.16024000
   0.22225924  0.11344708  0.30076631
   0.33144451  0.00080715  0.44053580
   0.44426000  0.22330000  0.16024000
   0.55345595  0.11062885  0.29844847
   0.66502035  0.99930264  0.43623197
   0.77760000  0.22330000  0.16024000
   0.88867921  0.11165406  0.29938372
   0.99814876  0.33300447  0.44175014
   0.11093000  0.55664000  0.16024000
   0.22122518  0.44376129  0.30010559
   0.32700320  0.33707615  0.45607567
   0.44426000  0.55664000  0.16024000
   0.55150540  0.44308247  0.30016863
   0.66471333  0.33283344  0.43611148
   0.77760000  0.55664000  0.16024000
   0.88804116  0.44364906  0.29864431
   0.99764849  0.66533374  0.43586187
   0.11093000  0.88997000  0.16024000
   0.22220268  0.77860212  0.29905287
   0.33274600  0.66630614  0.43897235
   0.44426000  0.88997000  0.16024000
   0.55387044  0.77764696  0.29828231
   0.66586510  0.66624214  0.43633748
   0.77760000  0.88997000  0.16024000
   0.88813846  0.77890446  0.29823738
   0.99982000  0.00108000  0.02337000
   0.33315000  0.00108000  0.02337000
   0.66649000  0.00108000  0.02337000
   0.99982000  0.33441000  0.02337000
   0.33315000  0.33441000  0.02337000
   0.66649000  0.33441000  0.02337000
   0.99982000  0.66775000  0.02337000
   0.33315000  0.66775000  0.02337000
   0.66649000  0.66775000  0.02337000
   0.22361645  0.10920237  0.59020603
   0.23724252  0.36440496  0.57263250
   0.21290684  0.03557226  0.65144499
Direct configuration=     7
   0.99921248  0.99834170  0.44035524
   0.11093000  0.22330000  0.16024000
   0.22231151  0.11355973  0.30090935
   0.33138353  0.00108346  0.44070765
   0.44426000  0.22330000  0.16024000
   0.55340264  0.11060529  0.29849532
   0.66500919  0.99933455  0.43622424
   0.77760000  0.22330000  0.16024000
   0.88870992  0.11165081  0.29941345
   0.99809766  0.33305807  0.44178962
   0.11093000  0.55664000  0.16024000
   0.22122283  0.44373017  0.30023019
   0.32680300  0.33762328  0.45696561
   0.44426000  0.55664000  0.16024000
   0.55139465  0.44303866  0.30030463
   0.66465530  0.33285409  0.43615429
   0.77760000  0.55664000  0.16024000
   0.88805429  0.44362531  0.29870212
   0.99769967  0.66538537  0.43590509
   0.11093000  0.88997000  0.16024000
   0.22221065  0.77866126  0.29909251
   0.33269979  0.66645939  0.43889852
   0.44426000  0.88997000  0.16024000
   0.55386952  0.77762726  0.29827744
   0.66586352  0.66628219  0.43637660
   0.77760000  0.88997000  0.16024000
   0.88814927  0.77892366  0.29826892
   0.99982000  0.00108000  0.02337000
   0.33315000  0.00108000  0.02337000
   0.66649000  0.00108000  0.02337000
   0.99982000  0.33441000  0.02337000
   0.33315000  0.33441000  0.02337000
   0.66649000  0.33441000  0.02337000
   0.99982000  0.66775000  0.02337000
   0.33315000  0.66775000  0.02337000
   0.66649000  0.66775000  0.02337000
   0.22330566  0.11008995  0.59003781
   0.23806850  0.36053877  0.57134745
   0.21318559  0.03695878  0.65146163
Direct configuration=     8
   0.99935521  0.99845912  0.44048702
   0.11093000  0.22330000  0.16024000
   0.22237011  0.11368141  0.30106993
   0.33129956  0.00143771  0.44095646
   0.44426000  0.22330000  0.16024000
   0.55333284  0.11057449  0.29855561
   0.66499061  0.99937217  0.43621556
   0.77760000  0.22330000  0.16024000
   0.88874336  0.11164211  0.29945224
   0.99797861  0.33312231  0.44182247
   0.11093000  0.55664000  0.16024000
   0.22122209  0.44369782  0.30037465
   0.32677996  0.33820038  0.45779403
   0.44426000  0.55664000  0.16024000
   0.55126274  0.44298298  0.30046384
   0.66459044  0.33288513  0.43620717
   0.77760000  0.55664000  0.16024000
   0.88805970  0.44359532  0.29876434
   0.99774694  0.66544184  0.43595596
   0.11093000  0.88997000  0.16024000
   0.22222154  0.77874456  0.29913971
   0.33266027  0.66668946  0.43881188
   0.44426000  0.88997000  0.16024000
   0.55386703  0.77760298  0.29827305
   0.66587657  0.66634953  0.43642109
   0.77760000  0.88997000  0.16024000
   0.88816214  0.77894713  0.29830568
   0.99982000  0.00108000  0.02337000
   0.33315000  0.00108000  0.02337000
   0.66649000  0.00108000  0.02337000
   0.99982000  0.33441000  0.02337000
   0.33315000  0.33441000  0.02337000
   0.66649000  0.33441000  0.02337000
   0.99982000  0.66775000  0.02337000
   0.33315000  0.66775000  0.02337000
   0.66649000  0.66775000  0.02337000
   0.22283097  0.11071870  0.58952907
   0.23885496  0.35632104  0.56986503
   0.21349929  0.03885289  0.65128807
Direct configuration=     9
   0.99954289  0.99859653  0.44070088
   0.11093000  0.22330000  0.16024000
   0.22242298  0.11380497  0.30123697
   0.33119203  0.00188979  0.44132548
   0.44426000  0.22330000  0.16024000
   0.55323670  0.11052918  0.29863162
   0.66496663  0.99941406  0.43620468
   0.77760000  0.22330000  0.16024000
   0.88878466  0.11162617  0.29950816
   0.99779800  0.33320348  0.44185497
   0.11093000  0.55664000  0.16024000
   0.22121828  0.44366336  0.30053997
   0.32713393  0.33877074  0.45829820
   0.44426000  0.55664000  0.16024000
   0.55112094  0.44292135  0.30064552
   0.66453460  0.33293321  0.43627341
   0.77760000  0.55664000  0.16024000
   0.88806082  0.44356463  0.29883323
   0.99778049  0.66549340  0.43601203
   0.11093000  0.88997000  0.16024000
   0.22223314  0.77885218  0.29919788
   0.33262943  0.66700715  0.43872288
   0.44426000  0.88997000  0.16024000
   0.55385825  0.77757435  0.29826785
   0.66591934  0.66646284  0.43647267
   0.77760000  0.88997000  0.16024000
   0.88817942  0.77897395  0.29834732
   0.99982000  0.00108000  0.02337000
   0.33315000  0.00108000  0.02337000
   0.66649000  0.00108000  0.02337000
   0.99982000  0.33441000  0.02337000
   0.33315000  0.33441000  0.02337000
   0.66649000  0.33441000  0.02337000
   0.99982000  0.66775000  0.02337000
   0.33315000  0.66775000  0.02337000
   0.66649000  0.66775000  0.02337000
   0.22214527  0.11100445  0.58842480
   0.23937266  0.35192784  0.56833600
   0.21382487  0.04121368  0.65093944
Direct configuration=    10
   0.99976602  0.99875424  0.44101935
   0.11093000  0.22330000  0.16024000
   0.22245892  0.11389257  0.30138923
   0.33107067  0.00239404  0.44182541
   0.44426000  0.22330000  0.16024000
   0.55312148  0.11047664  0.29872379
   0.66493488  0.99945254  0.43619617
   0.77760000  0.22330000  0.16024000
   0.88882453  0.11159796  0.29958432
   0.99763193  0.33329998  0.44191370
   0.11093000  0.55664000  0.16024000
   0.22120982  0.44363120  0.30070201
   0.32804753  0.33930235  0.45817568
   0.44426000  0.55664000  0.16024000
   0.55099238  0.44286298  0.30082094
   0.66452896  0.33299900  0.43634569
   0.77760000  0.55664000  0.16024000
   0.88805169  0.44352890  0.29890352
   0.99779388  0.66553667  0.43606627
   0.11093000  0.88997000  0.16024000
   0.22224842  0.77898560  0.29927033
   0.33260816  0.66736363  0.43866166
   0.44426000  0.88997000  0.16024000
   0.55384008  0.77754555  0.29826577
   0.66600516  0.66662694  0.43652116
   0.77760000  0.88997000  0.16024000
   0.88819785  0.77900818  0.29838935
   0.99982000  0.00108000  0.02337000
   0.33315000  0.00108000  0.02337000
   0.66649000  0.00108000  0.02337000
   0.99982000  0.33441000  0.02337000
   0.33315000  0.33441000  0.02337000
   0.66649000  0.33441000  0.02337000
   0.99982000  0.66775000  0.02337000
   0.33315000  0.66775000  0.02337000
   0.66649000  0.66775000  0.02337000
   0.22121271  0.11029931  0.58715614
   0.23927217  0.34792656  0.56703813
   0.21419195  0.04434727  0.64986718
Direct configuration=    11
   0.99991614  0.99885667  0.44127234
   0.11093000  0.22330000  0.16024000
   0.22246255  0.11391453  0.30147189
   0.33098084  0.00272622  0.44221168
   0.44426000  0.22330000  0.16024000
   0.55303315  0.11043512  0.29878795
   0.66491365  0.99947796  0.43619500
   0.77760000  0.22330000  0.16024000
   0.88885299  0.11157498  0.29964724
   0.99758690  0.33337639  0.44198405
   0.11093000  0.55664000  0.16024000
   0.22119640  0.44361792  0.30079111
   0.32887611  0.33964220  0.45776455
   0.44426000  0.55664000  0.16024000
   0.55093435  0.44283991  0.30092267
   0.66457330  0.33305382  0.43639589
   0.77760000  0.55664000  0.16024000
   0.88804343  0.44350751  0.29894744
   0.99779744  0.66556337  0.43610063
   0.11093000  0.88997000  0.16024000
   0.22226552  0.77907705  0.29932504
   0.33260216  0.66760634  0.43864549
   0.44426000  0.88997000  0.16024000
   0.55382490  0.77752843  0.29826629
   0.66609350  0.66677386  0.43654805
   0.77760000  0.88997000  0.16024000
   0.88821221  0.77903818  0.29841827
   0.99982000  0.00108000  0.02337000
   0.33315000  0.00108000  0.02337000
   0.66649000  0.00108000  0.02337000
   0.99982000  0.33441000  0.02337000
   0.33315000  0.33441000  0.02337000
   0.66649000  0.33441000  0.02337000
   0.99982000  0.66775000  0.02337000
   0.33315000  0.66775000  0.02337000
   0.66649000  0.66775000  0.02337000
   0.22067253  0.11081474  0.58494544
   0.23884092  0.34571392  0.56629091
   0.21425924  0.04508367  0.65019481
Direct configuration=    12
   0.99994144  0.99887119  0.44131287
   0.11093000  0.22330000  0.16024000
   0.22246159  0.11391401  0.30148009
   0.33096721  0.00276448  0.44226864
   0.44426000  0.22330000  0.16024000
   0.55302171  0.11042960  0.29879637
   0.66491139  0.99948080  0.43619492
   0.77760000  0.22330000  0.16024000
   0.88885684  0.11157224  0.29965662
   0.99759169  0.33338785  0.44199989
   0.11093000  0.55664000  0.16024000
   0.22119436  0.44361738  0.30080048
   0.32899006  0.33968085  0.45769744
   0.44426000  0.55664000  0.16024000
   0.55092937  0.44283801  0.30093331
   0.66458513  0.33306090  0.43640134
   0.77760000  0.55664000  0.16024000
   0.88804301  0.44350426  0.29895353
   0.99779624  0.66556481  0.43610417
   0.11093000  0.88997000  0.16024000
   0.22226841  0.77908813  0.29933320
   0.33260198  0.66763070  0.43864805
   0.44426000  0.88997000  0.16024000
   0.55382222  0.77752685  0.29826710
   0.66610761  0.66679508  0.43655044
   0.77760000  0.88997000  0.16024000
   0.88821417  0.77904186  0.29842187
   0.99982000  0.00108000  0.02337000
   0.33315000  0.00108000  0.02337000
   0.66649000  0.00108000  0.02337000
   0.99982000  0.33441000  0.02337000
   0.33315000  0.33441000  0.02337000
   0.66649000  0.33441000  0.02337000
   0.99982000  0.66775000  0.02337000
   0.33315000  0.66775000  0.02337000
   0.66649000  0.66775000  0.02337000
   0.22055861  0.11045887  0.58506204
   0.23874310  0.34547265  0.56618816
   0.21430544  0.04559160  0.64978548
Direct configuration=    13
   0.99999622  0.99890370  0.44140329
   0.11093000  0.22330000  0.16024000
   0.22245898  0.11391223  0.30149916
   0.33093679  0.00285291  0.44239822
   0.44426000  0.22330000  0.16024000
   0.55299520  0.11041649  0.29881557
   0.66490636  0.99948767  0.43619497
   0.77760000  0.22330000  0.16024000
   0.88886566  0.11156588  0.29967818
   0.99760443  0.33341392  0.44203659
   0.11093000  0.55664000  0.16024000
   0.22118951  0.44361621  0.30082195
   0.32924969  0.33977228  0.45754421
   0.44426000  0.55664000  0.16024000
   0.55091761  0.44283382  0.30095750
   0.66461281  0.33307727  0.43641413
   0.77760000  0.55664000  0.16024000
   0.88804282  0.44349714  0.29896741
   0.99779420  0.66556892  0.43611240
   0.11093000  0.88997000  0.16024000
   0.22227499  0.77911372  0.29935194
   0.33260193  0.66768846  0.43865367
   0.44426000  0.88997000  0.16024000
   0.55381626  0.77752339  0.29826881
   0.66614032  0.66684397  0.43655616
   0.77760000  0.88997000  0.16024000
   0.88821892  0.77905064  0.29843031
   0.99982000  0.00108000  0.02337000
   0.33315000  0.00108000  0.02337000
   0.66649000  0.00108000  0.02337000
   0.99982000  0.33441000  0.02337000
   0.33315000  0.33441000  0.02337000
   0.66649000  0.33441000  0.02337000
   0.99982000  0.66775000  0.02337000
   0.33315000  0.66775000  0.02337000
   0.66649000  0.66775000  0.02337000
   0.22032266  0.10987958  0.58508356
   0.23852375  0.34493260  0.56595096
   0.21438638  0.04649567  0.64910714
Direct configuration=    14
   1.00007144  0.99895067  0.44153163
   0.11093000  0.22330000  0.16024000
   0.22245423  0.11390676  0.30152732
   0.33089311  0.00298363  0.44258819
   0.44426000  0.22330000  0.16024000
   0.55295583  0.11039765  0.29884408
   0.66489965  0.99949901  0.43619558
   0.77760000  0.22330000  0.16024000
   0.88887804  0.11155636  0.29971036
   0.99762584  0.33345021  0.44209110
   0.11093000  0.55664000  0.16024000
   0.22118176  0.44361546  0.30085229
   0.32962420  0.33991242  0.45731744
   0.44426000  0.55664000  0.16024000
   0.55090056  0.44282865  0.30099283
   0.66465683  0.33310222  0.43643356
   0.77760000  0.55664000  0.16024000
   0.88804241  0.44348600  0.29898755
   0.99779328  0.66557713  0.43612499
   0.11093000  0.88997000  0.16024000
   0.22228405  0.77915192  0.29937949
   0.33260316  0.66777876  0.43866122
   0.44426000  0.88997000  0.16024000
   0.55380814  0.77751882  0.29827094
   0.66619224  0.66691940  0.43656507
   0.77760000  0.88997000  0.16024000
   0.88822696  0.77906472  0.29844330
   0.99982000  0.00108000  0.02337000
   0.33315000  0.00108000  0.02337000
   0.66649000  0.00108000  0.02337000
   0.99982000  0.33441000  0.02337000
   0.33315000  0.33441000  0.02337000
   0.66649000  0.33441000  0.02337000
   0.99982000  0.66775000  0.02337000
   0.33315000  0.66775000  0.02337000
   0.66649000  0.66775000  0.02337000
   0.22002896  0.10958837  0.58453046
   0.23820714  0.34415781  0.56559959
   0.21444852  0.04721684  0.64871829
Direct configuration=    15
   1.00016915  0.99901339  0.44170097
   0.11093000  0.22330000  0.16024000
   0.22244578  0.11389604  0.30156197
   0.33083631  0.00314941  0.44284048
   0.44426000  0.22330000  0.16024000
   0.55290481  0.11037413  0.29888208
   0.66489160  0.99951450  0.43619681
   0.77760000  0.22330000  0.16024000
   0.88889488  0.11154456  0.29975317
   0.99766648  0.33349782  0.44216768
   0.11093000  0.55664000  0.16024000
   0.22117054  0.44361571  0.30088978
   0.33011082  0.34009553  0.45701378
   0.44426000  0.55664000  0.16024000
   0.55088229  0.44282297  0.30103562
   0.66472162  0.33313605  0.43645816
   0.77760000  0.55664000  0.16024000
   0.88804301  0.44347092  0.29901462
   0.99779402  0.66558884  0.43614119
   0.11093000  0.88997000  0.16024000
   0.22229656  0.77920126  0.29941592
   0.33260558  0.66789285  0.43867305
   0.44426000  0.88997000  0.16024000
   0.55379753  0.77751239  0.29827378
   0.66626427  0.66702005  0.43657591
   0.77760000  0.88997000  0.16024000
   0.88823816  0.77908443  0.29846071
   0.99982000  0.00108000  0.02337000
   0.33315000  0.00108000  0.02337000
   0.66649000  0.00108000  0.02337000
   0.99982000  0.33441000  0.02337000
   0.33315000  0.33441000  0.02337000
   0.66649000  0.33441000  0.02337000
   0.99982000  0.66775000  0.02337000
   0.33315000  0.66775000  0.02337000
   0.66649000  0.66775000  0.02337000
   0.21965266  0.10925530  0.58376246
   0.23776829  0.34318865  0.56514183
   0.21452018  0.04806722  0.64825986
Direct configuration=    16
   1.00029156  0.99908982  0.44191512
   0.11093000  0.22330000  0.16024000
   0.22243404  0.11387829  0.30160167
   0.33076557  0.00335038  0.44316028
   0.44426000  0.22330000  0.16024000
   0.55284216  0.11034480  0.29892935
   0.66488311  0.99953443  0.43619930
   0.77760000  0.22330000  0.16024000
   0.88891428  0.11152834  0.29980721
   0.99773758  0.33355831  0.44227363
   0.11093000  0.55664000  0.16024000
   0.22115634  0.44361709  0.30093122
   0.33070773  0.34032355  0.45663297
   0.44426000  0.55664000  0.16024000
   0.55086288  0.44281564  0.30108470
   0.66481359  0.33317969  0.43648690
   0.77760000  0.55664000  0.16024000
   0.88804552  0.44344965  0.29904863
   0.99779594  0.66560326  0.43616059
   0.11093000  0.88997000  0.16024000
   0.22231373  0.77926232  0.29946194
   0.33261291  0.66803118  0.43869093
   0.44426000  0.88997000  0.16024000
   0.55378436  0.77750535  0.29827759
   0.66636191  0.66715209  0.43658815
   0.77760000  0.88997000  0.16024000
   0.88825347  0.77910986  0.29848182
   0.99982000  0.00108000  0.02337000
   0.33315000  0.00108000  0.02337000
   0.66649000  0.00108000  0.02337000
   0.99982000  0.33441000  0.02337000
   0.33315000  0.33441000  0.02337000
   0.66649000  0.33441000  0.02337000
   0.99982000  0.66775000  0.02337000
   0.33315000  0.66775000  0.02337000
   0.66649000  0.66775000  0.02337000
   0.21918590  0.10880009  0.58285577
   0.23717425  0.34205940  0.56456435
   0.21460351  0.04909634  0.64763848
Direct configuration=    17
   1.00043954  0.99917689  0.44217509
   0.11093000  0.22330000  0.16024000
   0.22241399  0.11384895  0.30164526
   0.33068398  0.00357904  0.44354854
   0.44426000  0.22330000  0.16024000
   0.55276586  0.11031012  0.29898751
   0.66487436  0.99955989  0.43620405
   0.77760000  0.22330000  0.16024000
   0.88893745  0.11151319  0.29987341
   0.99784919  0.33363210  0.44241241
   0.11093000  0.55664000  0.16024000
   0.22113637  0.44362031  0.30097608
   0.33143339  0.34060575  0.45615271
   0.44426000  0.55664000  0.16024000
   0.55084576  0.44280879  0.30113942
   0.66493826  0.33323327  0.43651970
   0.77760000  0.55664000  0.16024000
   0.88805096  0.44342311  0.29909135
   0.99779925  0.66561945  0.43618361
   0.11093000  0.88997000  0.16024000
   0.22233727  0.77933572  0.29951722
   0.33262542  0.66819195  0.43871599
   0.44426000  0.88997000  0.16024000
   0.55376809  0.77749807  0.29828308
   0.66648939  0.66732045  0.43660199
   0.77760000  0.88997000  0.16024000
   0.88827110  0.77914069  0.29850782
   0.99982000  0.00108000  0.02337000
   0.33315000  0.00108000  0.02337000
   0.66649000  0.00108000  0.02337000
   0.99982000  0.33441000  0.02337000
   0.33315000  0.33441000  0.02337000
   0.66649000  0.33441000  0.02337000
   0.99982000  0.66775000  0.02337000
   0.33315000  0.66775000  0.02337000
   0.66649000  0.66775000  0.02337000
   0.21863197  0.10827416  0.58174820
   0.23640525  0.34081222  0.56385792
   0.21468817  0.05020513  0.64691664
Direct configuration=    18
   1.00061616  0.99926757  0.44248172
   0.11093000  0.22330000  0.16024000
   0.22238484  0.11380420  0.30169207
   0.33059029  0.00383575  0.44400775
   0.44426000  0.22330000  0.16024000
   0.55267647  0.11026961  0.29905545
   0.66486681  0.99959183  0.43621154
   0.77760000  0.22330000  0.16024000
   0.88896307  0.11149897  0.29995336
   0.99801293  0.33371890  0.44259210
   0.11093000  0.55664000  0.16024000
   0.22111047  0.44362671  0.30102249
   0.33227765  0.34094021  0.45558094
   0.44426000  0.55664000  0.16024000
   0.55083459  0.44280375  0.30119602
   0.66510182  0.33329608  0.43655690
   0.77760000  0.55664000  0.16024000
   0.88806155  0.44339287  0.29914274
   0.99780428  0.66563820  0.43620928
   0.11093000  0.88997000  0.16024000
   0.22236985  0.77942082  0.29958366
   0.33264589  0.66837278  0.43875121
   0.44426000  0.88997000  0.16024000
   0.55374863  0.77749121  0.29829025
   0.66665093  0.66752662  0.43661690
   0.77760000  0.88997000  0.16024000
   0.88829366  0.77917904  0.29853873
   0.99982000  0.00108000  0.02337000
   0.33315000  0.00108000  0.02337000
   0.66649000  0.00108000  0.02337000
   0.99982000  0.33441000  0.02337000
   0.33315000  0.33441000  0.02337000
   0.66649000  0.33441000  0.02337000
   0.99982000  0.66775000  0.02337000
   0.33315000  0.66775000  0.02337000
   0.66649000  0.66775000  0.02337000
   0.21798466  0.10758264  0.58051954
   0.23543421  0.33951396  0.56300221
   0.21477121  0.05143080  0.64600564
Direct configuration=    19
   1.00082054  0.99936994  0.44284321
   0.11093000  0.22330000  0.16024000
   0.22234679  0.11374356  0.30174053
   0.33049022  0.00411584  0.44453429
   0.44426000  0.22330000  0.16024000
   0.55257691  0.11022201  0.29913162
   0.66486318  0.99963028  0.43622296
   0.77760000  0.22330000  0.16024000
   0.88898973  0.11148286  0.30004682
   0.99823900  0.33382607  0.44281504
   0.11093000  0.55664000  0.16024000
   0.22107850  0.44363528  0.30106710
   0.33324158  0.34134543  0.45492336
   0.44426000  0.55664000  0.16024000
   0.55083213  0.44280027  0.30125121
   0.66531002  0.33336799  0.43659764
   0.77760000  0.55664000  0.16024000
   0.88807901  0.44335694  0.29920182
   0.99781398  0.66566060  0.43623809
   0.11093000  0.88997000  0.16024000
   0.22240461  0.77951014  0.29966166
   0.33267487  0.66857016  0.43879926
   0.44426000  0.88997000  0.16024000
   0.55372543  0.77748457  0.29829920
   0.66685213  0.66777587  0.43663218
   0.77760000  0.88997000  0.16024000
   0.88832063  0.77922300  0.29857329
   0.99982000  0.00108000  0.02337000
   0.33315000  0.00108000  0.02337000
   0.66649000  0.00108000  0.02337000
   0.99982000  0.33441000  0.02337000
   0.33315000  0.33441000  0.02337000
   0.66649000  0.33441000  0.02337000
   0.99982000  0.66775000  0.02337000
   0.33315000  0.66775000  0.02337000
   0.66649000  0.66775000  0.02337000
   0.21724882  0.10681542  0.57904792
   0.23424815  0.33824764  0.56197783
   0.21483712  0.05260202  0.64503572
Direct configuration=    20
   1.00105217  0.99948305  0.44325847
   0.11093000  0.22330000  0.16024000
   0.22230033  0.11367014  0.30178956
   0.33038047  0.00441745  0.44512784
   0.44426000  0.22330000  0.16024000
   0.55246843  0.11017180  0.29921779
   0.66486456  0.99967760  0.43623847
   0.77760000  0.22330000  0.16024000
   0.88902175  0.11146829  0.30015560
   0.99853451  0.33394220  0.44308659
   0.11093000  0.55664000  0.16024000
   0.22104457  0.44365078  0.30110570
   0.33427145  0.34178289  0.45418916
   0.44426000  0.55664000  0.16024000
   0.55084050  0.44279770  0.30130173
   0.66556680  0.33344519  0.43663956
   0.77760000  0.55664000  0.16024000
   0.88810496  0.44331506  0.29927082
   0.99783153  0.66568715  0.43626769
   0.11093000  0.88997000  0.16024000
   0.22243879  0.77959966  0.29974982
   0.33272364  0.66878053  0.43885909
   0.44426000  0.88997000  0.16024000
   0.55370038  0.77748003  0.29831027
   0.66709212  0.66806731  0.43664537
   0.77760000  0.88997000  0.16024000
   0.88835067  0.77927059  0.29861116
   0.99982000  0.00108000  0.02337000