 vasp.6.4.2 20Jul23 (build Jun  3 2025 15:36:07) complex                         
 executed on              LinuxNV date 2025.06.06  14:52:50
 running    5 mpi-ranks, with    1 threads/rank, on    5 nodes
 each image running on    1 cores
 distrk:  each k-point on    1 cores,    1 groups
 distr:  one band on NCORE=   1 cores,    1 groups
 OpenACC runtime initialized ...    5 GPUs detected


--------------------------------------------------------------------------------------------------------


 INCAR:
   SYSTEM = Si
   ISTART = 0
   ICHARG = 0
   NCORE = 8
   ISPIN = 2
   NELM = 20
   ENCUT = 400
   PREC = Accurate
   ISMEAR = 0
   SIGMA = 0.01
   EDIFF = 1E-10
   ALGO = Normal
   NELECT = 1072
   IBRION = 3
   NSW = 500
   POTIM = 0
   ISIF = 0
   IOPT = 1
   EDIFFG = -0.010
   ICHAIN = 0
   IMAGES = 5
   SPRING = -5.0
   LCLIMB = .FALSE.

 POTCAR:    PAW_PBE Li_sv 10Sep2004               
 POTCAR:    PAW_PBE F 08Apr2002                   
 -----------------------------------------------------------------------------
|                                                                             |
|           W    W    AA    RRRRR   N    N  II  N    N   GGGG   !!!           |
|           W    W   A  A   R    R  NN   N  II  NN   N  G    G  !!!           |
|           W    W  A    A  R    R  N N  N  II  N N  N  G       !!!           |
|           W WW W  AAAAAA  RRRRR   N  N N  II  N  N N  G  GGG   !            |
|           WW  WW  A    A  R   R   N   NN  II  N   NN  G    G                |
|           W    W  A    A  R    R  N    N  II  N    N   GGGG   !!!           |
|                                                                             |
|     You use a magnetic or noncollinear calculation, but did not specify     |
|     the initial magnetic moment with the MAGMOM tag. Note that a            |
|     default of 1 will be used for all atoms. This ferromagnetic setup       |
|     may break the symmetry of the crystal, in particular it may rule        |
|     out finding an antiferromagnetic solution. Thence, we recommend         |
|     setting the initial magnetic moment manually or verifying carefully     |
|     that this magnetic setup is desired.                                    |
|                                                                             |
 -----------------------------------------------------------------------------

 POTCAR:    PAW_PBE Li_sv 10Sep2004               
   SHA256 =  7e51fe1804c037e1dccc81a9c376d94d693a7559600c847f4b41960edb8ab895 Li_sv/POTCAR          
   COPYR  = (c) Copyright 10Sep2004 Georg Kresse                                                    
   COPYR  = This file is part of the software VASP. Any use, copying, and all other rights are regul
   COPYR  = If you do not have a valid VASP license, you may not use, copy or distribute this file. 
   VRHFIN =Li: 1s2s2p                                                                               
   LEXCH  = PE                                                                                      
   EATOM  =   202.7858 eV,   14.9043 Ry                                                             
                                                                                                    
   TITEL  = PAW_PBE Li_sv 10Sep2004                                                                 
   LULTRA =        F    use ultrasoft PP ?                                                          
   IUNSCR =        0    unscreen: 0-lin 1-nonlin 2-no                                               
   RPACOR =    0.000    partial core radius                                                         
   POMASS =    7.010; ZVAL   =    3.000    mass and valenz                                          
   RCORE  =    1.700    outmost cutoff radius                                                       
   RWIGS  =    2.050; RWIGS  =    1.085    wigner-seitz radius (au A)                               
   ENMAX  =  499.034; ENMIN  =  374.276 eV                                                          
   ICORE  =        2    local potential                                                             
   LCOR   =        T    correct aug charges                                                         
   LPAW   =        T    paw PP                                                                      
   EAUG   =  628.945                                                                                
   RMAX   =    1.732    core radius for proj-oper                                                   
   RAUG   =    1.300    factor for augmentation sphere                                              
   RDEP   =    1.728    radius for radial grids                                                     
   RDEPT  =    1.329    core radius for aug-charge                                                  
                                                                                                    
   Atomic configuration                                                                             
    4 entries                                                                                       
     n  l   j            E        occ.                                                              
     1  0  0.50       -51.8549   2.0000                                                             
     2  0  0.50        -2.8742   1.0000                                                             
     2  1  0.50        -1.3606   0.0000                                                             
     3  2  1.50        -1.3606   0.0000                                                             
   Description                                                                                      
     l       E           TYP  RCUT    TYP  RCUT                                                     
     0    -51.8548813     23  1.400                                                                 
     0     -2.8742052     23  1.700                                                                 
     1     -1.3605826     23  1.400                                                                 
     2     -1.3605826     23  1.400                                                                 
  local pseudopotential read in
  atomic valenz-charges read in
  non local Contribution for L=            0  read in
    real space projection operators read in
  non local Contribution for L=            0  read in
    real space projection operators read in
  non local Contribution for L=            1  read in
    real space projection operators read in
    PAW grid and wavefunctions read in
 
   number of l-projection  operators is LMAX  =            3
   number of lm-projection operators is LMMAX =            5
 
 POTCAR:    PAW_PBE F 08Apr2002                   
   SHA256 =  53c630871ac675939349fc2b976745ee17808dedc90b5bdde026bc81f0faf456 F/POTCAR              
   COPYR  = (c) Copyright 08Apr2002 Georg Kresse                                                    
   COPYR  = This file is part of the software VASP. Any use, copying, and all other rights are regul
   COPYR  = If you do not have a valid VASP license, you may not use, copy or distribute this file. 
   VRHFIN =F: s2p5                                                                                  
   LEXCH  = PE                                                                                      
   EATOM  =   659.6475 eV,   48.4827 Ry                                                             
                                                                                                    
   TITEL  = PAW_PBE F 08Apr2002                                                                     
   LULTRA =        F    use ultrasoft PP ?                                                          
   IUNSCR =        1    unscreen: 0-lin 1-nonlin 2-no                                               
   RPACOR =    1.200    partial core radius                                                         
   POMASS =   18.998; ZVAL   =    7.000    mass and valenz                                          
   RCORE  =    1.520    outmost cutoff radius                                                       
   RWIGS  =    1.500; RWIGS  =    0.794    wigner-seitz radius (au A)                               
   ENMAX  =  400.000; ENMIN  =  300.000 eV                                                          
   ICORE  =        2    local potential                                                             
   LCOR   =        T    correct aug charges                                                         
   LPAW   =        T    paw PP                                                                      
   EAUG   =  613.614                                                                                
   RMAX   =    1.555    core radius for proj-oper                                                   
   RAUG   =    1.300    factor for augmentation sphere                                              
   RDEP   =    1.539    radius for radial grids                                                     
   RDEPT  =    1.299    core radius for aug-charge                                                  
                                                                                                    
   Atomic configuration                                                                             
    4 entries                                                                                       
     n  l   j            E        occ.                                                              
     1  0  0.50      -663.3661   2.0000                                                             
     2  0  0.50       -29.8995   2.0000                                                             
     2  1  0.50       -11.1114   5.0000                                                             
     3  2  1.50       -10.8847   0.0000                                                             
   Description                                                                                      
     l       E           TYP  RCUT    TYP  RCUT                                                     
     0    -29.8995018     23  1.200                                                                 
     0     -9.5240782     23  1.200                                                                 
     1    -11.1113914     23  1.520                                                                 
     1      1.3605826     23  1.520                                                                 
     2    -10.8846608      7  1.500                                                                 
  local pseudopotential read in
  partial core-charges read in
  partial kinetic energy density read in
  atomic valenz-charges read in
  non local Contribution for L=            0  read in
    real space projection operators read in
  non local Contribution for L=            0  read in
    real space projection operators read in
  non local Contribution for L=            1  read in
    real space projection operators read in
  non local Contribution for L=            1  read in
    real space projection operators read in
    PAW grid and wavefunctions read in
 
   number of l-projection  operators is LMAX  =            4
   number of lm-projection operators is LMMAX =            8
 
 -----------------------------------------------------------------------------
|                                                                             |
|               ----> ADVICE to this user running VASP <----                  |
|                                                                             |
|     You have a (more or less) 'large supercell' and for larger cells it     |
|     might be more efficient to use real-space projection operators.         |
|     Therefore, try LREAL= Auto in the INCAR file.                           |
|     Mind: For very accurate calculation, you might also keep the            |
|     reciprocal projection scheme (i.e. LREAL=.FALSE.).                      |
|                                                                             |
 -----------------------------------------------------------------------------

  PAW_PBE Li_sv 10Sep2004               :
 energy of atom  1       EATOM= -202.7858
 kinetic energy error for atom=    0.0926 (will be added to EATOM!!)
  PAW_PBE F 08Apr2002                   :
 energy of atom  2       EATOM= -659.6475
 kinetic energy error for atom=    0.1978 (will be added to EATOM!!)
 
 
 POSCAR: Li   F
  positions in direct lattice
  No initial velocities read in
 exchange correlation table for  LEXCH =        8
   RHO(1)=    0.500       N(1)  =     2000
   RHO(2)=  100.500       N(2)  =     4000

 VTST: version 4.1, (05/19/21)

 CHAIN: initializing optimizer
 
 OPT: Using LBFGS optimizer
 OPT: LBFGS, Init
 OPT: LBFGS, MEMORY             20
 OPT: LBFGS, IMAGES              5
 OPT: LBFGS, MAXMOVE      0.200000
 OPT: LBFGS, LGLOBAL      T
 OPT: LBFGS, INVCURV      0.010000
 OPT: LBFGS, LLINEOPT      F
 OPT: LBFGS, FDSTEP       0.005000
 OPT: LBFGS, LAUTOSCALE      T
 OPT: LBFGS, DAMPING      2.000000
 
 CHAIN: Read ICHAIN             0
 CHAIN: Running the NEB
 NEB:          SPRING     -5.000000
 NEB:          LCLIMB      F
 NEB:     LTANGENTOLD      F
 NEB:           LDNEB      F
 NEB:        LDNEBORG      F
 NEB:        LNEBCELL      F
 NEB:          EFIRST      0.000000
 NEB:           ELAST      0.000000
 
 POSCAR: Li   F
  positions in direct lattice
  No initial velocities read in
 
 POSCAR: Li   F
  positions in direct lattice
  No initial velocities read in
 
 POSCAR: Li   F
  positions in direct lattice
  No initial velocities read in
 
 POSCAR: Li   F
  positions in direct lattice
  No initial velocities read in
 


--------------------------------------------------------------------------------------------------------


 ion  position               nearest neighbor table
   1  0.999  0.002  0.001- 189 1.19 109 1.99 136 1.99 207 2.00 138 2.02 115 2.09
   2  1.000  0.000  0.333- 208 2.01 110 2.01 116 2.02 137 2.02 136 2.02
   3  1.000  0.001  0.666- 137 1.99 111 2.00 209 2.00 138 2.03 117 2.07
   4  0.999  0.331  0.001- 162 0.65 109 1.99 139 1.99 210 2.00 141 2.02 112 2.09 183 2.22 165 2.23

   5  1.000  0.333  0.333- 211 2.01 110 2.01 113 2.02 140 2.02 139 2.02
   6  1.000  0.332  0.666- 140 1.99 111 2.00 212 2.00 141 2.03 114 2.07
   7  0.994  0.667  0.011- 142 1.89 213 1.93 112 1.97 115 1.97 186 2.11 168 2.25
   8  0.999  0.667  0.334- 143 1.98 214 2.01 142 2.01 113 2.01 116 2.01 196 2.02
   9  0.999  0.667  0.655- 143 1.90 215 1.98 114 1.98 117 1.98 197 1.99
  10  0.334  0.001  0.000- 171 1.15 198 2.00 118 2.00 144 2.02 124 2.05
  11  0.334  0.000  0.333- 145 0.67 199 2.01 119 2.01 125 2.02
  12  0.334  0.000  0.666- 146 0.68 200 2.01 120 2.01 126 2.03
  13  0.334  0.333  0.000- 147 1.49 201 2.00 118 2.00 121 2.05 174 2.22 165 2.24
  14  0.334  0.333  0.333- 148 0.67 202 2.01 119 2.01 122 2.02
  15  0.334  0.333  0.666- 149 0.68 203 2.01 120 2.01 123 2.02
  16  0.340  0.667  0.001- 150 1.49 204 1.94 121 1.99 124 1.99 177 2.14
  17  0.334  0.667  0.334- 151 0.65 205 2.00 122 2.01 125 2.01 196 2.02
  18  0.335  0.667  0.665- 152 0.69 206 1.99 123 2.00 126 2.00 197 2.07
  19  0.667  0.000  0.000- 180 1.16 127 2.01 198 2.01 133 2.02 207 2.02 153 2.03
  20  0.667  0.000  0.333- 154 0.67 128 2.01 199 2.01 208 2.02 134 2.02
  21  0.667  0.000  0.666- 155 0.67 129 2.01 200 2.01 209 2.02 135 2.02
  22  0.667  0.333  0.000- 156 1.49 127 2.01 201 2.01 130 2.02 210 2.02 174 2.23 183 2.23
  23  0.667  0.333  0.333- 157 0.67 128 2.01 202 2.01 131 2.02 211 2.02
  24  0.667  0.333  0.666- 158 0.68 129 2.01 203 2.01 132 2.02 212 2.02
  25  0.665  0.667  0.001- 159 1.49 204 1.98 130 2.01 133 2.01 213 2.05 177 2.21 186 2.24
  26  0.666  0.667  0.333- 160 0.68 131 2.01 134 2.01 205 2.01 214 2.02
  27  0.665  0.667  0.665- 161 0.69 206 2.00 132 2.01 135 2.01 215 2.07
  28  1.000  0.167  0.167- 110 2.01 109 2.01 136 2.02 139 2.02
  29  1.000  0.167  0.500- 110 2.01 111 2.01 137 2.02 140 2.02
  30  1.000  0.167  0.833- 138 1.99 141 1.99 111 2.01 109 2.02 192 2.22
  31  1.000  0.499  0.168- 139 1.99 113 1.99 142 2.03 112 2.06
  32  1.000  0.499  0.499- 140 1.99 113 2.00 143 2.03 114 2.07
  33  1.000  0.489  0.833- 141 1.90 114 1.98 112 1.99 195 2.23
  34  1.000  0.834  0.168- 136 1.99 116 1.99 142 2.03 115 2.06
  35  1.000  0.834  0.499- 137 1.99 116 2.00 143 2.03 117 2.07
  36  1.000  0.845  0.833- 138 1.90 189 1.92 117 1.98 115 1.99
  37  0.334  0.167  0.167- 147 1.50 119 2.01 171 2.01 118 2.02
  38  0.334  0.167  0.500- 119 2.01 120 2.02
  39  0.334  0.167  0.833- 120 2.01 118 2.01 192 2.24
  40  0.334  0.500  0.167- 150 1.51 122 2.01 121 2.02
  41  0.334  0.500  0.500- 122 2.02 123 2.03
  42  0.335  0.499  0.833- 123 2.00 121 2.01
  43  0.334  0.834  0.167- 144 1.99 125 2.01 124 2.02
  44  0.334  0.834  0.500- 125 2.02 126 2.03
  45  0.335  0.834  0.833- 126 2.00 124 2.01
  46  0.667  0.167  0.167- 156 1.50 128 2.01 180 2.02 127 2.02
  47  0.667  0.167  0.500- 128 2.01 129 2.02
  48  0.666  0.167  0.833- 129 2.01 127 2.01
  49  0.667  0.500  0.167- 159 1.51 131 2.01 130 2.02
  50  0.667  0.500  0.500- 131 2.01 132 2.02
  51  0.665  0.499  0.833- 132 2.00 130 2.01
  52  0.667  0.834  0.167- 134 2.01 153 2.01 133 2.02
  53  0.667  0.834  0.500- 134 2.01 135 2.02
  54  0.665  0.834  0.833- 135 2.00 133 2.01
  55  0.167  0.001  0.167- 190 0.66 136 2.01 144 2.02
  56  0.167  0.000  0.500- 191 0.68 137 2.02
  57  0.168  0.002  0.833- 138 2.02 189 2.04
  58  0.167  0.333  0.167- 193 0.66 165 1.52 139 2.01
  59  0.167  0.333  0.500- 194 0.68 140 2.02
  60  0.168  0.331  0.833- 192 1.48 141 2.02
  61  0.168  0.667  0.174- 168 1.57 196 1.94 142 2.01
  62  0.168  0.667  0.499- 196 1.98 143 2.03 197 2.05
  63  0.178  0.667  0.828- 195 1.52 197 1.93
  64  0.500  0.000  0.167- 171 2.00 153 2.00 199 2.01 198 2.02
  65  0.500  0.000  0.500- 199 2.01 200 2.02
  66  0.500  0.000  0.833- 200 2.01 198 2.01
  67  0.500  0.333  0.167- 174 1.51 202 2.01 201 2.02
  68  0.500  0.333  0.500- 202 2.01 203 2.02
  69  0.500  0.333  0.833- 203 2.01 201 2.01
  70  0.501  0.667  0.167- 177 1.51 205 2.00 204 2.02
  71  0.500  0.667  0.500- 205 2.01 206 2.02
  72  0.501  0.667  0.833- 206 2.01 204 2.02
  73  0.833  0.000  0.167- 208 2.01 180 2.01 136 2.02 207 2.02
  74  0.833  0.000  0.500- 208 2.01 137 2.02 209 2.02
  75  0.832  0.001  0.833- 209 2.00 207 2.01 138 2.03
  76  0.833  0.333  0.167- 183 1.51 211 2.01 139 2.02 210 2.02
  77  0.833  0.333  0.500- 211 2.01 140 2.02 212 2.02
  78  0.832  0.332  0.833- 212 2.00 210 2.01 141 2.03
  79  0.832  0.667  0.168- 186 1.52 214 1.99 142 2.05 213 2.07
  80  0.832  0.667  0.499- 214 2.00 143 2.03 215 2.07
  81  0.822  0.667  0.833- 215 1.98 213 1.99
  82  0.167  0.167  0.000- 192 1.51 118 2.01 109 2.02 147 2.22
  83  0.167  0.167  0.333- 163 0.67 119 2.01 110 2.01
  84  0.167  0.167  0.666- 164 0.67 120 2.01 111 2.01
  85  0.167  0.494  0.000- 165 1.43 195 1.56 121 1.99 112 2.00 150 2.24
  86  0.167  0.499  0.334- 166 0.65 122 2.01 113 2.01 196 2.02
  87  0.167  0.499  0.666- 167 0.68 123 2.00 114 2.01 197 2.02
  88  0.167  0.839  0.000- 144 1.14 168 1.56 189 1.97 124 1.99 115 2.00
  89  0.167  0.834  0.334- 169 0.65 125 2.01 116 2.01 196 2.02
  90  0.167  0.834  0.666- 170 0.68 126 2.00 117 2.01 197 2.02
  91  0.500  0.167  0.000- 127 2.01 118 2.02 198 2.02 201 2.02 171 2.03 156 2.23 147 2.23
  92  0.500  0.167  0.333- 172 0.67 128 2.01 199 2.02 202 2.02 119 2.02
  93  0.500  0.167  0.666- 173 0.67 129 2.02 200 2.02 203 2.02 120 2.02
  94  0.501  0.499  0.000- 174 1.49 201 2.00 130 2.01 204 2.02 121 2.05 159 2.22 150 2.24
  95  0.500  0.500  0.333- 175 0.67 202 2.01 131 2.02 205 2.02 122 2.02
  96  0.500  0.500  0.666- 176 0.67 203 2.01 206 2.02 132 2.02 123 2.03
  97  0.501  0.834  0.000- 153 1.15 177 1.51 198 2.00 133 2.01 204 2.02 124 2.05
  98  0.500  0.834  0.333- 178 0.67 199 2.01 134 2.02 205 2.02 125 2.02
  99  0.500  0.834  0.666- 179 0.67 200 2.01 206 2.02 135 2.02 126 2.03
 100  0.833  0.167  0.000- 127 2.01 180 2.01 109 2.01 207 2.02 210 2.02 156 2.22
 101  0.833  0.167  0.333- 181 0.67 128 2.01 110 2.02 208 2.02 211 2.02
 102  0.833  0.167  0.666- 182 0.67 129 2.01 111 2.02 209 2.02 212 2.02
 103  0.833  0.499  0.000- 183 1.48 210 1.99 130 2.00 213 2.02 112 2.04 159 2.21
 104  0.833  0.500  0.333- 184 0.67 211 2.01 131 2.01 214 2.02 113 2.02
 105  0.833  0.500  0.666- 185 0.68 212 2.00 132 2.00 215 2.02 114 2.02
 106  0.833  0.834  0.000- 186 1.51 207 1.99 133 2.00 213 2.02 115 2.04
 107  0.833  0.834  0.333- 187 0.67 208 2.01 134 2.01 214 2.02 116 2.02
 108  0.833  0.834  0.666- 188 0.68 209 2.00 135 2.00 215 2.02 117 2.02
 109  1.000  0.167  0.000-   1 1.99   4 1.99  28 2.01 100 2.01  82 2.02  30 2.02
 110  0.000  0.167  0.333-  28 2.01   2 2.01   5 2.01  29 2.01  83 2.01 101 2.02
 111  0.000  0.167  0.666-   3 2.00   6 2.00  84 2.01  29 2.01  30 2.01 102 2.02
 112  0.001  0.504  0.997-   7 1.97  33 1.99  85 2.00 103 2.04  31 2.06   4 2.09
 113  0.000  0.500  0.333-  31 1.99  32 2.00  86 2.01   8 2.01   5 2.02 104 2.02
 114  0.000  0.503  0.670-  33 1.98   9 1.98  87 2.01 105 2.02   6 2.07  32 2.07
 115  0.001  0.829  0.997- 189 1.66   7 1.97  36 1.99  88 2.00 106 2.04  34 2.06   1 2.09
 116  0.000  0.833  0.333-  34 1.99  35 2.00  89 2.01   8 2.01   2 2.02 107 2.02
 117  0.000  0.830  0.670-  36 1.98   9 1.98  90 2.01 108 2.02  35 2.07   3 2.07
 118  0.333  0.167  1.000- 147 0.95 171 1.67  10 2.00  13 2.00  82 2.01  39 2.01  91 2.02  37 2.02

 119  0.333  0.167  0.333-  83 2.01  37 2.01  11 2.01  14 2.01  38 2.01  92 2.02
 120  0.333  0.167  0.667-  84 2.01  39 2.01  12 2.01  15 2.01  93 2.02  38 2.02
 121  0.331  0.502  0.999- 150 0.94  85 1.99  16 1.99  42 2.01  40 2.02  13 2.05  94 2.05
 122  0.333  0.500  0.333-  86 2.01  40 2.01  17 2.01  41 2.02  14 2.02  95 2.02
 123  0.332  0.501  0.668-  87 2.00  42 2.00  18 2.00  15 2.02  96 2.03  41 2.03
 124  0.331  0.831  0.999- 144 1.63  88 1.99  16 1.99  45 2.01  43 2.02  97 2.05  10 2.05
 125  0.333  0.833  0.333-  89 2.01  43 2.01  17 2.01  44 2.02  98 2.02  11 2.02
 126  0.332  0.833  0.668-  90 2.00  45 2.00  18 2.00  99 2.03  44 2.03  12 2.03
 127  0.667  0.167  1.000- 156 0.95 180 1.65 100 2.01  19 2.01  22 2.01  48 2.01  91 2.01  46 2.02

 128  0.667  0.167  0.333- 101 2.01  46 2.01  20 2.01  23 2.01  47 2.01  92 2.01
 129  0.667  0.167  0.667- 102 2.01  48 2.01  21 2.01  24 2.01  93 2.02  47 2.02
 130  0.667  0.500  0.999- 159 0.95 103 2.00  51 2.01  25 2.01  94 2.01  22 2.02  49 2.02
 131  0.667  0.500  0.333- 104 2.01  49 2.01  26 2.01  50 2.01  95 2.02  23 2.02
 132  0.667  0.501  0.667- 105 2.00  51 2.00  27 2.01  96 2.02  24 2.02  50 2.02
 133  0.667  0.833  0.999- 153 1.67 106 2.00  54 2.01  25 2.01  97 2.01  19 2.02  52 2.02
 134  0.667  0.833  0.333- 107 2.01  52 2.01  26 2.01  53 2.01  98 2.02  20 2.02
 135  0.667  0.833  0.667- 108 2.00  54 2.00  27 2.01  99 2.02  53 2.02  21 2.02
 136  0.000  0.999  0.166-  34 1.99   1 1.99  55 2.01  73 2.02  28 2.02   2 2.02
 137  0.000  0.999  0.500-  35 1.99   3 1.99  56 2.02  74 2.02   2 2.02  29 2.02
 138  0.000  0.002  0.834- 189 1.65  36 1.90  30 1.99  57 2.02   1 2.02  75 2.03   3 2.03
 139  0.000  0.334  0.166- 162 1.34  31 1.99   4 1.99  58 2.01  76 2.02  28 2.02   5 2.02
 140  0.000  0.334  0.500-  32 1.99   6 1.99  59 2.02  77 2.02   5 2.02  29 2.02
 141  0.000  0.332  0.834-  33 1.90  30 1.99  60 2.02   4 2.02  78 2.03   6 2.03
 142  0.001  0.667  0.167-   7 1.89  61 2.01   8 2.01  34 2.03  31 2.03  79 2.05
 143  1.000  0.667  0.498-   9 1.90   8 1.98  80 2.03  32 2.03  35 2.03  62 2.03
 144  0.223  0.889  0.057-  88 1.14 124 1.63  43 1.99  55 2.02  10 2.02
 145  0.333  0.999  0.389-  11 0.67
 146  0.333  0.999  0.722-  12 0.68
 147  0.333  0.222  0.056- 118 0.95  13 1.49  37 1.50  82 2.22  91 2.23
 148  0.333  0.334  0.389-  14 0.67
 149  0.333  0.334  0.722-  15 0.68
 150  0.333  0.556  0.055- 121 0.94  16 1.49  40 1.51  85 2.24  94 2.24
 151  0.331  0.667  0.388-  17 0.65
 152  0.336  0.667  0.722-  18 0.69
 153  0.554  0.889  0.057-  97 1.15 198 1.64 133 1.67  64 2.00  52 2.01  19 2.03
 154  0.667  1.000  0.389-  20 0.67
 155  0.667  0.999  0.722-  21 0.67
 156  0.667  0.222  0.055- 127 0.95  22 1.49  46 1.50 100 2.22  91 2.23
 157  0.667  0.334  0.389-  23 0.67
 158  0.667  0.334  0.722-  24 0.68
 159  0.667  0.556  0.055- 130 0.95  25 1.49  49 1.51 103 2.21  94 2.22
 160  0.667  0.667  0.390-  26 0.68
 161  0.665  0.667  0.722-  27 0.69
 162  1.000  0.333  0.055-   4 0.65 139 1.34
 163  0.167  0.167  0.389-  83 0.67
 164  0.167  0.167  0.722-  84 0.67
 165  0.166  0.389  0.055-  85 1.43  58 1.52   4 2.23  13 2.24
 166  0.166  0.502  0.388-  86 0.65
 167  0.164  0.503  0.722-  87 0.68
 168  0.166  0.723  0.056-  88 1.56  61 1.57   7 2.25
 169  0.166  0.831  0.388-  89 0.65
 170  0.164  0.831  0.722-  90 0.68
 171  0.389  0.054  0.057-  10 1.15 198 1.64 118 1.67  64 2.00  37 2.01  91 2.03
 172  0.500  0.167  0.389-  92 0.67
 173  0.500  0.167  0.722-  93 0.67
 174  0.500  0.389  0.055- 201 0.95  94 1.49  67 1.51  13 2.22  22 2.23
 175  0.500  0.500  0.389-  95 0.67
 176  0.500  0.500  0.722-  96 0.67
 177  0.500  0.722  0.056- 204 0.95  97 1.51  70 1.51  16 2.14  25 2.21
 178  0.500  0.833  0.389-  98 0.67
 179  0.500  0.834  0.722-  99 0.67
 180  0.722  0.055  0.056-  19 1.16 127 1.65 207 1.66  73 2.01 100 2.01  46 2.02
 181  0.834  0.167  0.389- 101 0.67
 182  0.833  0.167  0.722- 102 0.67
 183  0.834  0.389  0.055- 210 0.95 103 1.48  76 1.51   4 2.22  22 2.23
 184  0.834  0.501  0.389- 104 0.67
 185  0.836  0.503  0.722- 105 0.68
 186  0.834  0.722  0.055- 213 0.97 106 1.51  79 1.52   7 2.11  25 2.24
 187  0.834  0.833  0.389- 107 0.67
 188  0.836  0.830  0.722- 108 0.68
 189  0.055  0.944  0.944-   1 1.19 138 1.65 115 1.66  36 1.92  88 1.97  57 2.04
 190  0.167  0.001  0.222-  55 0.66
 191  0.166  0.999  0.556-  56 0.68
 192  0.166  0.223  0.889-  60 1.48  82 1.51  30 2.22  39 2.24
 193  0.167  0.333  0.222-  58 0.66
 194  0.166  0.334  0.556-  59 0.68
 195  0.164  0.556  0.886-  63 1.52  85 1.56  33 2.23
 196  0.167  0.667  0.334-  61 1.94  62 1.98  17 2.02  86 2.02  89 2.02   8 2.02
 197  0.164  0.667  0.668-  63 1.93   9 1.99  87 2.02  90 2.02  62 2.05  18 2.07
 198  0.500  1.000  1.000- 153 1.64 171 1.64  97 2.00  10 2.00  66 2.01  19 2.01  64 2.02  91 2.02

 199  0.500  1.000  0.333-  98 2.01  11 2.01  64 2.01  20 2.01  65 2.01  92 2.02
 200  0.500  1.000  0.667-  99 2.01  66 2.01  12 2.01  21 2.01  93 2.02  65 2.02
 201  0.500  0.334  1.000- 174 0.95  94 2.00  13 2.00  69 2.01  22 2.01  67 2.02  91 2.02
 202  0.500  0.334  0.333-  95 2.01  14 2.01  67 2.01  23 2.01  68 2.01  92 2.02
 203  0.500  0.334  0.667-  96 2.01  69 2.01  15 2.01  24 2.01  93 2.02  68 2.02
 204  0.501  0.667  0.000- 177 0.95  16 1.94  25 1.98  70 2.02  94 2.02  97 2.02  72 2.02
 205  0.500  0.667  0.333-  17 2.00  70 2.00  26 2.01  71 2.01  95 2.02  98 2.02
 206  0.500  0.667  0.667-  18 1.99  27 2.00  72 2.01  71 2.02  96 2.02  99 2.02
 207  0.834  0.999  0.999- 180 1.66 106 1.99   1 2.00  75 2.01  73 2.02 100 2.02  19 2.02
 208  0.834  1.000  0.333- 107 2.01   2 2.01  73 2.01  74 2.01 101 2.02  20 2.02
 209  0.834  0.999  0.667- 108 2.00   3 2.00  75 2.00 102 2.02  74 2.02  21 2.02
 210  0.834  0.334  0.999- 183 0.95 103 1.99   4 2.00  78 2.01  76 2.02 100 2.02  22 2.02
 211  0.834  0.334  0.333- 104 2.01   5 2.01  76 2.01  77 2.01 101 2.02  23 2.02
 212  0.834  0.334  0.667- 105 2.00   6 2.00  78 2.00 102 2.02  77 2.02  24 2.02
 213  0.835  0.667  0.997- 186 0.97   7 1.93  81 1.99 103 2.02 106 2.02  25 2.05  79 2.07
 214  0.833  0.667  0.333-  79 1.99  80 2.00   8 2.01  26 2.02 104 2.02 107 2.02
 215  0.836  0.667  0.670-   9 1.98  81 1.98 105 2.02 108 2.02  27 2.07  80 2.07
 
 -----------------------------------------------------------------------------
|                                                                             |
|           W    W    AA    RRRRR   N    N  II  N    N   GGGG   !!!           |
|           W    W   A  A   R    R  NN   N  II  NN   N  G    G  !!!           |
|           W    W  A    A  R    R  N N  N  II  N N  N  G       !!!           |
|           W WW W  AAAAAA  RRRRR   N  N N  II  N  N N  G  GGG   !            |
|           WW  WW  A    A  R   R   N   NN  II  N   NN  G    G                |
|           W    W  A    A  R    R  N    N  II  N    N   GGGG   !!!           |
|                                                                             |
|     The distance between some ions is very small. Please check the          |
|     nearest-neighbor list in the OUTCAR file.                               |
|     I HOPE YOU KNOW WHAT YOU ARE DOING!                                     |
|                                                                             |
 -----------------------------------------------------------------------------

  LATTYP: Found a simple cubic cell.
 ALAT       =    12.0789003372
  
  Lattice vectors:
  
 A1 = (  12.0789003372,   0.0000000000,   0.0000000000)
 A2 = (   0.0000000000,  12.0789003372,   0.0000000000)
 A3 = (   0.0000000000,   0.0000000000,  12.0789003372)


Analysis of symmetry for initial positions (statically):
=====================================================================
 Subroutine PRICEL returns:
 Original cell was already a primitive cell.
 

 Routine SETGRP: Setting up the symmetry group for a 
 simple cubic supercell.


 Subroutine GETGRP returns: Found  1 space group operations
 (whereof  1 operations were pure point group operations)
 out of a pool of 48 trial point group operations.


The static configuration has the point symmetry C_1 .


Analysis of symmetry for dynamics (positions and initial velocities):
=====================================================================
 Subroutine PRICEL returns:
 Original cell was already a primitive cell.
 

 Routine SETGRP: Setting up the symmetry group for a 
 simple cubic supercell.


 Subroutine GETGRP returns: Found  1 space group operations
 (whereof  1 operations were pure point group operations)
 out of a pool of 48 trial point group operations.


The dynamic configuration has the point symmetry C_1 .


Analysis of structural, dynamic, and magnetic symmetry:
=====================================================================
 Subroutine PRICEL returns:
 Original cell was already a primitive cell.
 

 Routine SETGRP: Setting up the symmetry group for a 
 simple cubic supercell.


 Subroutine GETGRP returns: Found  1 space group operations
 (whereof  1 operations were pure point group operations)
 out of a pool of 48 trial point group operations.


The overall configuration has the point symmetry C_1 .


 Subroutine INISYM returns: Found  1 space group operations
 (whereof  1 operations are pure point group operations),
 and found     1 'primitive' translations


----------------------------------------------------------------------------------------

                                     Primitive cell                                     

  volume of cell :    1762.3095

  direct lattice vectors                    reciprocal lattice vectors
    12.078900337  0.000000000  0.000000000     0.082788993  0.000000000  0.000000000
     0.000000000 12.078900337  0.000000000     0.000000000  0.082788993  0.000000000
     0.000000000  0.000000000 12.078900337     0.000000000  0.000000000  0.082788993

  length of vectors
    12.078900337 12.078900337 12.078900337     0.082788993  0.082788993  0.082788993

  position of ions in fractional coordinates (direct lattice)
     0.999486251  0.001954852  0.001090335
     0.999880185  0.000331617  0.333392105
     0.999879547  0.001376259  0.665524602
     0.999464027  0.331423937  0.001082970
     0.999872030  0.333035302  0.333403559
     0.999871774  0.332012235  0.665522628
     0.994367139  0.666644222  0.011279040
     0.999455748  0.666644285  0.333983731
     0.999452474  0.666653661  0.654839482
     0.334009429  0.000785552  0.000252125
     0.333581976  0.000177511  0.333410438
     0.333596991  0.000191545  0.666341400
     0.334008441  0.332596413  0.000254361
     0.333584376  0.333195455  0.333414176
     0.333600854  0.333179455  0.666335910
     0.340212066  0.666642844  0.001094879
     0.334137701  0.666641462  0.333984197
     0.335139695  0.666635393  0.664965957
     0.666555932  0.000261131  0.000251719
     0.666555311  0.000165073  0.333394463
     0.666539245  0.000182111  0.666356204
     0.666540370  0.333098761  0.000254419
     0.666544182  0.333202094  0.333403964
     0.666526347  0.333185492  0.666345085
     0.665388608  0.666644571  0.001094859
     0.666390949  0.666645223  0.333481180
     0.665388377  0.666639106  0.665467810
     0.999938198  0.166658658  0.166976479
     0.999938747  0.166670234  0.499732943
     0.999938333  0.166653011  0.833280903
     0.999927807  0.498844035  0.168004710
     0.999927793  0.498836903  0.498696571
     0.999926215  0.488647645  0.833283103
     0.999941015  0.834488410  0.167993581
     0.999927887  0.834489711  0.498687544
     0.999940680  0.844596682  0.833277136
     0.333539647  0.166652307  0.166820277
     0.333513311  0.166656903  0.499890769
     0.333692059  0.166649866  0.833281968
     0.333540881  0.499672227  0.166836044
     0.333533937  0.499674997  0.499872572
     0.334689520  0.498832515  0.833292080
     0.333553252  0.833672965  0.166831899
     0.333541698  0.833668611  0.499872728
     0.334690019  0.834472220  0.833293481
     0.666549661  0.166646190  0.166803233
     0.666550592  0.166653529  0.499889916
     0.666396998  0.166644880  0.833299273
     0.666536234  0.499670977  0.166840082
     0.666543650  0.499687850  0.499871649
     0.665386598  0.498830773  0.833287224
     0.666532902  0.833679869  0.166832291
     0.666535042  0.833656420  0.499872177
     0.665394007  0.834480326  0.833291813
     0.166913590  0.000787431  0.167308718
     0.166904849  0.000259967  0.499872691
     0.167730122  0.001967297  0.832814387
     0.166901063  0.332590458  0.167305864
     0.166898268  0.333101721  0.499870109
     0.167727321  0.331424332  0.832805537
     0.167721108  0.666652747  0.173507949
     0.167715761  0.666648821  0.498689193
     0.177790323  0.666636156  0.827786205
     0.500070876  0.000175039  0.166885925
     0.500059443  0.000162242  0.499892754
     0.500070421  0.000325087  0.833219660
     0.500068893  0.333185731  0.166877642
     0.500055789  0.333184616  0.499890373
     0.500068443  0.333033085  0.833223724
     0.500659107  0.666652792  0.167438826
     0.500131385  0.666658521  0.499738606
     0.500659180  0.666649505  0.832818153
     0.833058728  0.000195197  0.166890228
     0.833046502  0.000182363  0.499871908
     0.832241414  0.001376280  0.833231650
     0.833048761  0.333168662  0.166890204
     0.833050564  0.333175844  0.499869435
     0.832222111  0.332002050  0.833221088
     0.831641053  0.666664137  0.168470023
     0.832158767  0.666651510  0.498687579
     0.821569373  0.666648109  0.832823676
     0.166808267  0.166660387  0.000149308
     0.166764157  0.166650703  0.333482991
     0.166789948  0.166649654  0.666366985
     0.166791066  0.494214866  0.000146625
     0.166790167  0.499303200  0.333979330
     0.166776613  0.499305978  0.665875003
     0.166802626  0.839075996  0.000147652
     0.166789402  0.834028587  0.333984167
     0.166776846  0.834018472  0.665874129
     0.500140503  0.166668982  0.000121348
     0.500059267  0.166656040  0.333398365
     0.500058318  0.166654524  0.666480198
     0.500657687  0.499309002  0.000146292
     0.500064971  0.499753072  0.333395038
     0.500064579  0.499727305  0.666453094
     0.500662735  0.834025222  0.000147489
     0.500066866  0.833593350  0.333406370
     0.500066818  0.833616582  0.666447461
     0.833096139  0.166653222  0.000149529
     0.833189657  0.166647095  0.333402224
     0.833163786  0.166647188  0.666447052
     0.832568961  0.499311839  0.000146476
     0.833148626  0.499724001  0.333402643
     0.833159284  0.499725775  0.666450455
     0.832596791  0.834028435  0.000147006
     0.833157539  0.833628462  0.333410438
     0.833167309  0.833620074  0.666446897
     0.999872709  0.166681046  0.000290901
     0.000085429  0.166676616  0.333208825
     0.000085419  0.166674472  0.666491592
     0.001424429  0.504267987  0.997154604
     0.000271665  0.499979930  0.333002432
     0.000270032  0.503109480  0.669834374
     0.001438735  0.829062409  0.997161121
     0.000276949  0.833348287  0.333007192
     0.000275534  0.830216837  0.669825728
     0.333254055  0.166678566  0.999835234
     0.333145014  0.166672187  0.333217916
     0.333024274  0.166671078  0.666942714
     0.331271374  0.501960879  0.999458811
     0.332820777  0.500435853  0.333007530
     0.332413109  0.500814352  0.667544417
     0.331282848  0.831355020  0.999457723
     0.332828754  0.832895949  0.333013804
     0.332420798  0.832501483  0.667538684
     0.666915124  0.166672168  0.999835586
     0.666783062  0.166668363  0.333274335
     0.666902899  0.166668359  0.666885777
     0.667318407  0.500395737  0.999459000
     0.666906066  0.500247397  0.333209394
     0.667312337  0.500624943  0.667341633
     0.667321653  0.832926054  0.999457652
     0.666903484  0.833092191  0.333213722
     0.667310601  0.832699200  0.667338408
     0.000294122  0.999191866  0.165888913
     0.000080421  0.999408581  0.500481232
     0.000294020  0.001807630  0.833617079
     0.000280876  0.334150856  0.165887861
     0.000081486  0.333947225  0.500494144
     0.000280612  0.331513201  0.833610898
     0.001425138  0.666666172  0.167372027
     0.999856023  0.666662963  0.497877924
     0.223431662  0.888676320  0.056773384
     0.332841573  0.999477071  0.388821452
     0.332758370  0.999392284  0.722222218
     0.332849233  0.222127701  0.055617144
     0.332844698  0.333868628  0.388822207
     0.332759494  0.333947545  0.722224338
     0.332569989  0.555869464  0.055338621
     0.331413224  0.666661472  0.387952196
     0.335571656  0.666652415  0.722232649
     0.554357694  0.888674447  0.056768494
     0.666899316  0.999675468  0.389014930
     0.667177414  0.999450589  0.722226634
     0.666890529  0.222325311  0.055422284
     0.666887461  0.333667043  0.389015162
     0.667166485  0.333884610  0.722225325
     0.667166798  0.555671139  0.055144062
     0.667169170  0.666664667  0.389526574
     0.664580270  0.666656706  0.722233811
     0.999840247  0.333336931  0.055179625
     0.166501733  0.166675261  0.389259895
     0.166959383  0.166672981  0.722223284
     0.166111719  0.389445232  0.054776593
     0.166106064  0.501970063  0.388084200
     0.163801467  0.502694093  0.722226648
     0.166115153  0.723096075  0.056356913
     0.166110065  0.831361124  0.388085273
     0.163808666  0.830630226  0.722226235
     0.388893861  0.054136925  0.056873714
     0.499890357  0.166676941  0.388913420
     0.499950622  0.166673686  0.722223418
     0.499890243  0.389056139  0.055408434
     0.499687399  0.500433381  0.388830328
     0.499891464  0.499789056  0.722221969
     0.499690693  0.722335204  0.055602784
     0.499690044  0.832891275  0.388835710
     0.499891462  0.833538403  0.722226766
     0.722086844  0.055281788  0.055599157
     0.833622537  0.166671596  0.389030543
     0.833111219  0.166669517  0.722226156
     0.834014079  0.389443969  0.055004558
     0.834211591  0.500827943  0.389237215
     0.836315402  0.502921458  0.722227599
     0.834216458  0.721955677  0.055200858
     0.834214781  0.832512975  0.389236811
     0.836322857  0.830406580  0.722228863
     0.055331531  0.943544630  0.944173616
     0.166508326  0.000835206  0.222219474
     0.166112252  0.999126057  0.555854104
     0.166112959  0.222612945  0.888582500
     0.166500626  0.332500757  0.222220646
     0.166108684  0.334215598  0.555852959
     0.163804356  0.555797137  0.886297235
     0.166950126  0.666658469  0.334377573
     0.163797543  0.666654960  0.668466990
     0.499766347  0.999538691  0.999842251
     0.499900713  0.999787999  0.333214928
     0.499900372  0.999668258  0.666947034
     0.499758778  0.333813777  0.999835476
     0.499896567  0.333555627  0.333220013
     0.499895839  0.333674889  0.666938611
     0.501067080  0.666665128  0.000290444
     0.499753939  0.666665262  0.333080515
     0.499754130  0.666661290  0.666627246
     0.834164314  0.999124671  0.999449856
     0.833615869  0.999666936  0.333215621
     0.834007394  0.999266717  0.667327981
     0.834147406  0.334215578  0.999445506
     0.833612406  0.333676440  0.333222412
     0.833999775  0.334074235  0.667320314
     0.835137169  0.666665672  0.997161099
     0.833297982  0.666664294  0.333082343
     0.836446675  0.666661105  0.669761475

  ion indices of the primitive-cell ions
   primitive index   ion index
                 1           1
                 2           2
                 3           3
                 4           4
                 5           5
                 6           6
                 7           7
                 8           8
                 9           9
                10          10
                11          11
                12          12
                13          13
                14          14
                15          15
                16          16
                17          17
                18          18
                19          19
                20          20
                21          21
                22          22
                23          23
                24          24
                25          25
                26          26
                27          27
                28          28
                29          29
                30          30
                31          31
                32          32
                33          33
                34          34
                35          35
                36          36
                37          37
                38          38
                39          39
                40          40
                41          41
                42          42
                43          43
                44          44
                45          45
                46          46
                47          47
                48          48
                49          49
                50          50
                51          51
                52          52
                53          53
                54          54
                55          55
                56          56
                57          57
                58          58
                59          59
                60          60
                61          61
                62          62
                63          63
                64          64
                65          65
                66          66
                67          67
                68          68
                69          69
                70          70
                71          71
                72          72
                73          73
                74          74
                75          75
                76          76
                77          77
                78          78
                79          79
                80          80
                81          81
                82          82
                83          83
                84          84
                85          85
                86          86
                87          87
                88          88
                89          89
                90          90
                91          91
                92          92
                93          93
                94          94
                95          95
                96          96
                97          97
                98          98
                99          99
               100         100
               101         101
               102         102
               103         103
               104         104
               105         105
               106         106
               107         107
               108         108
               109         109
               110         110
               111         111
               112         112
               113         113
               114         114
               115         115
               116         116
               117         117
               118         118
               119         119
               120         120
               121         121
               122         122
               123         123
               124         124
               125         125
               126         126
               127         127
               128         128
               129         129
               130         130
               131         131
               132         132
               133         133
               134         134
               135         135
               136         136
               137         137
               138         138
               139         139
               140         140
               141         141
               142         142
               143         143
               144         144
               145         145
               146         146
               147         147
               148         148
               149         149
               150         150
               151         151
               152         152
               153         153
               154         154
               155         155
               156         156
               157         157
               158         158
               159         159
               160         160
               161         161
               162         162
               163         163
               164         164
               165         165
               166         166
               167         167
               168         168
               169         169
               170         170
               171         171
               172         172
               173         173
               174         174
               175         175
               176         176
               177         177
               178         178
               179         179
               180         180
               181         181
               182         182
               183         183
               184         184
               185         185
               186         186
               187         187
               188         188
               189         189
               190         190
               191         191
               192         192
               193         193
               194         194
               195         195
               196         196
               197         197
               198         198
               199         199
               200         200
               201         201
               202         202
               203         203
               204         204
               205         205
               206         206
               207         207
               208         208
               209         209
               210         210
               211         211
               212         212
               213         213
               214         214
               215         215

----------------------------------------------------------------------------------------

 
 
 KPOINTS: Gamma-point only                        

Automatic generation of k-mesh.
 Grid dimensions read from file:
 generate k-points for:    1    1    1

 Generating k-lattice:

  Cartesian coordinates                     Fractional coordinates (reciprocal lattice)
     0.082788993  0.000000000  0.000000000     1.000000000  0.000000000  0.000000000
     0.000000000  0.082788993  0.000000000     0.000000000  1.000000000  0.000000000
     0.000000000  0.000000000  0.082788993     0.000000000  0.000000000  1.000000000

  Length of vectors
     0.082788993  0.082788993  0.082788993

  Shift w.r.t. Gamma in fractional coordinates (k-lattice)
     0.000000000  0.000000000  0.000000000

 
 Subroutine IBZKPT returns following result:
 ===========================================
 
 Found      1 irreducible k-points:
 
 Following reciprocal coordinates:
            Coordinates               Weight
  0.000000  0.000000  0.000000      1.000000
 
 Following cartesian coordinates:
            Coordinates               Weight
  0.000000  0.000000  0.000000      1.000000
 


--------------------------------------------------------------------------------------------------------




 Dimension of arrays:
   k-points           NKPTS =      1   k-points in BZ     NKDIM =      1   number of bands    NBANDS=    752
   number of dos      NEDOS =    301   number of ions     NIONS =    215
   non local maximal  LDIM  =      4   non local SUM 2l+1 LMDIM =      8
   total plane-waves  NPLWV = 512000
   max r-space proj   IRMAX =      1   max aug-charges    IRDMAX=   3893
   dimension x,y,z NGX =    80 NGY =   80 NGZ =   80
   dimension x,y,z NGXF=   160 NGYF=  160 NGZF=  160
   support grid    NGXF=   160 NGYF=  160 NGZF=  160
   ions per type =             108 107
   NGX,Y,Z   is equivalent  to a cutoff of  11.01, 11.01, 11.01 a.u.
   NGXF,Y,Z  is equivalent  to a cutoff of  22.02, 22.02, 22.02 a.u.

 SYSTEM =  Si                                      
 POSCAR =  Li   F                                  

 Startparameter for this run:
   NWRITE =      2    write-flag & timer
   PREC   = accura    normal or accurate (medium, high low for compatibility)
   ISTART =      0    job   : 0-new  1-cont  2-samecut
   ICHARG =      0    charge: 1-file 2-atom 10-const
   ISPIN  =      2    spin polarized calculation?
   LNONCOLLINEAR =      F non collinear calculations
   LSORBIT =      F    spin-orbit coupling
   INIWAV =      1    electr: 0-lowe 1-rand  2-diag
   LASPH  =      F    aspherical Exc in radial PAW
 Electronic Relaxation 1
   ENCUT  =  400.0 eV  29.40 Ry    5.42 a.u.  19.70 19.70 19.70*2*pi/ulx,y,z
   ENINI  =  400.0     initial cutoff
   ENAUG  =  628.9 eV  augmentation charge cutoff
   NELM   =     20;   NELMIN=  2; NELMDL= -5     # of ELM steps 
   EDIFF  = 0.1E-09   stopping-criterion for ELM
   LREAL  =      F    real-space projection
   NLSPLINE    = F    spline interpolate recip. space projectors
   LCOMPAT=      F    compatible to vasp.4.4
   GGA_COMPAT  = T    GGA compatible to vasp.4.4-vasp.4.6
   LMAXPAW     = -100 max onsite density
   LMAXMIX     =    2 max onsite mixed and CHGCAR
   VOSKOWN=      0    Vosko Wilk Nusair interpolation
   ROPT   =    0.00000   0.00000
 Ionic relaxation
   EDIFFG = -.1E-01   stopping-criterion for IOM
   NSW    =    500    number of steps for IOM
   NBLOCK =      1;   KBLOCK =    500    inner block; outer block 
   IBRION =      3    ionic relax: 0-MD 1-quasi-New 2-CG
   NFREE  =      0    steps in history (QN), initial steepest desc. (CG)
   ISIF   =      0    stress and relaxation
   IWAVPR =     11    prediction:  0-non 1-charg 2-wave 3-comb
   ISYM   =      2    0-nonsym 1-usesym 2-fastsym
   LCORR  =      T    Harris-Foulkes like correction to forces

   POTIM  = 0.0000    time-step for ionic-motion
   TEIN   =    0.0    initial temperature
   TEBEG  =    0.0;   TEEND  =   0.0 temperature during run
   SMASS  =  -3.00    Nose mass-parameter (am)
   estimated Nose-frequenzy (Omega)   =  0.10E-29 period in steps = 0.00E+00 mass=  -0.333E-26a.u.
   SCALEE = 1.0000    scale energy and forces
   NPACO  =    256;   APACO  = 10.0  distance and # of slots for P.C.
   PSTRESS=    0.0 pullay stress

  Mass of Ions in am
   POMASS =   7.01 19.00
  Ionic Valenz
   ZVAL   =   3.00  7.00
  Atomic Wigner-Seitz radii
   RWIGS  =  -1.00 -1.00
  virtual crystal weights 
   VCA    =   1.00  1.00
   NELECT =    1072.0000    total number of electrons
   NUPDOWN=      -1.0000    fix difference up-down

 DOS related values:
   EMIN   =  10.00;   EMAX   =-10.00  energy-range for DOS
   EFERMI =   0.00;   METHOD = LEGACY      
   ISMEAR =     0;   SIGMA  =   0.01  broadening in eV -4-tet -1-fermi 0-gaus

 Electronic relaxation 2 (details)
   IALGO  =     38    algorithm
   LDIAG  =      T    sub-space diagonalisation (order eigenvalues)
   LSUBROT=      F    optimize rotation matrix (better conditioning)
   TURBO    =      0    0=normal 1=particle mesh
   IRESTART =      0    0=no restart 2=restart with 2 vectors
   NREBOOT  =      0    no. of reboots
   NMIN     =      0    reboot dimension
   EREF     =   0.00    reference energy to select bands
   IMIX   =      4    mixing-type and parameters
     AMIX     =   0.40;   BMIX     =  1.00
     AMIX_MAG =   1.60;   BMIX_MAG =  1.00
     AMIN     =   0.10
     WC   =   100.;   INIMIX=   1;  MIXPRE=   1;  MAXMIX= -45

 Intra band minimization:
   WEIMIN = 0.0010     energy-eigenvalue tresh-hold
   EBREAK =  0.33E-13  absolut break condition
   DEPER  =   0.30     relativ break condition  

   TIME   =   0.40     timestep for ELM

  volume/ion in A,a.u.               =       8.20        55.31
  Fermi-wavevector in a.u.,A,eV,Ry     =   1.387115  2.621267 26.178794  1.924087
  Thomas-Fermi vector in A             =   2.511366
 
 Write flags
   LWAVE        =      T    write WAVECAR
   LDOWNSAMPLE  =      F    k-point downsampling of WAVECAR
   LCHARG       =      T    write CHGCAR
   LVTOT        =      F    write LOCPOT, total local potential
   LVHAR        =      F    write LOCPOT, Hartree potential only
   LELF         =      F    write electronic localiz. function (ELF)
   LORBIT       =      0    0 simple, 1 ext, 2 COOP (PROOUT), +10 PAW based schemes


 Dipole corrections
   LMONO  =      F    monopole corrections only (constant potential shift)
   LDIPOL =      F    correct potential (dipole corrections)
   IDIPOL =      0    1-x, 2-y, 3-z, 4-all directions 
   EPSILON=  1.0000000 bulk dielectric constant

 Exchange correlation treatment:
   GGA     =    --    GGA type
   LEXCH   =     8    internal setting for exchange type
   LIBXC   =     F    Libxc                    
   VOSKOWN =     0    Vosko Wilk Nusair interpolation
   LHFCALC =     F    Hartree Fock is set to
   LHFONE  =     F    Hartree Fock one center treatment
   AEXX    =    0.0000 exact exchange contribution

 Linear response parameters
   LEPSILON=     F    determine dielectric tensor
   LRPA    =     F    only Hartree local field effects (RPA)
   LNABLA  =     F    use nabla operator in PAW spheres
   LVEL    =     F    velocity operator in full k-point grid
   CSHIFT  =0.1000    complex shift for real part using Kramers Kronig
   OMEGAMAX=  -1.0    maximum frequency
   DEG_THRESHOLD= 0.2000000E-02 threshold for treating states as degnerate
   RTIME   =   -0.100 relaxation time in fs
  (WPLASMAI=    0.000 imaginary part of plasma frequency in eV, 0.658/RTIME)
   DFIELD  = 0.0000000 0.0000000 0.0000000 field for delta impulse in time
 
  Optional k-point grid parameters
   LKPOINTS_OPT  =     F    use optional k-point grid
   KPOINTS_OPT_MODE=     1    mode for optional k-point grid
 
 Orbital magnetization related:
   ORBITALMAG=     F  switch on orbital magnetization
   LCHIMAG   =     F  perturbation theory with respect to B field
   DQ        =  0.001000  dq finite difference perturbation B field
   LLRAUG    =     F  two centre corrections for induced B field
   LBONE     =     F  B-component reconstruction in AE one-centre
   LVGVCALC  =     T  calculate vGv susceptibility
   LVGVAPPL  =     F  apply vGv susceptibility instead of pGv for G=0

 Random number generation:
   RANDOM_GENERATOR = DEFAULT
   PCG_SEED         = not used


--------------------------------------------------------------------------------------------------------


 quickmin algorithm: (dynamic with friction)
 charge density and potential will be updated during run
 spin polarized calculation
 Variant of blocked Davidson
 Davidson routine will perform the subspace rotation
 perform sub-space diagonalisation
    after iterative eigenvector-optimisation
 modified Broyden-mixing scheme, WC =      100.0
 initial mixing is a Kerker type mixing with AMIX =  0.4000 and BMIX =      1.0000
 Hartree-type preconditioning will be used
 using additional bands           216
 reciprocal scheme for non local part
 use partial core corrections
 calculate Harris-corrections to forces 
   (improved forces if not selfconsistent)
 use gradient corrections 
 use of overlap-Matrix (Vanderbilt PP)
 Gauss-broadening in eV      SIGMA  =   0.01


--------------------------------------------------------------------------------------------------------


  energy-cutoff  :      400.00
  volume of cell :     1762.31
      direct lattice vectors                 reciprocal lattice vectors
    12.078900337  0.000000000  0.000000000     0.082788993  0.000000000  0.000000000
     0.000000000 12.078900337  0.000000000     0.000000000  0.082788993  0.000000000
     0.000000000  0.000000000 12.078900337     0.000000000  0.000000000  0.082788993

  length of vectors
    12.078900337 12.078900337 12.078900337     0.082788993  0.082788993  0.082788993


 
 k-points in units of 2pi/SCALE and weight: Gamma-point only                        
   0.00000000  0.00000000  0.00000000       1.000
 
 k-points in reciprocal lattice and weights: Gamma-point only                        
   0.00000000  0.00000000  0.00000000       1.000
 
 position of ions in fractional coordinates (direct lattice) 
   0.99948625  0.00195485  0.00109034
   0.99988019  0.00033162  0.33339211
   0.99987955  0.00137626  0.66552460
   0.99946403  0.33142394  0.00108297
   0.99987203  0.33303530  0.33340356
   0.99987177  0.33201223  0.66552263
   0.99436714  0.66664422  0.01127904
   0.99945575  0.66664428  0.33398373
   0.99945247  0.66665366  0.65483948
   0.33400943  0.00078555  0.00025213
   0.33358198  0.00017751  0.33341044
   0.33359699  0.00019155  0.66634140
   0.33400844  0.33259641  0.00025436
   0.33358438  0.33319546  0.33341418
   0.33360085  0.33317946  0.66633591
   0.34021207  0.66664284  0.00109488
   0.33413770  0.66664146  0.33398420
   0.33513970  0.66663539  0.66496596
   0.66655593  0.00026113  0.00025172
   0.66655531  0.00016507  0.33339446
   0.66653925  0.00018211  0.66635620
   0.66654037  0.33309876  0.00025442
   0.66654418  0.33320209  0.33340396
   0.66652635  0.33318549  0.66634509
   0.66538861  0.66664457  0.00109486
   0.66639095  0.66664522  0.33348118
   0.66538838  0.66663911  0.66546781
   0.99993820  0.16665866  0.16697648
   0.99993875  0.16667023  0.49973294
   0.99993833  0.16665301  0.83328090
   0.99992781  0.49884403  0.16800471
   0.99992779  0.49883690  0.49869657
   0.99992622  0.48864765  0.83328310
   0.99994101  0.83448841  0.16799358
   0.99992789  0.83448971  0.49868754
   0.99994068  0.84459668  0.83327714
   0.33353965  0.16665231  0.16682028
   0.33351331  0.16665690  0.49989077
   0.33369206  0.16664987  0.83328197
   0.33354088  0.49967223  0.16683604
   0.33353394  0.49967500  0.49987257
   0.33468952  0.49883251  0.83329208
   0.33355325  0.83367297  0.16683190
   0.33354170  0.83366861  0.49987273
   0.33469002  0.83447222  0.83329348
   0.66654966  0.16664619  0.16680323
   0.66655059  0.16665353  0.49988992
   0.66639700  0.16664488  0.83329927
   0.66653623  0.49967098  0.16684008
   0.66654365  0.49968785  0.49987165
   0.66538660  0.49883077  0.83328722
   0.66653290  0.83367987  0.16683229
   0.66653504  0.83365642  0.49987218
   0.66539401  0.83448033  0.83329181
   0.16691359  0.00078743  0.16730872
   0.16690485  0.00025997  0.49987269
   0.16773012  0.00196730  0.83281439
   0.16690106  0.33259046  0.16730586
   0.16689827  0.33310172  0.49987011
   0.16772732  0.33142433  0.83280554
   0.16772111  0.66665275  0.17350795
   0.16771576  0.66664882  0.49868919
   0.17779032  0.66663616  0.82778621
   0.50007088  0.00017504  0.16688592
   0.50005944  0.00016224  0.49989275
   0.50007042  0.00032509  0.83321966
   0.50006889  0.33318573  0.16687764
   0.50005579  0.33318462  0.49989037
   0.50006844  0.33303308  0.83322372
   0.50065911  0.66665279  0.16743883
   0.50013138  0.66665852  0.49973861
   0.50065918  0.66664950  0.83281815
   0.83305873  0.00019520  0.16689023
   0.83304650  0.00018236  0.49987191
   0.83224141  0.00137628  0.83323165
   0.83304876  0.33316866  0.16689020
   0.83305056  0.33317584  0.49986943
   0.83222211  0.33200205  0.83322109
   0.83164105  0.66666414  0.16847002
   0.83215877  0.66665151  0.49868758
   0.82156937  0.66664811  0.83282368
   0.16680827  0.16666039  0.00014931
   0.16676416  0.16665070  0.33348299
   0.16678995  0.16664965  0.66636698
   0.16679107  0.49421487  0.00014663
   0.16679017  0.49930320  0.33397933
   0.16677661  0.49930598  0.66587500
   0.16680263  0.83907600  0.00014765
   0.16678940  0.83402859  0.33398417
   0.16677685  0.83401847  0.66587413
   0.50014050  0.16666898  0.00012135
   0.50005927  0.16665604  0.33339837
   0.50005832  0.16665452  0.66648020
   0.50065769  0.49930900  0.00014629
   0.50006497  0.49975307  0.33339504
   0.50006458  0.49972731  0.66645309
   0.50066273  0.83402522  0.00014749
   0.50006687  0.83359335  0.33340637
   0.50006682  0.83361658  0.66644746
   0.83309614  0.16665322  0.00014953
   0.83318966  0.16664709  0.33340222
   0.83316379  0.16664719  0.66644705
   0.83256896  0.49931184  0.00014648
   0.83314863  0.49972400  0.33340264
   0.83315928  0.49972578  0.66645046
   0.83259679  0.83402844  0.00014701
   0.83315754  0.83362846  0.33341044
   0.83316731  0.83362007  0.66644690
   0.99987271  0.16668105  0.00029090
   0.00008543  0.16667662  0.33320882
   0.00008542  0.16667447  0.66649159
   0.00142443  0.50426799  0.99715460
   0.00027166  0.49997993  0.33300243
   0.00027003  0.50310948  0.66983437
   0.00143874  0.82906241  0.99716112
   0.00027695  0.83334829  0.33300719
   0.00027553  0.83021684  0.66982573
   0.33325406  0.16667857  0.99983523
   0.33314501  0.16667219  0.33321792
   0.33302427  0.16667108  0.66694271
   0.33127137  0.50196088  0.99945881
   0.33282078  0.50043585  0.33300753
   0.33241311  0.50081435  0.66754442
   0.33128285  0.83135502  0.99945772
   0.33282875  0.83289595  0.33301380
   0.33242080  0.83250148  0.66753868
   0.66691512  0.16667217  0.99983559
   0.66678306  0.16666836  0.33327433
   0.66690290  0.16666836  0.66688578
   0.66731841  0.50039574  0.99945900
   0.66690607  0.50024740  0.33320939
   0.66731234  0.50062494  0.66734163
   0.66732165  0.83292605  0.99945765
   0.66690348  0.83309219  0.33321372
   0.66731060  0.83269920  0.66733841
   0.00029412  0.99919187  0.16588891
   0.00008042  0.99940858  0.50048123
   0.00029402  0.00180763  0.83361708
   0.00028088  0.33415086  0.16588786
   0.00008149  0.33394722  0.50049414
   0.00028061  0.33151320  0.83361090
   0.00142514  0.66666617  0.16737203
   0.99985602  0.66666296  0.49787792
   0.22343166  0.88867632  0.05677338
   0.33284157  0.99947707  0.38882145
   0.33275837  0.99939228  0.72222222
   0.33284923  0.22212770  0.05561714
   0.33284470  0.33386863  0.38882221
   0.33275949  0.33394755  0.72222434
   0.33256999  0.55586946  0.05533862
   0.33141322  0.66666147  0.38795220
   0.33557166  0.66665241  0.72223265
   0.55435769  0.88867445  0.05676849
   0.66689932  0.99967547  0.38901493
   0.66717741  0.99945059  0.72222663
   0.66689053  0.22232531  0.05542228
   0.66688746  0.33366704  0.38901516
   0.66716649  0.33388461  0.72222533
   0.66716680  0.55567114  0.05514406
   0.66716917  0.66666467  0.38952657
   0.66458027  0.66665671  0.72223381
   0.99984025  0.33333693  0.05517962
   0.16650173  0.16667526  0.38925990
   0.16695938  0.16667298  0.72222328
   0.16611172  0.38944523  0.05477659
   0.16610606  0.50197006  0.38808420
   0.16380147  0.50269409  0.72222665
   0.16611515  0.72309607  0.05635691
   0.16611007  0.83136112  0.38808527
   0.16380867  0.83063023  0.72222624
   0.38889386  0.05413693  0.05687371
   0.49989036  0.16667694  0.38891342
   0.49995062  0.16667369  0.72222342
   0.49989024  0.38905614  0.05540843
   0.49968740  0.50043338  0.38883033
   0.49989146  0.49978906  0.72222197
   0.49969069  0.72233520  0.05560278
   0.49969004  0.83289128  0.38883571
   0.49989146  0.83353840  0.72222677
   0.72208684  0.05528179  0.05559916
   0.83362254  0.16667160  0.38903054
   0.83311122  0.16666952  0.72222616
   0.83401408  0.38944397  0.05500456
   0.83421159  0.50082794  0.38923722
   0.83631540  0.50292146  0.72222760
   0.83421646  0.72195568  0.05520086
   0.83421478  0.83251298  0.38923681
   0.83632286  0.83040658  0.72222886
   0.05533153  0.94354463  0.94417362
   0.16650833  0.00083521  0.22221947
   0.16611225  0.99912606  0.55585410
   0.16611296  0.22261295  0.88858250
   0.16650063  0.33250076  0.22222065
   0.16610868  0.33421560  0.55585296
   0.16380436  0.55579714  0.88629723
   0.16695013  0.66665847  0.33437757
   0.16379754  0.66665496  0.66846699
   0.49976635  0.99953869  0.99984225
   0.49990071  0.99978800  0.33321493
   0.49990037  0.99966826  0.66694703
   0.49975878  0.33381378  0.99983548
   0.49989657  0.33355563  0.33322001
   0.49989584  0.33367489  0.66693861
   0.50106708  0.66666513  0.00029044
   0.49975394  0.66666526  0.33308051
   0.49975413  0.66666129  0.66662725
   0.83416431  0.99912467  0.99944986
   0.83361587  0.99966694  0.33321562
   0.83400739  0.99926672  0.66732798
   0.83414741  0.33421558  0.99944551
   0.83361241  0.33367644  0.33322241
   0.83399977  0.33407424  0.66732031
   0.83513717  0.66666567  0.99716110
   0.83329798  0.66666429  0.33308234
   0.83644667  0.66666110  0.66976147
 
 position of ions in cartesian coordinates  (Angst):
  12.07269482  0.02361246  0.01317005
  12.07745310  0.00400557  4.02701002
  12.07744540  0.01662370  8.03880534
  12.07242638  4.00323670  0.01308109
  12.07735460  4.02270022  4.02714836
  12.07735151  4.01034270  8.03878150
  12.01086157  8.05232912  0.13623840
  12.07232638  8.05232988  4.03415620
  12.07228683  8.05244314  7.90974083
   4.03446661  0.00948860  0.00304539
   4.02930344  0.00214414  4.02723146
   4.02948481  0.00231365  8.04867136
   4.03445468  4.01739893  0.00307240
   4.02933243  4.02463470  4.02727661
   4.02953147  4.02444144  8.04860505
   4.10938764  8.05231248  0.01322493
   4.03601598  8.05229578  4.03416183
   4.04811898  8.05222248  8.03205753
   8.05126268  0.00315417  0.00304049
   8.05125517  0.00199390  4.02703850
   8.05106111  0.00219971  8.04885018
   8.05107470  4.02346674  0.00307310
   8.05112075  4.02471489  4.02715326
   8.05090532  4.02451435  8.04871587
   8.03716268  8.05233333  0.01322469
   8.04926985  8.05234121  4.02808594
   8.03715989  8.05226732  8.03811935
  12.07815383  2.01305333  2.01689225
  12.07816047  2.01319315  6.03622441
  12.07815547  2.01298511 10.06511698
  12.07802832  6.02548738  2.02931215
  12.07802816  6.02540124  6.02370618
  12.07800910  5.90232621 10.06514356
  12.07818786 10.07970234  2.02917772
  12.07802929 10.07971805  6.02359714
  12.07818382 10.20179915 10.06507147
   4.02879215  2.01297661  2.01500550
   4.02847405  2.01303212  6.03813077
   4.03063312  2.01294713 10.06512985
   4.02880706  6.03549103  2.01519595
   4.02872319  6.03552449  6.03791098
   4.04268135  6.02534823 10.06525199
   4.02895649 10.06985266  2.01514588
   4.02881693 10.06980007  6.03791286
   4.04268738 10.07950678 10.06526891
   8.05118692  2.01290272  2.01479963
   8.05119817  2.01299137  6.03812047
   8.04934293  2.01288690 10.06533887
   8.05102474  6.03547593  2.01524472
   8.05111432  6.03567975  6.03789983
   8.03713841  6.02532720 10.06519333
   8.05098450 10.06993606  2.01515062
   8.05101035 10.06965281  6.03790621
   8.03722790 10.07960470 10.06524877
   2.01613262  0.00951130  2.02090533
   2.01602704  0.00314012  6.03791242
   2.02599542  0.02376278 10.05948199
   2.01598130  4.01732699  2.02087085
   2.01594754  4.02350249  6.03788123
   2.02596160  4.00324148 10.05937508
   2.02588655  8.05243209  2.09578523
   2.02582196  8.05238467  6.02361706
   2.14751159  8.05223169  9.99874707
   6.04030628  0.00211428  2.01579845
   6.04016817  0.00195971  6.03815475
   6.04030078  0.00392670 10.06437724
   6.04028233  4.02451724  2.01569840
   6.04012404  4.02450377  6.03812599
   6.04027689  4.02267344 10.06442632
   6.04741146  8.05243264  2.02247689
   6.04103715  8.05250184  6.03629281
   6.04741234  8.05239293 10.05952747
  10.06243335  0.00235776  2.01585043
  10.06228567  0.00220274  6.03790296
  10.05256109  0.01662395 10.06452205
  10.06231297  4.02431107  2.01585015
  10.06233473  4.02439782  6.03787308
  10.05232794  4.01021968 10.06439449
  10.04530939  8.05256967  2.03493261
  10.05156282  8.05241715  6.02359757
   9.92365457  8.05237607 10.05959418
   2.01486043  2.01307420  0.00180347
   2.01432764  2.01295723  4.02810782
   2.01463916  2.01294456  8.04898039
   2.01465267  5.96957211  0.00177107
   2.01464180  6.03103359  4.03410304
   2.01447809  6.03106714  8.04303780
   2.01479230 10.13511534  0.00178347
   2.01463256 10.07414819  4.03416147
   2.01448090 10.07402600  8.04302724
   6.04114729  2.01317802  0.00146576
   6.04016605  2.01302170  4.02708563
   6.04015459  2.01300338  8.05034789
   6.04739430  6.03110367  0.00176704
   6.04023494  6.03646755  4.02704543
   6.04023022  6.03615632  8.05002050
   6.04745527 10.07410753  0.00178150
   6.04025784 10.06889100  4.02718231
   6.04025726 10.06917162  8.04995246
  10.06288523  2.01298766  0.00180615
  10.06401483  2.01291365  4.02713223
  10.06370234  2.01291477  8.04994752
  10.05651750  6.03113794  0.00176927
  10.06351922  6.03611641  4.02713729
  10.06364795  6.03613783  8.04998863
  10.05685366 10.07414635  0.00177567
  10.06362687 10.06931511  4.02723145
  10.06374489 10.06921379  8.04994565
  12.07736280  2.01332374  0.00351377
   0.00103188  2.01327024  4.02479619
   0.00103177  2.01324433  8.05048551
   0.01720554  6.09100276 12.04453108
   0.00328141  6.03920774  4.02230319
   0.00326169  6.07700926  8.09086265
   0.01737834 10.01416221 12.04460980
   0.00334524 10.06593090  4.02236069
   0.00332814 10.02810644  8.09075821
   4.02534252  2.01329378 12.07691015
   4.02402542  2.01321674  4.02490600
   4.02256701  2.01320334  8.05593458
   4.00139392  6.06313543 12.07236337
   4.02010899  6.04471479  4.02236476
   4.01518481  6.04928664  8.06320248
   4.00153250 10.04185443 12.07235022
   4.02020535 10.06046716  4.02244055
   4.01527769 10.05570244  8.06313323
   8.05560131  2.01321650 12.07691439
   8.05400615  2.01317054  4.02558748
   8.05545365  2.01317049  8.05524684
   8.06047253  6.04423023 12.07236566
   8.05549190  6.04243845  4.02480306
   8.06039921  6.04699879  8.06075308
   8.06051173 10.06083079 12.07234937
   8.05546072 10.06283754  4.02485534
   8.06037824 10.05809065  8.06071412
   0.00355267 12.06913896  2.00375565
   0.00097139 12.07175664  6.04526292
   0.00355144  0.02183418 10.06917762
   0.00339267  4.03617489  2.00374294
   0.00098426  4.03371524  6.04541889
   0.00338948  4.00431492 10.06910296
   0.01721409  8.05259425  2.02167003
  12.07716125  8.05255549  6.01381783
   2.69880877 10.73423270  0.68576005
   4.02036018 12.07258393  4.69653557
   4.01935519 12.07155980  8.72365019
   4.02045271  2.68305836  0.67179394
   4.02039794  4.03276588  4.69654469
   4.01936876  4.03371912  8.72367580
   4.01707975  6.71429186  0.66842969
   4.00310730  8.05253748  4.68603591
   4.05333659  8.05242808  8.72377619
   6.69603133 10.73421007  0.68570098
   8.05541038 12.07498034  4.69887257
   8.05876949 12.07226405  8.72370354
   8.05530424  2.68544528  0.66944025
   8.05526717  4.03033095  4.69887537
   8.05863748  4.03295892  8.72368772
   8.05864126  6.71189631  0.66607963
   8.05866991  8.05257607  4.70505266
   8.02739885  8.05247991  8.72379023
  12.07697070  4.02634356  0.66650919
   2.01115784  2.01325386  4.70183148
   2.01668574  2.01322632  8.72366306
   2.00644690  4.70407014  0.66164101
   2.00637859  6.06324637  4.68763037
   1.97854159  6.07199185  8.72370370
   2.00648838  8.73420542  0.68072953
   2.00642692 10.04192816  4.68764334
   1.97862856 10.03309972  8.72369872
   4.69741019  0.65391452  0.68697192
   6.03812580  2.01327416  4.69764644
   6.03885373  2.01323485  8.72366469
   6.03812442  4.69937033  0.66927296
   6.03567430  6.04468494  4.69664278
   6.03813917  6.03690220  8.72364719
   6.03571408  8.72501493  0.67162049
   6.03570624 10.06041071  4.69670778
   6.03813915 10.06822730  8.72370512
   8.72201502  0.66774320  0.67157668
  10.06924355  2.01320960  4.69906115
  10.06306739  2.01318448  8.72369775
  10.07397294  4.70405489  0.66439458
  10.07635867  6.04945081  4.70155753
  10.10177040  6.07473817  8.72371519
  10.07641745  8.72043067  0.66676566
  10.07639720 10.05584126  4.70155264
  10.10186044 10.03039832  8.72373045
   0.66834405 11.39698155 11.40457901
   2.01123747  0.01008837  2.68416688
   2.00645334 12.06834407  6.71410632
   2.00646188  2.68891958 10.73309945
   2.01114446  4.01624351  2.68418103
   2.00641023  4.03695690  6.71409250
   1.97857649  6.71341823 10.70549597
   2.01657393  8.05250121  4.03891338
   1.97849419  8.05245882  8.07434616
   6.03662790 12.07332823 12.07699490
   6.03825089 12.07633960  4.02486991
   6.03824678 12.07489326  8.05598675
   6.03653647  4.03210335 12.07691307
   6.03820081  4.02898517  4.02493132
   6.03819202  4.03042573  8.05588501
   6.05233932  8.05258164  0.00350824
   6.03647802  8.05258326  4.02324634
   6.03648033  8.05253528  8.05212406
  10.07578762 12.06832732 12.07225521
  10.06916300 12.07487729  4.02487827
  10.07389220 12.07004308  8.06058818
  10.07558338  4.03695666 12.07220266
  10.06912117  4.03044446  4.02496031
  10.07380016  4.03524939  8.06049556
  10.08753863  8.05258821 12.04460954
  10.06532328  8.05257157  4.02326842
  10.10335602  8.05253304  8.08998210
 


--------------------------------------------------------------------------------------------------------


 k-point   1 :   0.0000 0.0000 0.0000  plane waves:   31919

 maximum and minimum number of plane-waves per node :     31919    31919

 maximum number of plane-waves:     31919
 maximum index in each direction: 
   IXMAX=   19   IYMAX=   19   IZMAX=   19
   IXMIN=  -19   IYMIN=  -19   IZMIN=  -19


 serial   3D FFT for wavefunctions
 parallel 3D FFT for charge:
    minimum data exchange during FFTs selected (reduces bandwidth)


 total amount of memory used by VASP MPI-rank0  1460119. kBytes
=======================================================================

   base      :      30000. kBytes
   nonl-proj :     113886. kBytes
   fftplans  :     141100. kBytes
   grid      :     372121. kBytes
   one-center:       1320. kBytes
   wavefun   :     801692. kBytes
 
     INWAV:  cpu time      0.0001: real time      0.0003
 Broyden mixing: mesh for mixing (old mesh)
   NGX = 39   NGY = 39   NGZ = 39
  (NGX  =160   NGY  =160   NGZ  =160)
  gives a total of  59319 points

 charge density for first step will be calculated from the start-wavefunctions


--------------------------------------------------------------------------------------------------------


 Maximum index for augmentation-charges          3627 (set IRDMAX)


--------------------------------------------------------------------------------------------------------


 initial charge from wavefunction
 First call to EWALD:  gamma=   0.147
 Maximum number of real-space cells 3x 3x 3
 Maximum number of reciprocal cells 3x 3x 3

    FEWALD:  cpu time      0.2506: real time      0.2512


--------------------------------------- Ionic step        1  -------------------------------------------




--------------------------------------- Iteration      1(   1)  ---------------------------------------


    POTLOK:  cpu time      0.1308: real time      0.1316
    SETDIJ:  cpu time      0.7792: real time      0.7814
     EDDAV:  cpu time     12.8824: real time     12.9227
       DOS:  cpu time      0.0003: real time      0.0003
    --------------------------------------------
      LOOP:  cpu time     13.7928: real time     13.8360

 eigenvalue-minimisations  :  4536
 total energy-change (2. order) :-0.2726883E+05  (-0.1014871E+06)
 number of electron    1071.9999974 magnetization      -0.0000002
 augmentation part       92.0603005 magnetization      -0.2904876

 Free energy of the ion-electron system (eV)
  ---------------------------------------------------
  alpha Z        PSCENC =      2139.14908826
  Ewald energy   TEWEN  =    -44003.86720409
  -Hartree energ DENC   =      -660.28390246
  -exchange      EXHF   =         0.00000000
  -V(xc)+E(xc)   XCENC  =      3517.64318771
  PAW double counting   =     17190.59305053   -17596.95521745
  entropy T*S    EENTRO =        -0.00000000
  eigenvalues    EBANDS =    -80307.09009829
  atomic energy  EATOM  =     92451.98304323
  Solvation  Ediel_sol  =         0.00000000
  ---------------------------------------------------
  free energy    TOTEN  =    -27268.82805256 eV

  energy without entropy =   -27268.82805256  energy(sigma->0) =   -27268.82805256


--------------------------------------------------------------------------------------------------------




--------------------------------------- Iteration      1(   2)  ---------------------------------------


     EDDAV:  cpu time      9.8926: real time      9.9229
       DOS:  cpu time      0.0003: real time      0.0003
    --------------------------------------------
      LOOP:  cpu time      9.8929: real time      9.9232

 eigenvalue-minimisations  :  3352
 total energy-change (2. order) :-0.1648312E+05  (-0.1586687E+05)
 number of electron    1071.9999974 magnetization      -0.0000002
 augmentation part       92.0603005 magnetization      -0.2904876

 Free energy of the ion-electron system (eV)
  ---------------------------------------------------
  alpha Z        PSCENC =      2139.14908826
  Ewald energy   TEWEN  =    -44003.86720409
  -Hartree energ DENC   =      -660.28390246
  -exchange      EXHF   =         0.00000000
  -V(xc)+E(xc)   XCENC  =      3517.64318771
  PAW double counting   =     17190.59305053   -17596.95521745
  entropy T*S    EENTRO =        -0.00000000
  eigenvalues    EBANDS =    -96790.20709437
  atomic energy  EATOM  =     92451.98304323
  Solvation  Ediel_sol  =         0.00000000
  ---------------------------------------------------
  free energy    TOTEN  =    -43751.94504864 eV

  energy without entropy =   -43751.94504864  energy(sigma->0) =   -43751.94504864


--------------------------------------------------------------------------------------------------------




--------------------------------------- Iteration      1(   3)  ---------------------------------------


     EDDAV:  cpu time     14.7875: real time     14.8379
       DOS:  cpu time      0.0002: real time      0.0002
    --------------------------------------------
      LOOP:  cpu time     14.7878: real time     14.8381

 eigenvalue-minimisations  :  5440
 total energy-change (2. order) :-0.7660410E+04  (-0.5990107E+04)
 number of electron    1071.9999974 magnetization      -0.0000002
 augmentation part       92.0603005 magnetization      -0.2904876

 Free energy of the ion-electron system (eV)
  ---------------------------------------------------
  alpha Z        PSCENC =      2139.14908826
  Ewald energy   TEWEN  =    -44003.86720409
  -Hartree energ DENC   =      -660.28390246
  -exchange      EXHF   =         0.00000000
  -V(xc)+E(xc)   XCENC  =      3517.64318771
  PAW double counting   =     17190.59305053   -17596.95521745
  entropy T*S    EENTRO =        -0.00000000
  eigenvalues    EBANDS =   -104450.61696909
  atomic energy  EATOM  =     92451.98304323
  Solvation  Ediel_sol  =         0.00000000
  ---------------------------------------------------
  free energy    TOTEN  =    -51412.35492336 eV

  energy without entropy =   -51412.35492336  energy(sigma->0) =   -51412.35492336


--------------------------------------------------------------------------------------------------------




--------------------------------------- Iteration      1(   4)  ---------------------------------------


     EDDAV:  cpu time     11.2499: real time     11.2884
       DOS:  cpu time      0.0009: real time      0.0009
    --------------------------------------------
      LOOP:  cpu time     11.2508: real time     11.2893

 eigenvalue-minimisations  :  3936
 total energy-change (2. order) :-0.2967006E+04  (-0.2904755E+04)
 number of electron    1071.9999974 magnetization      -0.0000002
 augmentation part       92.0603005 magnetization      -0.2904876

 Free energy of the ion-electron system (eV)
  ---------------------------------------------------
  alpha Z        PSCENC =      2139.14908826
  Ewald energy   TEWEN  =    -44003.86720409
  -Hartree energ DENC   =      -660.28390246
  -exchange      EXHF   =         0.00000000
  -V(xc)+E(xc)   XCENC  =      3517.64318771
  PAW double counting   =     17190.59305053   -17596.95521745
  entropy T*S    EENTRO =        -0.00510996
  eigenvalues    EBANDS =   -107417.61791683
  atomic energy  EATOM  =     92451.98304323
  Solvation  Ediel_sol  =         0.00000000
  ---------------------------------------------------
  free energy    TOTEN  =    -54379.36098106 eV

  energy without entropy =   -54379.35587110  energy(sigma->0) =   -54379.35842608


--------------------------------------------------------------------------------------------------------




--------------------