  56  56   0   0
  0.1428571E+03  0.2000000E-08  0.2000000E-08  0.2000000E-08  0.0000000E+00
  1.000000000000000E-004
  CAR 
 neb_test                                
      0.36411919    -17.60628442  301     -3.96997180      1.00000000
    -17.606  0.0000E+00  0.0000E+00
    -17.546  0.0000E+00  0.0000E+00
    -17.486  0.0000E+00  0.0000E+00
    -17.427  0.0000E+00  0.0000E+00
    -17.367  0.0000E+00  0.0000E+00
    -17.307  0.0000E+00  0.0000E+00
    -17.247  0.0000E+00  0.0000E+00
    -17.187  0.0000E+00  0.0000E+00
    -17.127  0.0000E+00  0.0000E+00
    -17.067  0.1334E-15  0.7994E-17
    -17.007  0.2414E-10  0.1446E-11
    -16.947  0.2652E-06  0.1589E-07
    -16.887  0.1855E-03  0.1113E-04
    -16.828  0.9195E-02  0.5619E-03
    -16.768  0.3944E-01  0.2924E-02
    -16.708  0.1726E-01  0.3958E-02
    -16.648  0.6947E-03  0.4000E-02
    -16.588  0.2074E-05  0.4000E-02
    -16.528  0.4026E-09  0.4000E-02
    -16.468  0.4789E-14  0.4000E-02
    -16.408  0.0000E+00  0.4000E-02
    -16.348  0.0000E+00  0.4000E-02
    -16.288  0.0000E+00  0.4000E-02
    -16.229  0.0000E+00  0.4000E-02
    -16.169  0.0000E+00  0.4000E-02
    -16.109  0.0000E+00  0.4000E-02
    -16.049  0.0000E+00  0.4000E-02
    -15.989  0.0000E+00  0.4000E-02
    -15.929  0.0000E+00  0.4000E-02
    -15.869  0.0000E+00  0.4000E-02
    -15.809  0.0000E+00  0.4000E-02
    -15.749  0.0000E+00  0.4000E-02
    -15.689  0.0000E+00  0.4000E-02
    -15.630  0.0000E+00  0.4000E-02
    -15.570  0.0000E+00  0.4000E-02
    -15.510  0.0000E+00  0.4000E-02
    -15.450  0.0000E+00  0.4000E-02
    -15.390  0.0000E+00  0.4000E-02
    -15.330  0.0000E+00  0.4000E-02
    -15.270  0.0000E+00  0.4000E-02
    -15.210  0.0000E+00  0.4000E-02
    -15.150  0.0000E+00  0.4000E-02
    -15.090  0.0000E+00  0.4000E-02
    -15.031  0.0000E+00  0.4000E-02
    -14.971  0.0000E+00  0.4000E-02
    -14.911  0.0000E+00  0.4000E-02
    -14.851  0.0000E+00  0.4000E-02
    -14.791  0.0000E+00  0.4000E-02
    -14.731  0.0000E+00  0.4000E-02
    -14.671  0.0000E+00  0.4000E-02
    -14.611  0.0000E+00  0.4000E-02
    -14.551  0.0000E+00  0.4000E-02
    -14.491  0.0000E+00  0.4000E-02
    -14.432  0.0000E+00  0.4000E-02
    -14.372  0.0000E+00  0.4000E-02
    -14.312  0.0000E+00  0.4000E-02
    -14.252  0.0000E+00  0.4000E-02
    -14.192  0.0000E+00  0.4000E-02
    -14.132  0.0000E+00  0.4000E-02
    -14.072  0.0000E+00  0.4000E-02
    -14.012  0.0000E+00  0.4000E-02
    -13.952  0.0000E+00  0.4000E-02
    -13.892  0.0000E+00  0.4000E-02
    -13.832  0.0000E+00  0.4000E-02
    -13.773  0.0000E+00  0.4000E-02
    -13.713  0.0000E+00  0.4000E-02
    -13.653  0.0000E+00  0.4000E-02
    -13.593  0.0000E+00  0.4000E-02
    -13.533  0.0000E+00  0.4000E-02
    -13.473  0.0000E+00  0.4000E-02
    -13.413  0.0000E+00  0.4000E-02
    -13.353  0.0000E+00  0.4000E-02
    -13.293  0.0000E+00  0.4000E-02
    -13.233  0.0000E+00  0.4000E-02
    -13.174  0.0000E+00  0.4000E-02
    -13.114  0.0000E+00  0.4000E-02
    -13.054  0.0000E+00  0.4000E-02
    -12.994  0.0000E+00  0.4000E-02
    -12.934  0.0000E+00  0.4000E-02
    -12.874  0.0000E+00  0.4000E-02
    -12.814  0.0000E+00  0.4000E-02
    -12.754  0.0000E+00  0.4000E-02
    -12.694  0.0000E+00  0.4000E-02
    -12.634  0.0000E+00  0.4000E-02
    -12.575  0.0000E+00  0.4000E-02
    -12.515  0.0000E+00  0.4000E-02
    -12.455  0.0000E+00  0.4000E-02
    -12.395  0.0000E+00  0.4000E-02
    -12.335  0.0000E+00  0.4000E-02
    -12.275  0.5469E-12  0.4000E-02
    -12.215  0.1547E-07  0.4000E-02
    -12.155  0.2730E-04  0.4002E-02
    -12.095  0.3260E-02  0.4197E-02
    -12.035  0.3122E-01  0.6067E-02
    -11.976  0.2952E-01  0.7835E-02
    -11.916  0.2735E-02  0.7999E-02
    -11.856  0.2011E-04  0.8000E-02
    -11.796  0.9947E-08  0.8000E-02
    -11.736  0.3060E-12  0.8000E-02
    -11.676  0.0000E+00  0.8000E-02
    -11.616  0.0000E+00  0.8000E-02
    -11.556  0.0000E+00  0.8000E-02
    -11.496  0.0000E+00  0.8000E-02
    -11.436  0.0000E+00  0.8000E-02
    -11.377  0.0000E+00  0.8000E-02
    -11.317  0.0000E+00  0.8000E-02
    -11.257  0.0000E+00  0.8000E-02
    -11.197  0.0000E+00  0.8000E-02
    -11.137  0.0000E+00  0.8000E-02
    -11.077  0.0000E+00  0.8000E-02
    -11.017  0.0000E+00  0.8000E-02
    -10.957  0.0000E+00  0.8000E-02
    -10.897  0.5753E-14  0.8000E-02
    -10.837  0.4817E-09  0.8000E-02
    -10.778  0.2555E-05  0.8000E-02
    -10.718  0.9412E-03  0.8057E-02
    -10.658  0.2917E-01  0.9804E-02
    -10.598  0.1056E+00  0.1613E-01
    -10.538  0.5950E-01  0.1969E-01
    -10.478  0.5061E-02  0.2000E-01
    -10.418  0.4533E-04  0.2000E-01
    -10.358  0.3053E-07  0.2000E-01
    -10.298  0.1323E-11  0.2000E-01
    -10.238  0.0000E+00  0.2000E-01
    -10.179  0.0000E+00  0.2000E-01
    -10.119  0.0000E+00  0.2000E-01
    -10.059  0.0000E+00  0.2000E-01
     -9.999  0.0000E+00  0.2000E-01
     -9.939  0.0000E+00  0.2000E-01
     -9.879  0.0000E+00  0.2000E-01
     -9.819  0.0000E+00  0.2000E-01
     -9.759  0.0000E+00  0.2000E-01
     -9.699  0.0000E+00  0.2000E-01
     -9.639  0.6581E-13  0.2000E-01
     -9.580  0.3065E-08  0.2000E-01
     -9.520  0.8831E-05  0.2000E-01
     -9.460  0.1711E-02  0.2010E-01
     -9.400  0.3015E-01  0.2191E-01
     -9.340  0.1228E+00  0.2927E-01
     -9.280  0.1535E+00  0.3846E-01
     -9.220  0.5145E-01  0.4154E-01
     -9.160  0.3585E-01  0.4369E-01
     -9.100  0.5123E-02  0.4400E-01
     -9.040  0.6127E-04  0.4400E-01
     -8.980  0.5046E-07  0.4400E-01
     -8.921  0.2611E-11  0.4400E-01
     -8.861  0.7414E-17  0.4400E-01
     -8.801  0.7456E-13  0.4400E-01
     -8.741  0.3374E-08  0.4400E-01
     -8.681  0.9441E-05  0.4400E-01
     -8.621  0.1761E-02  0.4411E-01
     -8.561  0.2662E-01  0.4570E-01
     -8.501  0.5876E-01  0.4922E-01
     -8.441  0.6162E-01  0.5291E-01
     -8.381  0.6581E-01  0.5685E-01
     -8.322  0.4984E-01  0.5984E-01
     -8.262  0.8817E-01  0.6512E-01
     -8.202  0.1780E+00  0.7579E-01
     -8.142  0.1119E+00  0.8249E-01
     -8.082  0.7239E-01  0.8682E-01
     -8.022  0.1717E+00  0.9711E-01
     -7.962  0.1429E+00  0.1057E+00
     -7.902  0.4143E-01  0.1081E+00
     -7.842  0.3478E-01  0.1102E+00
     -7.782  0.2739E-01  0.1119E+00
     -7.723  0.1019E-01  0.1125E+00
     -7.663  0.6896E-01  0.1166E+00
     -7.603  0.1263E+00  0.1242E+00
     -7.543  0.2443E+00  0.1388E+00
     -7.483  0.1823E+00  0.1497E+00
     -7.423  0.1016E+00  0.1558E+00
     -7.363  0.6340E-01  0.1596E+00
     -7.303  0.1388E-01  0.1605E+00
     -7.243  0.1079E+00  0.1669E+00
     -7.183  0.2358E+00  0.1810E+00
     -7.124  0.2410E+00  0.1955E+00
     -7.064  0.1812E+00  0.2063E+00
     -7.004  0.2442E+00  0.2210E+00
     -6.944  0.2680E+00  0.2370E+00
     -6.884  0.1079E+00  0.2435E+00
     -6.824  0.3393E-01  0.2455E+00
     -6.764  0.9072E-01  0.2509E+00
     -6.704  0.1661E+00  0.2609E+00
     -6.644  0.1076E+00  0.2673E+00
     -6.584  0.1305E-01  0.2681E+00
     -6.525  0.6299E-01  0.2719E+00
     -6.465  0.2526E+00  0.2870E+00
     -6.405  0.1925E+00  0.2986E+00
     -6.345  0.1264E+00  0.3061E+00
     -6.285  0.1754E+00  0.3166E+00
     -6.225  0.1306E+00  0.3245E+00
     -6.165  0.3532E+00  0.3456E+00
     -6.105  0.3982E+00  0.3695E+00
     -6.045  0.2511E+00  0.3845E+00
     -5.985  0.1269E+00  0.3921E+00
     -5.926  0.2038E+00  0.4043E+00
     -5.866  0.3521E+00  0.4254E+00
     -5.806  0.2829E+00  0.4423E+00
     -5.746  0.1816E+00  0.4532E+00
     -5.686  0.4107E+00  0.4778E+00
     -5.626  0.4613E+00  0.5055E+00
     -5.566  0.2092E+00  0.5180E+00
     -5.506  0.1279E+00  0.5256E+00
     -5.446  0.1057E+00  0.5320E+00
     -5.386  0.1745E+00  0.5424E+00
     -5.327  0.4001E+00  0.5664E+00
     -5.267  0.3731E+00  0.5887E+00
     -5.207  0.3607E+00  0.6103E+00
     -5.147  0.4830E+00  0.6393E+00
     -5.087  0.3653E+00  0.6612E+00
     -5.027  0.3445E+00  0.6818E+00
     -4.967  0.2714E+00  0.6980E+00
     -4.907  0.3001E+00  0.7160E+00
     -4.847  0.2319E+00  0.7299E+00
     -4.787  0.2267E+00  0.7435E+00
     -4.727  0.3002E+00  0.7615E+00
     -4.668  0.2739E+00  0.7779E+00
     -4.608  0.3221E+00  0.7972E+00
     -4.548  0.4283E+00  0.8228E+00
     -4.488  0.4294E+00  0.8486E+00
     -4.428  0.4754E+00  0.8770E+00
     -4.368  0.3138E+00  0.8958E+00
     -4.308  0.3290E+00  0.9155E+00
     -4.248  0.4119E+00  0.9402E+00
     -4.188  0.7127E+00  0.9829E+00
     -4.128  0.5515E+00  0.1016E+01
     -4.069  0.4127E+00  0.1041E+01
     -4.009  0.6154E+00  0.1078E+01
     -3.949  0.8468E+00  0.1128E+01
     -3.889  0.3885E+00  0.1152E+01
     -3.829  0.2447E+00  0.1166E+01
     -3.769  0.1802E+00  0.1177E+01
     -3.709  0.4760E-01  0.1180E+01
     -3.649  0.9668E-02  0.1180E+01
     -3.589  0.3913E-01  0.1183E+01
     -3.529  0.5909E-01  0.1186E+01
     -3.470  0.1004E+00  0.1192E+01
     -3.410  0.6178E-01  0.1196E+01
     -3.350  0.7122E-01  0.1200E+01
     -3.290  0.7269E-01  0.1205E+01
     -3.230  0.7941E-01  0.1209E+01
     -3.170  0.4125E-01  0.1212E+01
     -3.110  0.2430E-02  0.1212E+01
     -3.050  0.2938E-04  0.1212E+01
     -2.990  0.2498E-02  0.1212E+01
     -2.930  0.2865E-01  0.1214E+01
     -2.871  0.3458E-01  0.1216E+01
     -2.811  0.3434E-01  0.1218E+01
     -2.751  0.5983E-01  0.1222E+01
     -2.691  0.5955E-01  0.1225E+01
     -2.631  0.4226E-01  0.1228E+01
     -2.571  0.2624E-01  0.1229E+01
     -2.511  0.3854E-01  0.1232E+01
     -2.451  0.1697E-01  0.1233E+01
     -2.391  0.3972E-01  0.1235E+01
     -2.331  0.1683E-01  0.1236E+01
     -2.272  0.4209E-02  0.1236E+01
     -2.212  0.4053E-01  0.1239E+01
     -2.152  0.1035E+00  0.1245E+01
     -2.092  0.1487E+00  0.1254E+01
     -2.032  0.1036E+00  0.1260E+01
     -1.972  0.6069E-01  0.1264E+01
     -1.912  0.6744E-02  0.1264E+01
     -1.852  0.7140E-04  0.1264E+01
     -1.792  0.1502E-04  0.1264E+01
     -1.732  0.2304E-02  0.1264E+01
     -1.673  0.2785E-01  0.1266E+01
     -1.613  0.3275E-01  0.1268E+01
     -1.553  0.3830E-02  0.1268E+01
     -1.493  0.1001E-02  0.1268E+01
     -1.433  0.2925E-01  0.1270E+01
     -1.373  0.9996E-01  0.1276E+01
     -1.313  0.6222E-01  0.1280E+01
     -1.253  0.1145E-01  0.1280E+01
     -1.193  0.6234E-01  0.1284E+01
     -1.133  0.1129E+00  0.1291E+01
     -1.074  0.4242E-01  0.1293E+01
     -1.014  0.3937E-01  0.1296E+01
     -0.954  0.3678E-01  0.1298E+01
     -0.894  0.1113E+00  0.1304E+01
     -0.834  0.6991E-01  0.1309E+01
     -0.774  0.4417E-01  0.1311E+01
     -0.714  0.3174E-01  0.1313E+01
     -0.654  0.1383E+00  0.1321E+01
     -0.594  0.2088E+00  0.1334E+01
     -0.534  0.9409E-01  0.1340E+01
     -0.474  0.2397E-01  0.1341E+01
     -0.415  0.3948E-01  0.1343E+01
     -0.355  0.9195E-02  0.1344E+01
     -0.295  0.1855E-03  0.1344E+01
     -0.235  0.2652E-06  0.1344E+01
     -0.175  0.2414E-10  0.1344E+01
     -0.115  0.1334E-15  0.1344E+01
     -0.055  0.0000E+00  0.1344E+01
      0.005  0.0000E+00  0.1344E+01
      0.065  0.0000E+00  0.1344E+01
      0.125  0.0000E+00  0.1344E+01
      0.184  0.0000E+00  0.1344E+01
      0.244  0.0000E+00  0.1344E+01
      0.304  0.0000E+00  0.1344E+01
      0.364  0.0000E+00  0.1344E+01
