   56   56  500    1
  0.1428571E+03  0.2000000E-08  0.2000000E-08  0.2000000E-08  0.0000000E+00
  1.000000000000000E-004
  CAR 
 neb_test                                
    556      1    336
 
  0.0000000E+00  0.0000000E+00  0.0000000E+00  0.1000000E+01
    1      -16.789448   1.000000
    2      -12.036943   1.000000
    3      -10.636683   1.000000
    4      -10.620176   1.000000
    5      -10.591778   1.000000
    6       -9.390627   1.000000
    7       -9.333791   1.000000
    8       -9.329326   1.000000
    9       -9.325282   1.000000
   10       -9.314740   1.000000
   11       -9.210442   1.000000
   12       -8.552624   1.000000
   13       -8.489079   1.000000
   14       -8.422874   1.000000
   15       -8.366429   1.000000
   16       -8.251338   1.000000
   17       -8.250019   1.000000
   18       -8.241683   1.000000
   19       -8.235184   1.000000
   20       -8.179126   1.000000
   21       -8.165708   1.000000
   22       -8.069479   1.000000
   23       -8.043622   1.000000
   24       -8.038900   1.000000
   25       -8.036222   1.000000
   26       -7.992524   1.000000
   27       -7.976412   1.000000
   28       -7.847542   1.000000
   29       -7.668815   1.000000
   30       -7.666622   1.000000
   31       -7.588797   1.000000
   32       -7.578922   1.000000
   33       -7.576348   1.000000
   34       -7.570308   1.000000
   35       -7.545883   1.000000
   36       -7.543312   1.000000
   37       -7.516056   1.000000
   38       -7.493660   1.000000
   39       -7.424396   1.000000
   40       -7.420333   1.000000
   41       -7.243897   1.000000
   42       -7.238925   1.000000
   43       -7.230136   1.000000
   44       -7.224818   1.000000
   45       -7.193723   1.000000
   46       -7.171530   1.000000
   47       -7.162540   1.000000
   48       -7.151628   1.000000
   49       -7.138729   1.000000
   50       -7.109746   1.000000
   51       -7.103605   1.000000
   52       -7.049208   1.000000
   53       -7.045302   1.000000
   54       -7.007523   1.000000
   55       -7.004254   1.000000
   56       -7.001305   1.000000
   57       -6.998283   1.000000
   58       -6.988757   1.000000
   59       -6.954143   1.000000
   60       -6.951036   1.000000
   61       -6.930864   1.000000
   62       -6.808899   1.000000
   63       -6.759247   1.000000
   64       -6.742111   1.000000
   65       -6.711581   1.000000
   66       -6.697341   1.000000
   67       -6.697220   1.000000
   68       -6.509583   1.000000
   69       -6.498173   1.000000
   70       -6.487488   1.000000
   71       -6.480403   1.000000
   72       -6.477414   1.000000
   73       -6.463578   1.000000
   74       -6.451021   1.000000
   75       -6.425677   1.000000
   76       -6.345532   1.000000
   77       -6.341803   1.000000
   78       -6.333559   1.000000
   79       -6.299756   1.000000
   80       -6.298368   1.000000
   81       -6.202922   1.000000
   82       -6.197330   1.000000
   83       -6.192070   1.000000
   84       -6.189464   1.000000
   85       -6.183374   1.000000
   86       -6.176498   1.000000
   87       -6.171568   1.000000
   88       -6.161143   1.000000
   89       -6.155356   1.000000
   90       -6.129790   1.000000
   91       -6.121527   1.000000
   92       -6.116665   1.000000
   93       -6.104171   1.000000
   94       -6.100118   1.000000
   95       -6.089464   1.000000
   96       -6.080941   1.000000
   97       -6.031468   1.000000
   98       -6.014650   1.000000
   99       -5.948080   1.000000
  100       -5.931540   1.000000
  101       -5.930305   1.000000
  102       -5.926313   1.000000
  103       -5.901627   1.000000
  104       -5.893870   1.000000
  105       -5.883140   1.000000
  106       -5.873471   1.000000
  107       -5.866599   1.000000
  108       -5.853158   1.000000
  109       -5.849769   1.000000
  110       -5.843786   1.000000
  111       -5.810296   1.000000
  112       -5.798553   1.000000
  113       -5.736247   1.000000
  114       -5.718338   1.000000
  115       -5.717202   1.000000
  116       -5.714791   1.000000
  117       -5.699857   1.000000
  118       -5.698854   1.000000
  119       -5.695519   1.000000
  120       -5.694818   1.000000
  121       -5.674089   1.000000
  122       -5.671975   1.000000
  123       -5.662799   1.000000
  124       -5.657224   1.000000
  125       -5.650078   1.000000
  126       -5.644959   1.000000
  127       -5.635547   1.000000
  128       -5.625554   1.000000
  129       -5.617240   1.000000
  130       -5.553169   1.000000
  131       -5.545527   1.000000
  132       -5.500217   1.000000
  133       -5.476602   1.000000
  134       -5.406649   1.000000
  135       -5.399089   1.000000
  136       -5.369851   1.000000
  137       -5.361861   1.000000
  138       -5.354582   1.000000
  139       -5.348959   1.000000
  140       -5.343955   1.000000
  141       -5.339536   1.000000
  142       -5.331266   1.000000
  143       -5.328534   1.000000
  144       -5.322958   1.000000
  145       -5.295466   1.000000
  146       -5.294517   1.000000
  147       -5.275250   1.000000
  148       -5.262212   1.000000
  149       -5.252896   1.000000
  150       -5.237352   1.000000
  151       -5.211714   1.000000
  152       -5.210987   1.000000
  153       -5.198170   1.000000
  154       -5.194746   1.000000
  155       -5.185250   1.000000
  156       -5.178271   1.000000
  157       -5.172849   1.000000
  158       -5.165068   1.000000
  159       -5.164275   1.000000
  160       -5.159079   1.000000
  161       -5.153340   1.000000
  162       -5.142487   1.000000
  163       -5.133162   1.000000
  164       -5.107004   1.000000
  165       -5.080967   1.000000
  166       -5.072548   1.000000
  167       -5.071849   1.000000
  168       -5.061688   1.000000
  169       -5.054739   1.000000
  170       -5.047362   1.000000
  171       -5.046753   1.000000
  172       -5.020394   1.000000
  173       -4.988242   1.000000
  174       -4.966776   1.000000
  175       -4.964914   1.000000
  176       -4.948728   1.000000
  177       -4.947724   1.000000
  178       -4.930982   1.000000
  179       -4.919697   1.000000
  180       -4.916142   1.000000
  181       -4.873819   1.000000
  182       -4.867854   1.000000
  183       -4.849480   1.000000
  184       -4.823737   1.000000
  185       -4.820704   1.000000
  186       -4.772035   1.000000
  187       -4.766116   1.000000
  188       -4.760079   1.000000
  189       -4.754937   1.000000
  190       -4.752960   1.000000
  191       -4.730998   1.000000
  192       -4.719644   1.000000
  193       -4.688516   1.000000
  194       -4.681527   1.000000
  195       -4.664349   1.000000
  196       -4.658860   1.000000
  197       -4.626558   1.000000
  198       -4.626458   1.000000
  199       -4.608589   1.000000
  200       -4.602264   1.000000
  201       -4.594949   1.000000
  202       -4.582121   1.000000
  203       -4.569457   1.000000
  204       -4.564810   1.000000
  205       -4.563476   1.000000
  206       -4.558962   1.000000
  207       -4.541965   1.000000
  208       -4.530692   1.000000
  209       -4.528050   1.000000
  210       -4.517063   1.000000
  211       -4.495076   1.000000
  212       -4.481554   1.000000
  213       -4.475304   1.000000
  214       -4.468677   1.000000
  215       -4.468125   1.000000
  216       -4.461769   1.000000
  217       -4.451888   1.000000
  218       -4.448211   1.000000
  219       -4.442478   1.000000
  220       -4.435888   1.000000
  221       -4.433545   1.000000
  222       -4.406426   1.000000
  223       -4.404509   1.000000
  224       -4.373370   1.000000
  225       -4.339102   1.000000
  226       -4.334880   1.000000
  227       -4.327473   1.000000
  228       -4.325598   1.000000
  229       -4.319197   1.000000
  230       -4.310151   1.000000
  231       -4.307241   1.000000
  232       -4.265838   1.000000
  233       -4.259190   1.000000
  234       -4.242214   1.000000
  235       -4.240000   1.000000
  236       -4.229487   1.000000
  237       -4.227870   1.000000
  238       -4.221666   1.000000
  239       -4.220555   1.000000
  240       -4.215606   1.000000
  241       -4.211191   1.000000
  242       -4.208744   1.000000
  243       -4.205810   1.000000
  244       -4.205425   1.000000
  245       -4.201845   1.000000
  246       -4.200631   1.000000
  247       -4.191083   1.000000
  248       -4.183877   1.000000
  249       -4.180714   1.000000
  250       -4.180682   1.000000
  251       -4.164709   1.000000
  252       -4.158290   1.000000
  253       -4.154532   1.000000
  254       -4.151352   1.000000
  255       -4.119863   0.999989
  256       -4.100522   0.999889
  257       -4.098263   0.999858
  258       -4.083946   0.999367
  259       -4.080561   0.999120
  260       -4.077940   0.998870
  261       -4.071004   0.997866
  262       -4.057133   0.993155
  263       -4.049344   0.987615
  264       -4.038370   0.973479
  265       -4.015958   0.903316
  266       -4.011142   0.877882
  267       -4.008475   0.861928
  268       -4.005320   0.841297
  269       -4.003012   0.824981
  270       -3.995134   0.761671
  271       -3.990837   0.722454
  272       -3.990397   0.718272
  273       -3.990055   0.714999
  274       -3.988932   0.704115
  275       -3.986863   0.683592
  276       -3.984800   0.662543
  277       -3.981988   0.633026
  278       -3.979740   0.608835
  279       -3.979172   0.602649
  280       -3.977442   0.583674
  281       -3.975101   0.557677
  282       -3.970747   0.508743
  283       -3.955423   0.340357
  284       -3.948312   0.270058
  285       -3.943740   0.229060
  286       -3.941236   0.208176
  287       -3.940340   0.200983
  288       -3.903007   0.029109
  289       -3.854886   0.000567
  290       -3.853940   0.000516
  291       -3.842113   0.000149
  292       -3.841484   0.000139
  293       -3.826863   0.000026
  294       -3.802711   0.000001
  295       -3.770936   0.000000
  296       -3.604251   0.000000
  297       -3.511321   0.000000
  298       -3.507643   0.000000
  299       -3.454475   0.000000
  300       -3.356188   0.000000
  301       -3.349120   0.000000
  302       -3.255473   0.000000
  303       -3.237231   0.000000
  304       -2.927479   0.000000
  305       -2.807884   0.000000
  306       -2.744423   0.000000
  307       -2.677416   0.000000
  308       -2.553908   0.000000
  309       -2.413939   0.000000
  310       -2.213927   0.000000
  311       -2.170111   0.000000
  312       -2.125880   0.000000
  313       -2.118311   0.000000
  314       -2.114437   0.000000
  315       -2.043035   0.000000
  316       -2.021781   0.000000
  317       -1.668240   0.000000
  318       -1.411281   0.000000
  319       -1.398709   0.000000
  320       -1.356753   0.000000
  321       -1.188094   0.000000
  322       -1.174116   0.000000
  323       -1.169625   0.000000
  324       -1.056743   0.000000
  325       -0.928628   0.000000
  326       -0.919758   0.000000
  327       -0.894266   0.000000
  328       -0.806630   0.000000
  329       -0.676622   0.000000
  330       -0.670456   0.000000
  331       -0.652096   0.000000
  332       -0.633094   0.000000
  333       -0.610133   0.000000
  334       -0.598771   0.000000
  335       -0.593426   0.000000
  336       -0.452717   0.000000
