       N       E                     dE             d eps       ncg     rms          rms(c)
DAV:   1     0.285936754865E+04    0.28594E+04   -0.16223E+05   672   0.997E+02
DAV:   2    -0.110749286294E+03   -0.29701E+04   -0.29033E+04   696   0.309E+02
DAV:   3    -0.294997335928E+03   -0.18425E+03   -0.17112E+03   816   0.896E+01
DAV:   4    -0.302266879674E+03   -0.72695E+01   -0.70229E+01   744   0.206E+01
DAV:   5    -0.302465596615E+03   -0.19872E+00   -0.19768E+00   792   0.251E+00    0.537E+01
RMM:   6    -0.456559818367E+03   -0.15409E+03   -0.77574E+02   672   0.800E+01    0.136E+02
RMM:   7    -0.342480981341E+03    0.11408E+03   -0.40075E+02   673   0.574E+01    0.739E+01
RMM:   8    -0.314177988334E+03    0.28303E+02   -0.18825E+02   673   0.397E+01    0.906E+01
RMM:   9    -0.306525930346E+03    0.76521E+01   -0.55266E+01   673   0.207E+01    0.101E+02
RMM:  10    -0.290476402520E+03    0.16050E+02   -0.62259E+01   674   0.210E+01    0.819E+01
RMM:  11    -0.270622682093E+03    0.19854E+02   -0.21043E+01   674   0.123E+01    0.461E+01
RMM:  12    -0.267049785767E+03    0.35729E+01   -0.50792E+00   676   0.598E+00    0.509E+01
RMM:  13    -0.264490410070E+03    0.25594E+01   -0.40601E+00   675   0.533E+00    0.460E+01
RMM:  14    -0.263924752734E+03    0.56566E+00   -0.45595E+00   676   0.562E+00    0.474E+01
RMM:  15    -0.262941167883E+03    0.98358E+00   -0.49344E+00   675   0.592E+00    0.487E+01
RMM:  16    -0.260462785619E+03    0.24784E+01   -0.37416E+00   676   0.513E+00    0.319E+01
RMM:  17    -0.259434112324E+03    0.10287E+01   -0.29956E+00   675   0.465E+00    0.322E+01
RMM:  18    -0.258559632001E+03    0.87448E+00   -0.11216E+00   677   0.275E+00    0.301E+01
RMM:  19    -0.258801997028E+03   -0.24237E+00   -0.98556E-01   675   0.264E+00    0.332E+01
RMM:  20    -0.257534648294E+03    0.12673E+01   -0.93662E-01   675   0.259E+00    0.237E+01
RMM:  21    -0.256897013756E+03    0.63763E+00   -0.48185E-01   675   0.188E+00    0.210E+01
RMM:  22    -0.256455268427E+03    0.44175E+00   -0.28305E-01   675   0.143E+00    0.159E+01
RMM:  23    -0.256088554791E+03    0.36671E+00   -0.13493E-01   676   0.983E-01    0.972E+00
RMM:  24    -0.255981848560E+03    0.10671E+00   -0.17683E-01   674   0.113E+00    0.854E+00
RMM:  25    -0.256055159004E+03   -0.73310E-01   -0.22743E-01   675   0.129E+00    0.996E+00
RMM:  26    -0.256122564037E+03   -0.67405E-01   -0.26525E-01   676   0.144E+00    0.113E+01
RMM:  27    -0.256098585278E+03    0.23979E-01   -0.24515E-01   675   0.141E+00    0.113E+01
RMM:  28    -0.256252932568E+03   -0.15435E+00   -0.27885E-01   674   0.146E+00    0.148E+01
RMM:  29    -0.256116121448E+03    0.13681E+00   -0.26738E-01   674   0.145E+00    0.119E+01
RMM:  30    -0.255934197714E+03    0.18192E+00   -0.19981E-01   674   0.129E+00    0.873E+00
RMM:  31    -0.255890133494E+03    0.44064E-01   -0.14964E-01   674   0.110E+00    0.763E+00
RMM:  32    -0.255836396831E+03    0.53737E-01   -0.98702E-02   675   0.892E-01    0.622E+00
RMM:  33    -0.255786194779E+03    0.50202E-01   -0.57871E-02   674   0.699E-01    0.460E+00
RMM:  34    -0.255776133510E+03    0.10061E-01   -0.39220E-02   674   0.573E-01    0.401E+00
RMM:  35    -0.255770646480E+03    0.54870E-02   -0.39072E-02   674   0.549E-01    0.345E+00
RMM:  36    -0.255788431436E+03   -0.17785E-01   -0.45415E-02   676   0.596E-01    0.436E+00
RMM:  37    -0.255754455439E+03    0.33976E-01   -0.35662E-02   674   0.554E-01    0.311E+00
RMM:  38    -0.255747230838E+03    0.72246E-02   -0.20774E-02   676   0.409E-01    0.213E+00
RMM:  39    -0.255751108868E+03   -0.38780E-02   -0.17224E-02   674   0.359E-01    0.237E+00
RMM:  40    -0.255745459724E+03    0.56491E-02   -0.13361E-02   674   0.330E-01    0.199E+00
RMM:  41    -0.255738991757E+03    0.64680E-02   -0.93630E-03   674   0.281E-01    0.127E+00
RMM:  42    -0.255738713370E+03    0.27839E-03   -0.60451E-03   676   0.217E-01    0.104E+00
RMM:  43    -0.255742484966E+03   -0.37716E-02   -0.54094E-03   674   0.204E-01    0.146E+00
RMM:  44    -0.255739656931E+03    0.28280E-02   -0.40034E-03   674   0.186E-01    0.103E+00
RMM:  45    -0.255739028492E+03    0.62844E-03   -0.22014E-03   676   0.131E-01    0.652E-01
RMM:  46    -0.255742717706E+03   -0.36892E-02   -0.27515E-03   674   0.143E-01    0.973E-01
RMM:  47    -0.255743208025E+03   -0.49032E-03   -0.23973E-03   674   0.142E-01    0.580E-01
RMM:  48    -0.255744475126E+03   -0.12671E-02   -0.11687E-03   675   0.945E-02    0.666E-01
RMM:  49    -0.255747051761E+03   -0.25766E-02   -0.12708E-03   673   0.886E-02    0.536E-01
RMM:  50    -0.255747599210E+03   -0.54745E-03   -0.71944E-04   674   0.752E-02    0.370E-01
RMM:  51    -0.255750201762E+03   -0.26026E-02   -0.66304E-04   674   0.672E-02    0.448E-01
RMM:  52    -0.255750989912E+03   -0.78815E-03   -0.44816E-04   674   0.600E-02    0.173E-01
RMM:  53    -0.255752388756E+03   -0.13988E-02   -0.32732E-04   675   0.477E-02    0.326E-01
RMM:  54    -0.255753806499E+03   -0.14177E-02   -0.26393E-04   674   0.422E-02    0.179E-01
RMM:  55    -0.255754279873E+03   -0.47337E-03   -0.12504E-04   673   0.308E-02    0.148E-01
RMM:  56    -0.255755860271E+03   -0.15804E-02   -0.18093E-04   673   0.333E-02    0.241E-01
RMM:  57    -0.255756476135E+03   -0.61586E-03   -0.12593E-04   673   0.301E-02    0.120E-01
RMM:  58    -0.255756808363E+03   -0.33223E-03   -0.51680E-05   671   0.192E-02    0.122E-01
RMM:  59    -0.255757465181E+03   -0.65682E-03   -0.59327E-05   671   0.184E-02    0.913E-02
RMM:  60    -0.255718634403E+03    0.38831E-01   -0.36475E+01   765   0.112E+00    0.135E-01
RMM:  61    -0.255757251760E+03   -0.38617E-01   -0.25092E-01   671   0.571E-01    0.164E-01
RMM:  62    -0.255758388063E+03   -0.11363E-02   -0.52917E-03   672   0.654E-02    0.108E-01
RMM:  63    -0.255758643810E+03   -0.25575E-03   -0.17007E-04   671   0.230E-02    0.638E-02
RMM:  64    -0.255759044903E+03   -0.40109E-03   -0.27245E-05   672   0.113E-02    0.729E-02
RMM:  65    -0.255759493814E+03   -0.44891E-03   -0.19239E-05   663   0.104E-02    0.549E-02
RMM:  66    -0.255759524304E+03   -0.30490E-04   -0.14115E-05   665   0.104E-02    0.660E-02
RMM:  67    -0.255759751159E+03   -0.22685E-03   -0.10700E-05   648   0.875E-03    0.347E-02
RMM:  68    -0.255760099054E+03   -0.34789E-03   -0.11535E-05   604   0.663E-03    0.386E-02
RMM:  69    -0.255760263164E+03   -0.16411E-03   -0.61784E-06   537   0.581E-03    0.332E-02
RMM:  70    -0.255760399134E+03   -0.13597E-03   -0.56022E-06   542   0.563E-03    0.297E-02
RMM:  71    -0.255760437073E+03   -0.37939E-04   -0.54869E-06   584   0.651E-03    0.619E-02
RMM:  72    -0.255760585414E+03   -0.14834E-03   -0.61843E-06   547   0.599E-03    0.267E-02
RMM:  73    -0.255760704404E+03   -0.11899E-03   -0.42154E-06   464   0.403E-03    0.205E-02
RMM:  74    -0.255760789968E+03   -0.85563E-04   -0.32958E-06   435   0.399E-03    0.216E-02
RMM:  75    -0.255760864539E+03   -0.74572E-04   -0.31430E-06   449   0.352E-03    0.107E-02
RMM:  76    -0.255760895886E+03   -0.31347E-04   -0.18018E-06   393   0.318E-03    0.263E-02
RMM:  77    -0.255760898608E+03   -0.27217E-05   -0.11539E-06   371   0.350E-03    0.145E-02
RMM:  78    -0.255760935961E+03   -0.37353E-04   -0.11707E-06   388   0.225E-03    0.122E-02
RMM:  79    -0.255760973649E+03   -0.37687E-04   -0.14735E-06   404   0.217E-03    0.991E-03
RMM:  80    -0.255760988795E+03   -0.15146E-04   -0.60552E-07   376   0.174E-03    0.518E-03
RMM:  81    -0.255760997645E+03   -0.88497E-05   -0.37402E-07   368   0.159E-03    0.102E-02
RMM:  82    -0.255761019452E+03   -0.21807E-04   -0.84709E-07   381   0.165E-03    0.672E-03
RMM:  83    -0.255761032737E+03   -0.13285E-04   -0.45370E-07   369   0.117E-03    0.462E-03
RMM:  84    -0.255761040565E+03   -0.78280E-05   -0.22384E-07   358   0.102E-03    0.523E-03
RMM:  85    -0.255761055966E+03   -0.15401E-04   -0.47606E-07   372   0.102E-03    0.524E-03
RMM:  86    -0.255761066539E+03   -0.10573E-04   -0.43045E-07   376   0.128E-03    0.766E-03
RMM:  87    -0.255761069094E+03   -0.25549E-05   -0.29247E-07   365   0.142E-03    0.356E-03
RMM:  88    -0.255761070100E+03   -0.10056E-05   -0.14684E-07   333   0.729E-04    0.266E-03
RMM:  89    -0.255761073530E+03   -0.34307E-05   -0.90532E-08   314   0.656E-04    0.291E-03
RMM:  90    -0.255761081398E+03   -0.78675E-05   -0.20760E-07   333   0.674E-04    0.238E-03
RMM:  91    -0.255761082717E+03   -0.13196E-05   -0.71229E-08   317   0.636E-04    0.355E-03
RMM:  92    -0.255761084784E+03   -0.20670E-05   -0.51467E-08   236   0.491E-04    0.196E-03
RMM:  93    -0.255761086598E+03   -0.18139E-05   -0.30193E-08   165   0.429E-04    0.143E-03
RMM:  94    -0.255761089630E+03   -0.30314E-05   -0.83421E-08   235   0.460E-04    0.157E-03
RMM:  95    -0.255761091034E+03   -0.14048E-05   -0.29644E-08   201   0.440E-04    0.169E-03
RMM:  96    -0.255761090376E+03    0.65834E-06   -0.32344E-09    82   0.367E-04
   1 F= -.25576109E+03 E0= -.25549185E+03  d E =-.255761E+03
       N       E                     dE             d eps       ncg     rms          rms(c)
DAV:   1    -0.257024651236E+03   -0.12636E+01   -0.75266E+01   672   0.132E+01    0.287E+00
RMM:   2    -0.260318459781E+03   -0.32938E+01   -0.54255E+00   673   0.598E+00    0.282E+01
RMM:   3    -0.259232581617E+03    0.10859E+01   -0.10717E+00   679   0.293E+00    0.287E+01
RMM:   4    -0.257816279155E+03    0.14163E+01   -0.63284E-01   676   0.222E+00    0.160E+01
RMM:   5    -0.257407736482E+03    0.40854E+00   -0.33551E-01   676   0.158E+00    0.114E+01
RMM:   6    -0.257323810733E+03    0.83926E-01   -0.11739E-01   676   0.924E-01    0.954E+00
RMM:   7    -0.257274605739E+03    0.49205E-01   -0.14376E-01   676   0.101E+00    0.678E+00
RMM:   8    -0.257331180824E+03   -0.56575E-01   -0.12874E-01   676   0.979E-01    0.830E+00
RMM:   9    -0.257267711191E+03    0.63470E-01   -0.10787E-01   676   0.946E-01    0.742E+00
RMM:  10    -0.257246178858E+03    0.21532E-01   -0.45360E-02   676   0.625E-01    0.782E+00
RMM:  11    -0.257192120587E+03    0.54058E-01   -0.31821E-02   676   0.502E-01    0.430E+00
RMM:  12    -0.257187601262E+03    0.45193E-02   -0.37712E-02   675   0.535E-01    0.330E+00
RMM:  13    -0.257216543178E+03   -0.28942E-01   -0.39880E-02   676   0.561E-01    0.501E+00
RMM:  14    -0.257181181833E+03    0.35361E-01   -0.32356E-02   675   0.528E-01    0.322E+00
RMM:  15    -0.257169513186E+03    0.11669E-01   -0.21340E-02   676   0.416E-01    0.202E+00
RMM:  16    -0.257176399137E+03   -0.68860E-02   -0.14760E-02   676   0.336E-01    0.256E+00
RMM:  17    -0.257169517948E+03    0.68812E-02   -0.12625E-02   676   0.330E-01    0.197E+00
RMM:  18    -0.257162686217E+03    0.68317E-02   -0.68178E-03   675   0.247E-01    0.101E+00
RMM:  19    -0.257161713723E+03    0.97249E-03   -0.29573E-03   676   0.157E-01    0.749E-01
RMM:  20    -0.257162355422E+03   -0.64170E-03   -0.20813E-03   676   0.128E-01    0.865E-01
RMM:  21    -0.257162535894E+03   -0.18047E-03   -0.15104E-03   676   0.114E-01    0.969E-01
RMM:  22    -0.257160923280E+03    0.16126E-02   -0.11091E-03   676   0.100E-01    0.435E-01
RMM:  23    -0.257160904484E+03    0.18796E-04   -0.45384E-04   676   0.625E-02    0.256E-01
RMM:  24    -0.257161493883E+03   -0.58940E-03   -0.43440E-04   676   0.585E-02    0.486E-01
RMM:  25    -0.257161110825E+03    0.38306E-03   -0.30972E-04   676   0.523E-02    0.403E-01
RMM:  26    -0.257160954871E+03    0.15595E-03   -0.19073E-04   676   0.413E-02    0.115E-01
RMM:  27    -0.257161101433E+03   -0.14656E-03   -0.74396E-05   677   0.245E-02    0.144E-01
RMM:  28    -0.257161106250E+03   -0.48169E-05   -0.54794E-05   674   0.215E-02    0.135E-01
RMM:  29    -0.257161106905E+03   -0.65479E-06   -0.30355E-05   672   0.164E-02    0.579E-02
RMM:  30    -0.257161156590E+03   -0.49685E-04   -0.22302E-05   670   0.130E-02    0.824E-02
RMM:  31    -0.257161163191E+03   -0.66017E-05   -0.12913E-05   666   0.106E-02    0.437E-02
RMM:  32    -0.257161178775E+03   -0.15584E-04   -0.48929E-06   552   0.669E-03    0.261E-02
RMM:  33    -0.257161206470E+03   -0.27695E-04   -0.47851E-06   549   0.601E-03    0.395E-02
RMM:  34    -0.257161221621E+03   -0.15150E-04   -0.36976E-06   461   0.591E-03    0.198E-02
RMM:  35    -0.257161230592E+03   -0.89713E-05   -0.14693E-06   375   0.360E-03    0.181E-02
RMM:  36    -0.257161265813E+03   -0.35222E-04   -0.32626E-06   438   0.400E-03    0.228E-02
RMM:  37    -0.257161274233E+03   -0.84196E-05   -0.15030E-06   379   0.357E-03    0.928E-03
RMM:  38    -0.257161285736E+03   -0.11503E-04   -0.95486E-07   372   0.251E-03    0.141E-02
RMM:  39    -0.257161305865E+03   -0.20128E-04   -0.17188E-06   395   0.277E-03    0.790E-03
RMM:  40    -0.257161310770E+03   -0.49048E-05   -0.50671E-07   366   0.183E-03    0.729E-03
RMM:  41    -0.257161328084E+03   -0.17314E-04   -0.12756E-06   387   0.180E-03    0.830E-03
RMM:  42    -0.257161333532E+03   -0.54478E-05   -0.52341E-07   368   0.185E-03    0.430E-03
RMM:  43    -0.257161341083E+03   -0.75513E-05   -0.51964E-07   375   0.142E-03    0.865E-03
RMM:  44    -0.257161352856E+03   -0.11773E-04   -0.10088E-06   385   0.172E-03    0.410E-03
RMM:  45    -0.257161355114E+03   -0.22583E-05   -0.24771E-07   361   0.118E-03    0.310E-03
RMM:  46    -0.257161362257E+03   -0.71430E-05   -0.57390E-07   378   0.109E-03    0.577E-03
RMM:  47    -0.257161364976E+03   -0.27183E-05   -0.29415E-07   358   0.119E-03    0.531E-03
RMM:  48    -0.257161364452E+03    0.52371E-06   -0.51474E-08   285   0.690E-04
   2 F= -.25716136E+03 E0= -.25689156E+03  d E =-.140027E+01
       N       E                     dE             d eps       ncg     rms          rms(c)
DAV:   1    -0.257090942312E+03    0.70423E-01   -0.11823E+02   672   0.171E+01    0.315E+00
RMM:   2    -0.262075796579E+03   -0.49849E+01   -0.72823E+00   676   0.693E+00    0.360E+01
RMM:   3    -0.259360274781E+03    0.27155E+01   -0.16369E+00   682   0.357E+00    0.277E+01
RMM:   4    -0.258057185180E+03    0.13031E+01   -0.63838E-01   676   0.217E+00    0.160E+01
RMM:   5    -0.257534461297E+03    0.52272E+00   -0.38607E-01   676   0.170E+00    0.761E+00
RMM:   6    -0.257532025940E+03    0.24354E-02   -0.22734E-01   676   0.127E+00    0.857E+00
RMM:   7    -0.257667091994E+03   -0.13507E+00   -0.12602E-01   676   0.966E-01    0.132E+01
RMM:   8    -0.257651801202E+03    0.15291E-01   -0.13939E-01   676   0.104E+00    0.136E+01
RMM:   9    -0.257449365911E+03    0.20244E+00   -0.11687E-01   676   0.973E-01    0.607E+00
RMM:  10    -0.257390548515E+03    0.58817E-01   -0.66400E-02   676   0.729E-01    0.356E+00
RMM:  11    -0.257404184450E+03   -0.13636E-01   -0.45879E-02   676   0.587E-01    0.456E+00
RMM:  12    -0.257491514552E+03   -0.87330E-01   -0.37167E-02   676   0.540E-01    0.962E+00
RMM:  13    -0.257405167661E+03    0.86347E-01   -0.36831E-02   676   0.550E-01    0.547E+00
RMM:  14    -0.257374714321E+03    0.30453E-01   -0.33018E-02   676   0.519E-01    0.306E+00
RMM:  15    -0.257376783504E+03   -0.20692E-02   -0.30034E-02   676   0.477E-01    0.289E+00
RMM:  16    -0.257390583351E+03   -0.13800E-01   -0.20565E-02   676   0.400E-01    0.402E+00
RMM:  17    -0.257362922096E+03    0.27661E-01   -0.16975E-02   676   0.391E-01    0.177E+00
RMM:  18    -0.257359101945E+03    0.38202E-02   -0.74136E-03   676   0.253E-01    0.112E+00
RMM:  19    -0.257361452191E+03   -0.23502E-02   -0.52718E-03   676   0.202E-01    0.144E+00
RMM:  20    -0.257359830424E+03    0.16218E-02   -0.36690E-03   676   0.182E-01    0.132E+00
RMM:  21    -0.257356768123E+03    0.30623E-02   -0.18737E-03   676   0.132E-01    0.579E-01
RMM:  22    -0.257356961018E+03   -0.19289E-03   -0.73724E-04   676   0.790E-02    0.424E-01
RMM:  23    -0.257357480055E+03   -0.51904E-03   -0.85731E-04   676   0.814E-02    0.484E-01
RMM:  24    -0.257357004267E+03    0.47579E-03   -0.55887E-04   676   0.710E-02    0.349E-01
RMM:  25    -0.257356913356E+03    0.90911E-04   -0.24629E-04   676   0.461E-02    0.188E-01
RMM:  26    -0.257357083278E+03   -0.16992E-03   -0.16200E-04   676   0.355E-02    0.207E-01
RMM:  27    -0.257357237601E+03   -0.15432E-03   -0.14058E-04   676   0.329E-02    0.302E-01
RMM:  28    -0.257357110869E+03    0.12673E-03   -0.11081E-04   676   0.310E-02    0.133E-01
RMM:  29    -0.257357164728E+03   -0.53859E-04   -0.52414E-05   674   0.208E-02    0.862E-02
RMM:  30    -0.257357271747E+03   -0.10702E-03   -0.52280E-05   676   0.198E-02    0.123E-01
RMM:  31    -0.257357261588E+03    0.10159E-04   -0.35609E-05   672   0.177E-02    0.468E-02
RMM:  32    -0.257357304395E+03   -0.42807E-04   -0.98016E-06   660   0.924E-03    0.352E-02
RMM:  33    -0.257357361403E+03   -0.57008E-04   -0.96369E-06   651   0.805E-03    0.525E-02
RMM:  34    -0.257357399362E+03   -0.37959E-04   -0.69214E-06   613   0.715E-03    0.222E-02
RMM:  35    -0.257357423913E+03   -0.24551E-04   -0.32090E-06   436   0.496E-03    0.277E-02
RMM:  36    -0.257357486589E+03   -0.62676E-04   -0.68351E-06   546   0.555E-03    0.251E-02
RMM:  37    -0.257357504953E+03   -0.18364E-04   -0.25309E-06   404   0.431E-03    0.137E-02
RMM:  38    -0.257357555680E+03   -0.50727E-04   -0.50632E-06   488   0.406E-03    0.210E-02
RMM:  39    -0.257357568964E+03   -0.13283E-04   -0.17896E-06   385   0.353E-03    0.969E-03
RMM:  40    -0.257357592746E+03   -0.23782E-04   -0.20439E-06   403   0.314E-03    0.175E-02
RMM:  41    -0.257357621417E+03   -0.28671E-04   -0.31357E-06   447   0.349E-03    0.855E-03
RMM:  42    -0.257357628025E+03   -0.66083E-05   -0.65287E-07   371   0.195E-03    0.819E-03
RMM:  43    -0.257357654283E+03   -0.26258E-04   -0.23800E-06   422   0.238E-03    0.127E-02
RMM:  44    -0.257357662596E+03   -0.83133E-05   -0.94353E-07   377   0.233E-03    0.453E-03
RMM:  45    -0.257357668869E+03   -0.62725E-05   -0.52346E-07   369   0.154E-03    0.741E-03
RMM:  46    -0.257357680896E+03   -0.12028E-04   -0.10392E-06   384   0.177E-03    0.438E-03
RMM:  47    -0.257357679516E+03    0.13804E-05   -0.23093E-07   350   0.132E-03    0.936E-03
RMM:  48    -0.257357684351E+03   -0.48345E-05   -0.33768E-07   365   0.969E-04    0.481E-03
RMM:  49    -0.257357687183E+03   -0.28325E-05   -0.14115E-07   351   0.822E-04    0.407E-03
RMM:  50    -0.257357689701E+03   -0.25178E-05   -0.11899E-07   349   0.862E-04    0.278E-03
RMM:  51    -0.257357691947E+03   -0.22460E-05   -0.91623E-08   308   0.600E-04    0.172E-03
RMM:  52    -0.257357693595E+03   -0.16478E-05   -0.73961E-08   323   0.640E-04    0.326E-03
RMM:  53    -0.257357695039E+03   -0.14446E-05   -0.50673E-08   305   0.618E-04    0.261E-03
RMM:  54    -0.257357696364E+03   -0.13252E-05   -0.34416E-08   151   0.410E-04    0.993E-04
RMM:  55    -0.257357697455E+03   -0.10906E-05   -0.28790E-08   169   0.421E-04    0.146E-03
RMM:  56    -0.257357698757E+03   -0.13015E-05   -0.45614E-08   203   0.441E-04    0.149E-03
RMM:  57    -0.257357699499E+03   -0.74219E-06   -0.19920E-08   167   0.428E-04
   3 F= -.25735770E+03 E0= -.25708610E+03  d E =-.196335E+00
       N       E                     dE             d eps       ncg     rms          rms(c)
DAV:   1    -0.257403839906E+03   -0.46141E-01   -0.22512E+00   672   0.254E+00    0.360E-01
RMM:   2    -0.257540370108E+03   -0.13653E+00   -0.77418E-02   676   0.754E-01    0.824E+00
RMM:   3    -0.257432404022E+03    0.10797E+00   -0.23650E-02   679   0.452E-01    0.463E+00
RMM:   4    -0.257407926364E+03    0.24478E-01   -0.12552E-02   677   0.321E-01    0.151E+00
RMM:   5    -0.257412822702E+03   -0.48963E-02   -0.46684E-03   676   0.191E-01    0.227E+00
RMM:   6    -0.257410609268E+03    0.22134E-02   -0.33604E-03   676   0.159E-01    0.177E+00
RMM:   7    -0.257412419937E+03   -0.18107E-02   -0.41173E-03   676   0.181E-01    0.175E+00
RMM:   8    -0.257406810604E+03    0.56093E-02   -0.32962E-03   676   0.169E-01    0.756E-01
RMM:   9    -0.257406944295E+03   -0.13369E-03   -0.13279E-03   676   0.106E-01    0.687E-01
RMM:  10    -0.257407430636E+03   -0.48634E-03   -0.56055E-04   676   0.663E-02    0.972E-01
RMM:  11    -0.257407904099E+03   -0.47346E-03   -0.80282E-04   676   0.783E-02    0.980E-01
RMM:  12    -0.257406695245E+03    0.12089E-02   -0.88990E-04   676   0.865E-02    0.503E-01
RMM:  13    -0.257406438862E+03    0.25638E-03   -0.55509E-04   676   0.691E-02    0.215E-01
RMM:  14    -0.257406755180E+03   -0.31632E-03   -0.33290E-04   676   0.507E-02    0.332E-01
RMM:  15    -0.257406727056E+03    0.28123E-04   -0.27230E-04   676   0.482E-02    0.362E-01
RMM:  16    -0.257406469507E+03    0.25755E-03   -0.15695E-04   676   0.377E-02    0.179E-01
RMM:  17    -0.257406564866E+03   -0.95359E-04   -0.74127E-05   676   0.250E-02    0.144E-01
RMM:  18    -0.257406602502E+03   -0.37636E-04   -0.65069E-05   675   0.231E-02    0.148E-01
RMM:  19    -0.257406569825E+03    0.32676E-04   -0.43561E-05   672   0.201E-02    0.988E-02
RMM:  20    -0.257406575514E+03   -0.56888E-05   -0.20650E-05   671   0.137E-02    0.719E-02
RMM:  21    -0.257406592509E+03   -0.16995E-04   -0.10826E-05   665   0.946E-03    0.592E-02
RMM:  22    -0.257406604614E+03   -0.12105E-04   -0.11367E-05   667   0.955E-03    0.712E-02
RMM:  23    -0.257406600095E+03    0.45193E-05   -0.89065E-06   656   0.885E-03    0.575E-02
RMM:  24    -0.257406599354E+03    0.74022E-06   -0.50090E-06   545   0.681E-03
   4 F= -.25740660E+03 E0= -.25713490E+03  d E =-.488999E-01
       N       E                     dE             d eps       ncg     rms          rms(c)
DAV:   1    -0.257450642626E+03   -0.44043E-01   -0.70287E+00   672   0.454E+00    0.663E-01
RMM:   2    -0.257900886876E+03   -0.45024E+00   -0.25502E-01   675   0.138E+00    0.140E+01
RMM:   3    -0.257554975858E+03    0.34591E+00   -0.81098E-02   677   0.846E-01    0.822E+00
RMM:   4    -0.257467209546E+03    0.87766E-01   -0.40077E-02   677   0.567E-01    0.268E+00
RMM:   5    -0.257477038720E+03   -0.98292E-02   -0.13732E-02   676   0.327E-01    0.373E+00
RMM:   6    -0.257471414168E+03    0.56246E-02   -0.10053E-02   676   0.276E-01    0.292E+00
RMM:   7    -0.257477562141E+03   -0.61480E-02   -0.11799E-02   676   0.304E-01    0.303E+00
RMM:   8    -0.257462063632E+03    0.15499E-01   -0.98645E-03   676   0.290E-01    0.148E+00
RMM:   9    -0.257461150870E+03    0.91276E-03   -0.41968E-03   676   0.188E-01    0.145E+00
RMM:  10    -0.257460831757E+03    0.31911E-03   -0.16483E-03   676   0.115E-01    0.146E+00
RMM:  11    -0.257461985618E+03   -0.11539E-02   -0.25854E-03   676   0.140E-01    0.135E+00
RMM:  12    -0.257460470585E+03    0.15150E-02   -0.26538E-03   676   0.149E-01    0.102E+00
RMM:  13    -0.257458860728E+03    0.16099E-02   -0.15228E-03   676   0.116E-01    0.591E-01
RMM:  14    -0.257458904718E+03   -0.43990E-04   -0.90183E-04   676   0.848E-02    0.461E-01
RMM:  15    -0.257459926593E+03   -0.10219E-02   -0.93935E-04   676   0.854E-02    0.798E-01
RMM:  16    -0.257458989450E+03    0.93714E-03   -0.69044E-04   676   0.772E-02    0.526E-01
RMM:  17    -0.257458655185E+03    0.33426E-03   -0.45295E-04   676   0.631E-02    0.221E-01
RMM:  18    -0.257458803884E+03   -0.14870E-03   -0.19845E-04   676   0.407E-02    0.217E-01
RMM:  19    -0.257458835298E+03   -0.31414E-04   -0.14153E-04   676   0.344E-02    0.255E-01
RMM:  20    -0.257458773363E+03    0.61934E-04   -0.10437E-04   676   0.310E-02    0.176E-01
RMM:  21    -0.257458750987E+03    0.22376E-04   -0.52046E-05   674   0.215E-02    0.978E-02
RMM:  22    -0.257458796267E+03   -0.45280E-04   -0.30076E-05   673   0.158E-02    0.831E-02
RMM:  23    -0.257458810401E+03   -0.14134E-04   -0.24385E-05   670   0.144E-02    0.920E-02
RMM:  24    -0.257458801224E+03    0.91775E-05   -0.14238E-05   668   0.115E-02    0.564E-02
RMM:  25    -0.257458805043E+03   -0.38192E-05   -0.54022E-06   587   0.687E-03    0.412E-02
RMM:  26    -0.257458828610E+03   -0.23567E-04   -0.71915E-06   652   0.756E-03    0.652E-02
RMM:  27    -0.257458816565E+03    0.12045E-04   -0.50026E-06   559   0.685E-03    0.376E-02
RMM:  28    -0.257458826928E+03   -0.10362E-04   -0.21860E-06   381   0.472E-03    0.204E-02
RMM:  29    -0.257458830001E+03   -0.30736E-05   -0.12201E-06   364   0.341E-03    0.216E-02
RMM:  30    -0.257458837239E+03   -0.72382E-05   -0.10139E-06   367   0.328E-03    0.148E-02
RMM:  31    -0.257458838782E+03   -0.15423E-05   -0.47241E-07   355   0.230E-03    0.107E-02
RMM:  32    -0.257458841707E+03   -0.29251E-05   -0.33132E-07   350   0.171E-03    0.114E-02
RMM:  33    -0.257458846445E+03   -0.47386E-05   -0.41870E-07   367   0.188E-03    0.103E-02
RMM:  34    -0.257458849173E+03   -0.27281E-05   -0.30781E-07   359   0.171E-03    0.581E-03
RMM:  35    -0.257458851557E+03   -0.23840E-05   -0.20523E-07   352   0.123E-03    0.723E-03
RMM:  36    -0.257458857319E+03   -0.57615E-05   -0.36177E-07   371   0.137E-03    0.470E-03
RMM:  37    -0.257458858402E+03   -0.10832E-05   -0.13765E-07   346   0.105E-03    0.292E-03
RMM:  38    -0.257458862306E+03   -0.39033E-05   -0.19947E-07   362   0.842E-04    0.464E-03
RMM:  39    -0.257458863306E+03   -0.10000E-05   -0.99833E-08   340   0.921E-04    0.178E-03
RMM:  40    -0.257458864269E+03   -0.96305E-06   -0.41301E-08   263   0.503E-04
   5 F= -.25745886E+03 E0= -.25718719E+03  d E =-.522649E-01
       N       E                     dE             d eps       ncg     rms          rms(c)
DAV:   1    -0.257472432959E+03   -0.13570E-01   -0.94161E+00   672   0.550E+00    0.957E-01
RMM:   2    -0.258409994409E+03   -0.93756E+00   -0.44998E-01   676   0.191E+00    0.192E+01
RMM:   3    -0.257667727532E+03    0.74227E+00   -0.18733E-01   676   0.133E+00    0.109E+01
RMM:   4    -0.257498534212E+03    0.16919E+00   -0.70954E-02   677   0.747E-01    0.377E+00
RMM:   5    -0.257501157458E+03   -0.26232E-02   -0.23993E-02   676   0.428E-01    0.427E+00
RMM:   6    -0.257493173172E+03    0.79843E-02   -0.12458E-02   676   0.304E-01    0.335E+00
RMM:   7    -0.257506197865E+03   -0.13025E-01   -0.17781E-02   676   0.369E-01    0.370E+00
RMM:   8    -0.257489660584E+03    0.16537E-01   -0.14841E-02   676   0.352E-01    0.252E+00
RMM:   9    -0.257483621064E+03    0.60395E-02   -0.79512E-03   676   0.265E-01    0.231E+00
RMM:  10    -0.257478857745E+03    0.47633E-02   -0.26750E-03   676   0.149E-01    0.135E+00
RMM:  11    -0.257479359168E+03   -0.50142E-03   -0.27391E-03   676   0.147E-01    0.104E+00
RMM:  12    -0.257481216664E+03   -0.18575E-02   -0.32826E-03   676   0.160E-01    0.125E+00
RMM:  13    -0.257478101301E+03    0.31154E-02   -0.22727E-03   676   0.144E-01    0.820E-01
RMM:  14    -0.257477585296E+03    0.51600E-03   -0.96928E-04   676   0.902E-02    0.470E-01
RMM:  15    -0.257477922236E+03   -0.33694E-03   -0.78884E-04   676   0.785E-02    0.513E-01
RMM:  16    -0.257478328825E+03   -0.40659E-03   -0.75506E-04   676   0.769E-02    0.656E-01
RMM:  17    -0.257477570237E+03    0.75859E-03   -0.58592E-04   676   0.726E-02    0.398E-01
RMM:  18    -0.257477472571E+03    0.97666E-04   -0.28554E-04   676   0.500E-02    0.203E-01
RMM:  19    -0.257477514557E+03   -0.41986E-04   -0.10611E-04   676   0.298E-02    0.143E-01
RMM:  20    -0.257477652841E+03   -0.13828E-03   -0.10471E-04   676   0.288E-02    0.235E-01
RMM:  21    -0.257477530585E+03    0.12226E-03   -0.67927E-05   676   0.252E-02    0.173E-01
RMM:  22    -0.257477539933E+03   -0.93479E-05   -0.37841E-05   672   0.187E-02    0.641E-02
RMM:  23    -0.257477571365E+03   -0.31432E-04   -0.15620E-05   669   0.116E-02    0.592E-02
RMM:  24    -0.257477598474E+03   -0.27109E-04   -0.13803E-05   668   0.107E-02    0.964E-02
RMM:  25    -0.257477573989E+03    0.24485E-04   -0.85482E-06   648   0.897E-03    0.453E-02
RMM:  26    -0.257477593219E+03   -0.19230E-04   -0.44351E-06   520   0.642E-03    0.297E-02
RMM:  27    -0.257477597391E+03   -0.41714E-05   -0.31231E-06   423   0.536E-03    0.314E-02
RMM:  28    -0.257477599349E+03   -0.19579E-05   -0.22060E-06   376   0.500E-03    0.247E-02
RMM:  29    -0.257477601306E+03   -0.19574E-05   -0.10620E-06   364   0.345E-03    0.179E-02
RMM:  30    -0.257477603283E+03   -0.19772E-05   -0.57810E-07   356   0.238E-03    0.145E-02
RMM:  31    -0.257477606717E+03   -0.34337E-05   -0.55185E-07   359   0.233E-03    0.145E-02
RMM:  32    -0.257477608063E+03   -0.13459E-05   -0.40765E-07   351   0.219E-03    0.853E-03
RMM:  33    -0.257477609491E+03   -0.14282E-05   -0.20504E-07   349   0.133E-03    0.924E-03
RMM:  34    -0.257477612687E+03   -0.31956E-05   -0.25797E-07   366   0.146E-03    0.649E-03
RMM:  35    -0.257477613525E+03   -0.83810E-06   -0.12485E-07   348   0.109E-03
   6 F= -.25747761E+03 E0= -.25720673E+03  d E =-.187493E-01
       N       E                     dE             d eps       ncg     rms          rms(c)
DAV:   1    -0.257480860108E+03   -0.32474E-02   -0.14245E-01   720   0.661E-01    0.123E-01
RMM:   2    -0.257493188845E+03   -0.12329E-01   -0.87821E-03   676   0.248E-01    0.234E+00
RMM:   3    -0.257482448078E+03    0.10741E-01   -0.33812E-03   679   0.174E-01    0.148E+00
RMM:   4    -0.257480701685E+03    0.17464E-02   -0.10435E-03   677   0.925E-02    0.457E-01
RMM:   5    -0.257481437803E+03   -0.73612E-03   -0.52905E-04   676   0.653E-02    0.568E-01
RMM:   6    -0.257481652228E+03   -0.21442E-03   -0.28424E-04   676   0.471E-02    0.774E-01
RMM:   7    -0.257481327318E+03    0.32491E-03   -0.28403E-04   676   0.484E-02    0.543E-01
RMM:   8    -0.257480937725E+03    0.38959E-03   -0.26682E-04   676   0.486E-02    0.166E-01
RMM:   9    -0.257481102082E+03   -0.16436E-03   -0.88893E-05   676   0.269E-02    0.153E-01
RMM:  10    -0.257481230798E+03   -0.12872E-03   -0.75560E-05   674   0.246E-02    0.373E-01
RMM:  11    -0.257481096987E+03    0.13381E-03   -0.53440E-05   673   0.208E-02    0.264E-01
RMM:  12    -0.257481085325E+03    0.11662E-04   -0.81112E-05   674   0.259E-02    0.141E-01
RMM:  13    -0.257481091104E+03   -0.57785E-05   -0.40083E-05   672   0.180E-02    0.107E-01
RMM:  14    -0.257481118860E+03   -0.27756E-04   -0.33707E-05   674   0.160E-02    0.115E-01
RMM:  15    -0.257481111610E+03    0.72502E-05   -0.30261E-05   672   0.161E-02    0.906E-02
RMM:  16    -0.257481094276E+03    0.17334E-04   -0.15378E-05   669   0.119E-02    0.576E-02
RMM:  17    -0.257481107315E+03   -0.13039E-04   -0.67779E-06   635   0.759E-03    0.411E-02
RMM:  18    -0.257481117215E+03   -0.99004E-05   -0.66649E-06   631   0.731E-03    0.587E-02
RMM:  19    -0.257481109408E+03    0.78074E-05   -0.46980E-06   549   0.669E-03    0.358E-02
RMM:  20    -0.257481113325E+03   -0.39168E-05   -0.22811E-06   385   0.485E-03    0.182E-02
RMM:  21    -0.257481116436E+03   -0.31110E-05   -0.10703E-06   363   0.324E-03    0.179E-02
RMM:  22    -0.257481118118E+03   -0.16820E-05   -0.89569E-07   356   0.289E-03    0.238E-02
RMM:  23    -0.257481117384E+03    0.73366E-06   -0.80325E-07   358   0.305E-03
   7 F= -.25748112E+03 E0= -.25721037E+03  d E =-.350386E-02
       N       E                     dE             d eps       ncg     rms          rms(c)
DAV:   1    -0.257485058139E+03   -0.39400E-02   -0.44134E-01   672   0.119E+00    0.232E-01
RMM:   2    -0.257533330779E+03   -0.48273E-01   -0.28908E-02   676   0.460E-01    0.466E+00
RMM:   3    -0.257494487699E+03    0.38843E-01   -0.12061E-02   677   0.334E-01    0.299E+00
RMM:   4    -0.257485506897E+03    0.89808E-02   -0.42167E-03   677   0.186E-01    0.867E-01
RMM:   5    -0.257486858707E+03   -0.13518E-02   -0.19915E-03   676   0.127E-01    0.981E-01
RMM:   6    -0.257487738774E+03   -0.88007E-03   -0.96022E-04   676   0.865E-02    0.142E+00
RMM:   7    -0.257487125586E+03    0.61319E-03   -0.99878E-04   676   0.903E-02    0.110E+00
RMM:   8    -0.257485292892E+03    0.18327E-02   -0.98999E-04   676   0.937E-02    0.323E-01
RMM:   9    -0.257485599854E+03   -0.30696E-03   -0.33209E-04   676   0.529E-02    0.243E-01
RMM:  10    -0.257485761693E+03   -0.16184E-03   -0.24421E-04   676   0.439E-02    0.437E-01
RMM:  11    -0.257485969086E+03   -0.20739E-03   -0.14469E-04   676   0.343E-02    0.648E-01
RMM:  12    -0.257485502733E+03    0.46635E-03   -0.22513E-04   675   0.434E-02    0.269E-01
RMM:  13    -0.257485548107E+03   -0.45374E-04   -0.12303E-04   676   0.324E-02    0.170E-01
RMM:  14    -0.257485617463E+03   -0.69356E-04   -0.84901E-05   676   0.256E-02    0.188E-01
RMM:  15    -0.257485621915E+03   -0.44519E-05   -0.86725E-05   676   0.268E-02    0.171E-01
RMM:  16    -0.257485549644E+03    0.72271E-04   -0.51722E-05   676   0.220E-02    0.104E-01
RMM:  17    -0.257485580011E+03   -0.30367E-04   -0.21150E-05   672   0.135E-02    0.771E-02
RMM:  18    -0.257485596409E+03   -0.16398E-04   -0.19703E-05   671   0.124E-02    0.804E-02
RMM:  19    -0.257485591283E+03    0.51263E-05   -0.14312E-05   667   0.113E-02    0.517E-02
RMM:  20    -0.257485591217E+03    0.66080E-07   -0.66013E-06   608   0.771E-03
   8 F= -.25748559E+03 E0= -.25721520E+03  d E =-.447383E-02
       N       E                     dE             d eps       ncg     rms          rms(c)
DAV:   1    -0.257489752554E+03   -0.41613E-02   -0.78281E-01   672   0.161E+00    0.326E-01
RMM:   2    -0.257597716114E+03   -0.10796E+00   -0.50018E-02   676   0.623E-01    0.715E+00
RMM:   3    -0.257513972362E+03    0.83744E-01   -0.22802E-02   676   0.466E-01    0.448E+00
RMM:   4    -0.257491120995E+03    0.22851E-01   -0.99090E-03   676   0.288E-01    0.122E+00
RMM:   5    -0.257491824160E+03   -0.70316E-03   -0.42080E-03   676   0.183E-01    0.102E+00
RMM:   6    -0.257493078483E+03   -0.12543E-02   -0.25256E-03   676   0.140E-01    0.134E+00
RMM:   7    -0.257496492564E+03   -0.34141E-02   -0.17611E-03   676   0.123E-01    0.237E+00
RMM:   8    -0.257489599875E+03    0.68927E-02   -0.13826E-03   676   0.110E-01    0.680E-01
RMM:   9    -0.257490014742E+03   -0.41487E-03   -0.89629E-04   676   0.883E-02    0.347E-01
RMM:  10    -0.257490135382E+03   -0.12064E-03   -0.39658E-04   676   0.555E-02    0.400E-01
RMM:  11    -0.257490760284E+03   -0.62490E-03   -0.39089E-04   676   0.560E-02    0.783E-01
RMM:  12    -0.257490247619E+03    0.51266E-03   -0.23351E-04   676   0.456E-02    0.651E-01
RMM:  13    -0.257489842937E+03    0.40468E-03   -0.23563E-04   676   0.454E-02    0.233E-01
RMM:  14    -0.257490007275E+03   -0.16434E-03   -0.11826E-04   676   0.308E-02    0.180E-01
RMM:  15    -0.257490103248E+03   -0.95972E-04   -0.11552E-04   676   0.298E-02    0.242E-01
RMM:  16    -0.257490003681E+03    0.99567E-04   -0.84780E-05   676   0.274E-02    0.183E-01
RMM:  17    -0.257489977386E+03    0.26295E-04   -0.46562E-05   675   0.204E-02    0.889E-02
RMM:  18    -0.257490021790E+03   -0.44404E-04   -0.28623E-05   671   0.152E-02    0.810E-02
RMM:  19    -0.257490037712E+03   -0.15922E-04   -0.21198E-05   671   0.132E-02    0.112E-01
RMM:  20    -0.257490014068E+03    0.23644E-04   -0.14270E-05   665   0.113E-02    0.712E-02
RMM:  21    -0.257490021890E+03   -0.78214E-05   -0.83453E-06   655   0.860E-03    0.382E-02
RMM:  22    -0.257490034896E+03   -0.13006E-04   -0.38732E-06   482   0.581E-03    0.408E-02
RMM:  23    -0.257490038410E+03   -0.35142E-05   -0.40194E-06   482   0.613E-03    0.542E-02
RMM:  24    -0.257490034739E+03    0.36712E-05   -0.26596E-06   390   0.554E-03    0.294E-02
RMM:  25    -0.257490038999E+03   -0.42603E-05   -0.11394E-06   365   0.351E-03    0.188E-02
RMM:  26    -0.257490043027E+03   -0.40275E-05   -0.96976E-07   357   0.304E-03    0.223E-02
RMM:  27    -0.257490043786E+03   -0.75950E-06   -0.79909E-07   358   0.305E-03
   9 F= -.25749004E+03 E0= -.25722003E+03  d E =-.445257E-02
       N       E                     dE             d eps       ncg     rms          rms(c)
DAV:   1    -0.257494183940E+03   -0.41409E-02   -0.11629E+00   672   0.196E+00    0.374E-01
RMM:   2    -0.257641521867E+03   -0.14734E+00   -0.64337E-02   676   0.714E-01    0.837E+00
RMM:   3    -0.257528114338E+03    0.11341E+00   -0.29160E-02   676   0.529E-01    0.516E+00
RMM:   4    -0.257496706941E+03    0.31407E-01   -0.13556E-02   676   0.337E-01    0.148E+00
RMM:   5    -0.257497216002E+03   -0.50906E-03   -0.53552E-03   676   0.206E-01    0.145E+00
RMM:   6    -0.257499042551E+03   -0.18265E-02   -0.23503E-03   676   0.134E-01    0.203E+00
RMM:   7    -0.257499644714E+03   -0.60216E-03   -0.26716E-03   676   0.144E-01    0.181E+00
RMM:   8    -0.257494661168E+03    0.49835E-02   -0.28007E-03   676   0.156E-01    0.693E-01
RMM:   9    -0.257494275588E+03    0.38558E-03   -0.11765E-03   676   0.102E-01    0.396E-01
RMM:  10    -0.257494618401E+03   -0.34281E-03   -0.32568E-04   676   0.512E-02    0.652E-01
RMM:  11    -0.257494587746E+03    0.30656E-04   -0.29147E-04   676   0.478E-02    0.556E-01
RMM:  12    -0.257494739088E+03   -0.15134E-03   -0.38316E-04   676   0.556E-02    0.551E-01
RMM:  13    -0.257494183261E+03    0.55583E-03   -0.27909E-04   676   0.504E-02    0.227E-01
RMM:  14    -0.257494309561E+03   -0.12630E-03   -0.12032E-04   676   0.318E-02    0.171E-01
RMM:  15    -0.257494403222E+03   -0.93661E-04   -0.12426E-04   676   0.313E-02    0.221E-01
RMM:  16    -0.257494310457E+03    0.92765E-04   -0.90334E-05   676   0.287E-02    0.179E-01
RMM:  17    -0.257494310920E+03   -0.46316E-06   -0.43953E-05   671   0.200E-02    0.107E-01
RMM:  18    -0.257494335221E+03   -0.24301E-04   -0.27937E-05   672   0.153E-02    0.794E-02
RMM:  19    -0.257494360710E+03   -0.25489E-04   -0.25176E-05   671   0.143E-02    0.963E-02
RMM:  20    -0.257494346584E+03    0.14127E-04   -0.15998E-05   667   0.121E-02    0.803E-02
RMM:  21    -0.257494351945E+03   -0.53616E-05   -0.88290E-06   656   0.893E-03    0.426E-02
RMM:  22    -0.257494360565E+03   -0.86196E-05   -0.45636E-06   512   0.631E-03    0.360E-02
RMM:  23    -0.257494368109E+03   -0.75440E-05   -0.40644E-06   498   0.607E-03    0.439E-02
RMM:  24    -0.257494362633E+03    0.54757E-05   -0.26228E-06   396   0.550E-03    0.191E-02
RMM:  25    -0.257494369382E+03   -0.67491E-05   -0.82299E-07   363   0.296E-03    0.200E-02
RMM:  26    -0.257494369762E+03   -0.37939E-06   -0.77564E-07   356   0.274E-03
  10 F= -.25749437E+03 E0= -.25722487E+03  d E =-.432598E-02
       N       E                     dE             d eps       ncg     rms          rms(c)
DAV:   1    -0.257497896710E+03   -0.35273E-02   -0.14642E+00   672   0.220E+00    0.395E-01
RMM:   2    -0.257661115146E+03   -0.16322E+00   -0.72633E-02   676   0.755E-01    0.877E+00
RMM:   3    -0.257536567137E+03    0.12455E+00   -0.31784E-02   676   0.550E-01    0.537E+00
RMM:   4    -0.257501529011E+03    0.35038E-01   -0.15512E-02   676   0.360E-01    0.163E+00
RMM:   5    -0.257500845832E+03    0.68318E-03   -0.61048E-03   676   0.220E-01    0.131E+00
RMM:   6    -0.257504468530E+03   -0.36227E-02   -0.31855E-03   676   0.157E-01    0.224E+00
RMM:   7    -0.257504849235E+03   -0.38071E-03   -0.26056E-03   676   0.143E-01    0.215E+00
RMM:   8    -0.257498507760E+03    0.63415E-02   -0.32013E-03   675   0.167E-01    0.761E-01
RMM:   9    -0.257498148159E+03    0.35960E-03   -0.13311E-03   676   0.108E-01    0.415E-01
RMM:  10    -0.257498263992E+03   -0.11583E-03   -0.50725E-04   676   0.631E-02    0.427E-01
RMM:  11    -0.257499266137E+03   -0.10021E-02   -0.46069E-04   676   0.603E-02    0.952E-01
RMM:  12    -0.257498819937E+03    0.44620E-03   -0.36140E-04   676   0.552E-02    0.844E-01
RMM:  13    -0.257497992957E+03    0.82698E-03   -0.40180E-04   676   0.597E-02    0.297E-01
RMM:  14    -0.257498154161E+03   -0.16120E-03   -0.17411E-04   676   0.380E-02    0.189E-01
RMM:  15    -0.257498329132E+03   -0.17497E-03   -0.16685E-04   675   0.358E-02    0.288E-01
RMM:  16    -0.257498196200E+03    0.13293E-03   -0.11738E-04   676   0.321E-02    0.243E-01
RMM:  17    -0.257498121401E+03    0.74799E-04   -0.74168E-05   675   0.259E-02    0.102E-01
RMM:  18    -0.257498190548E+03   -0.69147E-04   -0.37634E-05   672   0.178E-02    0.101E-01
RMM:  19    -0.257498206056E+03   -0.15508E-04   -0.27706E-05   669   0.150E-02    0.120E-01
RMM:  20    -0.257498187385E+03    0.18670E-04   -0.21723E-05   668   0.139E-02    0.731E-02
RMM:  21    -0.257498196423E+03   -0.90378E-05   -0.11426E-05   664   0.101E-02    0.397E-02
RMM:  22    -0.257498205372E+03   -0.89492E-05   -0.53805E-06   575   0.671E-03    0.389E-02
RMM:  23    -0.257498213071E+03   -0.76983E-05   -0.49006E-06   564   0.666E-03    0.514E-02
RMM:  24    -0.257498206226E+03    0.68448E-05   -0.27784E-06   399   0.555E-03    0.276E-02
RMM:  25    -0.257498211260E+03   -0.50337E-05   -0.12122E-06   365   0.355E-03    0.168E-02
RMM:  26    -0.257498213715E+03   -0.24549E-05   -0.10183E-06   357   0.309E-03    0.207E-02
RMM:  27    -0.257498213895E+03   -0.18052E-06   -0.83323E-07   358   0.314E-03
  11 F= -.25749821E+03 E0= -.25722923E+03  d E =-.384413E-02
       N       E                     dE             d eps       ncg     rms          rms(c)
DAV:   1    -0.257501052517E+03   -0.28388E-02   -0.17107E+00   672   0.237E+00    0.380E-01
RMM:   2    -0.257654072614E+03   -0.15302E+00   -0.66957E-02   676   0.730E-01    0.852E+00
RMM:   3    -0.257535947439E+03    0.11813E+00   -0.28533E-02   676   0.520E-01    0.504E+00
RMM:   4    -0.257505088381E+03    0.30859E-01   -0.14531E-02   676   0.350E-01    0.169E+00
RMM:   5    -0.257503317676E+03    0.17707E-02   -0.56851E-03   676   0.213E-01    0.113E+00
RMM:   6    -0.257505485150E+03   -0.21675E-02   -0.39473E-03   676   0.174E-01    0.156E+00
RMM:   7    -0.257512208617E+03   -0.67235E-02   -0.23705E-03   676   0.140E-01    0.300E+00
RMM:   8    -0.257501350334E+03    0.10858E-01   -0.27185E-03   675   0.154E-01    0.915E-01
RMM:   9    -0.257501492281E+03   -0.14195E-03   -0.14344E-03   676   0.112E-01    0.541E-01
RMM:  10    -0.257501540767E+03   -0.48486E-04   -0.56326E-04   676   0.667E-02    0.599E-01
RMM:  11    -0.257502129448E+03   -0.58868E-03   -0.34276E-04   676   0.518E-02    0.892E-01
RMM:  12    -0.257501940231E+03    0.18922E-03   -0.61558E-04   676   0.694E-02    0.662E-01
RMM:  13    -0.257501262818E+03    0.67741E-03   -0.47507E-04   676   0.659E-02    0.336E-01
RMM:  14    -0.257501249968E+03    0.12850E-04   -0.17844E-04   676   0.389E-02    0.156E-01
RMM:  15    -0.257501454823E+03   -0.20486E-03   -0.13057E-04   675   0.319E-02    0.260E-01
RMM:  16    -0.257501389373E+03    0.65451E-04   -0.11267E-04   676   0.310E-02    0.256E-01
RMM:  17    -0.257501279670E+03    0.10970E-03   -0.80504E-05   675   0.274E-02    0.998E-02
RMM:  18    -0.257501346589E+03   -0.66919E-04   -0.29078E-05   671   0.160E-02    0.916E-02
RMM:  19    -0.257501365948E+03   -0.19360E-04   -0.23415E-05   671   0.138E-02    0.965E-02
RMM:  20    -0.257501351039E+03    0.14910E-04   -0.18701E-05   669   0.129E-02    0.622E-02
RMM:  21    -0.257501360959E+03   -0.99205E-05   -0.10322E-05   661   0.977E-03    0.359E-02
RMM:  22    -0.257501366316E+03   -0.53569E-05   -0.41213E-06   501   0.602E-03    0.351E-02
RMM:  23    -0.257501373236E+03   -0.69200E-05   -0.36216E-06   446   0.584E-03    0.465E-02
RMM:  24    -0.257501367224E+03    0.60126E-05   -0.26466E-06   387   0.550E-03    0.257E-02
RMM:  25    -0.257501371764E+03   -0.45406E-05   -0.11331E-06   364   0.352E-03    0.146E-02
RMM:  26    -0.257501373118E+03   -0.13533E-05   -0.83080E-07   354   0.278E-03    0.180E-02
RMM:  27    -0.257501373337E+03   -0.21996E-06   -0.66698E-07   354   0.283E-03
  12 F= -.25750137E+03 E0= -.25723282E+03  d E =-.315944E-02
       N       E                     dE             d eps       ncg     rms          rms(c)
DAV:   1    -0.257503225912E+03   -0.18528E-02   -0.16800E+00   672   0.235E+00    0.345E-01
RMM:   2    -0.257631341413E+03   -0.12812E+00   -0.55386E-02   676   0.660E-01    0.795E+00
RMM:   3    -0.257529880326E+03    0.10146E+00   -0.23690E-02   676   0.472E-01    0.450E+00
RMM:   4    -0.257506955988E+03    0.22924E-01   -0.11636E-02   676   0.315E-01    0.168E+00
RMM:   5    -0.257505781272E+03    0.11747E-02   -0.44354E-03   676   0.190E-01    0.138E+00
RMM:   6    -0.257508695128E+03   -0.29139E-02   -0.21845E-03   676   0.130E-01    0.211E+00
RMM:   7    -0.257507425076E+03    0.12701E-02   -0.32316E-03   676   0.159E-01    0.148E+00
RMM:   8    -0.257504380840E+03    0.30442E-02   -0.27118E-03   676   0.157E-01    0.897E-01
RMM:   9    -0.257504247521E+03    0.13332E-03   -0.76865E-04   676   0.825E-02    0.915E-01
RMM:  10    -0.257503489410E+03    0.75811E-03   -0.47017E-04   676   0.625E-02    0.428E-01
RMM:  11    -0.257503929936E+03   -0.44053E-03   -0.43694E-04   676   0.576E-02    0.462E-01
RMM:  12    -0.257504099585E+03   -0.16965E-03   -0.52491E-04   676   0.638E-02    0.509E-01
RMM:  13    -0.257503548593E+03    0.55099E-03   -0.39758E-04   676   0.602E-02    0.277E-01
RMM:  14    -0.257503563353E+03   -0.14760E-04   -0.13992E-04   676   0.345E-02    0.166E-01
RMM:  15    -0.257503722974E+03   -0.15962E-03   -0.11453E-04   676   0.303E-02    0.254E-01
RMM:  16    -0.257503595576E+03    0.12740E-03   -0.99775E-05   676   0.299E-02    0.150E-01
RMM:  17    -0.257503617965E+03   -0.22389E-04   -0.52762E-05   674   0.218E-02    0.922E-02
RMM:  18    -0.257503645134E+03   -0.27170E-04   -0.26147E-05   672   0.147E-02    0.108E-01
RMM:  19    -0.257503649110E+03   -0.39751E-05   -0.25915E-05   671   0.146E-02    0.878E-02
RMM:  20    -0.257503644569E+03    0.45401E-05   -0.17079E-05   669   0.126E-02    0.563E-02
RMM:  21    -0.257503647968E+03   -0.33982E-05   -0.67464E-06   630   0.769E-03    0.315E-02
RMM:  22    -0.257503654433E+03   -0.64652E-05   -0.33306E-06   428   0.546E-03    0.306E-02
RMM:  23    -0.257503657737E+03   -0.33043E-05   -0.27529E-06   391   0.546E-03    0.306E-02
RMM:  24    -0.257503655938E+03    0.17991E-05   -0.13967E-06   364   0.413E-03    0.175E-02
RMM:  25    -0.257503658176E+03   -0.22378E-05   -0.48742E-07   357   0.223E-03    0.130E-02
RMM:  26    -0.257503659323E+03   -0.11474E-05   -0.62627E-07   350   0.242E-03    0.160E-02
RMM:  27    -0.257503659723E+03   -0.39991E-06   -0.53050E-07   350   0.243E-03
  13 F= -.25750366E+03 E0= -.25723562E+03  d E =-.228639E-02
       N       E                     dE             d eps       ncg     rms          rms(c)
DAV:   1    -0.257503849245E+03   -0.18992E-03   -0.54423E-01   672   0.132E+00    0.172E-01
RMM:   2    -0.257524691430E+03   -0.20842E-01   -0.18676E-02   676   0.364E-01    0.308E+00
RMM:   3    -0.257506837025E+03    0.17854E-01   -0.58799E-03   687   0.221E-01    0.165E+00
RMM:   4    -0.257505387615E+03    0.14494E-02   -0.20223E-03   677   0.129E-01    0.103E+00
RMM:   5    -0.257504621223E+03    0.76639E-03   -0.11341E-03   676   0.943E-02    0.515E-01
RMM:   6    -0.257506037569E+03   -0.14163E-02   -0.77268E-04   676   0.766E-02    0.111E+00
RMM:   7    -0.257505382267E+03    0.65530E-03   -0.52618E-04   676   0.651E-02    0.944E-01
RMM:   8    -0.257504381718E+03    0.10005E-02   -0.66906E-04   675   0.747E-02    0.379E-01
RMM:   9    -0.257504494348E+03   -0.11263E-03   -0.31728E-04   675   0.509E-02    0.228E-01
RMM:  10    -0.257504695472E+03   -0.20112E-03   -0.19372E-04   676   0.382E-02    0.347E-01
RMM:  11    -0.257504756622E+03   -0.61150E-04   -0.22141E-04   676   0.415E-02    0.459E-01
RMM:  12    -0.257504639377E+03    0.11724E-03   -0.11683E-04   676   0.323E-02    0.474E-01
RMM:  13    -0.257504408041E+03    0.23134E-03   -0.11675E-04   676   0.313E-02    0.146E-01
RMM:  14    -0.257504575803E+03   -0.16776E-03   -0.78302E-05   676   0.247E-02    0.185E-01
RMM:  15    -0.257504570054E+03    0.57484E-05   -0.76968E-05   676   0.249E-02    0.201E-01
RMM:  16    -0.257504496737E+03    0.73317E-04   -0.55274E-05   674   0.221E-02    0.112E-01
RMM:  17    -0.257504521293E+03   -0.24556E-04   -0.27820E-05   672   0.155E-02    0.661E-02
RMM:  18    -0.257504538403E+03   -0.17110E-04   -0.16998E-05   672   0.116E-02    0.712E-02
RMM:  19    -0.257504538783E+03   -0.37961E-06   -0.12038E-05   667   0.101E-02    0.756E-02
RMM:  20    -0.257504531897E+03    0.68861E-05   -0.82679E-06   648   0.879E-03    0.512E-02
RMM:  21    -0.257504533945E+03   -0.20488E-05   -0.35636E-06   452   0.581E-03    0.198E-02
RMM:  22    -0.257504541718E+03   -0.77723E-05   -0.24880E-06   387   0.485E-03    0.272E-02
RMM:  23    -0.257504538544E+03    0.31737E-05   -0.18520E-06   365   0.474E-03    0.167E-02
RMM:  24    -0.257504541393E+03   -0.28486E-05   -0.68412E-07   361   0.284E-03    0.115E-02
RMM:  25    -0.257504541650E+03   -0.25694E-06   -0.40260E-07   352   0.198E-03
  14 F= -.25750454E+03 E0= -.25723648E+03  d E =-.881926E-03
       N       E                     dE             d eps       ncg     rms          rms(c)
DAV:   1    -0.257504825533E+03   -0.28414E-03   -0.13833E-02   672   0.206E-01    0.271E-02
RMM:   2    -0.257505575182E+03   -0.74965E-03   -0.41192E-04   676   0.559E-02    0.650E-01
RMM:   3    -0.257504635405E+03    0.93978E-03   -0.16160E-04   679   0.383E-02    0.344E-01
RMM:   4    -0.257504755248E+03   -0.11984E-03   -0.66114E-05   674   0.242E-02    0.114E-01
RMM:   5    -0.257504828773E+03   -0.73525E-04   -0.29930E-05   671   0.156E-02    0.104E-01
RMM:   6    -0.257504883853E+03   -0.55080E-04   -0.18221E-05   672   0.118E-02    0.228E-01
RMM:   7    -0.257504809231E+03    0.74621E-04   -0.20214E-05   669   0.131E-02    0.126E-01
RMM:   8    -0.257504819318E+03   -0.10086E-04   -0.14350E-05   668   0.115E-02    0.809E-02
RMM:   9    -0.257504830550E+03   -0.11232E-04   -0.40829E-06   481   0.610E-03    0.584E-02
RMM:  10    -0.257504838601E+03   -0.80514E-05   -0.57425E-06   601   0.681E-03    0.520E-02
RMM:  11    -0.257504842544E+03   -0.39431E-05   -0.64409E-06   631   0.722E-03    0.630E-02
RMM:  12    -0.257504834069E+03    0.84757E-05   -0.53342E-06   585   0.692E-03    0.367E-02
RMM:  13    -0.257504836809E+03   -0.27406E-05   -0.32141E-06   434   0.541E-03    0.195E-02
RMM:  14    -0.257504839620E+03   -0.28113E-05   -0.18144E-06   367   0.413E-03    0.234E-02
RMM:  15    -0.257504839817E+03   -0.19630E-06   -0.16153E-06   363   0.416E-03
  15 F= -.25750484E+03 E0= -.25723680E+03  d E =-.298167E-03
