 vasp.5.4.4.18Apr17-6-g9f103f2a35 (build Oct 13 2018 23:10:52) complex          
  
 executed on           IFC91_ompi date 2020.07.23  05:24:40
 running on  120 total cores
 each image running on   24 cores
 distrk:  each k-point on   24 cores,    1 groups
 distr:  one band on NCORES_PER_BAND=   1 cores,   24 groups


--------------------------------------------------------------------------------------------------------


 INCAR:
 POTCAR:   PAW_PBE Ni 06Sep2000                   
 POTCAR:    PAW_PBE S 17Jan2003                   

 ----------------------------------------------------------------------------- 
|                                                                             |
|           W    W    AA    RRRRR   N    N  II  N    N   GGGG   !!!           |
|           W    W   A  A   R    R  NN   N  II  NN   N  G    G  !!!           |
|           W    W  A    A  R    R  N N  N  II  N N  N  G       !!!           |
|           W WW W  AAAAAA  RRRRR   N  N N  II  N  N N  G  GGG   !            |
|           WW  WW  A    A  R   R   N   NN  II  N   NN  G    G                |
|           W    W  A    A  R    R  N    N  II  N    N   GGGG   !!!           |
|                                                                             |
|      For optimal performance we recommend to set                            |
|        NCORE= 4 - approx SQRT( number of cores)                             |
|      NCORE specifies how many cores store one orbital (NPAR=cpu/NCORE).     |
|      This setting can  greatly improve the performance of VASP for DFT.     |
|      The default,   NCORE=1            might be grossly inefficient         |
|      on modern multi-core architectures or massively parallel machines.     |
|      Do your own testing !!!!                                               |
|      Unfortunately you need to use the default for GW and RPA calculations. |
|      (for HF NCORE is supported but not extensively tested yet)             |
|                                                                             |
 ----------------------------------------------------------------------------- 

 POTCAR:   PAW_PBE Ni 06Sep2000                   
  local pseudopotential read in
  partial core-charges read in
  atomic valenz-charges read in
  non local Contribution for L=           2  read in
    real space projection operators read in
  non local Contribution for L=           2  read in
    real space projection operators read in
  non local Contribution for L=           0  read in
    real space projection operators read in
  non local Contribution for L=           0  read in
    real space projection operators read in
  non local Contribution for L=           1  read in
    real space projection operators read in
  non local Contribution for L=           1  read in
    real space projection operators read in
    PAW grid and wavefunctions read in
 
   number of l-projection  operators is LMAX  =           6
   number of lm-projection operators is LMMAX =          18
 
 POTCAR:    PAW_PBE S 17Jan2003                   
  local pseudopotential read in
  partial core-charges read in
  atomic valenz-charges read in
  non local Contribution for L=           0  read in
    real space projection operators read in
  non local Contribution for L=           0  read in
    real space projection operators read in
  non local Contribution for L=           1  read in
    real space projection operators read in
  non local Contribution for L=           1  read in
    real space projection operators read in
    PAW grid and wavefunctions read in
 
   number of l-projection  operators is LMAX  =           4
   number of lm-projection operators is LMMAX =           8
 

 ----------------------------------------------------------------------------- 
|                                                                             |
|  ADVICE TO THIS USER RUNNING 'VASP/VAMP'   (HEAR YOUR MASTER'S VOICE ...):  |
|                                                                             |
|      You have a (more or less) 'large supercell' and for larger cells       |
|      it might be more efficient to use real space projection operators      |
|      So try LREAL= Auto  in the INCAR   file.                               |
|      Mind: If you want to do a very accurate calculations keep the          |
|      reciprocal projection scheme          (i.e. LREAL=.FALSE.)             |
|                                                                             |
 ----------------------------------------------------------------------------- 

 PAW_PBE Ni 06Sep2000                   :
 energy of atom  1       EATOM=-1077.9025
 kinetic energy error for atom=    0.0101 (will be added to EATOM!!)
  PAW_PBE S 17Jan2003                   :
 energy of atom  2       EATOM= -276.8230
 kinetic energy error for atom=    0.0046 (will be added to EATOM!!)
 
 
 POSCAR: Ni   S                                  
  positions in direct lattice
  No initial velocities read in
 exchange correlation table for  LEXCH =        8
   RHO(1)=    0.500       N(1)  =     2000
   RHO(2)=  100.500       N(2)  =     4000

 VTST: version 3.2, (02/03/18)

 CHAIN: initializing optimizer
 
 OPT: Using Quick-Min optimizer
 OPT: QM, Init
 OPT: QM, MAXMOVE       0.200000
 OPT: QM, TIMESTEP      0.100000
 
 CHAIN: Read ICHAIN            0
 CHAIN: Running the NEB
 NEB:          SPRING     -5.000000
 NEB:          LCLIMB      T
 NEB:     LTANGENTOLD      F
 NEB:           LDNEB      F
 NEB:        LDNEBORG      F
 NEB:        LNEBCELL      F
 NEB:          EFIRST      0.000000
 NEB:           ELAST      0.000000
 
 POSCAR: Ni   S                                  
  positions in direct lattice
  No initial velocities read in
 
 POSCAR: Ni   S                                  
  positions in direct lattice
  No initial velocities read in
 


--------------------------------------------------------------------------------------------------------


 ion  position               nearest neighbor table
   1  0.350  0.596  0.410-  19 2.41  10 2.41   8 2.44  16 2.45   3 2.51  17 2.52   2 2.52  24 2.53

   2  0.452  0.663  0.377-  19 2.41   5 2.41   4 2.45  16 2.45  20 2.51   6 2.51   3 2.52   1 2.52

   3  0.412  0.663  0.497-  10 2.41   5 2.41   8 2.44   4 2.45   1 2.51  11 2.51  12 2.52   2 2.52

   4  0.513  0.723  0.464-   5 2.30   3 2.45   2 2.45  12 2.45   6 2.45   7 2.45
   5  0.515  0.609  0.464-   4 2.30  28 2.36  12 2.40   3 2.41   7 2.41   2 2.41   6 2.41  23 2.47
                            14 2.47  19 2.48  10 2.48  13 2.49
   6  0.577  0.665  0.378-  23 2.41   5 2.41  35 2.45   4 2.45   7 2.51   2 2.51  32 2.52  20 2.52

   7  0.616  0.665  0.497-   5 2.41  14 2.41   4 2.45  33 2.45  32 2.51   6 2.51  12 2.52  15 2.53

   8  0.316  0.593  0.527-  10 2.30   1 2.44   3 2.44   9 2.45  24 2.45  11 2.47
   9  0.349  0.489  0.584-  10 2.43   8 2.45  27 2.46  42 2.50  24 2.51  11 2.54  25 2.55  39 2.60
                            56 2.89
  10  0.415  0.542  0.497-   8 2.30  28 2.36  24 2.41  11 2.41   3 2.41   1 2.41   9 2.43  27 2.48
                            26 2.48  13 2.48  19 2.48   5 2.48
  11  0.413  0.597  0.604-  13 2.40  10 2.41  40 2.46   8 2.47  12 2.50   3 2.51  39 2.53   9 2.54

  12  0.514  0.663  0.571-   5 2.40  13 2.41  40 2.44   4 2.45  11 2.50  15 2.51   3 2.52   7 2.52

  13  0.515  0.543  0.570-  40 2.30  28 2.36  11 2.40  41 2.40  12 2.41  15 2.41  39 2.46  27 2.46
                            10 2.48  31 2.48  14 2.49   5 2.49
  14  0.615  0.545  0.497-  33 2.30  28 2.36  15 2.41  34 2.41   7 2.41  37 2.41  32 2.41   5 2.47
                            23 2.48  30 2.48  31 2.48  13 2.49
  15  0.616  0.599  0.604-  14 2.41  13 2.41  40 2.44  33 2.45  41 2.50  12 2.51  34 2.52   7 2.53

  16  0.393  0.594  0.296-  19 2.30  18 2.45   2 2.45   1 2.45  17 2.45  20 2.45
  17  0.352  0.489  0.344-  19 2.41  26 2.42  50 2.44  16 2.45  47 2.51   1 2.52  18 2.52  24 2.53

  18  0.454  0.491  0.270-  19 2.41  21 2.41  48 2.45  16 2.45  20 2.51  22 2.51  17 2.52  47 2.52

  19  0.454  0.543  0.379-  16 2.30  28 2.36   1 2.41  17 2.41  18 2.41   2 2.41  20 2.41  21 2.48
                             5 2.48  23 2.48  10 2.48  26 2.48
  20  0.515  0.598  0.291-  23 2.41  19 2.41  35 2.45  16 2.45  18 2.51  22 2.51   2 2.51   6 2.52

  21  0.517  0.438  0.359-  48 2.30  28 2.36  52 2.41  49 2.41  47 2.41  18 2.41  22 2.42  19 2.48
                            30 2.48  23 2.48  26 2.48  29 2.48
  22  0.579  0.492  0.271-  23 2.41  21 2.42  35 2.45  48 2.45  20 2.51  49 2.51  18 2.51  36 2.52

  23  0.578  0.545  0.379-  35 2.30  28 2.36  32 2.41  36 2.41  22 2.41   6 2.41  20 2.41   5 2.47
                            14 2.48  30 2.48  19 2.48  21 2.48
  24  0.313  0.488  0.464-  26 2.40  10 2.41  50 2.45   8 2.45   9 2.51  25 2.52  17 2.53   1 2.53

  25  0.353  0.381  0.517-  26 2.40  27 2.42  50 2.46  42 2.46  51 2.50  43 2.50  24 2.52   9 2.55

  26  0.416  0.437  0.432-  50 2.30  28 2.36  25 2.40  24 2.40  51 2.41  17 2.42  47 2.42  29 2.48
                            10 2.48  21 2.48  19 2.48  27 2.48
  27  0.455  0.437  0.550-  42 2.33  28 2.35  25 2.42  43 2.42   9 2.46  44 2.46  13 2.46  31 2.48
                            10 2.48  29 2.48  26 2.48  39 2.51
  28  0.516  0.491  0.465-  27 2.35   5 2.36  14 2.36  10 2.36  26 2.36  31 2.36  13 2.36  29 2.36
                            30 2.36  21 2.36  19 2.36  23 2.36
  29  0.517  0.373  0.464-  55 2.30  28 2.36  43 2.40  51 2.41  45 2.41  53 2.41  52 2.42  26 2.48
                            31 2.48  21 2.48  30 2.48  27 2.48
  30  0.617  0.439  0.432-  54 2.30  28 2.36  53 2.41  37 2.41  38 2.41  49 2.41  36 2.41  21 2.48
                            23 2.48  14 2.48  31 2.48  29 2.48
  31  0.579  0.438  0.550-  46 2.30  28 2.36  41 2.41  45 2.41  34 2.41  38 2.41  44 2.43  27 2.48
                            29 2.48  30 2.48  13 2.48  14 2.48
  32  0.680  0.600  0.411-  23 2.41  14 2.41  35 2.45  33 2.45   7 2.51  37 2.51  36 2.52   6 2.52

  33  0.713  0.597  0.529-  14 2.30  15 2.45  34 2.45  37 2.45  32 2.45   7 2.45
  34  0.681  0.492  0.584-  31 2.41  14 2.41  46 2.44  33 2.45  41 2.51  38 2.51  37 2.52  15 2.52

  35  0.637  0.597  0.296-  23 2.30  22 2.45  36 2.45  20 2.45   6 2.45  32 2.45
  36  0.681  0.493  0.344-  23 2.41  30 2.41  35 2.45  54 2.45  49 2.51  37 2.51  22 2.52  32 2.52

  37  0.720  0.493  0.464-  30 2.41  14 2.41  54 2.45  33 2.45  36 2.51  32 2.51  34 2.52  38 2.52

  38  0.682  0.386  0.517-  30 2.41  31 2.41  46 2.44  54 2.45  34 2.51  37 2.52  53 2.52  45 2.52

  39  0.452  0.492  0.663-  56 1.80  40 2.44  13 2.46  27 2.51  42 2.53  11 2.53  41 2.54   9 2.60
                            44 2.61
  40  0.515  0.596  0.673-  13 2.30  15 2.44  12 2.44  39 2.44  11 2.46  41 2.47
  41  0.579  0.491  0.657-  13 2.40  31 2.41  46 2.47  40 2.47  15 2.50  34 2.51  44 2.54  39 2.54

  42  0.394  0.384  0.633-  56 1.76  27 2.33  25 2.46  43 2.46   9 2.50  44 2.50  39 2.53
  43  0.455  0.316  0.550-  29 2.40  27 2.42  42 2.46  55 2.47  25 2.50  51 2.50  45 2.52  44 2.55

  44  0.518  0.382  0.639-  31 2.43  46 2.45  27 2.46  42 2.50  45 2.51  41 2.54  43 2.55  39 2.61
                            56 2.89
  45  0.581  0.318  0.550-  29 2.41  31 2.41  46 2.45  55 2.45  44 2.51  43 2.52  38 2.52  53 2.53

  46  0.640  0.388  0.632-  31 2.30  38 2.44  34 2.44  44 2.45  45 2.45  41 2.47
  47  0.416  0.383  0.323-  21 2.41  26 2.42  50 2.44  48 2.45  17 2.51  52 2.52  18 2.52  51 2.53

  48  0.517  0.387  0.256-  21 2.30  18 2.45  47 2.45  52 2.45  49 2.45  22 2.45
  49  0.619  0.386  0.324-  21 2.41  30 2.41  48 2.45  54 2.45  22 2.51  36 2.51  53 2.52  52 2.52

  50  0.320  0.385  0.399-  26 2.30  17 2.44  47 2.44  24 2.45  51 2.46  25 2.46
  51  0.416  0.316  0.431-  29 2.41  26 2.41  50 2.46  55 2.46  25 2.50  43 2.50  52 2.52  47 2.53

  52  0.518  0.318  0.356-  21 2.41  29 2.42  55 2.44  48 2.45  53 2.51  47 2.52  49 2.52  51 2.52

  53  0.620  0.319  0.430-  30 2.41  29 2.41  55 2.44  54 2.45  52 2.51  49 2.52  38 2.52  45 2.53

  54  0.716  0.389  0.400-  30 2.30  53 2.45  37 2.45  38 2.45  49 2.45  36 2.45
  55  0.520  0.258  0.463-  29 2.30  53 2.44  52 2.44  45 2.45  51 2.46  43 2.47
  56  0.401  0.432  0.706-  42 1.76  39 1.80   9 2.89  44 2.89
 

IMPORTANT INFORMATION: All symmetrisations will be switched off!
NOSYMM: (Re-)initialisation of all symmetry stuff for point group C_1.

 
 
 KPOINTS: 4x2x1                                   

Automatic generation of k-mesh.
Space group operators:
 irot       det(A)        alpha          n_x          n_y          n_z        tau_x        tau_y        tau_z
    1     1.000000     0.000000     1.000000     0.000000     0.000000     0.000000     0.000000     0.000000
 
 Subroutine IBZKPT returns following result:
 ===========================================
 
 Found      1 irreducible k-points:
 
 Following reciprocal coordinates:
            Coordinates               Weight
  0.000000  0.000000  0.000000      1.000000
 
 Following cartesian coordinates:
            Coordinates               Weight
  0.000000  0.000000  0.000000      1.000000
 


--------------------------------------------------------------------------------------------------------




 Dimension of arrays:
   k-points           NKPTS =      1   k-points in BZ     NKDIM =      1   number of bands    NBANDS=    336
   number of dos      NEDOS =    301   number of ions     NIONS =     56
   non local maximal  LDIM  =      6   non local SUM 2l+1 LMDIM =     18
   total plane-waves  NPLWV = 941192
   max r-space proj   IRMAX =      1   max aug-charges    IRDMAX=   4013
   dimension x,y,z NGX =    98 NGY =   98 NGZ =   98
   dimension x,y,z NGXF=   196 NGYF=  196 NGZF=  196
   support grid    NGXF=   196 NGYF=  196 NGZF=  196
   ions per type =              55   1
   NGX,Y,Z   is equivalent  to a cutoff of   8.15,  8.15,  8.15 a.u.
   NGXF,Y,Z  is equivalent  to a cutoff of  16.29, 16.29, 16.29 a.u.

 SYSTEM =  neb_test                                
 POSCAR =  Ni   S                                  

 Startparameter for this run:
   NWRITE =      1    write-flag & timer
   PREC   = normal    normal or accurate (medium, high low for compatibility)
   ISTART =      0    job   : 0-new  1-cont  2-samecut
   ICHARG =      2    charge: 1-file 2-atom 10-const
   ISPIN  =      1    spin polarized calculation?
   LNONCOLLINEAR =      F non collinear calculations
   LSORBIT =      F    spin-orbit coupling
   INIWAV =      1    electr: 0-lowe 1-rand  2-diag
   LASPH  =      F    aspherical Exc in radial PAW
   METAGGA=      F    non-selfconsistent MetaGGA calc.

 Electronic Relaxation 1
   ENCUT  =  400.0 eV  29.40 Ry    5.42 a.u.  32.61 32.61 32.61*2*pi/ulx,y,z
   ENINI  =  400.0     initial cutoff
   ENAUG  =  544.6 eV  augmentation charge cutoff
   NELM   =    100;   NELMIN=  8; NELMDL= -5     # of ELM steps 
   EDIFF  = 0.1E-05   stopping-criterion for ELM
   LREAL  =      F    real-space projection
   NLSPLINE    = F    spline interpolate recip. space projectors
   LCOMPAT=      F    compatible to vasp.4.4
   GGA_COMPAT  = T    GGA compatible to vasp.4.4-vasp.4.6
   LMAXPAW     = -100 max onsite density
   LMAXMIX     =    2 max onsite mixed and CHGCAR
   VOSKOWN=      0    Vosko Wilk Nusair interpolation
   ROPT   =    0.00000   0.00000
 Ionic relaxation
   EDIFFG = -.1E+00   stopping-criterion for IOM
   NSW    =    500    number of steps for IOM
   NBLOCK =      1;   KBLOCK =    500    inner block; outer block 
   IBRION =      3    ionic relax: 0-MD 1-quasi-New 2-CG
   NFREE  =      0    steps in history (QN), initial steepest desc. (CG)
   ISIF   =      2    stress and relaxation
   IWAVPR =     11    prediction:  0-non 1-charg 2-wave 3-comb
   ISYM   =      0    0-nonsym 1-usesym 2-fastsym
   LCORR  =      T    Harris-Foulkes like correction to forces

   POTIM  = 0.0000    time-step for ionic-motion
   TEIN   =    0.0    initial temperature
   TEBEG  =    0.0;   TEEND  =   0.0 temperature during run
   SMASS  =  -3.00    Nose mass-parameter (am)
   estimated Nose-frequenzy (Omega)   =  0.10E-29 period in steps =  0.00 mass=  -0.914E-26a.u.
   SCALEE = 1.0000    scale energy and forces
   NPACO  =    256;   APACO  = 16.0  distance and # of slots for P.C.
   PSTRESS=    0.0 pullay stress

  Mass of Ions in am
   POMASS =  58.69 32.07
  Ionic Valenz
   ZVAL   =  10.00  6.00
  Atomic Wigner-Seitz radii
   RWIGS  =  -1.00 -1.00
  virtual crystal weights 
   VCA    =   1.00  1.00
   NELECT =     556.0000    total number of electrons
   NUPDOWN=      -1.0000    fix difference up-down

 DOS related values:
   EMIN   =  10.00;   EMAX   =-10.00  energy-range for DOS
   EFERMI =   0.00
   ISMEAR =     0;   SIGMA  =   0.05  broadening in eV -4-tet -1-fermi 0-gaus

 Electronic relaxation 2 (details)
   IALGO  =     68    algorithm
   LDIAG  =      T    sub-space diagonalisation (order eigenvalues)
   LSUBROT=      F    optimize rotation matrix (better conditioning)
   TURBO    =      0    0=normal 1=particle mesh
   IRESTART =      0    0=no restart 2=restart with 2 vectors
   NREBOOT  =      0    no. of reboots
   NMIN     =      0    reboot dimension
   EREF     =   0.00    reference energy to select bands
   IMIX   =      4    mixing-type and parameters
     AMIX     =   0.40;   BMIX     =  1.00
     AMIX_MAG =   1.60;   BMIX_MAG =  1.00
     AMIN     =   0.10
     WC   =   100.;   INIMIX=   1;  MIXPRE=   1;  MAXMIX= -45

 Intra band minimization:
   WEIMIN = 0.0010     energy-eigenvalue tresh-hold
   EBREAK =  0.74E-09  absolut break condition
   DEPER  =   0.30     relativ break condition  

   TIME   =   0.40     timestep for ELM

  volume/ion in A,a.u.               =     142.86       964.05
  Fermi-wavevector in a.u.,A,eV,Ry     =   0.673085  1.271946  6.164026  0.453043
  Thomas-Fermi vector in A             =   1.749399
 
 Write flags
   LWAVE        =      F    write WAVECAR
   LDOWNSAMPLE  =      F    k-point downsampling of WAVECAR
   LCHARG       =      F    write CHGCAR
   LVTOT        =      F    write LOCPOT, total local potential
   LVHAR        =      F    write LOCPOT, Hartree potential only
   LELF         =      F    write electronic localiz. function (ELF)
   LORBIT       =      0    0 simple, 1 ext, 2 COOP (PROOUT), +10 PAW based schemes


 Dipole corrections
   LMONO  =      F    monopole corrections only (constant potential shift)
   LDIPOL =      F    correct potential (dipole corrections)
   IDIPOL =      0    1-x, 2-y, 3-z, 4-all directions 
   EPSILON=  1.0000000 bulk dielectric constant

 Exchange correlation treatment:
   GGA     =    --    GGA type
   LEXCH   =     8    internal setting for exchange type
   VOSKOWN=      0    Vosko Wilk Nusair interpolation
   LHFCALC =     F    Hartree Fock is set to
   LHFONE  =     F    Hartree Fock one center treatment
   AEXX    =    0.0000 exact exchange contribution

 Linear response parameters
   LEPSILON=     F    determine dielectric tensor
   LRPA    =     F    only Hartree local field effects (RPA)
   LNABLA  =     F    use nabla operator in PAW spheres
   LVEL    =     F    velocity operator in full k-point grid
   LINTERFAST=   F  fast interpolation
   KINTER  =     0    interpolate to denser k-point grid
   CSHIFT  =0.1000    complex shift for real part using Kramers Kronig
   OMEGAMAX=  -1.0    maximum frequency
   DEG_THRESHOLD= 0.2000000E-02 threshold for treating states as degnerate
   RTIME   =   -0.100 relaxation time in fs
  (WPLASMAI=    0.000 imaginary part of plasma frequency in eV, 0.658/RTIME)
   DFIELD  = 0.0000000 0.0000000 0.0000000 field for delta impulse in time
 
 Orbital magnetization related:
   ORBITALMAG=     F  switch on orbital magnetization
   LCHIMAG   =     F  perturbation theory with respect to B field
   DQ        =  0.001000  dq finite difference perturbation B field
   LLRAUG    =     F  two centre corrections for induced B field



--------------------------------------------------------------------------------------------------------


 quickmin algorithm: (dynamic with friction)
 charge density and potential will be updated during run
 non-spin polarized calculation
 RMM-DIIS sequential band-by-band and
  variant of blocked Davidson during initial phase
 perform sub-space diagonalisation
    before iterative eigenvector-optimisation
 modified Broyden-mixing scheme, WC =      100.0
 initial mixing is a Kerker type mixing with AMIX =  0.4000 and BMIX =      1.0000
 Hartree-type preconditioning will be used
 using additional bands           58
 reciprocal scheme for non local part
 use partial core corrections
 calculate Harris-corrections to forces 
   (improved forces if not selfconsistent)
 use gradient corrections 
 use of overlap-Matrix (Vanderbilt PP)
 Gauss-broadening in eV      SIGMA  =   0.05


--------------------------------------------------------------------------------------------------------


  energy-cutoff  :      400.00
  volume of cell :     8000.00
      direct lattice vectors                 reciprocal lattice vectors
    20.000000000  0.000000000  0.000000000     0.050000000  0.000000000  0.000000000
     0.000000000 20.000000000  0.000000000     0.000000000  0.050000000  0.000000000
     0.000000000  0.000000000 20.000000000     0.000000000  0.000000000  0.050000000

  length of vectors
    20.000000000 20.000000000 20.000000000     0.050000000  0.050000000  0.050000000


 
 k-points in units of 2pi/SCALE and weight: 4x2x1                                   
   0.00000000  0.00000000  0.00000000       1.000
 
 k-points in reciprocal lattice and weights: 4x2x1                                   
   0.00000000  0.00000000  0.00000000       1.000
 
 position of ions in fractional coordinates (direct lattice) 
   0.35019347  0.59590243  0.41037240
   0.45156135  0.66329267  0.37725179
   0.41203075  0.66252507  0.49698123
   0.51302873  0.72331168  0.46437390
   0.51472500  0.60854206  0.46427394
   0.57712770  0.66504492  0.37772605
   0.61592040  0.66531436  0.49695607
   0.31640753  0.59290970  0.52745477
   0.34886996  0.48927924  0.58407869
   0.41488535  0.54216067  0.49679234
   0.41304522  0.59677400  0.60403590
   0.51383455  0.66344928  0.57120186
   0.51478334  0.54288110  0.57024845
   0.61549592  0.54471696  0.49695667
   0.61624820  0.59871249  0.60440649
   0.39267789  0.59373329  0.29552134
   0.35170073  0.48893081  0.34402016
   0.45374212  0.49075196  0.27028431
   0.45356921  0.54284908  0.37887895
   0.51516215  0.59803640  0.29089831
   0.51676929  0.43837066  0.35872428
   0.57923862  0.49225358  0.27054525
   0.57754195  0.54450146  0.37914801
   0.31258500  0.48792236  0.46416557
   0.35292691  0.38105732  0.51699986
   0.41641478  0.43676003  0.43161753
   0.45478114  0.43749731  0.54978612
   0.51590208  0.49072424  0.46451411
   0.51732667  0.37282830  0.46414544
   0.61692907  0.43941692  0.43155393
   0.57857726  0.43841582  0.54955487
   0.67964655  0.60003306  0.41098268
   0.71253972  0.59695096  0.52898307
   0.68071480  0.49230652  0.58377204
   0.63745837  0.59669670  0.29600483
   0.68096147  0.49321097  0.34449877
   0.71956610  0.49332175  0.46408757
   0.68204270  0.38557692  0.51746132
   0.45246185  0.49172922  0.66297364
   0.51537705  0.59589458  0.67255660
   0.57921293  0.49148456  0.65748843
   0.39369540  0.38354515  0.63311085
   0.45492215  0.31646131  0.54987171
   0.51843218  0.38177078  0.63876865
   0.58085812  0.31804049  0.55047265
   0.64040850  0.38751627  0.63206783
   0.41575678  0.38290361  0.32343609
   0.51742638  0.38733919  0.25550562
   0.61941560  0.38593767  0.32359857
   0.31952892  0.38460028  0.39860584
   0.41643625  0.31644069  0.43081074
   0.51837379  0.31811258  0.35644318
   0.61997324  0.31913564  0.43026798
   0.71550010  0.38929176  0.39973690
   0.51958633  0.25799562  0.46274429
   0.40090741  0.43235250  0.70623648
 
 position of ions in cartesian coordinates  (Angst):
   7.00386935 11.91804869  8.20744790
   9.03122708 13.26585335  7.54503588
   8.24061506 13.25050148  9.93962455
  10.26057466 14.46623367  9.28747810
  10.29449992 12.17084116  9.28547887
  11.54255400 13.30089830  7.55452094
  12.31840808 13.30628725  9.93912136
   6.32815059 11.85819409 10.54909547
   6.97739930  9.78558473 11.68157377
   8.29770708 10.84321340  9.93584688
   8.26090431 11.93548005 12.08071794
  10.27669107 13.26898550 11.42403715
  10.29566684 10.85762194 11.40496909
  12.30991849 10.89433917  9.93913333
  12.32496404 11.97424983 12.08812986
   7.85355784 11.87466583  5.91042684
   7.03401460  9.77861630  6.88040314
   9.07484249  9.81503924  5.40568614
   9.07138423 10.85698154  7.57757900
  10.30324304 11.96072804  5.81796625
  10.33538574  8.76741319  7.17448555
  11.58477234  9.84507151  5.41090491
  11.55083897 10.89002920  7.58296026
   6.25169997  9.75844730  9.28331145
   7.05853821  7.62114633 10.33999714
   8.32829554  8.73520061  8.63235070
   9.09562272  8.74994611 10.99572246
  10.31804169  9.81448482  9.29028229
  10.34653344  7.45656605  9.28290873
  12.33858147  8.78833838  8.63107865
  11.57154521  8.76831649 10.99109736
  13.59293106 12.00066116  8.21965351
  14.25079441 11.93901923 10.57966137
  13.61429598  9.84613035 11.67544075
  12.74916736 11.93393394  5.92009668
  13.61922933  9.86421940  6.88997543
  14.39132194  9.86643509  9.28175150
  13.64085407  7.71153837 10.34922648
   9.04923704  9.83458449 13.25947279
  10.30754093 11.91789164 13.45113203
  11.58425868  9.82969130 13.14976862
   7.87390792  7.67090301 12.66221698
   9.09844309  6.32922621 10.99743419
  10.36864353  7.63541558 12.77537291
  11.61716245  6.36080986 11.00945299
  12.80817007  7.75032545 12.64135654
   8.31513554  7.65807212  6.46872184
  10.34852770  7.74678388  5.11011233
  12.38831209  7.71875341  6.47197139
   6.39057845  7.69200569  7.97211689
   8.32872506  6.32881371  8.61621483
  10.36747579  6.36225153  7.12886362
  12.39946483  6.38271274  8.60535953
  14.31000199  7.78583520  7.99473806
  10.39172670  5.15991241  9.25488588
   8.01814822  8.64705009 14.12472966
 


--------------------------------------------------------------------------------------------------------


 k-point  1 :   0.0000 0.0000 0.0000  plane waves:  145165

 maximum and minimum number of plane-waves per node :    145165   145165

 maximum number of plane-waves:    145165
 maximum index in each direction: 
   IXMAX=   32   IYMAX=   32   IZMAX=   32
   IXMIN=  -32   IYMIN=  -32   IZMIN=  -32


 serial   3D FFT for wavefunctions
 parallel 3D FFT for charge:
    minimum data exchange during FFTs selected (reduces bandwidth)


 total amount of memory used by VASP MPI-rank0   308125. kBytes
=======================================================================

   base      :      30000. kBytes
   nonl-proj :     171888. kBytes
   fftplans  :      15318. kBytes
   grid      :      57304. kBytes
   one-center:        870. kBytes
   wavefun   :      32745. kBytes
 
     INWAV:  cpu time    0.0000: real time    0.0000
 Broyden mixing: mesh for mixing (old mesh)
   NGX = 65   NGY = 65   NGZ = 65
  (NGX  =196   NGY  =196   NGZ  =196)
  gives a total of 274625 points

 initial charge density was supplied:
 charge density of overlapping atoms calculated
 number of electron     556.0000000 magnetization 
 keeping initial charge density in first step


--------------------------------------------------------------------------------------------------------


 Maximum index for augmentation-charges          288 (set IRDMAX)


--------------------------------------------------------------------------------------------------------


 First call to EWALD:  gamma=   0.089
 Maximum number of real-space cells 3x 3x 3
 Maximum number of reciprocal cells 3x 3x 3

    FEWALD:  cpu time    0.0036: real time    0.0036


--------------------------------------- Iteration      1(   1)  ---------------------------------------


    POTLOK:  cpu time    0.2755: real time    0.2782
    SETDIJ:  cpu time    0.0082: real time    0.0083
     EDDAV:  cpu time   52.6753: real time   52.8242
       DOS:  cpu time    0.0006: real time    0.0006
    --------------------------------------------
      LOOP:  cpu time   52.9597: real time   53.1114

 eigenvalue-minimisations  :   672
 total energy-change (2. order) : 0.2859368E+04  (-0.1622314E+05)
 number of electron     556.0000000 magnetization 
 augmentation part      556.0000000 magnetization 

 Free energy of the ion-electron system (eV)
  ---------------------------------------------------
  alpha Z        PSCENC =       387.12086559
  Ewald energy   TEWEN  =    181164.56018260
  -Hartree energ DENC   =   -235926.50214953
  -exchange      EXHF   =         0.00000000
  -V(xc)+E(xc)   XCENC  =      1718.18732064
  PAW double counting   =     47983.58147063   -51655.55533713
  entropy T*S    EENTRO =        -0.06925779
  eigenvalues    EBANDS =      -372.85816869
  atomic energy  EATOM  =     59560.90262231
  Solvation  Ediel_sol  =         0.00000000
  ---------------------------------------------------
  free energy    TOTEN  =      2859.36754865 eV

  energy without entropy =     2859.43680644  energy(sigma->0) =     2859.40217754


--------------------------------------------------------------------------------------------------------




--------------------------------------- Iteration      1(   2)  ---------------------------------------


     EDDAV:  cpu time   54.2442: real time   54.3940
       DOS:  cpu time    0.0003: real time    0.0003
    --------------------------------------------
      LOOP:  cpu time   54.2445: real time   54.3942

 eigenvalue-minimisations  :   696
 total energy-change (2. order) :-0.2970117E+04  (-0.2903329E+04)
 number of electron     556.0000000 magnetization 
 augmentation part      556.0000000 magnetization 

 Free energy of the ion-electron system (eV)
  ---------------------------------------------------
  alpha Z        PSCENC =       387.12086559
  Ewald energy   TEWEN  =    181164.56018260
  -Hartree energ DENC   =   -235926.50214953
  -exchange      EXHF   =         0.00000000
  -V(xc)+E(xc)   XCENC  =      1718.18732064
  PAW double counting   =     47983.58147063   -51655.55533713
  entropy T*S    EENTRO =        -0.14316145
  eigenvalues    EBANDS =     -3342.90109997
  atomic energy  EATOM  =     59560.90262231
  Solvation  Ediel_sol  =         0.00000000
  ---------------------------------------------------
  free energy    TOTEN  =      -110.74928629 eV

  energy without entropy =     -110.60612485  energy(sigma->0) =     -110.67770557


--------------------------------------------------------------------------------------------------------




--------------------------------------- Iteration      1(   3)  ---------------------------------------


     EDDAV:  cpu time   61.5568: real time   61.7255
       DOS:  cpu time    0.0003: real time    0.0002
    --------------------------------------------
      LOOP:  cpu time   61.5571: real time   61.7257

 eigenvalue-minimisations  :   816
 total energy-change (2. order) :-0.1842480E+03  (-0.1711171E+03)
 number of electron     556.0000000 magnetization 
 augmentation part      556.0000000 magnetization 

 Free energy of the ion-electron system (eV)
  ---------------------------------------------------
  alpha Z        PSCENC =       387.12086559
  Ewald energy   TEWEN  =    181164.56018260
  -Hartree energ DENC   =   -235926.50214953
  -exchange      EXHF   =         0.00000000
  -V(xc)+E(xc)   XCENC  =      1718.18732064
  PAW double counting   =     47983.58147063   -51655.55533713
  entropy T*S    EENTRO =        -0.31809073
  eigenvalues    EBANDS =     -3526.97422032
  atomic energy  EATOM  =     59560.90262231
  Solvation  Ediel_sol  =         0.00000000
  ---------------------------------------------------
  free energy    TOTEN  =      -294.99733593 eV

  energy without entropy =     -294.67924520  energy(sigma->0) =     -294.83829056


--------------------------------------------------------------------------------------------------------




--------------------------------------- Iteration      1(   4)  ---------------------------------------


     EDDAV:  cpu time   57.1550: real time   57.3094
       DOS:  cpu time    0.0003: real time    0.0003
    --------------------------------------------
      LOOP:  cpu time   57.1553: real time   57.3097

 eigenvalue-minimisations  :   744
 total energy-change (2. order) :-0.7269544E+01  (-0.7022901E+01)
 number of electron     556.0000000 magnetization 
 augmentation part      556.0000000 magnetization 

 Free energy of the ion-electron system (eV)
  ---------------------------------------------------
  alpha Z        PSCENC =       387.12086559
  Ewald energy   TEWEN  =    181164.56018260
  -Hartree energ DENC   =   -235926.50214953
  -exchange      EXHF   =         0.00000000
  -V(xc)+E(xc)   XCENC  =      1718.18732064
  PAW double counting   =     47983.58147063   -51655.55533713
  entropy T*S    EENTRO =        -0.31980734
  eigenvalues    EBANDS =     -3534.24204746
  atomic energy  EATOM  =     59560.90262231
  Solvation  Ediel_sol  =         0.00000000
  ---------------------------------------------------
  free energy    TOTEN  =      -302.26687967 eV

  energy without entropy =     -301.94707234  energy(sigma->0) =     -302.10697600


--------------------------------------------------------------------------------------------------------




--------------------------------------- Iteration      1(   5)  ---------------------------------------


     EDDAV:  cpu time   60.0776: real time   60.2435
       DOS:  cpu time    0.0003: real time    0.0003
    CHARGE:  cpu time    0.4648: real time    0.4660
    MIXING:  cpu time    0.0098: real time    0.0098
    --------------------------------------------
      LOOP:  cpu time   60.5525: real time   60.7196

 eigenvalue-minimisations  :   792
 total energy-change (2. order) :-0.1987169E+00  (-0.1976820E+00)
 number of electron     556.0000051 magnetization 
 augmentation part      316.6444082 magnetization 

 Broyden mixing:
  rms(total) = 0.53729E+01    rms(broyden)= 0.53719E+01
  rms(prec ) = 0.60002E+01
  weight for this iteration     100.00

 Free energy of the ion-electron system (eV)
  ---------------------------------------------------
  alpha Z        PSCENC =       387.12086559
  Ewald energy   TEWEN  =    181164.56018260
  -Hartree energ DENC   =   -235926.50214953
  -exchange      EXHF   =         0.00000000
  -V(xc)+E(xc)   XCENC  =      1718.18732064
  PAW double counting   =     47983.58147063   -51655.55533713
  entropy T*S    EENTRO =        -0.31987535
  eigenvalues    EBANDS =     -3534.44069638
  atomic energy  EATOM  =     59560.90262231
  Solvation  Ediel_sol  =         0.00000000
  ---------------------------------------------------
  free energy    TOTEN  =      -302.46559661 eV

  energy without entropy =     -302.14572126  energy(sigma->0) =     -302.30565894


--------------------------------------------------------------------------------------------------------




--------------------------------------- Iteration      1(   6)  ---------------------------------------


    POTLOK:  cpu time    0.2415: real time    0.2502
    SETDIJ:  cpu time    0.0081: real time    0.0081
    EDDIAG:  cpu time    1.4610: real time    1.4648
  RMM-DIIS:  cpu time   42.2986: real time   42.4130
    ORTHCH:  cpu time    0.3976: real time    0.3985
       DOS:  cpu time    0.0003: real time    0.0003
    CHARGE:  cpu time    0.4479: real time    0.4490
    MIXING:  cpu time    0.0124: real time    0.0124
    --------------------------------------------
      LOOP:  cpu time   44.8673: real time   44.9964

 eigenvalue-minimisations  :   672
 total energy-change (2. order) :-0.1540942E+03  (-0.7757370E+02)
 number of electron     556.0000067 magnetization 
 augmentation part      343.6651178 magnetization 

 Broyden mixing:
  rms(total) = 0.13551E+02    rms(broyden)= 0.13551E+02
  rms(prec ) = 0.16084E+02
  weight for this iteration     100.00

 eigenvalues of (default mixing * dielectric matrix)
  average eigenvalue GAMMA=   0.2096
  0.2096

 Free energy of the ion-electron system (eV)
  ---------------------------------------------------
  alpha Z        PSCENC =       387.12086559
  Ewald energy   TEWEN  =    181164.56018260
  -Hartree energ DENC   =   -235310.56772793
  -exchange      EXHF   =         0.00000000
  -V(xc)+E(xc)   XCENC  =      1661.92990096
  PAW double counting   =     47747.39588217   -51235.12763137
  entropy T*S    EENTRO =        -0.11063446
  eigenvalues    EBANDS =     -4432.66327824
  atomic energy  EATOM  =     59560.90262231
  Solvation  Ediel_sol  =         0.00000000
  ---------------------------------------------------
  free energy    TOTEN  =      -456.55981837 eV

  energy without entropy =     -456.44918390  energy(sigma->0) =     -456.50450114


--------------------------------------------------------------------------------------------------------




--------------------------------------- Iteration      1(   7)  ---------------------------------------


    POTLOK:  cpu time    0.2441: real time    0.2481
    SETDIJ:  cpu time    0.0063: real time    0.0064
    EDDIAG:  cpu time    1.4578: real time    1.4618
  RMM-DIIS:  cpu time   42.2940: real time   42.4039
    ORTHCH:  cpu time    0.3962: real time    0.3972
       DOS:  cpu time    0.0003: real time    0.0003
    CHARGE:  cpu time    0.4675: real time    0.4687
    MIXING:  cpu time    0.0088: real time    0.0088
    --------------------------------------------
      LOOP:  cpu time   44.8751: real time   44.9951

 eigenvalue-minimisations  :   673
 total energy-change (2. order) : 0.1140788E+03  (-0.4007502E+02)
 number of electron     555.9999977 magnetization 
 augmentation part      351.8849883 magnetization 

 Broyden mixing:
  rms(total) = 0.73885E+01    rms(broyden)= 0.73867E+01
  rms(prec ) = 0.85546E+01
  weight for this iteration     100.00

 eigenvalues of (default mixing * dielectric matrix)
  average eigenvalue GAMMA=   0.2847
  0.3993  0.1701

 Free energy of the ion-electron system (eV)
  ---------------------------------------------------
  alpha Z        PSCENC =       387.12086559
  Ewald energy   TEWEN  =    181164.56018260
  -Hartree energ DENC   =   -235099.12454410
  -exchange      EXHF   =         0.00000000
  -V(xc)+E(xc)   XCENC  =      1666.07835569
  PAW double counting   =     47943.39961452   -51475.98324646
  entropy T*S    EENTRO =        -0.20641432
  eigenvalues    EBANDS =     -4489.22841718
  atomic energy  EATOM  =     59560.90262231
  Solvation  Ediel_sol  =         0.00000000
  ---------------------------------------------------
  free energy    TOTEN  =      -342.48098134 eV

  energy without entropy =     -342.27456702  energy(sigma->0) =     -342.37777418


--------------------------------------------------------------------------------------------------------




--------------------------------------- Iteration      1(   8)  ---------------------------------------


    POTLOK:  cpu time    0.2402: real time    0.2489
    SETDIJ:  cpu time    0.0062: real time    0.0063
    EDDIAG:  cpu time    1.4548: real time    1.4586
  RMM-DIIS:  cpu time   42.2376: real time   42.3475
    ORTHCH:  cpu time    0.4370: real time    0.4380
       DOS:  cpu time    0.0003: real time    0.0003
    CHARGE:  cpu time    0.4520: real time    0.4531
    MIXING:  cpu time    0.0094: real time    0.0094
    --------------------------------------------
      LOOP:  cpu time   44.8374: real time   44.9620

 eigenvalue-minimisations  :   673
 total energy-change (2. order) : 0.2830299E+02  (-0.1882542E+02)
 number of electron     556.0000020 magnetization 
 augmentation part      345.9656576 magnetization 

 Broyden mixing:
  rms(total) = 0.90565E+01    rms(broyden)= 0.90554E+01
  rms(prec ) = 0.11420E+02
  weight for this iteration     100.00

 eigenvalues of (default mixing * dielectric matrix)
  average eigenvalue GAMMA=   0.2633
  0.4948  0.1476  0.1476

 Free energy of the ion-electron system (eV)
  ---------------------------------------------------
  alpha Z        PSCENC =       387.12086559
  Ewald energy   TEWEN  =    181164.56018260
  -Hartree energ DENC   =   -235377.18474389
  -exchange      EXHF   =         0.00000000
  -V(xc)+E(xc)   XCENC  =      1673.07039696
  PAW double counting   =     48469.10906662   -52084.85224271
  entropy T*S    EENTRO =        -0.13965478
  eigenvalues    EBANDS =     -4106.76448103
  atomic energy  EATOM  =     59560.90262231
  Solvation  Ediel_sol  =         0.00000000
  ---------------------------------------------------
  free energy    TOTEN  =      -314.17798833 eV

  energy without entropy =     -314.03833355  energy(sigma->0) =     -314.10816094


--------------------------------------------------------------------------------------------------------




--------------------------------------- Iteration      1(   9)  ---------------------------------------


    POTLOK:  cpu time    0.2405: real time    0.2445
    SETDIJ:  cpu time    0.0063: real time    0.0064
    EDDIAG:  cpu time    1.4758: real time    1.4799
  RMM-DIIS:  cpu time   42.2947: real time   42.4049
    ORTHCH:  cpu time    0.4160: real time    0.4170
       DOS:  cpu time    0.0004: real time    0.0004
    CHARGE:  cpu time    0.4425: real time    0.4437
    MIXING:  cpu time    0.0097: real time    0.0097
    --------------------------------------------
      LOOP:  cpu time   44.8859: real time   45.0064

 eigenvalue-minimisations  :   673
 total energy-change (2. order) : 0.7652058E+01  (-0.5526552E+01)
 number of electron     556.0000211 magnetization 
 augmentation part      343.7858283 magnetization 

 Broyden mixing:
  rms(total) = 0.10104E+02    rms(broyden)= 0.10103E+02
  rms(prec ) = 0.11913E+02
  weight for this iteration     100.00

 eigenvalues of (default mixing * dielectric matrix)
  average eigenvalue GAMMA=   0.2612
  0.6542  0.1495  0.1495  0.0916

 Free energy of the ion-electron system (eV)
  ---------------------------------------------------
  alpha Z        PSCENC =       387.12086559
  Ewald energy   TEWEN  =    181164.56018260
  -Hartree energ DENC   =   -235497.11178082
  -exchange      EXHF   =         0.00000000
  -V(xc)+E(xc)   XCENC  =      1675.08185124
  PAW double counting   =     48691.14603189   -52339.31463437
  entropy T*S    EENTRO =        -0.11356231
  eigenvalues    EBANDS =     -3948.79750648
  atomic energy  EATOM  =     59560.90262231
  Solvation  Ediel_sol  =         0.00000000
  ---------------------------------------------------
  free energy    TOTEN  =      -306.52593035 eV

  energy without entropy =     -306.41236804  energy(sigma->0) =     -306.46914919


--------------------------------------------------------------------------------------------------------




--------------------------------------- Iteration      1(  10)  ---------------------------------------


    POTLOK:  cpu time    0.2395: real time    0.2439
    SETDIJ:  cpu time    0.0063: real time    0.0064
    EDDIAG:  cpu time    1.4691: real time    1.4793
  RMM-DIIS:  cpu time   42.3593: real time   42.4698
    ORTHCH:  cpu time    0.4162: real time    0.4173
       DOS:  cpu time    0.0003: real time    0.0003
    CHARGE:  cpu time    0.4526: real time    0.4537
    MIXING:  cpu time    0.0101: real time    0.0102
    --------------------------------------------
      LOOP:  cpu time   44.9536: real time   45.0808

 eigenvalue-minimisations  :   674
 total energy-change (2. order) : 0.1604953E+02  (-0.6225920E+01)
 number of electron     556.0000055 magnetization 
 augmentation part      341.6541625 magnetization 

 Broyden mixing:
  rms(total) = 0.81929E+01    rms(broyden)= 0.81920E+01
  rms(prec ) = 0.97261E+01
  weight for this iteration     100.00

 eigenvalues of (default mixing * dielectric matrix)
  average eigenvalue GAMMA=   0.2328
  0.6926  0.1485  0.1485  0.1058  0.0687

 Free energy of the ion-electron system (eV)
  ---------------------------------------------------
  alpha Z        PSCENC =       387.12086559
  Ewald energy   TEWEN  =    181164.56018260
  -Hartree energ DENC   =   -235634.40821695
  -exchange      EXHF   =         0.00000000
  -V(xc)+E(xc)   XCENC  =      1677.50791259
  PAW double counting   =     48970.25617432   -52659.14358352
  entropy T*S    EENTRO =        -0.15996308
  eigenvalues    EBANDS =     -3757.11239639
  atomic energy  EATOM  =     59560.90262231
  Solvation  Ediel_sol  =         0.00000000
  ---------------------------------------------------
  free energy    TOTEN  =      -290.47640252 eV

  energy without entropy =     -290.31643944  energy(sigma->0) =     -290.39642098


--------------------------------------------------------------------------------------------------------




--------------------------------------- Iteration      1(  11)  ---------------------------------------


    POTLOK:  cpu time    0.2387: real time    0.2439
    SETDIJ:  cpu time    0.0063: real time    0.0063
    EDDIAG:  cpu time    1.4736: real time    1.4777
  RMM-DIIS:  cpu time   42.2958: real time   42.4066
    ORTHCH:  cpu time    0.4188: real time    0.4200
       DOS:  cpu time    0.0004: real time    0.0004
    CHARGE:  cpu time    0.4648: real time    0.4659
    MIXING:  cpu time    0.0106: real time    0.0107
    --------------------------------------------
      LOOP:  cpu time   44.9090: real time   45.0315

 eigenvalue-minimisations  :   674
 total energy-change (2. order) : 0.1985372E+02  (-0.2104252E+01)
 number of electron     556.0000043 magnetization 
 augmentation part      341.4505103 magnetization 

 Broyden mixing:
  rms(total) = 0.46121E+01    rms(broyden)= 0.46106E+01
  rms(prec ) = 0.55740E+01
  weight for this iteration     100.00

 eigenvalues of (default mixing * dielectric matrix)
  average eigenvalue GAMMA=   0.2105
  0.6983  0.1641  0.1641  0.0899  0.0899  0.0568

 Free energy of the ion-electron system (eV)
  ---------------------------------------------------
  alpha Z        PSCENC =       387.12086559
  Ewald energy   TEWEN  =    181164.56018260
  -Hartree energ DENC   =   -235674.31122824
  -exchange      EXHF   =         0.00000000
  -V(xc)+E(xc)   XCENC  =      1677.99160108
  PAW double counting   =     49062.94611630   -52763.39694913
  entropy T*S    EENTRO =        -0.19213263
  eigenvalues    EBANDS =     -3686.24375999
  atomic energy  EATOM  =     59560.90262231
  Solvation  Ediel_sol  =         0.00000000
  ---------------------------------------------------
  free energy    TOTEN  =      -270.62268209 eV

  energy without entropy =     -270.43054947  energy(sigma->0) =     -270.52661578


--------------------------------------------------------------------------------------------------------




--------------------------------------- Iteration      1(  12)  ---------------------------------------


    POTLOK:  cpu time    0.2413: real time    0.2453
    SETDIJ:  cpu time    0.0063: real time    0.0063
    EDDIAG:  cpu time    1.4753: real time    1.4833
  RMM-DIIS:  cpu time   42.2919: real time   42.4029
    ORTHCH:  cpu time    0.4169: real time    0.4180
       DOS:  cpu time    0.0003: real time    0.0003
    CHARGE:  cpu time    0.4562: real time    0.4572
    MIXING:  cpu time    0.0111: real time    0.0112
    --------------------------------------------
      LOOP:  cpu time   44.8993: real time   45.0244

 eigenvalue-minimisations  :   676
 total energy-change (2. order) : 0.3572896E+01  (-0.5079205E+00)
 number of electron     556.0000045 magnetization 
 augmentation part      341.5962782 magnetization 

 Broyden mixing:
  rms(total) = 0.50922E+01    rms(broyden)= 0.50909E+01
  rms(prec ) = 0.62620E+01
  weight for this iteration     100.00

 eigenvalues of (default mixing * dielectric matrix)
  average eigenvalue GAMMA=   0.2013
  0.7043  0.2479  0.1543  0.0997  0.0997  0.0589  0.0441

 Free energy of the ion-electron system (eV)
  ---------------------------------------------------
  alpha Z        PSCENC =       387.12086559
  Ewald energy   TEWEN  =    181164.56018260
  -Hartree energ DENC   =   -235692.04265109
  -exchange      EXHF   =         0.00000000
  -V(xc)+E(xc)   XCENC  =      1678.13775192
  PAW double counting   =     49125.33991823   -52830.73226933
  entropy T*S    EENTRO =        -0.23212563
  eigenvalues    EBANDS =     -3660.10408038
  atomic energy  EATOM  =     59560.90262231
  Solvation  Ediel_sol  =         0.00000000
  ---------------------------------------------------
  free energy    TOTEN  =      -267.04978577 eV

  energy without entropy =     -266.81766013  energy(sigma->0) =     -266.93372295


--------------------------------------------------------------------------------------------------------




--------------------------------------- Iteration      1(  13)  ---------------------------------------


    POTLOK:  cpu time    0.2412: real time    0.2456
    SETDIJ:  cpu time    0.0064: real time    0.0064
    EDDIAG:  cpu time    1.4761: real time    1.4801
  RMM-DIIS:  cpu time   42.3077: real time   42.4183
    ORTHCH:  cpu time    0.4165: real time    0.4176
       DOS:  cpu time    0.0003: real time    0.0003
    CHARGE:  cpu time    0.4488: real time    0.4498
    MIXING:  cpu time    0.0116: real time    0.0116
    --------------------------------------------
      LOOP:  cpu time   44.9084: real time   45.0297

 eigenvalue-minimisations  :   675
 total energy-change (2. order) : 0.2559376E+01  (-0.4060144E+00)
 number of electron     556.0000063 magnetization 
 augmentation part      341.2859426 magnetization 

 Broyden mixing:
  rms(total) = 0.46021E+01    rms(broyden)= 0.46010E+01
  rms(prec ) = 0.55200E+01
  weight for this iteration     100.00

 eigenvalues of (default mixing * dielectric matrix)
  average eigenvalue GAMMA=   0.2016
  0.7150  0.3580  0.1432  0.1124  0.1124  0.0801  0.0593  0.0324

 Free energy of the ion-electron system (eV)
  ---------------------------------------------------
  alpha Z        PSCENC =       387.12086559
  Ewald energy   TEWEN  =    181164.56018260
  -Hartree energ DENC   =   -235715.22021214
  -exchange      EXHF   =         0.00000000
  -V(xc)+E(xc)   XCENC  =      1678.23543364
  PAW double counting   =     49210.24639992   -52921.50807974
  entropy T*S    EENTRO =        -0.22211852
  eigenvalues    EBANDS =     -3628.60550374
  atomic energy  EATOM  =     59560.90262231
  Solvation  Ediel_sol  =         0.00000000
  ---------------------------------------------------
  free energy    TOTEN  =      -264.49041007 eV

  energy without entropy =     -264.26829155  energy(sigma->0) =     -264.37935081


--------------------------------------------------------------------------------------------------------




--------------------------------------- Iteration      1(  14)  ---------------------------------------


    POTLOK:  cpu time    0.2382: real time    0.2428
    SETDIJ:  cpu time    0.0063: real time    0.0063
    EDDIAG:  cpu time    1.4750: real time    1.4832
  RMM-DIIS:  cpu time   42.3038: real time   42.4147
    ORTHCH:  cpu time    0.4165: real time    0.4175
       DOS:  cpu time    0.0004: real time    0.0004
    CHARGE:  cpu time    0.4538: real time    0.4548
    MIXING:  cpu time    0.0121: real time    0.0121
    --------------------------------------------
      LOOP:  cpu time   44.9060: real time   45.0319

 eigenvalue-minimisations  :   676
 total energy-change (2. order) : 0.5656573E+00  (-0.4559501E+00)
 number of electron     556.0000012 magnetization 
 augmentation part      340.7514941 magnetization 

 Broyden mixing:
  rms(total) = 0.47367E+01    rms(broyden)= 0.47357E+01
  rms(prec ) = 0.56414E+01
  weight for this iteration     100.00

 eigenvalues of (default mixing * dielectric matrix)
  average eigenvalue GAMMA=   0.2087
  0.7499  0.4861  0.1307  0.1307  0.1443  0.0922  0.0690  0.0375  0.0375

 Free energy of the ion-electron system (eV)
  ---------------------------------------------------
  alpha Z        PSCENC =       387.12086559
  Ewald energy   TEWEN  =    181164.56018260
  -Hartree energ DENC   =   -235749.84824472
  -exchange      EXHF   =         0.00000000
  -V(xc)+E(xc)   XCENC  =      1678.41482043
  PAW double counting   =     49322.74573136   -53041.58554175
  entropy T*S    EENTRO =        -0.24956644
  eigenvalues    EBANDS =     -3585.98562213
  atomic energy  EATOM  =     59560.90262231
  Solvation  Ediel_sol  =         0.00000000
  ---------------------------------------------------
  free energy    TOTEN  =      -263.92475273 eV

  energy without entropy =     -263.67518629  energy(sigma->0) =     -263.79996951


--------------------------------------------------------------------------------------------------------




--------------------------------------- Iteration      1(  15)  ---------------------------------------


    POTLOK:  cpu time    0.2408: real time    0.2449
    SETDIJ:  cpu time    0.0063: real time    0.0063
    EDDIAG:  cpu time    1.4750: real time    1.4787
  RMM-DIIS:  cpu time   42.3143: real time   42.4250
    ORTHCH:  cpu time    0.4164: real time    0.4176
       DOS:  cpu time    0.0003: real time    0.0003
    CHARGE:  cpu time    0.4600: real time    0.4611
    MIXING:  cpu time    0.0134: real time    0.0134
    --------------------------------------------
      LOOP:  cpu time   44.9265: real time   45.0473

 eigenvalue-minimisations  :   675
 total energy-change (2. order) : 0.9835849E+00  (-0.4934406E+00)
 number of electron     556.0000003 magnetization 
 augmentation part      340.2440251 magnetization 

 Broyden mixing:
  rms(total) = 0.48688E+01    rms(broyden)= 0.48675E+01
  rms(prec ) = 0.57075E+01
  weight for this iteration     100.00

 eigenvalues of (default mixing * dielectric matrix)
  average eigenvalue GAMMA=   0.2108
  0.8015  0.5771  0.1389  0.1389  0.1323  0.1323  0.0596  0.0475  0.0475  0.0322

 Free energy of the ion-electron system (eV)
  ---------------------------------------------------
  alpha Z        PSCENC =       387.12086559
  Ewald energy   TEWEN  =    181164.56018260
  -Hartree energ DENC   =   -235794.78227709
  -exchange      EXHF   =         0.00000000
  -V(xc)+E(xc)   XCENC  =      1678.57327942
  PAW double counting   =     49478.35936602   -53207.29399707
  entropy T*S    EENTRO =        -0.21369269
  eigenvalues    EBANDS =     -3530.16751699
  atomic energy  EATOM  =     59560.90262231
  Solvation  Ediel_sol  =         0.00000000
  ---------------------------------------------------
  free energy    TOTEN  =      -262.94116788 eV

  energy without entropy =     -262.72747519  energy(sigma->0) =     -262.83432154


--------------------------------------------------------------------------------------------------------




--------------------------------------- Iteration      1(  16)  ---------------------------------------


    POTLOK:  cpu time    0.2406: real time    0.2452
    SETDIJ:  cpu time    0.0063: real time    0.0064
    EDDIAG:  cpu time    1.4689: real time    1.4802
  RMM-DIIS:  cpu time   42.3491: real time   42.4602
    ORTHCH:  cpu time    0.4166: real time    0.4176
       DOS:  cpu time    0.0003: real time    0.0003
    CHARGE:  cpu time    0.4546: real time    0.4556
    MIXING:  cpu time    0.0136: real time    0.0136
    --------------------------------------------
      LOOP:  cpu time   44.9500: real time   45.0791

 eigenvalue-minimisations  :   676
 total energy-change (2. order) : 0.2478382E+01  (-0.3741620E+00)
 number of electron     556.0000066 magnetization 
 augmentation part      339.8316179 magnetization 

 Broyden mixing:
  rms(total) = 0.31915E+01    rms(broyden)= 0.31903E+01
  rms(prec ) = 0.37632E+01
  weight for this iteration     100.00

 eigenvalues of (default mixing * dielectric matrix)
  average eigenvalue GAMMA=   0.2148
  0.9009  0.5946  0.1788  0.1788  0.1211  0.1211  0.0685  0.0685  0.0488  0.0488
  0.0326

 Free energy of the ion-electron system (eV)
  ---------------------------------------------------
  alpha Z        PSCENC =       387.12086559
  Ewald energy   TEWEN  =    181164.56018260
  -Hartree energ DENC   =   -235827.72998510
  -exchange      EXHF   =         0.00000000
  -V(xc)+E(xc)   XCENC  =      1678.65903805
  PAW double counting   =     49608.79296485   -53344.99726073
  entropy T*S    EENTRO =        -0.27190421
  eigenvalues    EBANDS =     -3487.49930898
  atomic energy  EATOM  =     59560.90262231
  Solvation  Ediel_sol  =         0.00000000
  ---------------------------------------------------
  free energy    TOTEN  =      -260.46278562 eV

  energy without entropy =     -260.19088141  energy(sigma->0) =     -260.32683351


--------------------------------------------------------------------------------------------------------




--------------------------------------- Iteration      1(  17)  ---------------------------------------


    POTLOK:  cpu time    0.2423: real time    0.2468
    SETDIJ:  cpu time    0.0065: real time    0.0065
    EDDIAG:  cpu time    1.4759: real time    1.4798
  RMM-DIIS:  cpu time   42.2834: real time   42.3940
    ORTHCH:  cpu time    0.4159: real time    0.4170
       DOS:  cpu time    0.0003: real time    0.0003
    CHARGE:  cpu time    0.4525: real time    0.4536
    MIXING:  cpu time    0.0136: real time    0.0137
    --------------------------------------------
      LOOP:  cpu time   44.8904: real time   45.0115

 eigenvalue-minimisations  :   675
 total energy-change (2. order) : 0.1028673E+01  (-0.2995558E+00)
 number of electron     556.0000043 magnetization 
 augmentation part      339.6798733 magnetization 

 Broyden mixing:
  rms(total) = 0.32233E+01    rms(broyden)= 0.32220E+01
  rms(prec ) = 0.39318E+01
  weight for this iteration     100.00

 eigenvalues of (default mixing * dielectric matrix)
  average eigenvalue GAMMA=   0.2070
  0.9208  0.5478  0.2450  0.2024  0.1163  0.1163  0.0805  0.0805  0.0507  0.0507
  0.0401  0.0331

 Free energy of the ion-electron system (eV)
  ---------------------------------------------------
  alpha Z        PSCENC =       387.12086559
  Ewald energy   TEWEN  =    181164.56018260
  -Hartree energ DENC   =   -235852.64307195
  -exchange      EXHF   =         0.00000000
  -V(xc)+E(xc)   XCENC  =      1678.73477089
  PAW double counting   =     49729.64814468   -53471.88167302
  entropy T*S    EENTRO =        -0.27940117
  eigenvalues    EBANDS =     -3455.59655226
  atomic energy  EATOM  =     59560.90262231
  Solvation  Ediel_sol  =         0.00000000
  ---------------------------------------------------
  free energy    TOTEN  =      -259.43411232 eV

  energy without entropy =     -259.15471115  energy(sigma->0) =     -259.29441174


--------------------------------------------------------------------------------------------------------




--------------------------------------- Iteration      1(  18)  ---------------------------------------


    POTLOK:  cpu time    0.2405: real time    0.2448
    SETDIJ:  cpu time    0.0063: real time    0.0063
    EDDIAG:  cpu time    1.4752: real time    1.4836
  RMM-DIIS:  cpu time   42.3083: real time   42.4194
    ORTHCH:  cpu time    0.4155: real time    0.4166
       DOS:  cpu time    0.0003: real time    0.0003
    CHARGE:  cpu time    0.4558: real time    0.4569
    MIXING:  cpu time    0.0146: real time    0.0147
    --------------------------------------------
      LOOP:  cpu time   44.9165: real time   45.0425

 eigenvalue-minimisations  :   677
 total energy-change (2. order) : 0.8744803E+00  (-0.1121560E+00)
 number of electron     556.0000056 magnetization 
 augmentation part      339.7120590 magnetization 

 Broyden mixing:
  rms(total) = 0.30060E+01    rms(broyden)= 0.30051E+01
  rms(prec ) = 0.36323E+01
  weight for this iteration     100.00

 eigenvalues of (default mixing * dielectric matrix)
  average eigenvalue GAMMA=   0.2111
  0.9596  0.4860  0.4860  0.1687  0.1193  0.1193  0.0945  0.0945  0.0534  0.0534
  0.0438  0.0332  0.0332

 Free energy of the ion-electron system (eV)
  ---------------------------------------------------
  alpha Z        PSCENC =       387.12086559
  Ewald energy   TEWEN  =    181164.56018260
  -Hartree energ DENC   =   -235858.20296450
  -exchange      EXHF   =         0.00000000
  -V(xc)+E(xc)   XCENC  =      1678.71880327
  PAW double counting   =     49762.57406738   -53505.75894582
  entropy T*S    EENTRO =        -0.29945553
  eigenvalues    EBANDS =     -3448.17480729
  atomic energy  EATOM  =     59560.90262231
  Solvation  Ediel_sol  =         0.00000000
  ---------------------------------------------------
  free energy    TOTEN  =      -258.55963200 eV

  energy without entropy =     -258.26017647  energy(sigma->0) =     -258.40990424


--------------------------------------------------------------------------------------------------------




--------------------------------------- Iteration      1(  19)  ---------------------------------------


    POTLOK:  cpu time    0.2427: real time    0.2471
    SETDIJ:  cpu time    0.0063: real time    0.0064
    EDDIAG:  cpu time    1.4744: real time    1.4783
  RMM-DIIS:  cpu time   42.2862: real time   42.3990
    ORTHCH:  cpu time    0.4156: real time    0.4167
       DOS:  cpu time    0.0003: real time    0.0003
    CHARGE:  cpu time    0.4555: real time    0.4565
    MIXING:  cpu time    0.0152: real time    0.0153
    --------------------------------------------
      LOOP:  cpu time   44.8963: real time   45.0196

 eigenvalue-minimisations  :   675
 total energy-change (2. order) :-0.2423650E+00  (-0.9855589E-01)
 number of electron     556.0000077 magnetization 
 augmentation part      339.8082977 magnetization 

 Broyden mixing:
  rms(total) = 0.33180E+01    rms(broyden)= 0.33169E+01
  rms(prec ) = 0.41946E+01
  weight for this iteration     100.00

 eigenvalues of (default mixing * dielectric matrix)
  average eigenvalue GAMMA=   0.2175
  1.0220  0.5750  0.5750  0.1528  0.1234  0.1234  0.1052  0.1052  0.0543  0.0543
  0.0504  0.0455  0.0327  0.0257

 Free energy of the ion-electron system (eV)
  ---------------------------------------------------
  alpha Z        PSCENC =       387.12086559
  Ewald energy   TEWEN  =    181164.56018260
  -Hartree energ DENC   =   -235865.52707687
  -exchange      EXHF   =         0.00000000
  -V(xc)+E(xc)   XCENC  =      1678.62990118
  PAW double counting   =     49814.48740074   -53558.87402701
  entropy T*S    EENTRO =        -0.22798697
  eigenvalues    EBANDS =     -3439.87387860
  atomic energy  EATOM  =     59560.90262231
  Solvation  Ediel_sol  =         0.00000000
  ---------------------------------------------------
  free energy    TOTEN  =      -258.80199703 eV

  energy without entropy =     -258.57401006  energy(sigma->0) =     -258.68800354


--------------------------------------------------------------------------------------------------------




--------------------------------------- Iteration      1(  20)  ---------------------------------------


    POTLOK:  cpu time    0.2414: real time    0.2462
    SETDIJ:  cpu time    0.0066: real time    0.0066
    EDDIAG:  cpu time    1.4746: real time    1.4836
  RMM-DIIS:  cpu time   42.3372: real time   42.4482
    ORTHCH:  cpu time    0.4154: real time    0.4165
       DOS:  cpu time    0.0003: real time    0.0003
    CHARGE:  cpu time    0.4560: real time    0.4570
    MIXING:  cpu time    0.0168: real time    0.0169
    --------------------------------------------
      LOOP:  cpu time   44.9484: real time   45.0753

 eigenvalue-minimisations  :   675
 total energy-change (2. order) : 0.1267349E+01  (-0.9366216E-01)
 number of electron     556.0000045 magnetization 
 augmentation part      339.8998785 magnetization 

 Broyden mixing:
  rms(total) = 0.23750E+01    rms(broyden)= 0.23736E+01
  rms(prec ) = 0.28548E+01
  weight for this iteration     100.00

 eigenvalues of (default mixing * dielectric matrix)
  average eigenvalue GAMMA=   0.2145
  1.0578  0.6121  0.6121  0.1261  0.1261  0.1307  0.1307  0.1035  0.0589  0.0589
  0.0514  0.0514  0.0417  0.0328  0.0239

 Free energy of the ion-electron system (eV)
  ---------------------------------------------------
  alpha Z        PSCENC =       387.12086559
  Ewald energy   TEWEN  =    181164.56018260
  -Hartree energ DENC   =   -235873.19268875
  -exchange      EXHF   =         0.00000000
  -V(xc)+E(xc)   XCENC  =      1678.47283738
  PAW double counting   =     49878.29291587   -53624.01127898
  entropy T*S    EENTRO =        -0.33982120
  eigenvalues    EBANDS =     -3429.34028312
  atomic energy  EATOM  =     59560.90262231
  Solvation  Ediel_sol  =         0.00000000
  ---------------------------------------------------
  free energy    TOTEN  =      -257.53464829 eV

  energy without entropy =     -257.19482710  energy(sigma->0) =     -257.36473769


--------------------------------------------------------------------------------------------------------




--------------------------------------- Iteration      1(  21)  ---------------------------------------


    POTLOK:  cpu time    0.2437: real time    0.2481
    SETDIJ:  cpu time    0.0064: real time    0.0064
    EDDIAG:  cpu time    1.4708: real time    1.4747
  RMM-DIIS:  cpu time   42.3218: real time   42.4328
    ORTHCH:  cpu time    0.4119: real time    0.4129
       DOS:  cpu time    0.0003: real time    0.0003
    CHARGE:  cpu time    0.4560: real time    0.4571
    MIXING:  cpu time    0.0162: real time    0.0162
    --------------------------------------------
      LOOP:  cpu time   44.9271: real time   45.0484

 eigenvalue-minimisations  :   675
 total energy-change (2. order) : 0.6376345E+00  (-0.4818505E-01)
 number of electron     556.0000054 magnetization 
 augmentation part      340.0326210 magnetization 

 Broyden mixing:
  rms(total) = 0.20985E+01    rms(broyden)= 0.20976E+01
  rms(prec ) = 0.24645E+01
  weight for this iteration     100.00

 eigenvalues of (default mixing * dielectric matrix)
  average eigenvalue GAMMA=   0.2081
  1.0687  0.6191  0.6191  0.1385  0.1385  0.1263  0.1263  0.1078  0.0739  0.0739
  0.0525  0.0525  0.0431  0.0329  0.0329  0.0235

 Free energy of the ion-electron system (eV)
  ---------------------------------------------------
  alpha Z        PSCENC =       387.12086559
  Ewald energy   TEWEN  =    181164.56018260
  -Hartree energ DENC   =   -235876.34840809
  -exchange      EXHF   =         0.00000000
  -V(xc)+E(xc)   XCENC  =      1678.31517537
  PAW double counting   =     49909.49396101   -53655.58247119
  entropy T*S    EENTRO =        -0.42035531
  eigenvalues    EBANDS =     -3424.93858606
  atomic energy  EATOM  =     59560.90262231
  Solvation  Ediel_sol  =         0.00000000
  ---------------------------------------------------
  free energy    TOTEN  =      -256.89701376 eV

  energy without entropy =     -256.47665845  energy(sigma->0) =     -256.68683610


--------------------------------------------------------------------------------------------------------




--------------------------------------- Iteration      1(  22)  ---------------------------------------


    POTLOK:  cpu time    0.2423: real time    0.2467
    SETDIJ:  cpu time    0.0063: real time    0.0063
    EDDIAG:  cpu time    1.4701: real time    1.4783
  RMM-DIIS:  cpu time   42.3074: real time   42.4181
    ORTHCH:  cpu time    0.4122: real time    0.4132
       DOS:  cpu time    0.0003: real time    0.0003
    CHARGE:  cpu time    0.4524: real time    0.4535
    MIXING:  cpu time    0.0174: real time    0.0174
    --------------------------------------------
      LOOP:  cpu time   44.9083: real time   45.0338

 eigenvalue-minimisations  :   675
 total energy-change (2. order) : 0.4417453E+00  (-0.2830523E-01)
 number of electron     556.0000051 magnetization 
 augmentation part      340.0437479 magnetization 

 Broyden mixing:
  rms(total) = 0.15905E+01    rms(broyden)= 0.15897E+01
  rms(prec ) = 0.19123E+01
  weight for this iteration     100.00

 eigenvalues of (default mixing * dielectric matrix)
  average eigenvalue GAMMA=   0.2009
  1.0785  0.6194  0.6194  0.1510  0.1510  0.1226  0.1226  0.1184  0.0790  0.0790
  0.0532  0.0532  0.0421  0.0421  0.0324  0.0292  0.0231

 Free energy of the ion-electron system (eV)
  ---------------------------------------------------
  alpha Z        PSCENC =       387.12086559
  Ewald energy   TEWEN  =    181164.56018260
  -Hartree energ DENC   =   -235878.39861030
  -exchange      EXHF   =         0.00000000
  -V(xc)+E(xc)   XCENC  =      1678.16361693
  PAW double counting   =     49922.02300462   -53668.24643869
  entropy T*S    EENTRO =        -0.48677772
  eigenvalues    EBANDS =     -3422.09373377
  atomic energy  EATOM  =     59560.90262231
  Solvation  Ediel_sol  =         0.00000000
  ---------------------------------------------------
  free energy    TOTEN  =      -256.45526843 eV

  energy without entropy =     -255.96849071  energy(sigma->0) =     -256.21187957


--------------------------------------------------------------------------------------------------------




--------------------------------------- Iteration      1(  23)  ---------------------------------------


    POTLOK:  cpu time    0.2413: real time    0.2459
    SETDIJ:  cpu time    0.0064: real time    0.0064
    EDDIAG:  cpu time    1.4701: real time    1.4739
  RMM-DIIS:  cpu time   42.3443: real time   42.4549
    ORTHCH:  cpu time    0.4158: real time    0.4168
       DOS:  cpu time    0.0004: real time    0.0004
    CHARGE:  cpu time    0.4591: real time    0.4602
    MIXING:  cpu time    0.0181: real time    0.0181
    --------------------------------------------
      LOOP:  cpu time   44.9554: real time   45.0766

 eigenvalue-minimisations  :   676
 total energy-change (2. order) : 0.3667136E+00  (-0.1349298E-01)
 number of electron     556.0000048 magnetization 
 augmentation part      340.0870337 magnetization 

 Broyden mixing:
  rms(total) = 0.97198E+00    rms(broyden)= 0.97102E+00
  rms(prec ) = 0.11235E+01
  weight for this iteration     100.00

 eigenvalues of (default mixing * dielectric matrix)
  average eigenvalue GAMMA=   0.1981
  1.0796  0.6152  0.6152  0.1713  0.1713  0.1196  0.1196  0.1320  0.1025  0.1025
  0.0609  0.0533  0.0533  0.0426  0.0426  0.0325  0.0289  0.0232

 Free energy of the ion-electron system (eV)
  ---------------------------------------------------
  alpha Z        PSCENC =       387.12086559
  Ewald energy   TEWEN  =    181164.56018260
  -Hartree energ DENC   =   -235880.37667969
  -exchange      EXHF   =         0.00000000
  -V(xc)+E(xc)   XCENC  =      1678.03142707
  PAW double counting   =     49933.37234965   -53679.74676831
  entropy T*S    EENTRO =        -0.53560995
  eigenvalues    EBANDS =     -3419.41694407
  atomic energy  EATOM  =     59560.90262231
  Solvation  Ediel_sol  =         0.00000000
  ---------------------------------------------------
  free energy    TOTEN  =      -256.08855479 eV

  energy without entropy =     -255.55294485  energy(sigma->0) =     -255.82074982


--------------------------------------------------------------------------------------------------------




--------------------------------------- Iteration      1(  24)  ---------------------------------------


    POTLOK:  cpu time    0.2444: real time    0.2490
    SETDIJ:  cpu time    0.0064: real time    0.0064
    EDDIAG:  cpu time    1.4683: real time    1.4769
  RMM-DIIS:  cpu time   42.3015: real time   42.4120
    ORTHCH:  cpu time    0.4161: real time    0.4171
       DOS:  cpu time    0.0004: real time    0.0004
    CHARGE:  cpu time    0.4474: real time    0.4486
    MIXING:  cpu time    0.0193: real time    0.0193
    --------------------------------------------
      LOOP:  cpu time   44.9038: real time   45.0296

 eigenvalue-minimisations  :   674
 total energy-change (2. order) : 0.1067062E+00  (-0.1768275E-01)
 number of electron     556.0000044 magnetization 
 augmentation part      340.2074460 magnetization 

 Broyden mixing:
  rms(total) = 0.85431E+00    rms(broyden)= 0.85334E+00
  rms(prec ) = 0.10554E+01
  weight for this iteration     100.00

 eigenvalues of (default mixing * dielectric matrix)
  average eigenvalue GAMMA=   0.2057
  1.0660  0.6188  0.6188  0.2957  0.2957  0.1579  0.1221  0.1221  0.1056  0.1056
  0.0651  0.0651  0.0533  0.0533  0.0399  0.0399  0.0325  0.0278  0.0231

 Free energy of the ion-electron system (eV)
  ---------------------------------------------------
  alpha Z        PSCENC =       387.12086559
  Ewald energy   TEWEN  =    181164.56018260
  -Hartree energ DENC   =   -235882.34228368
  -exchange      EXHF   =         0.00000000
  -V(xc)+E(xc)   XCENC  =      1677.85512004
  PAW double counting   =     49942.95072512   -53689.43110286
  entropy T*S    EENTRO =        -0.52295321
  eigenvalues    EBANDS =     -3417.07502448
  atomic energy  EATOM  =     59560.90262231
  Solvation  Ediel_sol  =         0.00000000
  ---------------------------------------------------
  free energy    TOTEN  =      -255.98184856 eV

  energy without entropy =     -255.45889535  energy(sigma->0) =     -255.72037196


--------------------------------------------------------------------------------------------------------




--------------------------------------- Iteration      1(  25)  ---------------------------------------


    POTLOK:  cpu time    0.2418: real time    0.2466
    SETDIJ:  cpu time    0.0063: real time    0.0064
    EDDIAG:  cpu time    1.4747: real time    1.4785
  RMM-DIIS:  cpu time   42.1960: real time   42.4231
    ORTHCH:  cpu time    0.4134: real time    0.4144
       DOS:  cpu time    0.0003: real time    0.0003
    CHARGE:  cpu time    0.4507: real time    0.4518
    MIXING:  cpu time    0.0204: real time    0.0205
    --------------------------------------------
      LOOP:  cpu time   44.8036: real time   45.0415

 eigenvalue-minimisations  :   675
 total energy-change (2. order) :-0.7331044E-01  (-0.2274280E-01)
 number of electron     556.0000035 magnetization 
 augmentation part      340.3431080 magnetization 

 Broyden mixing:
  rms(total) = 0.99615E+00    rms(broyden)= 0.99521E+00
  rms(prec ) = 0.11590E+01
  weight for this iteration     100.00

 eigenvalues of (default mixing * dielectric matrix)
  average eigenvalue GAMMA=   0.2187
  1.0493  0.6775  0.6775  0.4451  0.4451  0.1562  0.1222  0.1222  0.1069  0.1069
  0.0736  0.0736  0.0533  0.0533  0.0495  0.0402  0.0389  0.0325  0.0278  0.0231

 Free energy of the ion-electron system (eV)
  ---------------------------------------------------
  alpha Z        PSCENC =       387.12086559
  Ewald energy   TEWEN  =    181164.56018260
  -Hartree energ DENC   =   -235886.25682001
  -exchange      EXHF   =         0.00000000
  -V(xc)+E(xc)   XCENC  =      1677.70754325
  PAW double counting   =     49959.53381782   -53706.22069569
  entropy T*S    EENTRO =        -0.47362431
  eigenvalues    EBANDS =     -3412.92905058
  atomic energy  EATOM  =     59560.90262231
  Solvation  Ediel_sol  =         0.00000000
  ---------------------------------------------------
  free energy    TOTEN  =      -256.05515900 eV

  energy without entropy =     -255.58153470  energy(sigma->0) =     -255.81834685


--------------------------------------------------------------------------------------------------------




--------------------------------------- Iteration      1(  26)  ---------------------------------------


    POTLOK:  cpu time    0.2431: real time    0.2476
    SETDIJ:  cpu time    0.0063: real time    0.0064
    EDDIAG:  cpu time    1.4678: real time    1.4786
  RMM-DIIS:  cpu time   42.3129: real time   42.4239
    ORTHCH:  cpu time    0.4138: real time    0.4147
       DOS:  cpu time    0.0004: real time    0.0004
    CHARGE:  cpu time    0.4490: real time    0.4503
    MIXING:  cpu time    0.0213: real time    0.0214
    --------------------------------------------
      LOOP:  cpu time   44.9146: real time   45.0432

 eigenvalue-minimisations  :   676
 total energy-change (2. order) :-0.6740503E-01  (-0.2652516E-01)
 number of electron     556.0000067 magnetization 
 augmentation part      340.4480669 magnetization 

 Broyden mixing:
  rms(total) = 0.11262E+01    rms(broyden)= 0.11251E+01
  rms(prec ) = 0.13213E+01
  weight for this iteration     100.00

 eigenvalues of (default mixing * dielectric matrix)
  average eigenvalue GAMMA=   0.2273
  1.0339  0.7869  0.7869  0.4993  0.4993  0.1460  0.1460  0.1226  0.1226  0.0924
  0.0924  0.0703  0.0619  0.0529  0.0529  0.0431  0.0431  0.0369  0.0325  0.0277
  0.0231

 Free energy of the ion-electron system (eV)
  ---------------------------------------------------
  alpha Z        PSCENC =       387.12086559
  Ewald energy   TEWEN  =    181164.56018260
  -Hartree energ DENC   =   -235893.88294080
  -exchange      EXHF   =         0.00000000
  -V(xc)+E(xc)   XCENC  =      1677.58597636
  PAW double counting   =     49993.93725416   -53741.19681749
  entropy T*S    EENTRO =        -0.46670706
  eigenvalues    EBANDS =     -3404.68299971
  atomic energy  EATOM  =     59560.90262231
  Solvation  Ediel_sol  =         0.00000000
  ---------------------------------------------------
  free energy    TOTEN  =      -256.12256404 eV

  energy without entropy =     -255.65585697  energy(sigma->0) =     -255.88921050


--------------------------------------------------------------------------------------------------------




--------------------------------------- Iteration      1(  27)  ---------------------------------------


    POTLOK:  cpu time    0.2433: real time    0.2476
    SETDIJ:  cpu time    0.0063: real time    0.0063
    EDDIAG:  cpu time    1.4711: real time    1.4748
  RMM-DIIS:  cpu time   42.3392: real time   42.4500
    ORTHCH:  cpu time    0.4155: real time    0.4165
       DOS:  cpu time    0.0003: real time    0.0003
    CHARGE:  cpu time    0.4655: real time    0.4667
    MIXING:  cpu time    0.0227: real time    0.0228
    --------------------------------------------
      LOOP:  cpu time   44.9638: real time   45.0849

 eigenvalue-minimisations  :   675
 total energy-change (2. order) : 0.2397876E-01  (-0.2451505E-01)
 number of electron     556.0000050 magnetization 
 augmentation part      340.5713068 magnetization 

 Broyden mixing:
  rms(total) = 0.11304E+01    rms(broyden)= 0.11292E+01
  rms(prec ) = 0.13496E+01
  weight for this iteration     100.00

 eigenvalues of (default mixing * dielectric matrix)
  average eigenvalue GAMMA=   0.2399
  0.9686  0.9550  0.9550  0.5459  0.5459  0.1753  0.1753  0.1228  0.1228  0.1006
  0.1006  0.0712  0.0712  0.0580  0.0532  0.0532  0.0414  0.0414  0.0325  0.0362
  0.0277  0.0231

 Free energy of the ion-electron system (eV)
  ---------------------------------------------------
  alpha Z        PSCENC =       387.12086559
  Ewald energy   TEWEN  =    181164.56018260
  -Hartree energ DENC   =   -235902.72746089
  -exchange      EXHF   =         0.00000000
  -V(xc)+E(xc)   XCENC  =      1677.47397001
  PAW double counting   =     50032.62556752   -53780.43300062
  entropy T*S    EENTRO =        -0.48424382
  eigenvalues    EBANDS =     -3395.13708798
  atomic energy  EATOM  =     59560.90262231
  Solvation  Ediel_sol  =         0.00000000
  ---------------------------------------------------
  free energy    TOTEN  =      -256.09858528 eV

  energy without entropy =     -255.61434145  energy(sigma->0) =     -255.85646337


--------------------------------------------------------------------------------------------------------




--------------------------------------- Iteration      1(  28)  ---------------------------------------


    POTLOK:  cpu time    0.2440: real time    0.2484
    SETDIJ:  cpu time    0.0064: real time    0.0064
    EDDIAG:  cpu time    1.4686: real time    1.4780
  RMM-DIIS:  cpu time   42.3096: real time   42.4207
[...]
    FORHAR:  cpu time    0.1592: real time    0.1596
    MIXING:  cpu time    0.0151: real time    0.0152
    OFIELD:  cpu time    0.0001: real time    0.0001

  FORCE on cell =-STRESS in cart. coord.  units (eV):
  Direction    XX          YY          ZZ          XY          YZ          ZX
  --------------------------------------------------------------------------------------
  Alpha Z   387.12087   387.12087   387.12087
  Ewald   59678.36825 59495.91708 63015.18535   557.09085  -451.20697 -1220.86897
  Hartree 78076.73273 77890.03598 81157.19480   493.83757  -419.38033 -1093.98735
  E(xc)   -3038.11745 -3038.18266 -3037.51849     0.08216    -0.08988    -0.29817
  Local  ************************************ -1049.42334   868.60985  2309.93862
  n-local -1800.51867 -1799.43470 -1797.04719     1.36408     0.45754    -1.25582
  augment  2816.30301  2817.31555  2811.65677    -0.59139     1.26063     2.72131
  Kinetic  4368.50165  4368.11271  4360.77605    -1.95685     0.50357     3.60182
  Fock        0.00000     0.00000     0.00000     0.00000     0.00000     0.00000
  -------------------------------------------------------------------------------------
  Total      -2.99114    -2.66239    -2.62688     0.40308     0.15441    -0.14856
  in kB      -0.59904    -0.53320    -0.52609     0.08072     0.03092    -0.02975
  external pressure =       -0.55 kB  Pullay stress =        0.00 kB


 VOLUME and BASIS-vectors are now :
 -----------------------------------------------------------------------------
  energy-cutoff  :      400.00
  volume of cell :     8000.00
      direct lattice vectors                 reciprocal lattice vectors
    20.000000000  0.000000000  0.000000000     0.050000000  0.000000000  0.000000000
     0.000000000 20.000000000  0.000000000     0.000000000  0.050000000  0.000000000
     0.000000000  0.000000000 20.000000000     0.000000000  0.000000000  0.050000000

  length of vectors
    20.000000000 20.000000000 20.000000000     0.050000000  0.050000000  0.050000000


 FORCES acting on ions
    electron-ion (+dipol)            ewald-force                    non-local-force                 convergence-correction
 -----------------------------------------------------------------------------------------------
   0.183E+04 -.117E+04 0.601E+03   -.183E+04 0.117E+04 -.600E+03   -.195E+01 0.125E+01 -.667E+00   -.750E-02 -.615E-03 -.653E-02
   0.730E+03 -.190E+04 0.967E+03   -.729E+03 0.190E+04 -.966E+03   -.798E+00 0.209E+01 -.942E+00   -.379E-01 -.273E-02 0.130E-02
   0.116E+04 -.190E+04 -.358E+03   -.116E+04 0.189E+04 0.358E+03   -.108E+01 0.200E+01 0.267E+00   -.131E-01 -.361E-02 0.153E-01
   0.314E+02 -.229E+04 0.111E+02   -.312E+02 0.228E+04 -.111E+02   -.124E+00 0.675E+01 -.726E-01   -.240E-01 0.871E-02 0.196E-01
   0.125E+02 -.131E+04 0.171E+02   -.124E+02 0.131E+04 -.170E+02   0.598E-03 -.129E+00 -.103E+00   -.437E-01 0.117E-01 0.292E-01
   -.682E+03 -.192E+04 0.966E+03   0.682E+03 0.192E+04 -.965E+03   0.683E+00 0.215E+01 -.104E+01   -.284E-01 0.370E-01 0.573E-02
   -.111E+04 -.192E+04 -.364E+03   0.111E+04 0.192E+04 0.364E+03   0.119E+01 0.211E+01 0.441E+00   -.230E-01 0.224E-01 0.385E-01
   0.198E+04 -.103E+04 -.632E+03   -.197E+04 0.103E+04 0.630E+03   -.594E+01 0.311E+01 0.193E+01   0.877E-03 0.101E-01 0.198E-02
   0.181E+04 0.162E+01 -.127E+04   -.180E+04 -.108E+01 0.127E+04   -.178E+01 -.585E+00 0.361E+01   -.152E-01 0.337E-01 0.631E-02
   0.112E+04 -.576E+03 -.353E+03   -.112E+04 0.576E+03 0.353E+03   0.194E+00 0.664E-01 -.197E+00   -.196E-01 0.335E-01 0.574E-02
   0.114E+04 -.120E+04 -.151E+04   -.114E+04 0.120E+04 0.151E+04   -.157E+01 0.967E+00 0.221E+01   -.305E-02 0.178E-01 -.152E-02
   0.142E+02 -.192E+04 -.117E+04   -.142E+02 0.192E+04 0.116E+04   0.219E-01 0.194E+01 0.102E+01   -.162E-01 -.158E-02 0.207E-01
   -.223E+01 -.589E+03 -.114E+04   0.202E+01 0.589E+03 0.114E+04   0.202E+00 0.162E+00 -.319E+00   0.661E-02 0.132E-01 0.331E-01
   -.111E+04 -.599E+03 -.349E+03   0.111E+04 0.599E+03 0.349E+03   -.787E-01 -.875E-01 -.110E+00   -.124E-01 -.314E-01 0.540E-01
   -.114E+04 -.121E+04 -.153E+04   0.113E+04 0.121E+04 0.153E+04   0.119E+01 0.121E+01 0.141E+01   -.177E-01 -.139E-01 0.379E-01
   0.124E+04 -.104E+04 0.168E+04   -.124E+04 0.104E+04 -.168E+04   -.360E+01 0.295E+01 -.501E+01   -.174E-01 -.190E-01 0.516E-03
   0.181E+04 0.139E+02 0.133E+04   -.181E+04 -.141E+02 -.133E+04   -.189E+01 0.159E+00 -.152E+01   0.317E-02 0.790E-02 -.223E-01
   0.699E+03 0.117E+01 0.212E+04   -.698E+03 -.113E+01 -.212E+04   -.844E+00 -.107E-01 -.229E+01   -.109E-01 -.271E-01 -.510E-02
   0.696E+03 -.581E+03 0.955E+03   -.696E+03 0.581E+03 -.955E+03   0.756E-01 -.132E+00 0.115E+00   -.428E-01 -.893E-02 -.257E-01
   0.124E+02 -.120E+04 0.190E+04   -.122E+02 0.119E+04 -.190E+04   -.109E+00 0.136E+01 -.216E+01   -.561E-01 -.188E-01 -.220E-01
   -.131E+02 0.581E+03 0.118E+04   0.132E+02 -.581E+03 -.118E+04   -.146E-01 0.506E-01 0.154E+00   -.796E-02 -.250E-01 -.600E-01
   -.707E+03 -.151E+02 0.212E+04   0.707E+03 0.152E+02 -.212E+04   0.728E+00 -.482E-01 -.236E+01   -.347E-01 -.678E-01 -.272E-01
   -.688E+03 -.597E+03 0.955E+03   0.688E+03 0.597E+03 -.955E+03   -.585E-01 -.503E-01 0.106E+00   -.400E-01 -.432E-01 -.560E-02
   0.223E+04 0.238E+02 0.962E+01   -.222E+04 -.237E+02 -.954E+01   -.251E+01 -.133E+00 -.545E-01   -.156E-01 0.239E-01 -.130E-01
   0.180E+04 0.121E+04 -.533E+03   -.180E+04 -.121E+04 0.532E+03   -.216E+01 -.888E+00 0.118E+00   -.321E-01 0.537E-02 -.895E-02
   0.110E+04 0.593E+03 0.379E+03   -.110E+04 -.593E+03 -.379E+03   0.171E+00 0.530E-01 0.901E-01   -.146E-01 0.189E-01 -.476E-01
   0.671E+03 0.585E+03 -.934E+03   -.671E+03 -.585E+03 0.934E+03   0.611E-01 0.495E-01 -.848E-01   0.180E-01 0.278E-01 0.236E-01
   -.383E+01 -.335E+01 0.488E+01   0.378E+01 0.331E+01 -.481E+01   0.534E-01 0.431E-01 -.818E-01   -.686E-02 -.640E-03 0.374E-02
   -.277E+02 0.130E+04 0.140E+02   0.277E+02 -.130E+04 -.140E+02   -.484E-01 0.200E+00 0.224E-01   0.321E-01 0.287E-02 -.217E-01
   -.112E+04 0.575E+03 0.371E+03   0.112E+04 -.575E+03 -.371E+03   -.188E+00 0.364E-01 0.189E-01   0.145E-01 -.456E-01 -.106E-02
   -.703E+03 0.580E+03 -.938E+03   0.703E+03 -.580E+03 0.938E+03   0.824E-01 0.140E+00 -.242E+00   0.366E-01 -.370E-02 0.474E-01
   -.181E+04 -.121E+04 0.598E+03   0.180E+04 0.121E+04 -.597E+03   0.202E+01 0.129E+01 -.603E+00   0.277E-01 0.454E-02 0.846E-02
   -.196E+04 -.107E+04 -.645E+03   0.196E+04 0.107E+04 0.643E+03   0.576E+01 0.303E+01 0.182E+01   0.944E-02 -.117E-01 0.395E-01
   -.182E+04 -.185E+02 -.132E+04   0.182E+04 0.185E+02 0.132E+04   0.194E+01 0.976E-01 0.124E+01   -.156E-01 -.352E-01 0.353E-01
   -.122E+04 -.107E+04 0.168E+04   0.122E+04 0.107E+04 -.167E+04   0.351E+01 0.307E+01 -.484E+01   0.274E-02 -.590E-02 -.361E-01
   -.182E+04 -.247E+02 0.133E+04   0.182E+04 0.248E+02 -.133E+04   0.212E+01 -.422E-01 -.145E+01   0.110E-01 -.634E-01 -.126E-01
   -.223E+04 -.216E+02 -.518E+00   0.223E+04 0.216E+02 0.403E+00   0.243E+01 0.445E-01 0.972E-01   0.162E-01 -.509E-01 0.205E-01
   -.183E+04 0.117E+04 -.593E+03   0.183E+04 -.117E+04 0.592E+03   0.198E+01 -.123E+01 0.599E+00   0.349E-02 -.305E-02 0.202E-01
   0.596E+03 -.947E+02 -.199E+04   -.595E+03 0.968E+02 0.199E+04   -.138E+01 -.208E+01 0.192E+00   0.217E-01 0.178E-01 0.764E-02
   -.338E+02 -.111E+04 -.203E+04   0.340E+02 0.110E+04 0.202E+04   -.225E+00 0.293E+01 0.645E+01   0.837E-02 -.128E-02 -.119E-01
   -.741E+03 -.152E+02 -.210E+04   0.740E+03 0.155E+02 0.209E+04   0.384E+00 -.269E+00 0.282E+01   0.195E-01 -.101E-01 0.237E-03
   0.121E+04 0.117E+04 -.145E+04   -.121E+04 -.117E+04 0.145E+04   -.929E+00 0.288E+00 0.342E+01   -.613E-02 0.132E-02 0.276E-01
   0.648E+03 0.193E+04 -.910E+03   -.648E+03 -.193E+04 0.909E+03   -.807E-01 -.221E+01 0.789E+00   0.116E-01 -.166E-01 0.164E-01
   -.538E+02 0.119E+04 -.186E+04   0.552E+02 -.119E+04 0.185E+04   -.145E+01 -.783E+00 0.372E+01   0.446E-01 0.155E-01 0.240E-01
   -.732E+03 0.190E+04 -.955E+03   0.731E+03 -.190E+04 0.954E+03   0.742E+00 -.220E+01 0.997E+00   0.407E-01 0.128E-01 0.236E-01
   -.126E+04 0.104E+04 -.167E+04   0.125E+04 -.104E+04 0.166E+04   0.376E+01 -.303E+01 0.505E+01   -.385E-04 0.177E-01 -.583E-03
   0.111E+04 0.120E+04 0.156E+04   -.111E+04 -.119E+04 -.156E+04   -.106E+01 -.118E+01 -.166E+01   0.126E-01 0.132E-01 -.365E-01
   -.210E+02 0.104E+04 0.206E+04   0.209E+02 -.104E+04 -.206E+04   0.629E-01 -.299E+01 -.608E+01   -.190E-02 0.423E-02 0.291E-02
   -.115E+04 0.117E+04 0.155E+04   0.115E+04 -.117E+04 -.155E+04   0.125E+01 -.134E+01 -.162E+01   -.165E-01 -.169E-01 -.205E-01
   0.195E+04 0.106E+04 0.682E+03   -.195E+04 -.106E+04 -.680E+03   -.582E+01 -.325E+01 -.167E+01   -.129E-01 0.713E-02 -.313E-01
   0.110E+04 0.192E+04 0.401E+03   -.110E+04 -.192E+04 -.400E+03   -.126E+01 -.222E+01 -.477E+00   -.117E-01 -.127E-01 -.423E-01
   -.309E+02 0.190E+04 0.120E+04   0.309E+02 -.190E+04 -.120E+04   0.676E-01 -.189E+01 -.129E+01   0.108E-01 0.141E-01 -.470E-01
   -.116E+04 0.189E+04 0.376E+03   0.116E+04 -.189E+04 -.376E+03   0.140E+01 -.193E+01 -.456E+00   0.242E-01 0.408E-02 -.141E-01
   -.198E+04 0.102E+04 0.653E+03   0.197E+04 -.102E+04 -.651E+03   0.580E+01 -.300E+01 -.198E+01   -.368E-02 -.220E-01 0.223E-02
   -.502E+02 0.229E+04 0.268E+02   0.503E+02 -.228E+04 -.270E+02   -.112E+00 -.687E+01 0.165E+00   0.179E-01 -.225E-01 -.173E-01
   0.521E+03 0.236E+03 -.111E+04   -.521E+03 -.236E+03 0.111E+04   0.906E+00 0.332E+00 -.217E+01   0.994E-03 0.183E-02 0.976E-02
 -----------------------------------------------------------------------------------------------
   -.149E+01 -.115E+01 0.263E+01   0.341E-12 -.185E-11 -.182E-11   0.171E+01 0.136E+01 -.267E+01   -.214E+00 -.196E+00 0.445E-01
 
 
 POSITION                                       TOTAL-FORCE (eV/Angst)
 -----------------------------------------------------------------------------------
      7.01191     11.90035      8.21731        -0.000339     -0.008164      0.015407
      9.01814     13.25899      7.55302        -0.006638     -0.001457      0.004884
      8.25682     13.24165      9.95408         0.006265     -0.002398      0.008426
     10.26144     14.45383      9.27755         0.001622      0.002863     -0.009271
     10.29705     12.15922      9.26450         0.007452      0.002566     -0.008297
     11.54491     13.29903      7.56017         0.002683      0.002314     -0.004545
     12.31322     13.30011      9.94733         0.007279      0.006084     -0.008271
      6.35655     11.83776     10.56452         0.015964     -0.011548      0.022109
      7.03202      9.76657     11.69806         0.016207     -0.008580      0.020472
      8.32062     10.83809      9.94023         0.004823      0.003202      0.008323
      8.27626     11.94551     12.08265         0.012842      0.001553      0.013793
     10.28626     13.28202     11.40225         0.008917      0.001868     -0.008066
     10.31012     10.86908     11.38384        -0.002719      0.004257      0.017661
     12.30741     10.88492      9.91633         0.004104      0.005163     -0.010484
     12.34028     11.98196     12.06654         0.003184      0.005657     -0.011721
      7.86061     11.86725      5.92823        -0.006259     -0.000690      0.008112
      7.03919      9.78396      6.88645        -0.002490      0.000727      0.002276
      9.06709      9.80926      5.41372        -0.000894      0.001466      0.000504
      9.07942     10.84614      7.58694        -0.000575     -0.003664      0.003571
     10.30070     11.96204      5.82998        -0.003270      0.002652      0.003991
     10.33752      8.77497      7.18479         0.001710      0.002020      0.000546
     11.58370      9.84237      5.41630         0.001588      0.000775     -0.002123
     11.54583     10.88354      7.58461        -0.001515     -0.003947     -0.003154
      6.26165      9.75434      9.29804         0.011627     -0.008133      0.017150
      7.05889      7.61998     10.30164         0.001664     -0.010922     -0.006900
      8.34329      8.74569      8.63368         0.002126     -0.001645     -0.003280
      9.09232      8.73820     10.98089        -0.010237     -0.013261      0.005733
     10.32204      9.82001      9.28793         0.004274      0.000064     -0.013439
     10.34979      7.47544      9.28029        -0.001706      0.000162     -0.004619
     12.32267      8.79228      8.63097        -0.004571     -0.001429      0.000774
     11.55904      8.78702     10.98275        -0.001487      0.008708      0.004162
     13.58760     12.00232      8.22022         0.003381      0.001607     -0.005888
     14.24496     11.92959     10.56433         0.007029     -0.000080     -0.010230
     13.59579      9.86030     11.67734        -0.006314      0.007598      0.001360
     12.73872     11.92771      5.93577         0.000701      0.000897     -0.003878
     13.61427      9.86263      6.89676         0.000782     -0.001486      0.002318
     14.38695      9.85560      9.28657        -0.001254     -0.004672      0.002805
     13.62012      7.71372     10.34717        -0.012246      0.000799      0.009110
      9.09959      9.90069     13.24005         0.034786      0.046211     -0.014195
     10.33587     11.94771     13.42183         0.007447      0.008050     -0.005270
     11.58621      9.84863     13.14821        -0.007392      0.016000      0.006557
      7.83996      7.56219     12.55667        -0.014665     -0.052737     -0.060334
      9.11303      6.31994     10.96332        -0.007834     -0.004984     -0.008970
     10.32905      7.67936     12.75988        -0.020740      0.017590      0.008345
     11.59995      6.37306     11.01670        -0.019147      0.011283      0.007799
     12.77937      7.76999     12.63358        -0.023099      0.015979      0.007540
      8.32688      7.65561      6.47695         0.002549      0.002038     -0.005959
     10.35541      7.75889      5.12797         0.003608      0.000637     -0.003688
     12.38408      7.70833      6.48141         0.001959     -0.002856      0.001177
      6.40504      7.70361      7.96235         0.002172      0.000339     -0.009412
      8.33204      6.32363      8.59162         0.001834     -0.003029     -0.014007
     10.35873      6.36929      7.13073         0.004288     -0.000585     -0.004512
     12.39973      6.38847      8.61222        -0.000350     -0.002519      0.005064
     14.29275      7.79201      8.00135        -0.002068     -0.005182      0.006827
     10.39748      5.17524      9.24594         0.001346     -0.000645     -0.006737
      7.92533      8.59896     14.32547        -0.028406     -0.026518      0.030452
 -----------------------------------------------------------------------------------
    total drift:                                0.010565      0.011626      0.000548


--------------------------------------------------------------------------------------------------------



  FREE ENERGIE OF THE ION-ELECTRON SYSTEM (eV)
  ---------------------------------------------------
  free  energy   TOTEN  =      -257.50483982 eV

  energy  without entropy=     -256.96876519  energy(sigma->0) =     -257.23680250
 
 d Force = 0.2973048E-03[ 0.265E-03, 0.330E-03]  d Energy = 0.2981673E-03-0.862E-06
 d Force =-0.4605398E+00[-0.461E+00,-0.460E+00]  d Ewald  =-0.4605395E+00-0.333E-06


--------------------------------------------------------------------------------------------------------


    POTLOK:  cpu time    0.2594: real time    0.2600


--------------------------------------------------------------------------------------------------------


 NEB: the previous image is higher in energy: F
 NEB: the next image is higher in energy    : F
 NEB: image is at an extrema
 NEB: diff energy (min, max):     0.166738    0.168307

 NEB: Tangent
 ----------------------------------------------
      0.00453     -0.00419      0.01496
     -0.00317      0.00498     -0.00055
     -0.00119     -0.00883      0.00261
     -0.00123     -0.00652      0.00187
     -0.00757     -0.00346     -0.00006
     -0.00332     -0.00159     -0.00278
      0.00340     -0.00172      0.00007
      0.00840     -0.02103      0.02214
      0.01643     -0.01027      0.18235
     -0.01162     -0.02025      0.01663
      0.02326      0.00682     -0.00108
      0.00746      0.00206      0.00466
     -0.00466      0.00357     -0.00269
      0.00111      0.00841     -0.00335
      0.00338     -0.00809     -0.00248
     -0.00196     -0.00368      0.00513
     -0.00038     -0.00187      0.01073
     -0.00064     -0.00148     -0.00030
      0.00586      0.00579     -0.00115
     -0.00096      0.00126      0.00287
      0.00021     -0.00007     -0.00075
     -0.00163      0.00126     -0.00145
      0.00456     -0.00243      0.00047
      0.00656     -0.01048      0.04395
      0.03759     -0.01027      0.02768
      0.00451      0.00332     -0.01348
      0.00659     -0.00302      0.00090
     -0.00290      0.00238     -0.00213
     -0.00598     -0.00133      0.01154
     -0.00239     -0.00686     -0.00004
      0.02213      0.01509     -0.01587
     -0.00030      0.00438     -0.00038
      0.00638      0.00445     -0.00176
      0.00997      0.00474     -0.00233
      0.00324     -0.00187     -0.00007
      0.00073     -0.00030     -0.00513
     -0.00462      0.00141     -0.00436
      0.01298     -0.00541     -0.01230
      0.06190     -0.03927      0.01802
      0.02018     -0.01318      0.00560
      0.00296     -0.02279      0.00657
      0.08930     -0.05301      0.02863
      0.03328     -0.03295     -0.00548
      0.09595     -0.05939     -0.15106
      0.03152     -0.01234     -0.03436
      0.03342     -0.00386     -0.01253
     -0.00003     -0.00899      0.00672
     -0.00360      0.00269     -0.00208
      0.00173      0.00170     -0.00142
      0.00353     -0.00132      0.02923
      0.00723     -0.00400      0.00189
      0.01086      0.00234     -0.00500
      0.00676     -0.00142     -0.01130
      0.00582      0.00249     -0.00628
      0.01517     -0.00974     -0.02407
     -0.77021      0.48938     -0.24773

 NEB: forces: par spring, perp REAL, dneb     0.006938    0.148520    0.000000
 NEB: distance to prev, next image, angle between     0.444299    0.445686  157.714830
 NEB: projections on to tangent (spring, REAL)     0.006938    0.000728

 stress matrix after NEB project (eV)
     -2.99114      0.40308     -0.14856
      0.40308     -2.66239      0.15441
     -0.14856      0.15441     -2.62688
  FORCES: max atom, RMS     0.081469    0.019847
  FORCE total and by dimension    0.148522    0.060376
  Stress total and by dimension    4.832446    2.991141
 OPT: skip step - force has converged


--------------------------------------------------------------------------------------------------------


  
 reached required accuracy - stopping structural energy minimisation
     LOOP+:  cpu time 1170.0460: real time 1173.4593
    4ORBIT:  cpu time    0.0000: real time    0.0000

 total amount of memory used by VASP MPI-rank0   308125. kBytes
=======================================================================

   base      :      30000. kBytes
   nonl-proj :     171888. kBytes
   fftplans  :      15318. kBytes
   grid      :      57304. kBytes
   one-center:        870. kBytes
   wavefun   :      32745. kBytes
 
  
  
 General timing and accounting informations for this job:
 ========================================================
  
                  Total CPU time used (sec):    26282.719
                            User time (sec):    26191.727
                          System time (sec):       90.991
                         Elapsed time (sec):    26363.135
  
                   Maximum memory used (kb):      686068.
                   Average memory used (kb):           0.
  
                          Minor page faults:     18158025
                          Major page faults:            2
                 Voluntary context switches:        15228
