neb_test                                
           1
    20.000000    0.000000    0.000000
     0.000000   20.000000    0.000000
     0.000000    0.000000   20.000000
   Ni   S 
  55   1
Direct configuration=     1
   0.35021556  0.59587252  0.41035981
   0.45154327  0.66326213  0.37725752
   0.41207117  0.66251099  0.49700191
   0.51303225  0.72327924  0.46437308
   0.51471988  0.60846152  0.46425118
   0.57712463  0.66502382  0.37774632
   0.61591002  0.66529750  0.49696868
   0.31645212  0.59288116  0.52745852
   0.34895157  0.48927033  0.58404637
   0.41495592  0.54212299  0.49678220
   0.41304261  0.59675980  0.60403085
   0.51382946  0.66344449  0.57116774
   0.51479970  0.54287431  0.57019010
   0.61543423  0.54466878  0.49691896
   0.61625534  0.59869437  0.60437258
   0.39269863  0.59371778  0.29556278
   0.35171793  0.48895194  0.34403136
   0.45372985  0.49073702  0.27030703
   0.45360133  0.54280787  0.37895019
   0.51516581  0.59804284  0.29091753
   0.51676117  0.43839289  0.35879678
   0.57923663  0.49224778  0.27055803
   0.57751643  0.54448271  0.37919008
   0.31258695  0.48791882  0.46418634
   0.35294152  0.38111491  0.51695378
   0.41648819  0.43680455  0.43165711
   0.45477639  0.43746003  0.54972982
   0.51593618  0.49075627  0.46447321
   0.51732448  0.37292537  0.46416617
   0.61685255  0.43944339  0.43158670
   0.57852822  0.43845124  0.54950561
   0.67962109  0.60002613  0.41099234
   0.71251161  0.59693708  0.52896824
   0.68068074  0.49234049  0.58377028
   0.63742957  0.59667718  0.29604773
   0.68095255  0.49321358  0.34451021
   0.71954775  0.49329894  0.46408371
   0.68201637  0.38557927  0.51743206
   0.45449579  0.49413229  0.66139762
   0.51538093  0.59587127  0.67250602
   0.57919833  0.49147865  0.65748407
   0.39328154  0.38117640  0.62977299
   0.45498919  0.31649003  0.54983614
   0.51840960  0.38182708  0.63870129
   0.58083372  0.31805132  0.55048704
   0.64037452  0.38754217  0.63203859
   0.41578953  0.38289583  0.32346838
   0.51743975  0.38737308  0.25555638
   0.61939882  0.38592622  0.32362191
   0.31956373  0.38461540  0.39860509
   0.41643482  0.31642777  0.43078513
   0.51834221  0.31813694  0.35645072
   0.61998376  0.31915765  0.43027851
   0.71546029  0.38931384  0.39975380
   0.51958334  0.25803312  0.46273796
   0.39929174  0.43230903  0.71117408
Direct configuration=     2
   0.35029881  0.59574847  0.41032434
   0.45146561  0.66315463  0.37730349
   0.41222748  0.66243768  0.49709824
   0.51304123  0.72311988  0.46436391
   0.51469197  0.60819540  0.46414528
   0.57711755  0.66494569  0.37781946
   0.61585186  0.66522264  0.49705272
   0.31662396  0.59276814  0.52747396
   0.34935858  0.48914924  0.58404396
   0.41522464  0.54201175  0.49675517
   0.41302272  0.59682257  0.60394794
   0.51384292  0.66346435  0.57100529
   0.51501058  0.54295287  0.56970868
   0.61524554  0.54449185  0.49677274
   0.61631696  0.59866253  0.60421129
   0.39279828  0.59364716  0.29573257
   0.35179792  0.48902655  0.34409030
   0.45367263  0.49068699  0.27038766
   0.45372380  0.54266392  0.37917424
   0.51517593  0.59805428  0.29099814
   0.51674247  0.43847631  0.35903080
   0.57921993  0.49221478  0.27061463
   0.57742608  0.54441627  0.37933783
   0.31259744  0.48791075  0.46426962
   0.35290061  0.38126925  0.51658585
   0.41674029  0.43697935  0.43175715
   0.45485584  0.43741254  0.54939114
   0.51603193  0.49085683  0.46437897
   0.51735076  0.37326016  0.46421217
   0.61659216  0.43953816  0.43167431
   0.57836465  0.43860599  0.54933647
   0.67952520  0.60000279  0.41102296
   0.71237809  0.59686131  0.52889765
   0.68052609  0.49246771  0.58377150
   0.63730870  0.59659762  0.29623433
   0.68090528  0.49321608  0.34455628
   0.71947658  0.49321571  0.46409392
   0.68190251  0.38558689  0.51732759
   0.45704779  0.49708885  0.65935871
   0.51555891  0.59605647  0.67234331
   0.57926930  0.49148463  0.65744796
   0.39275179  0.37833275  0.62591606
   0.45530143  0.31643732  0.54956084
   0.51817027  0.38211391  0.63848281
   0.58074134  0.31809854  0.55054619
   0.64024231  0.38764061  0.63192613
   0.41591731  0.38286067  0.32360655
   0.51749384  0.38751494  0.25576981
   0.61934644  0.38587362  0.32371177
   0.31971327  0.38469304  0.39861691
   0.41643480  0.31636950  0.43065197
   0.51821012  0.31823348  0.35649093
   0.62000602  0.31925453  0.43032520
   0.71528645  0.38941299  0.39981550
   0.51957579  0.25820400  0.46272432
   0.39681572  0.43170555  0.71777608
Direct configuration=     3
   0.35031465  0.59572172  0.41032621
   0.45144881  0.66313718  0.37732046
   0.41225532  0.66241809  0.49711946
   0.51304239  0.72307880  0.46435856
   0.51468524  0.60817791  0.46411467
   0.57711811  0.66493379  0.37783277
   0.61583506  0.66520457  0.49707778
   0.31665998  0.59274379  0.52747761
   0.34946414  0.48910700  0.58407625
   0.41525827  0.54200631  0.49676374
   0.41301959  0.59687698  0.60390921
   0.51385721  0.66348285  0.57096602
   0.51510563  0.54302219  0.56955213
   0.61524441  0.54446930  0.49674490
   0.61634116  0.59867143  0.60417287
   0.39282365  0.59362950  0.29576711
   0.35181697  0.48903637  0.34410660
   0.45365891  0.49067896  0.27040296
   0.45374026  0.54264612  0.37918649
   0.51517548  0.59805108  0.29101781
   0.51674574  0.43848900  0.35904760
   0.57921423  0.49220723  0.27063058
   0.57741741  0.54440815  0.37934762
   0.31260417  0.48791259  0.46428379
   0.35286120  0.38127831  0.51642648
   0.41676445  0.43700565  0.43175166
   0.45487493  0.43741496  0.54933241
   0.51603567  0.49086061  0.46437411
   0.51736807  0.37329319  0.46420540
   0.61656627  0.43954681  0.43167100
   0.57834758  0.43863373  0.54932758
   0.67950861  0.60000042  0.41102772
   0.71234578  0.59683965  0.52887804
   0.68049155  0.49248846  0.58377263
   0.63728387  0.59658119  0.29627368
   0.68089127  0.49321378  0.34456710
   0.71946167  0.49320131  0.46410408
   0.68187480  0.38558954  0.51731326
   0.45663141  0.49662153  0.65974368
   0.51566249  0.59620389  0.67231419
   0.57932854  0.49149864  0.65743230
   0.39271103  0.37853842  0.62645199
   0.45539127  0.31636655  0.54944084
   0.51808665  0.38219303  0.63845098
   0.58072665  0.31811163  0.55055550
   0.64021405  0.38766098  0.63190340
   0.41594019  0.38285399  0.32363550
   0.51750471  0.38754466  0.25581615
   0.61933921  0.38585998  0.32372997
   0.31974660  0.38471669  0.39862142
   0.41644005  0.31636011  0.43061418
   0.51818497  0.31825170  0.35650316
   0.62000218  0.31927528  0.43033598
   0.71524687  0.38943542  0.39982499
   0.51957892  0.25824517  0.46272334
   0.39697856  0.43169400  0.71724794
Direct configuration=     4
   0.35034959  0.59566167  0.41033324
   0.45141167  0.66309924  0.37735552
   0.41231607  0.66237609  0.49716608
   0.51304518  0.72299297  0.46434436
   0.51467298  0.60814135  0.46403937
   0.57711906  0.66490940  0.37786344
   0.61579885  0.66516403  0.49712969
   0.31674313  0.59268663  0.52748734
   0.34969578  0.48901485  0.58413881
   0.41532769  0.54199362  0.49678138
   0.41303281  0.59697274  0.60383983
   0.51388664  0.66352436  0.57088499
   0.51527165  0.54315741  0.56930947
   0.61524609  0.54441971  0.49667604
   0.61639410  0.59869135  0.60409453
   0.39287784  0.59359186  0.29584164
   0.35185636  0.48905783  0.34414042
   0.45362920  0.49066040  0.27043780
   0.45377598  0.54260690  0.37921290
   0.51517260  0.59804492  0.29106133
   0.51675299  0.43851748  0.35908589
   0.57920207  0.49219128  0.27066509
   0.57739939  0.54439002  0.37936561
   0.31262129  0.48791681  0.46431605
   0.35280074  0.38129823  0.51613159
   0.41681859  0.43706149  0.43174211
   0.45489207  0.43739648  0.54923406
   0.51604894  0.49086990  0.46435057
   0.51740302  0.37336714  0.46419105
   0.61650951  0.43956549  0.43166410
   0.57831176  0.43869086  0.54930873
   0.67947309  0.59999615  0.41103996
   0.71228080  0.59679379  0.52883406
   0.68041678  0.49253440  0.58377551
   0.63722939  0.59654459  0.29635930
   0.68086127  0.49320832  0.34459164
   0.71942969  0.49316951  0.46412480
   0.68181130  0.38559588  0.51728423
   0.45591408  0.49581796  0.66041827
   0.51585834  0.59646080  0.67221529
   0.57942628  0.49153907  0.65739644
   0.39263965  0.37889390  0.62737995
   0.45555660  0.31624793  0.54921383
   0.51790769  0.38236564  0.63837400
   0.58069354  0.31814249  0.55057646
   0.64014731  0.38770800  0.63185186
   0.41598920  0.38283929  0.32369647
   0.51752919  0.38760890  0.25591543
   0.61932167  0.38582974  0.32377029
   0.31981626  0.38476729  0.39862225
   0.41645190  0.31633948  0.43052952
   0.51813109  0.31829063  0.35652924
   0.61999467  0.31931795  0.43035979
   0.71516051  0.38948400  0.39984587
   0.51958948  0.25832972  0.46271458
   0.39722505  0.43163100  0.71636274
Direct configuration=     5
   0.35042446  0.59552692  0.41036560
   0.45133012  0.66302212  0.37742359
   0.41244408  0.66229057  0.49726617
   0.51305160  0.72283146  0.46430194
   0.51465818  0.60806480  0.46384696
   0.57712144  0.66486595  0.37793389
   0.61572246  0.66507417  0.49722743
   0.31693995  0.59254584  0.52751937
   0.35018767  0.48882269  0.58424076
   0.41546606  0.54196096  0.49681518
   0.41313793  0.59708565  0.60375598
   0.51394247  0.66362341  0.57072613
   0.51546451  0.54337378  0.56914885
   0.61526338  0.54431676  0.49649597
   0.61651085  0.59873732  0.60394474
   0.39298683  0.59351447  0.29599737
   0.35192958  0.48910315  0.34420668
   0.45356765  0.49061642  0.27051671
   0.45384899  0.54252538  0.37926774
   0.51516154  0.59803561  0.29115819
   0.51676907  0.43857897  0.35916748
   0.57918050  0.49216239  0.27073667
   0.57736467  0.54435095  0.37938774
   0.31266686  0.48792656  0.46439318
   0.35276895  0.38133838  0.51571316
   0.41693880  0.43717270  0.43173347
   0.45483483  0.43727431  0.54914653
   0.51609043  0.49090082  0.46427601
   0.51746389  0.37352567  0.46416228
   0.61639219  0.43960257  0.43164912
   0.57823469  0.43880351  0.54926705
   0.67940083  0.59999130  0.41107051
   0.71216432  0.59670067  0.52873343
   0.68026077  0.49263346  0.58378158
   0.63711679  0.59646816  0.29653267
   0.68080217  0.49319474  0.34464683
   0.71936755  0.49309769  0.46416164
   0.68166380  0.38561170  0.51723139
   0.45525258  0.49508398  0.66109590
   0.51615996  0.59676748  0.67188147
   0.57950736  0.49166332  0.65731714
   0.39253396  0.37916022  0.62824381
   0.45578268  0.31613240  0.54887017
   0.51754559  0.38273057  0.63818303
   0.58061733  0.31821804  0.55062446
   0.63998066  0.38781922  0.63173722
   0.41609127  0.38281084  0.32381768
   0.51758315  0.38774077  0.25611750
   0.61927994  0.38576186  0.32385876
   0.31995649  0.38487508  0.39858548
   0.41648045  0.31629797  0.43034245
   0.51802435  0.31836753  0.35658092
   0.61998383  0.31939712  0.43041076
   0.71498434  0.38958002  0.39988868
   0.51962868  0.25849144  0.46266631
   0.39721306  0.43131277  0.71580787
Direct configuration=     6
   0.35043454  0.59550618  0.41037634
   0.45131641  0.66301449  0.37743179
   0.41246088  0.66227989  0.49728110
   0.51305266  0.72281538  0.46429201
   0.51466010  0.60805361  0.46381598
   0.57712301  0.66486432  0.37794370
   0.61571229  0.66506197  0.49723956
   0.31697317  0.59252099  0.52753008
   0.35025498  0.48879898  0.58425222
   0.41548824  0.54195372  0.49681987
   0.41316512  0.59708831  0.60375918
   0.51395108  0.66364437  0.57070324
   0.51546518  0.54338197  0.56916452
   0.61526612  0.54430409  0.49646488
   0.61653327  0.59874796  0.60392495
   0.39299899  0.59350504  0.29601711
   0.35193622  0.48910831  0.34421407
   0.45355857  0.49060889  0.27052817
   0.45385755  0.54251505  0.37927266
   0.51515815  0.59803562  0.29117255
   0.51677259  0.43858736  0.35917515
   0.57917873  0.49215966  0.27074532
   0.57736150  0.54434508  0.37938426
   0.31267686  0.48792662  0.46440601
   0.35278162  0.38133926  0.51569088
   0.41695342  0.43718400  0.43173434
   0.45481805  0.43725070  0.54914775
   0.51609311  0.49090862  0.46428200
   0.51746848  0.37354466  0.46415842
   0.61637837  0.43960605  0.43164568
   0.57822079  0.43882142  0.54925883
   0.67939373  0.59999327  0.41107476
   0.71215566  0.59668923  0.52871706
   0.68024000  0.49264740  0.58378335
   0.63710324  0.59645917  0.29655319
   0.68079552  0.49319238  0.34465505
   0.71936244  0.49308642  0.46416650
   0.68163922  0.38561465  0.51722813
   0.45530429  0.49514664  0.66106630
   0.51618470  0.59677905  0.67182527
   0.57949822  0.49168856  0.65730990
   0.39251894  0.37908709  0.62814928
   0.45578772  0.31613848  0.54884560
   0.51750091  0.38278212  0.63815548
   0.58060401  0.31823131  0.55063136
   0.63994932  0.38783923  0.63172197
   0.41610376  0.38280736  0.32383053
   0.51759106  0.38775655  0.25614158
   0.61927342  0.38575004  0.32387125
   0.31997386  0.38489116  0.39857044
   0.41648563  0.31629350  0.43031392
   0.51801246  0.31837581  0.35658668
   0.61998275  0.31940395  0.43041824
   0.71496275  0.38959029  0.39989401
   0.51963926  0.25850972  0.46265226
   0.39711553  0.43124519  0.71598603
Direct configuration=     7
   0.35045495  0.59546381  0.41039953
   0.45128755  0.66300040  0.37744879
   0.41249483  0.66225823  0.49731201
   0.51305470  0.72278421  0.46427085
   0.51466502  0.60803163  0.46375438
   0.57712661  0.66486193  0.37796319
   0.61569178  0.66503782  0.49726485
   0.31704100  0.59247018  0.52755425
   0.35039141  0.48875140  0.58427878
   0.41553372  0.54194015  0.49683004
   0.41321877  0.59709749  0.60376603
   0.51397013  0.66368823  0.57065494
   0.51547058  0.54339772  0.56918264
   0.61527141  0.54427961  0.49640266
   0.61658014  0.59877101  0.60388288
   0.39302206  0.59348659  0.29605573
   0.35194889  0.48911843  0.34422856
   0.45353964  0.49059354  0.27055081
   0.45387539  0.54249394  0.37928206
   0.51515062  0.59803580  0.29120175
   0.51678036  0.43860539  0.35919103
   0.57917526  0.49215383  0.27076206
   0.57735435  0.54433210  0.37937762
   0.31269788  0.48792567  0.46443238
   0.35280467  0.38133774  0.51564016
   0.41698165  0.43720577  0.43173512
   0.45478958  0.43720813  0.54914433
   0.51609722  0.49092330  0.46429681
   0.51747784  0.37358119  0.46415011
   0.61635020  0.43961327  0.43163807
   0.57819282  0.43885907  0.54924244
   0.67938036  0.59999796  0.41108284
   0.71213996  0.59666611  0.52868321
   0.68019767  0.49267580  0.58378740
   0.63707651  0.59644160  0.29659387
   0.68078238  0.49318733  0.34467167
   0.71935305  0.49306336  0.46417722
   0.68158842  0.38562085  0.51722251
   0.45535583  0.49521464  0.66105552
   0.51623848  0.59681158  0.67171784
   0.57948353  0.49174039  0.65729704
   0.39248815  0.37897240  0.62802400
   0.45579816  0.31614569  0.54879133
   0.51740970  0.38288801  0.63810249
   0.58057574  0.31825856  0.55064498
   0.63988437  0.38788085  0.63169252
   0.41612874  0.38280022  0.32385518
   0.51760709  0.38778750  0.25618908
   0.61926069  0.38572494  0.32389609
   0.32000864  0.38492400  0.39853971
   0.41649624  0.31628438  0.43025534
   0.51798922  0.31839186  0.35659752
   0.61998054  0.31941669  0.43043342
   0.71492008  0.38960990  0.39990456
   0.51966107  0.25854686  0.46262388
   0.39695607  0.43111951  0.71624860
Direct configuration=     8
   0.35048411  0.59540051  0.41043898
   0.45124217  0.66298260  0.37747520
   0.41254446  0.66222640  0.49736043
   0.51305700  0.72273890  0.46423562
   0.51467356  0.60800261  0.46366615
   0.57713492  0.66486200  0.37798838
   0.61566261  0.66500461  0.49730346
   0.31714611  0.59239216  0.52759731
   0.35059251  0.48868247  0.58432835
   0.41560237  0.54192299  0.49684636
   0.41329668  0.59711948  0.60378002
   0.51400258  0.66375681  0.57057962
   0.51548434  0.54341871  0.56918158
   0.61528105  0.54424902  0.49631250
   0.61665259  0.59881023  0.60381642
   0.39305324  0.59346002  0.29611250
   0.35196545  0.48913302  0.34424921
   0.45351085  0.49057074  0.27058228
   0.45390204  0.54246242  0.37929615
   0.51513954  0.59803784  0.29124418
   0.51679240  0.43863362  0.35921332
   0.57917159  0.49214631  0.27078430
   0.57734178  0.54431074  0.37936761
   0.31273310  0.48792105  0.46447377
   0.35283273  0.38132555  0.51555469
   0.41702043  0.43723574  0.43173416
   0.45475844  0.43715648  0.54912732
   0.51609913  0.49094313  0.46432262
   0.51749036  0.37363001  0.46413684
   0.61630994  0.43962295  0.43162468
   0.57815182  0.43891773  0.54921989
   0.67936406  0.60000772  0.41109115
   0.71211926  0.59663079  0.52862977
   0.68013411  0.49271890  0.58379420
   0.63704059  0.59642005  0.29664866
   0.68076454  0.49317999  0.34469570
   0.71934293  0.49302786  0.46419448
   0.68151118  0.38563007  0.51721670
   0.45531937  0.49519254  0.66114573
   0.51632516  0.59688030  0.67157541
   0.57946802  0.49182081  0.65728286
   0.39243872  0.37887012  0.62798160
   0.45581144  0.31614406  0.54870114
   0.51727231  0.38304745  0.63803407
   0.58052839  0.31830065  0.55066340
   0.63978058  0.38794816  0.63165076
   0.41616576  0.38279035  0.32388786
   0.51763035  0.38782924  0.25625342
   0.61924407  0.38568415  0.32393131
   0.32006010  0.38497436  0.39849307
   0.41651366  0.31627107  0.43016744
   0.51795831  0.31841228  0.35661113
   0.61997737  0.31943174  0.43045597
   0.71486018  0.38963474  0.39992024
   0.51969431  0.25859792  0.46258191
   0.39680147  0.43095299  0.71642347
Direct configuration=     9
   0.35051848  0.59532152  0.41049660
   0.45118204  0.66296745  0.37750724
   0.41260467  0.66218799  0.49742187
   0.51305934  0.72269599  0.46418466
   0.51469120  0.60797407  0.46356334
   0.57714941  0.66486940  0.37801412
   0.61563173  0.66497113  0.49734753
   0.31727914  0.59229310  0.52766647
   0.35083097  0.48860318  0.58440101
   0.41568430  0.54190670  0.49686887
   0.41339422  0.59714915  0.60380941
   0.51404902  0.66384133  0.57048312
   0.51550048  0.54343794  0.56917212
   0.61529366  0.54421938  0.49620537
   0.61674139  0.59886233  0.60372839
   0.39308122  0.59343109  0.29617632
   0.35197988  0.48914829  0.34427113
   0.45347395  0.49054189  0.27061594
   0.45393302  0.54242372  0.37931029
   0.51512387  0.59804254  0.29129708
   0.51680960  0.43867049  0.35924256
   0.57916861  0.49213772  0.27080610
   0.57732453  0.54427995  0.37935420
   0.31278223  0.48790686  0.46452910
   0.35286506  0.38129673  0.51544851
   0.41706205  0.43726515  0.43173145
   0.45472754  0.43710344  0.54910264
   0.51609988  0.49095913  0.46434786
   0.51750210  0.37368041  0.46411763
   0.61625930  0.43963479  0.43160754
   0.57810682  0.43899232  0.54919481
   0.67935032  0.60002478  0.41109595
   0.71210813  0.59658981  0.52855955
   0.68005664  0.49277136  0.58380464
   0.63700399  0.59639965  0.29670561
   0.68074481  0.49317168  0.34472521
   0.71933601  0.49298254  0.46421866
   0.68141318  0.38564198  0.51721896
   0.45521725  0.49510603  0.66131696
   0.51643059  0.59697208  0.67141768
   0.57944865  0.49192533  0.65727678
   0.39237337  0.37877796  0.62800594
   0.45581437  0.31613522  0.54858862
   0.51710770  0.38324250  0.63796845
   0.58046169  0.31835603  0.55068740
   0.63964634  0.38803603  0.63161332
   0.41620736  0.38277929  0.32391618
   0.51765855  0.38787297  0.25632173
   0.61922448  0.38563095  0.32397142
   0.32011762  0.38503405  0.39843062
   0.41653358  0.31625626  0.43005669
   0.51792689  0.31843401  0.35662056
   0.61997447  0.31944519  0.43048471
   0.71479461  0.38965656  0.39993938
   0.51973685  0.25865854  0.46252797
   0.39666406  0.43075522  0.71649206
Direct configuration=    10
   0.35055285  0.59523341  0.41057640
   0.45110665  0.66295942  0.37754455
   0.41267193  0.66215102  0.49749512
   0.51306107  0.72266728  0.46411288
   0.51472110  0.60795341  0.46345205
   0.57717057  0.66488579  0.37803476
   0.61560577  0.66494572  0.49738760
   0.31743694  0.59217603  0.52777359
   0.35108562  0.48852000  0.58450262
   0.41577695  0.54189710  0.49689672
   0.41351558  0.59717985  0.60386704
   0.51411019  0.66393628  0.57037137
   0.51550585  0.54345022  0.56917930
   0.61531253  0.54420206  0.49608577
   0.61683754  0.59892676  0.60362169
   0.39309801  0.59340245  0.29624551
   0.35198809  0.48916538  0.34429090
   0.45343335  0.49050877  0.27065042
   0.45396110  0.54238346  0.37932281
   0.51510348  0.59805341  0.29135854
   0.51682921  0.43870730  0.35926478
   0.57916901  0.49212939  0.27082254
   0.57730777  0.54424655  0.37933154
   0.31284970  0.48787774  0.46460421
   0.35290327  0.38124217  0.51534414
   0.41710057  0.43728625  0.43172449
   0.45469132  0.43704288  0.54908582
   0.51610148  0.49097537  0.46436570
   0.51750859  0.37372334  0.46409394
   0.61621129  0.43964075  0.43158694
   0.57806096  0.43908080  0.54917059
   0.67934238  0.60004854  0.41109201
   0.71211509  0.59654567  0.52847060
   0.67997278  0.49283375  0.58381943
   0.63696871  0.59638307  0.29675951
   0.68072815  0.49316198  0.34475866
   0.71933622  0.49292605  0.46424777
   0.68129869  0.38565631  0.51723302
   0.45514214  0.49506347  0.66149131
   0.51654021  0.59707208  0.67126172
   0.57941344  0.49205739  0.65728580
   0.39228956  0.37862933  0.62797511
   0.45579079  0.31612140  0.54846828
   0.51692531  0.38346086  0.63792013
   0.58036652  0.31842628  0.55071643
   0.63947487  0.38815014  0.63158727
   0.41625287  0.38276934  0.32392904
   0.51768973  0.38791177  0.25638308
   0.61920611  0.38556568  0.32401202
   0.32017488  0.38509719  0.39834924
   0.41655613  0.31623834  0.42992719
   0.51790414  0.31845118  0.35661773
   0.61997461  0.31945191  0.43051786
   0.71473137  0.38966668  0.39996394
   0.51978630  0.25871302  0.46246225
   0.39649868  0.43051404  0.71657866
Direct configuration=    11
   0.35058165  0.59513984  0.41067953
   0.45102057  0.66295462  0.37758505
   0.41274282  0.66211551  0.49757926
   0.51306210  0.72265992  0.46402009
   0.51476454  0.60794550  0.46334442
   0.57720021  0.66490870  0.37804081
   0.61560498  0.66494540  0.49741156
   0.31760413  0.59205180  0.52793089
   0.35132984  0.48844000  0.58464037
   0.41588293  0.54189225  0.49693254
   0.41364511  0.59721705  0.60396034
   0.51418768  0.66402282  0.57025669
   0.51550699  0.54344997  0.56917842
   0.61533474  0.54420222  0.49596586
   0.61692861  0.59900037  0.60350135
   0.39309027  0.59338036  0.29631213
   0.35198452  0.48918267  0.34430399
   0.45339163  0.49047879  0.27067395
   0.45397834  0.54234740  0.37933293
   0.51507756  0.59807092  0.29142080
   0.51685032  0.43873620  0.35927215
   0.57917208  0.49212331  0.27082988
   0.57729397  0.54421221  0.37929889
   0.31293609  0.48782633  0.46470459
   0.35293479  0.38115616  0.51523758
   0.41713417  0.43729544  0.43171470
   0.45466076  0.43699000  0.54906699
   0.51609920  0.49098618  0.46438596
   0.51750493  0.37375480  0.46406552
   0.61617042  0.43963908  0.43156541
   0.57801179  0.43918815  0.54914560
   0.67934789  0.60007874  0.41107369
   0.71215854  0.59650980  0.52836895
   0.67988863  0.49290783  0.58383685
   0.63694775  0.59638020  0.29678899
   0.68071616  0.49315202  0.34479460
   0.71934370  0.49286513  0.46428183
   0.68117441  0.38567152  0.51726465
   0.45504234  0.49500840  0.66171677
   0.51665027  0.59719366  0.67114949
   0.57936964  0.49221193  0.65731954
   0.39218470  0.37845609  0.62795771
   0.45574123  0.31608907  0.54834062
   0.51673276  0.38368488  0.63791144
   0.58023617  0.31850983  0.55075221
   0.63927435  0.38828582  0.63159387
   0.41629730  0.38276643  0.32391627
   0.51772231  0.38793639  0.25641871
   0.61919391  0.38549392  0.32404678
   0.32021935  0.38514998  0.39825401
   0.41657796  0.31621701  0.42978592
   0.51790029  0.31846172  0.35659759
   0.61997959  0.31944522  0.43055320
   0.71468024  0.38965525  0.39999594
   0.51983429  0.25874824  0.46239096
   0.39637389  0.43026703  0.71652789
Direct configuration=    12
   0.35059693  0.59505564  0.41079872
   0.45094304  0.66295340  0.37762663
   0.41280959  0.66209113  0.49766196
   0.51306626  0.72268032  0.46392287
   0.51482104  0.60795505  0.46325790
   0.57723104  0.66493601  0.37802677
   0.61563203  0.66497599  0.49739446
   0.31776369  0.59193552  0.52811673
   0.35151913  0.48836944  0.58479876
   0.41596786  0.54190576  0.49698104
   0.41376881  0.59724564  0.60407538
   0.51426770  0.66407821  0.57015968
   0.51549624  0.54345926  0.56923163
   0.61536578  0.54422980  0.49586259
   0.61698663  0.59906403  0.60338614
   0.39305715  0.59336613  0.29637548
   0.35196926  0.48919350  0.34431384
   0.45336249  0.49046160  0.27068589
   0.45397911  0.54231775  0.37934210
   0.51505211  0.59809205  0.29147616
   0.51686746  0.43875055  0.35926246
   0.57918116  0.49212068  0.27082361
   0.57728953  0.54418707  0.37925718
   0.31303116  0.48775686  0.46482690
   0.35295471  0.38105719  0.51515019
   0.41715315  0.43728687  0.43169633
   0.45461548  0.43692225  0.54907523
   0.51611242  0.49099687  0.46436110
   0.51749527  0.37376421  0.46403320
   0.61614026  0.43962616  0.43155258
   0.57797958  0.43928699  0.54914346
   0.67936311  0.60010487  0.41103748
   0.71221394  0.59648325  0.52826509
   0.67981858  0.49297806  0.58385608
   0.63693750  0.59638351  0.29679571
   0.68071279  0.49314097  0.34482420
   0.71934832  0.49280628  0.46431236
   0.68106035  0.38568312  0.51732010
   0.45508466  0.49511905  0.66183007
   0.51673727  0.59729702  0.67108446
   0.57931606  0.49236179  0.65737208
   0.39207159  0.37818317  0.62776428
   0.45567411  0.31604721  0.54823441
   0.51655492  0.38387815  0.63794744
   0.58008483  0.31860423  0.55080068
   0.63906961  0.38842850  0.63163491
   0.41632882  0.38277255  0.32387646
   0.51775359  0.38794314  0.25641380
   0.61919621  0.38543634  0.32406649
   0.32024303  0.38517606  0.39815893
   0.41659353  0.31619584  0.42965040
   0.51791901  0.31846544  0.35656110
   0.61998649  0.31943224  0.43058989
   0.71465072  0.38962199  0.40003733
   0.51986696  0.25876497  0.46232470
   0.39621955  0.43002560  0.71656501
Direct configuration=    13
   0.35059561  0.59502184  0.41085766
   0.45091055  0.66295062  0.37764876
   0.41283786  0.66208364  0.49769972
   0.51307105  0.72268977  0.46388227
   0.51484872  0.60795960  0.46322950
   0.57724398  0.66495016  0.37801086
   0.61565727  0.66500240  0.49737090
   0.31781924  0.59189370  0.52821497
   0.35159299  0.48833260  0.58489352
   0.41602959  0.54190244  0.49700741
   0.41380610  0.59727529  0.60412503
   0.51430838  0.66410009  0.57011605
   0.51550806  0.54345148  0.56917958
   0.61536780  0.54424342  0.49582178
   0.61701265  0.59909513  0.60333250
   0.39303418  0.59336236  0.29640786
   0.35196097  0.48919754  0.34432146
   0.45335506  0.49046256  0.27068614
   0.45397109  0.54230897  0.37934497
   0.51503705  0.59810066  0.29149704
   0.51687499  0.43874691  0.35923861
   0.57918450  0.49211829  0.27081636
   0.57729261  0.54417956  0.37923166
   0.31307649  0.48772099  0.46489322
   0.35294313  0.38100392  0.51508484
   0.41716368  0.43728531  0.43168576
   0.45462216  0.43691776  0.54904021
   0.51609900  0.49100055  0.46440593
   0.51749015  0.37377222  0.46401687
   0.61613644  0.43961431  0.43154820
   0.57795189  0.43934710  0.54913462
   0.67937827  0.60011536  0.41101396
   0.71224475  0.59647986  0.52822171
   0.67979261  0.49301126  0.58386609
   0.63693570  0.59638534  0.29679039
   0.68071311  0.49313252  0.34483649
   0.71934826  0.49278254  0.46432701
   0.68101229  0.38568581  0.51735376
   0.45495512  0.49500324  0.66201550
   0.51679040  0.59738295  0.67109548
   0.57931466  0.49242312  0.65740691
   0.39200515  0.37814048  0.62787316
   0.45565571  0.31599838  0.54817007
   0.51646233  0.38395917  0.63798994
   0.58000707  0.31864689  0.55083065
   0.63897998  0.38849170  0.63167499
   0.41634292  0.38277943  0.32385086
   0.51776860  0.38794483  0.25640149
   0.61920323  0.38541784  0.32407018
   0.32025147  0.38518042  0.39812268
   0.41660122  0.31618310  0.42958842
   0.51793448  0.31846469  0.35653909
   0.61998671  0.31942442  0.43060870
   0.71463814  0.38960343  0.40006394
   0.51987321  0.25876260  0.46230058
   0.39628509  0.42996304  0.71624544
Direct configuration=    14
   0.35059555  0.59501761  0.41086543
   0.45090719  0.66294973  0.37765121
   0.41284110  0.66208230  0.49770400
   0.51307191  0.72269137  0.46387751
   0.51485246  0.60796112  0.46322502
   0.57724527  0.66495149  0.37800875
   0.61566083  0.66500530  0.49736674
   0.31782748  0.59188781  0.52822603
   0.35160115  0.48832847  0.58490320
   0.41603084  0.54190472  0.49701160
   0.41381305  0.59727561  0.60413243
   0.51431278  0.66410087  0.57011240
   0.51550615  0.54345423  0.56919207
   0.61537036  0.54424618  0.49581643
   0.61701398  0.59909788  0.60332705
   0.39303065  0.59336239  0.29641129
   0.35195965  0.48919791  0.34432238
   0.45335450  0.49046312  0.27068606
   0.45397105  0.54230696  0.37934703
   0.51503518  0.59810181  0.29149918
   0.51687588  0.43874827  0.35923951
   0.57918523  0.49211839  0.27081487
   0.57729139  0.54417715  0.37923060
   0.31308234  0.48771696  0.46490179
   0.35294458  0.38099878  0.51508225
   0.41716471  0.43728441  0.43168409
   0.45461585  0.43690987  0.54904469
   0.51610223  0.49100055  0.46439627
   0.51748933  0.37377222  0.46401456
   0.61613368  0.43961384  0.43154867
   0.57795176  0.43935093  0.54913751
   0.67937995  0.60011617  0.41101122
   0.71224786  0.59647954  0.52821633
   0.67978949  0.49301492  0.58386700
   0.63693586  0.59638567  0.29678873
   0.68071337  0.49313160  0.34483779
   0.71934766  0.49278009  0.46432851
   0.68100622  0.38568624  0.51735863
   0.45497966  0.49503441  0.66200225
   0.51679361  0.59738556  0.67109172
   0.57931035  0.49243135  0.65741032
   0.39199795  0.37810961  0.62783357
   0.45565135  0.31599706  0.54816624
   0.51645231  0.38396810  0.63799405
   0.57999760  0.31865291  0.55083477
   0.63896848  0.38849968  0.63167895