 vasp.6.4.2 20Jul23 (build May 29 2025 16:14:50) complex                         
 executed on              LinuxNV date 2025.06.06  13:22:27
 running    2 mpi-ranks, with    1 threads/rank, on    1 nodes
 distrk:  each k-point on    2 cores,    1 groups
 distr:  one band on NCORE=   1 cores,    2 groups
 OpenACC runtime initialized ...    2 GPUs detected


--------------------------------------------------------------------------------------------------------


 INCAR:
   SYSTEM = Si
   ISTART = 1
   ICHARG = 2
   NCORE = 8
   ISPIN = 2
   NELM = 200
   ENCUT = 400
   PREC = Accurate
   ISMEAR = 0
   SIGMA = 0.01
   EDIFF = 1E-10
   NELECT = 1072
   IBRION = 3
   NSW = 500
   POTIM = 0.1
   ISIF = 0
   IOPT = 1
   EDIFFG = -0.010

 POTCAR:    PAW_PBE Li_sv 10Sep2004               
 POTCAR:    PAW_PBE F 08Apr2002                   
 -----------------------------------------------------------------------------
|                                                                             |
|           W    W    AA    RRRRR   N    N  II  N    N   GGGG   !!!           |
|           W    W   A  A   R    R  NN   N  II  NN   N  G    G  !!!           |
|           W    W  A    A  R    R  N N  N  II  N N  N  G       !!!           |
|           W WW W  AAAAAA  RRRRR   N  N N  II  N  N N  G  GGG   !            |
|           WW  WW  A    A  R   R   N   NN  II  N   NN  G    G                |
|           W    W  A    A  R    R  N    N  II  N    N   GGGG   !!!           |
|                                                                             |
|     You use a magnetic or noncollinear calculation, but did not specify     |
|     the initial magnetic moment with the MAGMOM tag. Note that a            |
|     default of 1 will be used for all atoms. This ferromagnetic setup       |
|     may break the symmetry of the crystal, in particular it may rule        |
|     out finding an antiferromagnetic solution. Thence, we recommend         |
|     setting the initial magnetic moment manually or verifying carefully     |
|     that this magnetic setup is desired.                                    |
|                                                                             |
 -----------------------------------------------------------------------------

 POTCAR:    PAW_PBE Li_sv 10Sep2004               
   SHA256 =  7e51fe1804c037e1dccc81a9c376d94d693a7559600c847f4b41960edb8ab895 Li_sv/POTCAR          
   COPYR  = (c) Copyright 10Sep2004 Georg Kresse                                                    
   COPYR  = This file is part of the software VASP. Any use, copying, and all other rights are regul
   COPYR  = If you do not have a valid VASP license, you may not use, copy or distribute this file. 
   VRHFIN =Li: 1s2s2p                                                                               
   LEXCH  = PE                                                                                      
   EATOM  =   202.7858 eV,   14.9043 Ry                                                             
                                                                                                    
   TITEL  = PAW_PBE Li_sv 10Sep2004                                                                 
   LULTRA =        F    use ultrasoft PP ?                                                          
   IUNSCR =        0    unscreen: 0-lin 1-nonlin 2-no                                               
   RPACOR =    0.000    partial core radius                                                         
   POMASS =    7.010; ZVAL   =    3.000    mass and valenz                                          
   RCORE  =    1.700    outmost cutoff radius                                                       
   RWIGS  =    2.050; RWIGS  =    1.085    wigner-seitz radius (au A)                               
   ENMAX  =  499.034; ENMIN  =  374.276 eV                                                          
   ICORE  =        2    local potential                                                             
   LCOR   =        T    correct aug charges                                                         
   LPAW   =        T    paw PP                                                                      
   EAUG   =  628.945                                                                                
   RMAX   =    1.732    core radius for proj-oper                                                   
   RAUG   =    1.300    factor for augmentation sphere                                              
   RDEP   =    1.728    radius for radial grids                                                     
   RDEPT  =    1.329    core radius for aug-charge                                                  
                                                                                                    
   Atomic configuration                                                                             
    4 entries                                                                                       
     n  l   j            E        occ.                                                              
     1  0  0.50       -51.8549   2.0000                                                             
     2  0  0.50        -2.8742   1.0000                                                             
     2  1  0.50        -1.3606   0.0000                                                             
     3  2  1.50        -1.3606   0.0000                                                             
   Description                                                                                      
     l       E           TYP  RCUT    TYP  RCUT                                                     
     0    -51.8548813     23  1.400                                                                 
     0     -2.8742052     23  1.700                                                                 
     1     -1.3605826     23  1.400                                                                 
     2     -1.3605826     23  1.400                                                                 
  local pseudopotential read in
  atomic valenz-charges read in
  non local Contribution for L=            0  read in
    real space projection operators read in
  non local Contribution for L=            0  read in
    real space projection operators read in
  non local Contribution for L=            1  read in
    real space projection operators read in
    PAW grid and wavefunctions read in
 
   number of l-projection  operators is LMAX  =            3
   number of lm-projection operators is LMMAX =            5
 
 POTCAR:    PAW_PBE F 08Apr2002                   
   SHA256 =  53c630871ac675939349fc2b976745ee17808dedc90b5bdde026bc81f0faf456 F/POTCAR              
   COPYR  = (c) Copyright 08Apr2002 Georg Kresse                                                    
   COPYR  = This file is part of the software VASP. Any use, copying, and all other rights are regul
   COPYR  = If you do not have a valid VASP license, you may not use, copy or distribute this file. 
   VRHFIN =F: s2p5                                                                                  
   LEXCH  = PE                                                                                      
   EATOM  =   659.6475 eV,   48.4827 Ry                                                             
                                                                                                    
   TITEL  = PAW_PBE F 08Apr2002                                                                     
   LULTRA =        F    use ultrasoft PP ?                                                          
   IUNSCR =        1    unscreen: 0-lin 1-nonlin 2-no                                               
   RPACOR =    1.200    partial core radius                                                         
   POMASS =   18.998; ZVAL   =    7.000    mass and valenz                                          
   RCORE  =    1.520    outmost cutoff radius                                                       
   RWIGS  =    1.500; RWIGS  =    0.794    wigner-seitz radius (au A)                               
   ENMAX  =  400.000; ENMIN  =  300.000 eV                                                          
   ICORE  =        2    local potential                                                             
   LCOR   =        T    correct aug charges                                                         
   LPAW   =        T    paw PP                                                                      
   EAUG   =  613.614                                                                                
   RMAX   =    1.555    core radius for proj-oper                                                   
   RAUG   =    1.300    factor for augmentation sphere                                              
   RDEP   =    1.539    radius for radial grids                                                     
   RDEPT  =    1.299    core radius for aug-charge                                                  
                                                                                                    
   Atomic configuration                                                                             
    4 entries                                                                                       
     n  l   j            E        occ.                                                              
     1  0  0.50      -663.3661   2.0000                                                             
     2  0  0.50       -29.8995   2.0000                                                             
     2  1  0.50       -11.1114   5.0000                                                             
     3  2  1.50       -10.8847   0.0000                                                             
   Description                                                                                      
     l       E           TYP  RCUT    TYP  RCUT                                                     
     0    -29.8995018     23  1.200                                                                 
     0     -9.5240782     23  1.200                                                                 
     1    -11.1113914     23  1.520                                                                 
     1      1.3605826     23  1.520                                                                 
     2    -10.8846608      7  1.500                                                                 
  local pseudopotential read in
  partial core-charges read in
  partial kinetic energy density read in
  atomic valenz-charges read in
  non local Contribution for L=            0  read in
    real space projection operators read in
  non local Contribution for L=            0  read in
    real space projection operators read in
  non local Contribution for L=            1  read in
    real space projection operators read in
  non local Contribution for L=            1  read in
    real space projection operators read in
    PAW grid and wavefunctions read in
 
   number of l-projection  operators is LMAX  =            4
   number of lm-projection operators is LMMAX =            8
 
 -----------------------------------------------------------------------------
|                                                                             |
|               ----> ADVICE to this user running VASP <----                  |
|                                                                             |
|     You have a (more or less) 'large supercell' and for larger cells it     |
|     might be more efficient to use real-space projection operators.         |
|     Therefore, try LREAL= Auto in the INCAR file.                           |
|     Mind: For very accurate calculation, you might also keep the            |
|     reciprocal projection scheme (i.e. LREAL=.FALSE.).                      |
|                                                                             |
 -----------------------------------------------------------------------------

  PAW_PBE Li_sv 10Sep2004               :
 energy of atom  1       EATOM= -202.7858
 kinetic energy error for atom=    0.0926 (will be added to EATOM!!)
  PAW_PBE F 08Apr2002                   :
 energy of atom  2       EATOM= -659.6475
 kinetic energy error for atom=    0.1978 (will be added to EATOM!!)
 
 
 POSCAR: Li4 F4
  positions in direct lattice
  velocities in cartesian coordinates
 exchange correlation table for  LEXCH =        8
   RHO(1)=    0.500       N(1)  =     2000
   RHO(2)=  100.500       N(2)  =     4000
 


--------------------------------------------------------------------------------------------------------


 ion  position               nearest neighbor table
   1  0.000  0.002  0.002- 136 1.98 109 1.99 189 2.00 207 2.00 138 2.03 115 2.09
   2  0.000  0.000  0.333- 110 2.01 208 2.01 190 2.01 116 2.01 137 2.02 136 2.02
   3  0.000  0.002  0.665- 137 1.99 111 1.99 209 2.00 191 2.00 138 2.03 117 2.09
   4  0.000  0.331  0.002- 139 1.98 109 1.99 210 2.00 192 2.00 141 2.03 112 2.09
   5  1.000  0.333  0.333- 110 2.01 211 2.01 193 2.01 113 2.01 140 2.02 139 2.02
   6  1.000  0.331  0.665- 140 1.98 111 1.99 212 2.00 194 2.00 141 2.03 114 2.09
   7  0.000  0.667  0.017- 142 1.85 213 1.98 195 1.98 112 1.98 115 1.98
   8  0.000  0.667  0.333- 143 1.97 142 1.97 113 2.02 196 2.02 214 2.02 116 2.02
   9  1.000  0.667  0.650- 143 1.85 215 1.98 197 1.98 114 1.98 117 1.98
  10  0.334  0.000  0.000- 144 2.00 198 2.01 118 2.01 146 2.02 189 2.03 124 2.03
  11  0.334  0.000  0.333- 199 2.01 119 2.01 145 2.02 144 2.02 125 2.02 190 2.02
  12  0.334  0.000  0.666- 145 2.00 200 2.01 120 2.01 146 2.02 126 2.03 191 2.03
  13  0.334  0.333  0.000- 147 2.00 201 2.01 118 2.01 149 2.02 121 2.02 192 2.03
  14  0.334  0.333  0.333- 202 2.01 119 2.01 148 2.02 147 2.02 122 2.02 193 2.02
  15  0.334  0.333  0.666- 148 2.00 203 2.01 120 2.01 149 2.02 123 2.02 194 2.03
  16  0.335  0.667  0.002- 150 1.98 204 1.99 121 2.00 124 2.00 152 2.03 195 2.09
  17  0.334  0.667  0.333- 205 2.01 122 2.01 125 2.01 196 2.01 151 2.02 150 2.02
  18  0.335  0.667  0.665- 151 1.99 206 1.99 123 2.00 126 2.00 152 2.03 197 2.09
  19  0.666  0.000  0.000- 153 2.00 127 2.01 198 2.01 155 2.02 133 2.03 207 2.03
  20  0.667  0.000  0.333- 199 2.01 128 2.01 154 2.02 153 2.02 134 2.02 208 2.02
  21  0.666  0.000  0.666- 154 2.00 200 2.01 129 2.01 155 2.02 135 2.03 209 2.03
  22  0.666  0.333  0.000- 156 2.00 201 2.01 127 2.01 158 2.02 130 2.03 210 2.03
  23  0.666  0.333  0.333- 202 2.01 128 2.01 157 2.02 156 2.02 131 2.02 211 2.02
  24  0.666  0.333  0.666- 157 2.00 203 2.01 129 2.01 158 2.02 132 2.02 212 2.03
  25  0.665  0.667  0.002- 159 1.98 204 1.99 130 2.00 133 2.00 161 2.03 213 2.09
  26  0.666  0.667  0.333- 205 2.01 131 2.01 134 2.01 214 2.01 160 2.02 159 2.02
  27  0.665  0.667  0.665- 160 1.99 206 1.99 132 2.00 135 2.00 161 2.03 215 2.09
  28  0.000  0.167  0.167- 110 2.01 162 2.01 180 2.01 109 2.01 136 2.02 139 2.02
  29  1.000  0.167  0.500- 110 2.01 181 2.01 163 2.01 111 2.01 137 2.02 140 2.02
  30  0.000  0.167  0.833- 138 1.97 141 1.97 109 2.02 164 2.02 182 2.02 111 2.02
  31  0.000  0.498  0.169- 139 1.98 113 1.99 183 2.00 165 2.00 142 2.03 112 2.09
  32  0.000  0.498  0.498- 140 1.98 113 1.99 166 2.00 184 2.00 143 2.03 114 2.09
  33  1.000  0.483  0.833- 141 1.85 185 1.98 167 1.98 112 1.98 114 1.98
  34  0.000  0.835  0.169- 136 1.98 116 1.99 168 2.00 186 2.00 142 2.03 115 2.09
  35  0.000  0.835  0.498- 137 1.99 116 1.99 187 2.00 169 2.00 143 2.03 117 2.09
  36  0.000  0.850  0.833- 138 1.85 170 1.98 188 1.98 115 1.98 117 1.98
  37  0.334  0.167  0.167- 171 2.01 119 2.01 144 2.02 147 2.02 118 2.02 162 2.02
  38  0.334  0.167  0.500- 172 2.01 119 2.01 145 2.02 148 2.02 120 2.02 163 2.02
  39  0.334  0.167  0.833- 173 2.01 118 2.01 120 2.01 164 2.01 146 2.02 149 2.02
  40  0.334  0.500  0.167- 147 2.00 174 2.01 122 2.01 150 2.02 121 2.03 165 2.03
  41  0.334  0.500  0.500- 148 2.00 175 2.01 122 2.01 151 2.02 166 2.03 123 2.03
  42  0.335  0.498  0.833- 149 1.98 176 1.99 121 2.00 123 2.00 152 2.03 167 2.09
  43  0.334  0.834  0.167- 144 2.00 177 2.01 125 2.01 150 2.02 124 2.02 168 2.03
  44  0.334  0.834  0.500- 145 2.00 178 2.01 125 2.01 151 2.02 126 2.03 169 2.03
  45  0.335  0.835  0.833- 146 1.99 179 1.99 124 2.00 126 2.00 152 2.03 170 2.09
  46  0.666  0.167  0.167- 171 2.01 128 2.01 153 2.02 156 2.02 127 2.02 180 2.02
  47  0.666  0.167  0.500- 172 2.01 128 2.01 154 2.02 157 2.02 129 2.02 181 2.02
  48  0.666  0.167  0.833- 173 2.01 127 2.01 129 2.01 182 2.01 155 2.02 158 2.02
  49  0.666  0.500  0.167- 156 2.00 174 2.01 131 2.01 159 2.02 130 2.03 183 2.03
  50  0.666  0.500  0.500- 157 2.00 175 2.01 131 2.01 160 2.02 184 2.03 132 2.03
  51  0.665  0.498  0.833- 158 1.98 176 1.99 130 2.00 132 2.00 161 2.03 185 2.09
  52  0.666  0.834  0.167- 153 2.00 177 2.01 134 2.01 159 2.02 133 2.02 186 2.03
  53  0.666  0.834  0.500- 154 2.00 178 2.01 134 2.01 160 2.02 135 2.03 187 2.03
  54  0.665  0.835  0.833- 155 1.99 179 1.99 133 2.00 135 2.00 161 2.03 188 2.09
  55  0.167  0.000  0.167- 144 2.00 162 2.01 190 2.01 136 2.02 189 2.03 168 2.03
  56  0.167  0.000  0.500- 145 2.00 190 2.01 163 2.01 137 2.02 191 2.03 169 2.03
  57  0.168  0.002  0.833- 146 1.99 164 1.99 189 2.00 191 2.00 138 2.03 170 2.09
  58  0.167  0.333  0.167- 147 2.01 162 2.01 193 2.01 139 2.02 165 2.03 192 2.03
  59  0.167  0.333  0.500- 148 2.00 193 2.01 163 2.01 140 2.02 166 2.03 194 2.03
  60  0.168  0.331  0.833- 149 1.99 164 1.99 192 2.00 194 2.00 141 2.03 167 2.09
  61  0.168  0.667  0.169- 150 1.99 196 1.99 165 2.00 168 2.00 142 2.03 195 2.09
  62  0.168  0.667  0.498- 151 1.99 196 1.99 166 2.00 169 2.00 143 2.03 197 2.09
  63  0.183  0.667  0.833- 152 1.85 167 1.98 195 1.98 170 1.98 197 1.98
  64  0.500  0.000  0.167- 199 2.01 171 2.01 144 2.02 153 2.02 198 2.02 177 2.02
  65  0.500  0.000  0.500- 172 2.01 199 2.01 154 2.02 145 2.02 200 2.02 178 2.02
  66  0.500  0.000  0.833- 173 2.01 198 2.01 200 2.01 179 2.01 146 2.02 155 2.02
  67  0.500  0.333  0.167- 171 2.01 202 2.01 147 2.02 156 2.02 174 2.02 201 2.02
  68  0.500  0.333  0.500- 172 2.01 202 2.01 157 2.02 148 2.02 175 2.02 203 2.02
  69  0.500  0.333  0.833- 173 2.01 201 2.01 203 2.01 176 2.01 149 2.02 158 2.02
  70  0.500  0.667  0.167- 205 2.01 174 2.01 177 2.01 204 2.01 150 2.02 159 2.02
  71  0.500  0.667  0.500- 205 2.01 175 2.01 178 2.01 206 2.01 151 2.02 160 2.02
  72  0.500  0.667  0.833- 152 1.98 161 1.98 176 2.02 204 2.02 179 2.02 206 2.02
  73  0.833  0.000  0.167- 153 2.01 180 2.01 208 2.01 136 2.02 207 2.03 186 2.03
  74  0.833  0.000  0.500- 154 2.00 181 2.01 208 2.01 137 2.02 187 2.03 209 2.03
  75  0.832  0.002  0.833- 155 1.99 182 1.99 207 2.00 209 2.00 138 2.03 188 2.09
  76  0.833  0.333  0.167- 156 2.01 180 2.01 211 2.01 139 2.02 210 2.03 183 2.03
  77  0.833  0.333  0.500- 157 2.00 211 2.01 181 2.01 140 2.02 184 2.03 212 2.03
  78  0.832  0.331  0.833- 158 1.99 182 1.99 210 2.00 212 2.00 141 2.03 185 2.09
  79  0.832  0.667  0.169- 159 1.99 214 1.99 183 2.00 186 2.00 142 2.03 213 2.09
  80  0.832  0.667  0.498- 160 1.99 214 1.99 184 2.00 187 2.00 143 2.03 215 2.09
  81  0.817  0.667  0.833- 161 1.85 213 1.98 185 1.98 215 1.98 188 1.98
  82  0.167  0.167  0.000- 162 2.01 118 2.01 109 2.02 164 2.02 189 2.02 192 2.02
  83  0.167  0.167  0.333- 119 2.01 110 2.01 163 2.02 190 2.02 193 2.02 162 2.02
  84  0.167  0.167  0.666- 163 2.01 120 2.01 111 2.02 164 2.02 191 2.02 194 2.02
  85  0.167  0.500  0.000- 192 2.00 165 2.00 121 2.00 112 2.02 195 2.02 167 2.02
  86  0.167  0.500  0.333- 193 2.01 122 2.01 113 2.02 196 2.02 166 2.02 165 2.02
  87  0.167  0.500  0.666- 194 2.00 166 2.00 123 2.00 114 2.02 197 2.02 167 2.02
  88  0.167  0.834  0.000- 168 2.00 189 2.00 124 2.00 115 2.02 170 2.02 195 2.02
  89  0.167  0.834  0.333- 190 2.01 125 2.01 116 2.02 196 2.02 169 2.02 168 2.02
  90  0.167  0.834  0.666- 169 2.00 191 2.00 126 2.00 117 2.02 170 2.02 197 2.02
  91  0.500  0.167  0.000- 171 2.01 173 2.02 198 2.02 201 2.02 118 2.02 127 2.02
  92  0.500  0.167  0.333- 199 2.01 172 2.01 128 2.02 119 2.02 202 2.02 171 2.02
  93  0.500  0.167  0.666- 172 2.01 173 2.02 200 2.02 120 2.02 129 2.02 203 2.02
  94  0.500  0.500  0.000- 201 2.01 174 2.01 204 2.02 176 2.02 130 2.02 121 2.02
  95  0.500  0.500  0.333- 202 2.01 205 2.02 175 2.02 174 2.02 122 2.02 131 2.02
  96  0.500  0.500  0.666- 203 2.01 175 2.01 206 2.02 176 2.02 132 2.02 123 2.02
  97  0.500  0.834  0.000- 177 2.01 198 2.01 179 2.02 204 2.02 124 2.02 133 2.02
  98  0.500  0.834  0.333- 199 2.01 205 2.02 178 2.02 125 2.02 134 2.02 177 2.02
  99  0.500  0.834  0.666- 178 2.01 200 2.01 206 2.02 179 2.02 126 2.02 135 2.02
 100  0.833  0.167  0.000- 180 2.01 127 2.01 109 2.02 182 2.02 207 2.02 210 2.02
 101  0.833  0.167  0.333- 128 2.01 110 2.02 208 2.02 181 2.02 180 2.02 211 2.02
 102  0.833  0.167  0.666- 181 2.01 129 2.01 111 2.02 182 2.02 209 2.02 212 2.02
 103  0.833  0.500  0.000- 183 2.00 210 2.00 130 2.00 112 2.02 185 2.02 213 2.02
 104  0.833  0.500  0.333- 211 2.01 131 2.01 113 2.02 214 2.02 184 2.02 183 2.02
 105  0.833  0.500  0.666- 212 2.00 184 2.00 132 2.00 114 2.02 215 2.02 185 2.02
 106  0.833  0.834  0.000- 207 2.00 186 2.00 133 2.00 115 2.02 188 2.02 213 2.02
 107  0.833  0.834  0.333- 208 2.01 134 2.01 116 2.02 214 2.02 187 2.02 186 2.02
 108  0.833  0.834  0.666- 209 2.00 187 2.00 135 2.00 117 2.02 215 2.02 188 2.02
 109  0.000  0.167  0.000-   1 1.99   4 1.99  28 2.01  82 2.02 100 2.02  30 2.02
 110  0.000  0.167  0.333-   2 2.01  29 2.01   5 2.01  28 2.01  83 2.01 101 2.02
 111  0.000  0.167  0.666-   3 1.99   6 1.99  29 2.01  84 2.02 102 2.02  30 2.02
 112  0.000  0.504  0.996-   7 1.98  33 1.98 103 2.02  85 2.02   4 2.09  31 2.09
 113  0.000  0.500  0.333-  32 1.99  31 1.99   5 2.01 104 2.02  86 2.02   8 2.02
 114  1.000  0.504  0.671-   9 1.98  33 1.98 105 2.02  87 2.02   6 2.09  32 2.09
 115  0.000  0.829  0.996-  36 1.98   7 1.98  88 2.02 106 2.02  34 2.09   1 2.09
 116  0.000  0.834  0.333-  35 1.99  34 1.99   2 2.01  89 2.02 107 2.02   8 2.02
 117  0.000  0.829  0.671-   9 1.98  36 1.98  90 2.02 108 2.02   3 2.09  35 2.09
 118  0.333  0.167  1.000-  82 2.01  39 2.01  10 2.01  13 2.01  91 2.02  37 2.02
 119  0.333  0.167  0.333-  83 2.01  38 2.01  11 2.01  14 2.01  37 2.01  92 2.02
 120  0.333  0.167  0.667-  84 2.01  39 2.01  12 2.01  15 2.01  93 2.02  38 2.02
 121  0.332  0.501  0.999-  85 2.00  16 2.00  42 2.00  94 2.02  13 2.02  40 2.03
 122  0.333  0.500  0.333-  86 2.01  17 2.01  41 2.01  40 2.01  95 2.02  14 2.02
 123  0.332  0.501  0.668-  87 2.00  18 2.00  42 2.00  96 2.02  15 2.02  41 2.03
 124  0.332  0.832  0.999-  88 2.00  45 2.00  16 2.00  97 2.02  43 2.02  10 2.03
 125  0.333  0.833  0.333-  89 2.01  17 2.01  44 2.01  43 2.01  98 2.02  11 2.02
 126  0.332  0.833  0.667-  90 2.00  18 2.00  45 2.00  99 2.02  44 2.03  12 2.03
 127  0.667  0.167  1.000- 100 2.01  48 2.01  19 2.01  22 2.01  91 2.02  46 2.02
 128  0.667  0.167  0.333- 101 2.01  20 2.01  47 2.01  46 2.01  23 2.01  92 2.02
 129  0.667  0.167  0.667- 102 2.01  48 2.01  21 2.01  24 2.01  93 2.02  47 2.02
 130  0.668  0.501  0.999- 103 2.00  51 2.00  25 2.00  94 2.02  49 2.03  22 2.03
 131  0.667  0.500  0.333- 104 2.01  26 2.01  50 2.01  49 2.01  95 2.02  23 2.02
 132  0.668  0.501  0.668- 105 2.00  27 2.00  51 2.00  96 2.02  24 2.02  50 2.03
 133  0.668  0.833  0.999- 106 2.00  54 2.00  25 2.00  97 2.02  52 2.02  19 2.03
 134  0.667  0.833  0.333- 107 2.01  26 2.01  53 2.01  52 2.01  98 2.02  20 2.02
 135  0.668  0.833  0.667- 108 2.00  54 2.00  27 2.00  99 2.02  21 2.03  53 2.03
 136  0.000  0.999  0.166-   1 1.98  34 1.98  55 2.02  73 2.02  28 2.02   2 2.02
 137  0.000  0.999  0.501-  35 1.99   3 1.99  74 2.02  56 2.02  29 2.02   2 2.02
 138  0.000  0.003  0.833-  36 1.85  30 1.97  57 2.03  75 2.03   3 2.03   1 2.03
 139  0.000  0.334  0.166-   4 1.98  31 1.98  58 2.02  76 2.02  28 2.02   5 2.02
 140  1.000  0.334  0.501-  32 1.98   6 1.98  77 2.02  59 2.02   5 2.02  29 2.02
 141  0.000  0.330  0.833-  33 1.85  30 1.97  60 2.03  78 2.03   6 2.03   4 2.03
 142  0.000  0.667  0.170-   7 1.85   8 1.97  61 2.03  79 2.03  34 2.03  31 2.03
 143  0.000  0.667  0.497-   9 1.85   8 1.97  80 2.03  62 2.03  35 2.03  32 2.03
 144  0.333  1.000  0.166-  43 2.00  10 2.00  55 2.00  37 2.02  64 2.02  11 2.02
 145  0.333  1.000  0.500-  12 2.00  44 2.00  56 2.00  11 2.02  38 2.02  65 2.02
 146  0.333  0.999  0.833-  45 1.99  57 1.99  10 2.02  12 2.02  39 2.02  66 2.02
 147  0.333  0.334  0.166-  40 2.00  13 2.00  58 2.01  67 2.02  37 2.02  14 2.02
 148  0.333  0.334  0.500-  15 2.00  41 2.00  59 2.00  14 2.02  68 2.02  38 2.02
 149  0.333  0.334  0.833-  42 1.98  60 1.99  13 2.02  15 2.02  69 2.02  39 2.02
 150  0.333  0.667  0.166-  16 1.98  61 1.99  40 2.02  43 2.02  70 2.02  17 2.02
 151  0.333  0.667  0.501-  18 1.99  62 1.99  41 2.02  44 2.02  17 2.02  71 2.02
 152  0.336  0.667  0.833-  63 1.85  72 1.98  18 2.03  45 2.03  42 2.03  16 2.03
 153  0.667  1.000  0.166-  52 2.00  19 2.00  73 2.01  46 2.02  64 2.02  20 2.02
 154  0.667  1.000  0.500-  53 2.00  21 2.00  74 2.00  47 2.02  20 2.02  65 2.02
 155  0.667  0.999  0.833-  54 1.99  75 1.99  19 2.02  21 2.02  48 2.02  66 2.02
 156  0.667  0.334  0.166-  22 2.00  49 2.00  76 2.01  67 2.02  23 2.02  46 2.02
 157  0.667  0.334  0.500-  24 2.00  50 2.00  77 2.00  23 2.02  68 2.02  47 2.02
 158  0.667  0.334  0.833-  51 1.98  78 1.99  22 2.02  24 2.02  69 2.02  48 2.02
 159  0.667  0.667  0.166-  25 1.98  79 1.99  49 2.02  52 2.02  70 2.02  26 2.02
 160  0.667  0.667  0.501-  27 1.99  80 1.99  50 2.02  53 2.02  26 2.02  71 2.02
 161  0.664  0.667  0.833-  81 1.85  72 1.98  54 2.03  27 2.03  25 2.03  51 2.03
 162  0.166  0.167  0.166-  82 2.01  28 2.01  55 2.01  58 2.01  83 2.02  37 2.02
 163  0.166  0.167  0.500-  84 2.01  29 2.01  56 2.01  59 2.01  83 2.02  38 2.02
 164  0.167  0.167  0.833-  57 1.99  60 1.99  39 2.01  82 2.02  84 2.02  30 2.02
 165  0.166  0.501  0.166-  85 2.00  61 2.00  31 2.00  86 2.02  58 2.03  40 2.03
 166  0.166  0.501  0.501-  87 2.00  62 2.00  32 2.00  86 2.02  59 2.03  41 2.03
 167  0.162  0.504  0.833-  63 1.98  33 1.98  85 2.02  87 2.02  60 2.09  42 2.09
 168  0.166  0.833  0.166-  88 2.00  34 2.00  61 2.00  89 2.02  55 2.03  43 2.03
 169  0.166  0.833  0.501-  90 2.00  35 2.00  62 2.00  89 2.02  56 2.03  44 2.03
 170  0.162  0.829  0.833-  36 1.98  63 1.98  88 2.02  90 2.02  45 2.09  57 2.09
 171  0.500  0.167  0.166-  91 2.01  37 2.01  46 2.01  64 2.01  67 2.01  92 2.02
 172  0.500  0.167  0.500-  93 2.01  47 2.01  38 2.01  68 2.01  65 2.01  92 2.01
 173  0.500  0.167  0.833-  39 2.01  48 2.01  66 2.01  69 2.01  91 2.02  93 2.02
 174  0.500  0.500  0.166-  94 2.01  70 2.01  49 2.01  40 2.01  95 2.02  67 2.02
 175  0.500  0.500  0.500-  96 2.01  71 2.01  41 2.01  50 2.01  95 2.02  68 2.02
 176  0.500  0.500  0.833-  51 1.99  42 1.99  69 2.01  94 2.02  96 2.02  72 2.02
 177  0.500  0.833  0.166-  97 2.01  70 2.01  43 2.01  52 2.01  98 2.02  64 2.02
 178  0.500  0.833  0.500-  99 2.01  71 2.01  53 2.01  44 2.01  98 2.02  65 2.02
 179  0.500  0.834  0.833-  45 1.99  54 1.99  66 2.01  97 2.02  99 2.02  72 2.02
 180  0.834  0.167  0.166- 100 2.01  28 2.01  73 2.01  76 2.01 101 2.02  46 2.02
 181  0.834  0.167  0.500- 102 2.01  29 2.01  74 2.01  77 2.01 101 2.02  47 2.02
 182  0.833  0.167  0.833-  75 1.99  78 1.99  48 2.01 100 2.02 102 2.02  30 2.02
 183  0.834  0.501  0.166- 103 2.00  31 2.00  79 2.00 104 2.02  76 2.03  49 2.03
 184  0.834  0.501  0.501- 105 2.00  80 2.00  32 2.00 104 2.02  77 2.03  50 2.03
 185  0.838  0.504  0.833-  81 1.98  33 1.98 103 2.02 105 2.02  78 2.09  51 2.09
 186  0.834  0.833  0.166- 106 2.00  34 2.00  79 2.00 107 2.02  73 2.03  52 2.03
 187  0.834  0.833  0.501- 108 2.00  35 2.00  80 2.00 107 2.02  74 2.03  53 2.03
 188  0.838  0.829  0.833-  36 1.98  81 1.98 106 2.02 108 2.02  54 2.09  75 2.09
 189  0.166  0.999  0.999-  88 2.00   1 2.00  57 2.00  82 2.02  55 2.03  10 2.03
 190  0.166  1.000  0.333-  89 2.01   2 2.01  56 2.01  55 2.01  83 2.02  11 2.02
 191  0.166  0.999  0.667-  90 2.00   3 2.00  57 2.00  84 2.02  56 2.03  12 2.03
 192  0.166  0.334  0.999-  85 2.00   4 2.00  60 2.00  82 2.02  58 2.03  13 2.03
 193  0.166  0.334  0.333-  86 2.01   5 2.01  59 2.01  58 2.01  83 2.02  14 2.02
 194  0.166  0.334  0.667-  87 2.00   6 2.00  60 2.00  84 2.02  59 2.03  15 2.03
 195  0.162  0.667  0.996-  63 1.98   7 1.98  85 2.02  88 2.02  61 2.09  16 2.09
 196  0.167  0.667  0.333-  62 1.99  61 1.99  17 2.01  86 2.02  89 2.02   8 2.02
 197  0.162  0.667  0.671-   9 1.98  63 1.98  87 2.02  90 2.02  18 2.09  62 2.09
 198  0.500  1.000  1.000-  97 2.01  66 2.01  10 2.01  19 2.01  91 2.02  64 2.02
 199  0.500  1.000  0.333-  98 2.01  11 2.01  20 2.01  64 2.01  65 2.01  92 2.01
 200  0.500  1.000  0.667-  99 2.01  66 2.01  21 2.01  12 2.01  93 2.02  65 2.02
 201  0.500  0.334  1.000-  94 2.01  69 2.01  13 2.01  22 2.01  91 2.02  67 2.02
 202  0.500  0.334  0.333-  95 2.01  23 2.01  14 2.01  68 2.01  67 2.01  92 2.02
 203  0.500  0.334  0.667-  96 2.01  69 2.01  24 2.01  15 2.01  93 2.02  68 2.02
 204  0.500  0.667  0.000-  16 1.99  25 1.99  70 2.01  94 2.02  97 2.02  72 2.02
 205  0.500  0.667  0.333-  17 2.01  26 2.01  71 2.01  70 2.01  95 2.02  98 2.02
 206  0.500  0.667  0.666-  27 1.99  18 1.99  71 2.01  96 2.02  99 2.02  72 2.02
 207  0.834  0.999  0.999- 106 2.00  75 2.00   1 2.00 100 2.02  73 2.03  19 2.03
 208  0.834  1.000  0.333- 107 2.01   2 2.01  74 2.01  73 2.01 101 2.02  20 2.02
 209  0.834  0.999  0.667- 108 2.00   3 2.00  75 2.00 102 2.02  74 2.03  21 2.03
 210  0.834  0.334  0.999- 103 2.00   4 2.00  78 2.00 100 2.02  76 2.03  22 2.03
 211  0.834  0.334  0.333- 104 2.01   5 2.01  77 2.01  76 2.01 101 2.02  23 2.02
 212  0.834  0.334  0.667- 105 2.00   6 2.00  78 2.00 102 2.02  77 2.03  24 2.03
 213  0.838  0.667  0.996-  81 1.98   7 1.98 103 2.02 106 2.02  79 2.09  25 2.09
 214  0.833  0.667  0.333-  80 1.99  79 1.99  26 2.01 104 2.02 107 2.02   8 2.02
 215  0.838  0.667  0.671-   9 1.98  81 1.98 105 2.02 108 2.02  27 2.09  80 2.09
 
  LATTYP: Found a simple cubic cell.
 ALAT       =    12.0789003372
  
  Lattice vectors:
  
 A1 = (  12.0789003372,   0.0000000000,   0.0000000000)
 A2 = (   0.0000000000,  12.0789003372,   0.0000000000)
 A3 = (   0.0000000000,   0.0000000000,  12.0789003372)


Analysis of symmetry for initial positions (statically):
=====================================================================
 Subroutine PRICEL returns:
 Original cell was already a primitive cell.
 

 Routine SETGRP: Setting up the symmetry group for a 
 simple cubic supercell.


 Subroutine GETGRP returns: Found  1 space group operations
 (whereof  1 operations were pure point group operations)
 out of a pool of 48 trial point group operations.


The static configuration has the point symmetry C_1 .


Analysis of symmetry for dynamics (positions and initial velocities):
=====================================================================
 Subroutine PRICEL returns:
 Original cell was already a primitive cell.
 

 Routine SETGRP: Setting up the symmetry group for a 
 simple cubic supercell.


 Subroutine GETGRP returns: Found  1 space group operations
 (whereof  1 operations were pure point group operations)
 out of a pool of 48 trial point group operations.


The dynamic configuration has the point symmetry C_1 .


Analysis of structural, dynamic, and magnetic symmetry:
=====================================================================
 Subroutine PRICEL returns:
 Original cell was already a primitive cell.
 

 Routine SETGRP: Setting up the symmetry group for a 
 simple cubic supercell.


 Subroutine GETGRP returns: Found  1 space group operations
 (whereof  1 operations were pure point group operations)
 out of a pool of 48 trial point group operations.


The overall configuration has the point symmetry C_1 .


 Subroutine INISYM returns: Found  1 space group operations
 (whereof  1 operations are pure point group operations),
 and found     1 'primitive' translations


----------------------------------------------------------------------------------------

                                     Primitive cell                                     

  volume of cell :    1762.3095

  direct lattice vectors                    reciprocal lattice vectors
    12.078900337  0.000000000  0.000000000     0.082788993  0.000000000  0.000000000
     0.000000000 12.078900337  0.000000000     0.000000000  0.082788993  0.000000000
     0.000000000  0.000000000 12.078900337     0.000000000  0.000000000  0.082788993

  length of vectors
    12.078900337 12.078900337 12.078900337     0.082788993  0.082788993  0.082788993

  position of ions in fractional coordinates (direct lattice)
     0.000032039  0.001955003  0.001635414
     0.000006055  0.000401258  0.333328464
     0.000005430  0.001968559  0.665046540
     0.000005514  0.331424058  0.001624528
     0.999999349  0.332967427  0.333341406
     0.999999103  0.331433063  0.665047907
     0.000006852  0.666644398  0.016918607
     0.000003103  0.666647141  0.333349617
     0.999999643  0.666661462  0.649885029
     0.333531225  0.000192808  0.000378096
     0.333510258  0.000168799  0.333350077
     0.333533026  0.000191529  0.666277503
     0.333533982  0.333175216  0.000381803
     0.333511897  0.333203334  0.333352851
     0.333536881  0.333179466  0.666271999
     0.335257715  0.666635006  0.001642243
     0.333741164  0.666644281  0.333354341
     0.335244453  0.666635433  0.665070590
     0.666492227  0.000191597  0.000377618
     0.666502615  0.000165076  0.333341759
     0.666478765  0.000190764  0.666284328
     0.666478144  0.333166630  0.000381718
     0.666491327  0.333202089  0.333351103
     0.666465002  0.333177598  0.666272561
     0.664754565  0.666641562  0.001641998
     0.666262349  0.666645222  0.333352620
     0.664758614  0.666636306  0.665071161
     0.000012959  0.166658724  0.167032749
     0.999999558  0.166671690  0.499599365
     0.000013147  0.166650412  0.833353570
     0.000001060  0.498375812  0.168576085
     0.000000875  0.498364872  0.498044817
     0.999999374  0.483081407  0.833355605
     0.000014239  0.834952275  0.168567166
     0.000001436  0.834954018  0.498031309
     0.000014461  0.850114800  0.833338677
     0.333517466  0.166651961  0.166800032
     0.333505215  0.166656878  0.499835796
     0.333746113  0.166649091  0.833353735
     0.333529946  0.499618383  0.166830559
     0.333520081  0.499622616  0.499808646
     0.335253212  0.498358708  0.833361540
     0.333543595  0.833727454  0.166824719
     0.333529045  0.833719983  0.499809166
     0.335249074  0.834927212  0.833362895
     0.666496653  0.166646094  0.166795732
     0.666497826  0.166653449  0.499834880
     0.666267798  0.166644278  0.833358159
     0.666474087  0.499618461  0.166828423
     0.666481479  0.499622763  0.499807603
     0.664749932  0.498358387  0.833362575
     0.666471257  0.833730133  0.166819873
     0.666474554  0.833720097  0.499808459
     0.664763120  0.834930872  0.833366226
     0.167037827  0.000197123  0.166837339
     0.167027348  0.000193163  0.499808925
     0.168262772  0.001967608  0.833347179
     0.167019243  0.333173266  0.166830475
     0.167020608  0.333169260  0.499804938
     0.168258717  0.331424367  0.833336775
     0.168260645  0.666660488  0.168580080
     0.168247965  0.666648449  0.498033674
     0.183365502  0.666635935  0.833361130
     0.500006974  0.000166123  0.166816204
     0.500005778  0.000162251  0.499839108
     0.500006459  0.000391895  0.833342124
     0.500003706  0.333194348  0.166806159
     0.500000840  0.333184599  0.499835431
     0.500003267  0.332965634  0.833346072
     0.500003504  0.666654545  0.167034874
     0.500000697  0.666658520  0.499607964
     0.500003520  0.666649882  0.833350274
     0.832995785  0.000195239  0.166827072
     0.832976738  0.000191307  0.499807947
     0.831769941  0.001966833  0.833355763
     0.832986375  0.333168709  0.166827817
     0.832979028  0.333167232  0.499804216
     0.831746546  0.331418903  0.833339291
     0.831748478  0.666664167  0.168577333
     0.831754835  0.666649782  0.498031676
     0.816641738  0.666640185  0.833362969
     0.166880927  0.166663951  0.000224102
     0.166823070  0.166651305  0.333353925
     0.166861706  0.166650460  0.666420937
     0.166863904  0.499780460  0.000220085
     0.166865625  0.499775531  0.333342635
     0.166845957  0.499779693  0.666438562
     0.166862951  0.833557417  0.000221398
     0.166863930  0.833577938  0.333353641
     0.166845919  0.833563603  0.666433629
     0.500006908  0.166667516  0.000182214
     0.500004243  0.166656115  0.333345623
     0.500003284  0.166654558  0.666472146
     0.500005920  0.499781048  0.000219342
     0.500000975  0.499818149  0.333332880
     0.500000610  0.499779655  0.666439231
     0.500006773  0.833560984  0.000220997
     0.500003186  0.833529677  0.333345874
     0.500003095  0.833565226  0.666434861
     0.833152289  0.166653209  0.000224385
     0.833182118  0.166647217  0.333349250
     0.833143434  0.166647456  0.666424769
     0.833140341  0.499780190  0.000219633
     0.833136984  0.499776500  0.333340474
     0.833153654  0.499779584  0.666439347
     0.833170200  0.833564984  0.000220352
     0.833145062  0.833578248  0.333348767
     0.833160382  0.833565650  0.666437416
     0.000018419  0.166681125  0.000436473
     0.000003255  0.166677261  0.333323204
     0.000003236  0.166674312  0.666227461
     0.000002069  0.504268062  0.995732004
     0.000001087  0.499563857  0.333318853
     0.999999393  0.504258423  0.670936392
     0.000017985  0.829063572  0.995741703
     0.000005657  0.833773188  0.333325697
     0.000004428  0.829076286  0.670923681
     0.332990002  0.166678769  0.999753113
     0.333170040  0.166671917  0.333333184
     0.332989113  0.166671088  0.666907584
     0.332373827  0.500812017  0.999188369
     0.332981593  0.500246699  0.333326007
     0.332370410  0.500814364  0.667501742
     0.332380258  0.832495401  0.999186553
     0.332989876  0.833092350  0.333332370
     0.332378261  0.832501504  0.667496276
     0.667029364  0.166671645  0.999753422
     0.666838056  0.166668367  0.333329374
     0.667018138  0.166668621  0.666910853
     0.667634830  0.500811883  0.999188460
     0.667021009  0.500247399  0.333324331
     0.667630750  0.500814076  0.667502367
     0.667640338  0.832501122  0.999186371
     0.667018430  0.833092187  0.333328750
     0.667629278  0.832502832  0.667499635
     0.000019128  0.999259099  0.165919419
     0.000001546  0.999278507  0.500721846
     0.000019188  0.003182944  0.833339588
     0.000003659  0.334082672  0.165917452
     0.999999330  0.334080847  0.500741198
     0.000003418  0.330126357  0.833330859
     0.000005677  0.666669509  0.169873731
     0.000001158  0.666660762  0.496816893
     0.333016657  0.999684911  0.166344634
     0.333002397  0.999685288  0.500316864
     0.332594926  0.999257341  0.833333260
     0.333014062  0.333662139  0.166340997
     0.333007336  0.333660303  0.500317575
     0.332594338  0.334079410  0.833336277
     0.332595432  0.666661743  0.165923954
     0.332586049  0.666663509  0.500743075
     0.336473315  0.666648678  0.833348907
     0.667003208  0.999683208  0.166337862
     0.667006693  0.999683511  0.500316528
     0.667425503  0.999257003  0.833340024
     0.666993667  0.333658409  0.166339310
     0.666994266  0.333658642  0.500316916
     0.667412596  0.334075700  0.833338019
     0.667413498  0.666665008  0.165922030
     0.667416493  0.666664460  0.500742343
     0.663534130  0.666652076  0.833350952
     0.166423342  0.166673013  0.166316786
     0.166415968  0.166676424  0.500341118
     0.167106212  0.166672653  0.833334759
     0.165830945  0.500831843  0.165713868
     0.165828574  0.500825545  0.500942387
     0.162368276  0.504258769  0.833339849
     0.165842754  0.832514623  0.165719475
     0.165829499  0.832510076  0.500941152
     0.162381960  0.829061787  0.833339329
     0.500005801  0.166674403  0.166497195
     0.500002989  0.166677676  0.500162683
     0.500005599  0.166671673  0.833335027
     0.500002984  0.500246957  0.166320284
     0.500000714  0.500237150  0.500331674
     0.500002615  0.499564992  0.833332939
     0.500005823  0.833089986  0.166317988
     0.500002706  0.833081586  0.500339672
     0.500005648  0.833766838  0.833340234
     0.833597975  0.166667827  0.166312451
     0.833585798  0.166673564  0.500340694
     0.832914995  0.166668053  0.833339272
     0.834173193  0.500832187  0.165712083
     0.834172877  0.500825899  0.500941758
     0.837632862  0.504258728  0.833341533
     0.834180699  0.832517712  0.165715335
     0.834174709  0.832510677  0.500940860
     0.837642171  0.829064945  0.833343466
     0.165850357  0.999058137  0.999174651
     0.166421636  0.999661343  0.333329250
     0.165833376  0.999059318  0.667486742
     0.165834729  0.334290559  0.999168061
     0.166413454  0.333686639  0.333331148
     0.165831236  0.334284060  0.667483675
     0.162374898  0.666656498  0.995741547
     0.167098601  0.666662754  0.333330840
     0.162370636  0.666657749  0.670935866
     0.500006838  0.999668710  0.999763373
     0.500006244  0.999839390  0.333323489
     0.500005946  0.999660523  0.666919439
     0.500005920  0.333680170  0.999753355
     0.500002217  0.333503535  0.333326706
     0.500001481  0.333682725  0.666911163
     0.500006129  0.666667387  0.000435544
     0.500001586  0.666665813  0.333328542
     0.500001835  0.666660129  0.666233118
     0.834194517  0.999057958  0.999174773
     0.833591185  0.999659023  0.333321890
     0.834178749  0.999058671  0.667493615
     0.834176972  0.334283819  0.999168326
     0.833588279  0.333684970  0.333329031
     0.834169602  0.334281986  0.667485171
     0.837639460  0.666662351  0.995741454
     0.832907016  0.666664333  0.333328565
     0.837630977  0.666659761  0.670937432

  ion indices of the primitive-cell ions
   primitive index   ion index
                 1           1
                 2           2
                 3           3
                 4           4
                 5           5
                 6           6
                 7           7
                 8           8
                 9           9
                10          10
                11          11
                12          12
                13          13
                14          14
                15          15
                16          16
                17          17
                18          18
                19          19
                20          20
                21          21
                22          22
                23          23
                24          24
                25          25
                26          26
                27          27
                28          28
                29          29
                30          30
                31          31
                32          32
                33          33
                34          34
                35          35
                36          36
                37          37
                38          38
                39          39
                40          40
                41          41
                42          42
                43          43
                44          44
                45          45
                46          46
                47          47
                48          48
                49          49
                50          50
                51          51
                52          52
                53          53
                54          54
                55          55
                56          56
                57          57
                58          58
                59          59
                60          60
                61          61
                62          62
                63          63
                64          64
                65          65
                66          66
                67          67
                68          68
                69          69
                70          70
                71          71
                72          72
                73          73
                74          74
                75          75
                76          76
                77          77
                78          78
                79          79
                80          80
                81          81
                82          82
                83          83
                84          84
                85          85
                86          86
                87          87
                88          88
                89          89
                90          90
                91          91
                92          92
                93          93
                94          94
                95          95
                96          96
                97          97
                98          98
                99          99
               100         100
               101         101
               102         102
               103         103
               104         104
               105         105
               106         106
               107         107
               108         108
               109         109
               110         110
               111         111
               112         112
               113         113
               114         114
               115         115
               116         116
               117         117
               118         118
               119         119
               120         120
               121         121
               122         122
               123         123
               124         124
               125         125
               126         126
               127         127
               128         128
               129         129
               130         130
               131         131
               132         132
               133         133
               134         134
               135         135
               136         136
               137         137
               138         138
               139         139
               140         140
               141         141
               142         142
               143         143
               144         144
               145         145
               146         146
               147         147
               148         148
               149         149
               150         150
               151         151
               152         152
               153         153
               154         154
               155         155
               156         156
               157         157
               158         158
               159         159
               160         160
               161         161
               162         162
               163         163
               164         164
               165         165
               166         166
               167         167
               168         168
               169         169
               170         170
               171         171
               172         172
               173         173
               174         174
               175         175
               176         176
               177         177
               178         178
               179         179
               180         180
               181         181
               182         182
               183         183
               184         184
               185         185
               186         186
               187         187
               188         188
               189         189
               190         190
               191         191
               192         192
               193         193
               194         194
               195         195
               196         196
               197         197
               198         198
               199         199
               200         200
               201         201
               202         202
               203         203
               204         204
               205         205
               206         206
               207         207
               208         208
               209         209
               210         210
               211         211
               212         212
               213         213
               214         214
               215         215

----------------------------------------------------------------------------------------

 
 
 KPOINTS: Gamma-point only                        

Automatic generation of k-mesh.
 Grid dimensions read from file:
 generate k-points for:    1    1    1

 Generating k-lattice:

  Cartesian coordinates                     Fractional coordinates (reciprocal lattice)
     0.082788993  0.000000000  0.000000000     1.000000000  0.000000000  0.000000000
     0.000000000  0.082788993  0.000000000     0.000000000  1.000000000  0.000000000
     0.000000000  0.000000000  0.082788993     0.000000000  0.000000000  1.000000000

  Length of vectors
     0.082788993  0.082788993  0.082788993

  Shift w.r.t. Gamma in fractional coordinates (k-lattice)
     0.000000000  0.000000000  0.000000000

 
 Subroutine IBZKPT returns following result:
 ===========================================
 
 Found      1 irreducible k-points:
 
 Following reciprocal coordinates:
            Coordinates               Weight
  0.000000  0.000000  0.000000      1.000000
 
 Following cartesian coordinates:
            Coordinates               Weight
  0.000000  0.000000  0.000000      1.000000
 


--------------------------------------------------------------------------------------------------------




 Dimension of arrays:
   k-points           NKPTS =      1   k-points in BZ     NKDIM =      1   number of bands    NBANDS=    752
   number of dos      NEDOS =    301   number of ions     NIONS =    215
   non local maximal  LDIM  =      4   non local SUM 2l+1 LMDIM =      8
   total plane-waves  NPLWV = 512000
   max r-space proj   IRMAX =      1   max aug-charges    IRDMAX=   3893
   dimension x,y,z NGX =    80 NGY =   80 NGZ =   80
   dimension x,y,z NGXF=   160 NGYF=  160 NGZF=  160
   support grid    NGXF=   160 NGYF=  160 NGZF=  160
   ions per type =             108 107
   NGX,Y,Z   is equivalent  to a cutoff of  11.01, 11.01, 11.01 a.u.
   NGXF,Y,Z  is equivalent  to a cutoff of  22.02, 22.02, 22.02 a.u.

 SYSTEM =  Si                                      
 POSCAR =  Li4 F4                                  

 Startparameter for this run:
   NWRITE =      2    write-flag & timer
   PREC   = accura    normal or accurate (medium, high low for compatibility)
   ISTART =      1    job   : 0-new  1-cont  2-samecut
   ICHARG =      2    charge: 1-file 2-atom 10-const
   ISPIN  =      2    spin polarized calculation?
   LNONCOLLINEAR =      F non collinear calculations
   LSORBIT =      F    spin-orbit coupling
   INIWAV =      1    electr: 0-lowe 1-rand  2-diag
   LASPH  =      F    aspherical Exc in radial PAW
 Electronic Relaxation 1
   ENCUT  =  400.0 eV  29.40 Ry    5.42 a.u.  19.70 19.70 19.70*2*pi/ulx,y,z
   ENINI  =  400.0     initial cutoff
   ENAUG  =  628.9 eV  augmentation charge cutoff
   NELM   =    200;   NELMIN=  2; NELMDL=  0     # of ELM steps 
   EDIFF  = 0.1E-09   stopping-criterion for ELM
   LREAL  =      F    real-space projection
   NLSPLINE    = F    spline interpolate recip. space projectors
   LCOMPAT=      F    compatible to vasp.4.4
   GGA_COMPAT  = T    GGA compatible to vasp.4.4-vasp.4.6
   LMAXPAW     = -100 max onsite density
   LMAXMIX     =    2 max onsite mixed and CHGCAR
   VOSKOWN=      0    Vosko Wilk Nusair interpolation
   ROPT   =    0.00000   0.00000
 Ionic relaxation
   EDIFFG = -.1E-01   stopping-criterion for IOM
   NSW    =    500    number of steps for IOM
   NBLOCK =      1;   KBLOCK =    500    inner block; outer block 
   IBRION =      3    ionic relax: 0-MD 1-quasi-New 2-CG
   NFREE  =      0    steps in history (QN), initial steepest desc. (CG)
   ISIF   =      0    stress and relaxation
   IWAVPR =     11    prediction:  0-non 1-charg 2-wave 3-comb
   ISYM   =      2    0-nonsym 1-usesym 2-fastsym
   LCORR  =      T    Harris-Foulkes like correction to forces

   POTIM  = 0.1000    time-step for ionic-motion
   TEIN   =    0.0    initial temperature
   TEBEG  =    0.0;   TEEND  =   0.0 temperature during run
   SMASS  =  -3.00    Nose mass-parameter (am)
   estimated Nose-frequenzy (Omega)   =  0.10E-29 period in steps = 0.63E+47 mass=  -0.333E-26a.u.
   SCALEE = 1.0000    scale energy and forces
   NPACO  =    256;   APACO  = 10.0  distance and # of slots for P.C.
   PSTRESS=    0.0 pullay stress

  Mass of Ions in am
   POMASS =   7.01 19.00
  Ionic Valenz
   ZVAL   =   3.00  7.00
  Atomic Wigner-Seitz radii
   RWIGS  =  -1.00 -1.00
  virtual crystal weights 
   VCA    =   1.00  1.00
   NELECT =    1072.0000    total number of electrons
   NUPDOWN=      -1.0000    fix difference up-down

 DOS related values:
   EMIN   =  10.00;   EMAX   =-10.00  energy-range for DOS
   EFERMI =   0.00;   METHOD = LEGACY      
   ISMEAR =     0;   SIGMA  =   0.01  broadening in eV -4-tet -1-fermi 0-gaus

 Electronic relaxation 2 (details)
   IALGO  =     38    algorithm
   LDIAG  =      T    sub-space diagonalisation (order eigenvalues)
   LSUBROT=      F    optimize rotation matrix (better conditioning)
   TURBO    =      0    0=normal 1=particle mesh
   IRESTART =      0    0=no restart 2=restart with 2 vectors
   NREBOOT  =      0    no. of reboots
   NMIN     =      0    reboot dimension
   EREF     =   0.00    reference energy to select bands
   IMIX   =      4    mixing-type and parameters
     AMIX     =   0.40;   BMIX     =  1.00
     AMIX_MAG =   1.60;   BMIX_MAG =  1.00
     AMIN     =   0.10
     WC   =   100.;   INIMIX=   1;  MIXPRE=   1;  MAXMIX= -45

 Intra band minimization:
   WEIMIN = 0.0010     energy-eigenvalue tresh-hold
   EBREAK =  0.33E-13  absolut break condition
   DEPER  =   0.30     relativ break condition  

   TIME   =   0.40     timestep for ELM

  volume/ion in A,a.u.               =       8.20        55.31
  Fermi-wavevector in a.u.,A,eV,Ry     =   1.387115  2.621267 26.178794  1.924087
  Thomas-Fermi vector in A             =   2.511366
 
 Write flags
   LWAVE        =      T    write WAVECAR
   LDOWNSAMPLE  =      F    k-point downsampling of WAVECAR
   LCHARG       =      T    write CHGCAR
   LVTOT        =      F    write LOCPOT, total local potential
   LVHAR        =      F    write LOCPOT, Hartree potential only
   LELF         =      F    write electronic localiz. function (ELF)
   LORBIT       =      0    0 simple, 1 ext, 2 COOP (PROOUT), +10 PAW based schemes


 Dipole corrections
   LMONO  =      F    monopole corrections only (constant potential shift)
   LDIPOL =      F    correct potential (dipole corrections)
   IDIPOL =      0    1-x, 2-y, 3-z, 4-all directions 
   EPSILON=  1.0000000 bulk dielectric constant

 Exchange correlation treatment:
   GGA     =    --    GGA type
   LEXCH   =     8    internal setting for exchange type
   LIBXC   =     F    Libxc                    
   VOSKOWN =     0    Vosko Wilk Nusair interpolation
   LHFCALC =     F    Hartree Fock is set to
   LHFONE  =     F    Hartree Fock one center treatment
   AEXX    =    0.0000 exact exchange contribution

 Linear response parameters
   LEPSILON=     F    determine dielectric tensor
   LRPA    =     F    only Hartree local field effects (RPA)
   LNABLA  =     F    use nabla operator in PAW spheres
   LVEL    =     F    velocity operator in full k-point grid
   CSHIFT  =0.1000    complex shift for real part using Kramers Kronig
   OMEGAMAX=  -1.0    maximum frequency
   DEG_THRESHOLD= 0.2000000E-02 threshold for treating states as degnerate
   RTIME   =   -0.100 relaxation time in fs
  (WPLASMAI=    0.000 imaginary part of plasma frequency in eV, 0.658/RTIME)
   DFIELD  = 0.0000000 0.0000000 0.0000000 field for delta impulse in time
 
  Optional k-point grid parameters
   LKPOINTS_OPT  =     F    use optional k-point grid
   KPOINTS_OPT_MODE=     1    mode for optional k-point grid
 
 Orbital magnetization related:
   ORBITALMAG=     F  switch on orbital magnetization
   LCHIMAG   =     F  perturbation theory with respect to B field
   DQ        =  0.001000  dq finite difference perturbation B field
   LLRAUG    =     F  two centre corrections for induced B field
   LBONE     =     F  B-component reconstruction in AE one-centre
   LVGVCALC  =     T  calculate vGv susceptibility
   LVGVAPPL  =     F  apply vGv susceptibility instead of pGv for G=0

 Random number generation:
   RANDOM_GENERATOR = DEFAULT
   PCG_SEED         = not used


--------------------------------------------------------------------------------------------------------


 quickmin algorithm: (dynamic with friction)
 charge density and potential will be updated during run
 spin polarized calculation
 Variant of blocked Davidson
 Davidson routine will perform the subspace rotation
 perform sub-space diagonalisation
    after iterative eigenvector-optimisation
 modified Broyden-mixing scheme, WC =      100.0
 initial mixing is a Kerker type mixing with AMIX =  0.4000 and BMIX =      1.0000
 Hartree-type preconditioning will be used
 using additional bands           216
 reciprocal scheme for non local part
 use partial core corrections
 calculate Harris-corrections to forces 
   (improved forces if not selfconsistent)
 use gradient corrections 
 use of overlap-Matrix (Vanderbilt PP)
 Gauss-broadening in eV      SIGMA  =   0.01


--------------------------------------------------------------------------------------------------------


  energy-cutoff  :      400.00
  volume of cell :     1762.31
      direct lattice vectors                 reciprocal lattice vectors
    12.078900337  0.000000000  0.000000000     0.082788993  0.000000000  0.000000000
     0.000000000 12.078900337  0.000000000     0.000000000  0.082788993  0.000000000
     0.000000000  0.000000000 12.078900337     0.000000000  0.000000000  0.082788993

  length of vectors
    12.078900337 12.078900337 12.078900337     0.082788993  0.082788993  0.082788993


 
 old parameters found on file WAVECAR:
  energy-cutoff  :      400.00
  volume of cell :     1762.31
      direct lattice vectors                 reciprocal lattice vectors
    12.078900337  0.000000000  0.000000000     0.082788993  0.000000000  0.000000000
     0.000000000 12.078900337  0.000000000     0.000000000  0.082788993  0.000000000
     0.000000000  0.000000000 12.078900337     0.000000000  0.000000000  0.082788993

  length of vectors

 
 k-points in units of 2pi/SCALE and weight: Gamma-point only                        
   0.00000000  0.00000000  0.00000000       1.000
 
 k-points in reciprocal lattice and weights: Gamma-point only                        
   0.00000000  0.00000000  0.00000000       1.000
 
 position of ions in fractional coordinates (direct lattice) 
   0.00003204  0.00195500  0.00163541
   0.00000605  0.00040126  0.33332846
   0.00000543  0.00196856  0.66504654
   0.00000551  0.33142406  0.00162453
   0.99999935  0.33296743  0.33334141
   0.99999910  0.33143306  0.66504791
   0.00000685  0.66664440  0.01691861
   0.00000310  0.66664714  0.33334962
   0.99999964  0.66666146  0.64988503
   0.33353123  0.00019281  0.00037810
   0.33351026  0.00016880  0.33335008
   0.33353303  0.00019153  0.66627750
   0.33353398  0.33317522  0.00038180
   0.33351190  0.33320333  0.33335285
   0.33353688  0.33317947  0.66627200
   0.33525771  0.66663501  0.00164224
   0.33374116  0.66664428  0.33335434
   0.33524445  0.66663543  0.66507059
   0.66649223  0.00019160  0.00037762
   0.66650262  0.00016508  0.33334176
   0.66647877  0.00019076  0.66628433
   0.66647814  0.33316663  0.00038172
   0.66649133  0.33320209  0.33335110
   0.66646500  0.33317760  0.66627256
   0.66475457  0.66664156  0.00164200
   0.66626235  0.66664522  0.33335262
   0.66475861  0.66663631  0.66507116
   0.00001296  0.16665872  0.16703275
   0.99999956  0.16667169  0.49959937
   0.00001315  0.16665041  0.83335357
   0.00000106  0.49837581  0.16857608
   0.00000087  0.49836487  0.49804482
   0.99999937  0.48308141  0.83335561
   0.00001424  0.83495227  0.16856717
   0.00000144  0.83495402  0.49803131
   0.00001446  0.85011480  0.83333868
   0.33351747  0.16665196  0.16680003
   0.33350521  0.16665688  0.49983580
   0.33374611  0.16664909  0.83335373
   0.33352995  0.49961838  0.16683056
   0.33352008  0.49962262  0.49980865
   0.33525321  0.49835871  0.83336154
   0.33354360  0.83372745  0.16682472
   0.33352905  0.83371998  0.49980917
   0.33524907  0.83492721  0.83336290
   0.66649665  0.16664609  0.16679573
   0.66649783  0.16665345  0.49983488
   0.66626780  0.16664428  0.83335816
   0.66647409  0.49961846  0.16682842
   0.66648148  0.49962276  0.49980760
   0.66474993  0.49835839  0.83336257
   0.66647126  0.83373013  0.16681987
   0.66647455  0.83372010  0.49980846
   0.66476312  0.83493087  0.83336623
   0.16703783  0.00019712  0.16683734
   0.16702735  0.00019316  0.49980893
   0.16826277  0.00196761  0.83334718
   0.16701924  0.33317327  0.16683048
   0.16702061  0.33316926  0.49980494
   0.16825872  0.33142437  0.83333678
   0.16826064  0.66666049  0.16858008
   0.16824796  0.66664845  0.49803367
   0.18336550  0.66663593  0.83336113
   0.50000697  0.00016612  0.16681620
   0.50000578  0.00016225  0.49983911
   0.50000646  0.00039190  0.83334212
   0.50000371  0.33319435  0.16680616
   0.50000084  0.33318460  0.49983543
   0.50000327  0.33296563  0.83334607
   0.50000350  0.66665455  0.16703487
   0.50000070  0.66665852  0.49960796
   0.50000352  0.66664988  0.83335027
   0.83299579  0.00019524  0.16682707
   0.83297674  0.00019131  0.49980795
   0.83176994  0.00196683  0.83335576
   0.83298638  0.33316871  0.16682782
   0.83297903  0.33316723  0.49980422
   0.83174655  0.33141890  0.83333929
   0.83174848  0.66666417  0.16857733
   0.83175484  0.66664978  0.49803168
   0.81664174  0.66664019  0.83336297
   0.16688093  0.16666395  0.00022410
   0.16682307  0.16665130  0.33335392
   0.16686171  0.16665046  0.66642094
   0.16686390  0.49978046  0.00022009
   0.16686563  0.49977553  0.33334263
   0.16684596  0.49977969  0.66643856
   0.16686295  0.83355742  0.00022140
   0.16686393  0.83357794  0.33335364
   0.16684592  0.83356360  0.66643363
   0.50000691  0.16666752  0.00018221
   0.50000424  0.16665611  0.33334562
   0.50000328  0.16665456  0.66647215
   0.50000592  0.49978105  0.00021934
   0.50000098  0.49981815  0.33333288
   0.50000061  0.49977965  0.66643923
   0.50000677  0.83356098  0.00022100
   0.50000319  0.83352968  0.33334587
   0.50000310  0.83356523  0.66643486
   0.83315229  0.16665321  0.00022438
   0.83318212  0.16664722  0.33334925
   0.83314343  0.16664746  0.66642477
   0.83314034  0.49978019  0.00021963
   0.83313698  0.49977650  0.33334047
   0.83315365  0.49977958  0.66643935
   0.83317020  0.83356498  0.00022035
   0.83314506  0.83357825  0.33334877
   0.83316038  0.83356565  0.66643742
   0.00001842  0.16668113  0.00043647
   0.00000325  0.16667726  0.33332320
   0.00000324  0.16667431  0.66622746
   0.00000207  0.50426806  0.99573200
   0.00000109  0.49956386  0.33331885
   0.99999939  0.50425842  0.67093639
   0.00001798  0.82906357  0.99574170
   0.00000566  0.83377319  0.33332570
   0.00000443  0.82907629  0.67092368
   0.33299000  0.16667877  0.99975311
   0.33317004  0.16667192  0.33333318
   0.33298911  0.16667109  0.66690758
   0.33237383  0.50081202  0.99918837
   0.33298159  0.50024670  0.33332601
   0.33237041  0.50081436  0.66750174
   0.33238026  0.83249540  0.99918655
   0.33298988  0.83309235  0.33333237
   0.33237826  0.83250150  0.66749628
   0.66702936  0.16667164  0.99975342
   0.66683806  0.16666837  0.33332937
   0.66701814  0.16666862  0.66691085
   0.66763483  0.50081188  0.99918846
   0.66702101  0.50024740  0.33332433
   0.66763075  0.50081408  0.66750237
   0.66764034  0.83250112  0.99918637
   0.66701843  0.83309219  0.33332875
   0.66762928  0.83250283  0.66749963
   0.00001913  0.99925910  0.16591942
   0.00000155  0.99927851  0.50072185
   0.00001919  0.00318294  0.83333959
   0.00000366  0.33408267  0.16591745
   0.99999933  0.33408085  0.50074120
   0.00000342  0.33012636  0.83333086
   0.00000568  0.66666951  0.16987373
   0.00000116  0.66666076  0.49681689
   0.33301666  0.99968491  0.16634463
   0.33300240  0.99968529  0.50031686
   0.33259493  0.99925734  0.83333326
   0.33301406  0.33366214  0.16634100
   0.33300734  0.33366030  0.50031758
   0.33259434  0.33407941  0.83333628
   0.33259543  0.66666174  0.16592395
   0.33258605  0.66666351  0.50074308
   0.33647331  0.66664868  0.83334891
   0.66700321  0.99968321  0.16633786
   0.66700669  0.99968351  0.50031653
   0.66742550  0.99925700  0.83334002
   0.66699367  0.33365841  0.16633931
   0.66699427  0.33365864  0.50031692
   0.66741260  0.33407570  0.83333802
   0.66741350  0.66666501  0.16592203
   0.66741649  0.66666446  0.50074234
   0.66353413  0.66665208  0.83335095
   0.16642334  0.16667301  0.16631679
   0.16641597  0.16667642  0.50034112
   0.16710621  0.16667265  0.83333476
   0.16583095  0.50083184  0.16571387
   0.16582857  0.50082554  0.50094239
   0.16236828  0.50425877  0.83333985
   0.16584275  0.83251462  0.16571948
   0.16582950  0.83251008  0.50094115
   0.16238196  0.82906179  0.83333933
   0.50000580  0.16667440  0.16649720
   0.50000299  0.16667768  0.50016268
   0.50000560  0.16667167  0.83333503
   0.50000298  0.50024696  0.16632028
   0.50000071  0.50023715  0.50033167
   0.50000262  0.49956499  0.83333294
   0.50000582  0.83308999  0.16631799
   0.50000271  0.83308159  0.50033967
   0.50000565  0.83376684  0.83334023
   0.83359797  0.16666783  0.16631245
   0.83358580  0.16667356  0.50034069
   0.83291499  0.16666805  0.83333927
   0.83417319  0.50083219  0.16571208
   0.83417288  0.50082590  0.50094176
   0.83763286  0.50425873  0.83334153
   0.83418070  0.83251771  0.16571534
   0.83417471  0.83251068  0.50094086
   0.83764217  0.82906494  0.83334347
   0.16585036  0.99905814  0.99917465
   0.16642164  0.99966134  0.33332925
   0.16583338  0.99905932  0.66748674
   0.16583473  0.33429056  0.99916806
   0.16641345  0.33368664  0.33333115
   0.16583124  0.33428406  0.66748367
   0.16237490  0.66665650  0.99574155
   0.16709860  0.66666275  0.33333084
   0.16237064  0.66665775  0.67093587
   0.50000684  0.99966871  0.99976337
   0.50000624  0.99983939  0.33332349
   0.50000595  0.99966052  0.66691944
   0.50000592  0.33368017  0.99975336
   0.50000222  0.33350354  0.33332671
   0.50000148  0.33368273  0.66691116
   0.50000613  0.66666739  0.00043554
   0.50000159  0.66666581  0.33332854
   0.50000183  0.66666013  0.66623312
   0.83419452  0.99905796  0.99917477
   0.83359118  0.99965902  0.33332189
   0.83417875  0.99905867  0.66749361
   0.83417697  0.33428382  0.99916833
   0.83358828  0.33368497  0.33332903
   0.83416960  0.33428199  0.66748517
   0.83763946  0.66666235  0.99574145
   0.83290702  0.66666433  0.33332856
   0.83763098  0.66665976  0.67093743
 
 position of ions in cartesian coordinates  (Angst):
   0.00038700  0.02361428  0.01975401
   0.00007313  0.00484676  4.02624130
   0.00006559  0.02377803  8.03303087
   0.00006660  4.00323817  0.01962251
  12.07889247  4.02188037  4.02639762
  12.07888950  4.00334694  8.03304739
   0.00008276  8.05233124  0.20435817
   0.00003748  8.05236438  4.02649680
  12.07889602  8.05253736  7.84989650
   4.02869043  0.00232891  0.00456698
   4.02843717  0.00203891  4.02650236
   4.02871217  0.00231345  8.04789955
   4.02872372  4.02439022  0.00461175
   4.02845696  4.02472987  4.02653587
   4.02875874  4.02444156  8.04783307
   4.04954453  8.05221780  0.01983649
   4.03122626  8.05232983  4.02655386
   4.04938434  8.05222295  8.03332138
   8.05049319  0.00231429  0.00456121
   8.05061867  0.00199394  4.02640188
   8.05033058  0.00230422  8.04798199
   8.05032307  4.02428651  0.00461074
   8.05048231  4.02471482  4.02651475
   8.05016434  4.02441901  8.04783986
   8.02950414  8.05229699  0.01983353
   8.04771651  8.05234120  4.02653307
   8.02955305  8.05223350  8.03332827
   0.00015653  2.01305411  2.01757193
  12.07889500  2.01321073  6.03461094
   0.00015880  2.01295372 10.06599472
   0.00001280  6.01983177  2.03621373
   0.00001056  6.01969961  6.01583371
  12.07889278  5.83509217 10.06601930
   0.00017199 10.08530531  2.03610600
   0.00001734 10.08532637  6.01567055
   0.00017467 10.26845194 10.06581483
   4.02852423  2.01297243  2.01476096
   4.02837625  2.01303181  6.03746677
   4.03128604  2.01293777 10.06599671
   4.02867498  6.03484066  2.01512969
   4.02855582  6.03489178  6.03713883
   4.04949013  6.01962517 10.06609098
   4.02883985 10.07051082  2.01505916
   4.02866410 10.07042058  6.03714510
   4.04944016 10.08500258 10.06610735
   8.05054665  2.01290156  2.01470903
   8.05056082  2.01299041  6.03745570
   8.04778233  2.01287962 10.06605015
   8.05027407  6.03484160  2.01510390
   8.05036336  6.03489356  6.03712623
   8.02944817  6.01962129 10.06610349
   8.05023988 10.07054319  2.01500062
   8.05027972 10.07042196  6.03713657
   8.02960747 10.08504679 10.06614759
   2.01763327  0.00238103  2.01521158
   2.01750670  0.00233320  6.03714219
   2.03242925  0.02376654 10.06591753
   2.01740879  4.02436667  2.01512868
   2.01742527  4.02431828  6.03709403
   2.03238028  4.00324190 10.06579186
   2.03240356  8.05252560  2.03626198
   2.03225040  8.05238018  6.01569911
   2.21485362  8.05222902 10.06608603
   6.03953441  0.00200659  2.01495630
   6.03951996  0.00195981  6.03750677
   6.03952818  0.00473366 10.06585646
   6.03949494  4.02462132  2.01483498
   6.03946031  4.02450357  6.03746236
   6.03948963  4.02185871 10.06590415
   6.03949249  8.05245381  2.01759759
   6.03945858  8.05250182  6.03471480
   6.03949268  8.05239749 10.06595491
  10.06167307  0.00235828  2.01508757
  10.06144301  0.00231078  6.03713038
  10.04686622  0.02375719 10.06602121
  10.06155941  4.02431163  2.01509657
  10.06147066  4.02429379  6.03708531
  10.04658363  4.00317590 10.06582224
  10.04660697  8.05257003  2.03622880
  10.04668376  8.05239628  6.01567497
   9.86413416  8.05228036 10.06610825
   2.01573809  2.01311725  0.00270690
   2.01503924  2.01296450  4.02654883
   2.01550592  2.01295429  8.04963208
   2.01553247  6.03679837  0.00265838
   2.01555326  6.03673883  4.02641246
   2.01531569  6.03678911  8.04984497
   2.01552096 10.06845696  0.00267425
   2.01553278 10.06870483  4.02654541
   2.01531523 10.06853168  8.04978539
   6.03953361  2.01316031  0.00220094
   6.03950142  2.01302260  4.02644856
   6.03948984  2.01300380  8.05025063
   6.03952167  6.03680547  0.00264941
   6.03946195  6.03725361  4.02629463
   6.03945753  6.03678864  8.04985305
   6.03953197 10.06850005  0.00266940
   6.03948865 10.06812190  4.02645159
   6.03948755 10.06855129  8.04980027
  10.06356346  2.01298750  0.00271032
  10.06392377  2.01291513  4.02649237
  10.06345651  2.01291801  8.04967836
  10.06341915  6.03679511  0.00265292
  10.06337859  6.03675053  4.02638636
  10.06357995  6.03678779  8.04985446
  10.06377981 10.06854837  0.00266161
  10.06347617 10.06870858  4.02648653
  10.06366122 10.06855641  8.04983112
   0.00022249  2.01332470  0.00527211
   0.00003932  2.01327803  4.02617777
   0.00003909  2.01324240  8.04729511
   0.00002499  6.09100366 12.02734764
   0.00001313  6.03418204  4.02612520
  12.07889300  6.09088723  8.10417381
   0.00021723 10.01417626 12.02746480
   0.00006833 10.07106324  4.02620787
   0.00005349 10.01432983  8.10402027
   4.02215305  2.01329624 12.07591821
   4.02432771  2.01321347  4.02629831
   4.02214231  2.01320346  8.05551024
   4.01471034  6.04925844 12.06909672
   4.02205147  6.04243003  4.02621162
   4.01466906  6.04928679  8.06268702
   4.01478802 10.05562898 12.06907480
   4.02215153 10.06283947  4.02628848
   4.01476388 10.05570270  8.06262100
   8.05698121  2.01321019 12.07592195
   8.05467042  2.01317060  4.02625228
   8.05684561  2.01317366  8.05554973
   8.06429457  6.04925682 12.06909783
   8.05688029  6.04243847  4.02619137
   8.06424529  6.04928331  8.06269456
   8.06436111 10.05569808 12.06907259
   8.05684913 10.06283750  4.02624475
   8.06422751 10.05571874  8.06266156
   0.00023104 12.06995107  2.00412413
   0.00001868 12.07018550  6.04816928
   0.00023177  0.03844646 10.06582584
   0.00004419  4.03535130  2.00410037
  12.07889224  4.03532926  6.04840302
   0.00004129  3.98756336 10.06572040
   0.00006857  8.05263455  2.05188787
   0.00001399  8.05252891  6.00100174
   4.02247501 12.07509441  2.00926026
   4.02230276 12.07509896  6.04327753
   4.01738096 12.06992984 10.06574939
   4.02244367  4.03027172  2.00921633
   4.02236242  4.03024955  6.04328613
   4.01737386  4.03531190 10.06578584
   4.01738707  8.05254075  2.00417890
   4.01727374  8.05256209  6.04842570
   4.06422764  8.05238294 10.06593839
   8.05666528 12.07507384  2.00917845
   8.05670737 12.07507750  6.04327347
   8.06176614 12.06992576 10.06583110
   8.05655002  4.03022667  2.00919595
   8.05655727  4.03022949  6.04327817
   8.06161023  4.03526709 10.06580688
   8.06162113  8.05258019  2.00415566
   8.06165730  8.05257357  6.04841686
   8.01476263  8.05242398 10.06596310
   2.01021096  2.01322671  2.00892388
   2.01012189  2.01326792  6.04357049
   2.01845928  2.01322237 10.06576751
   2.00305546  6.04949792  2.00164130
   2.00302681  6.04942184  6.05083317
   1.96123022  6.09089141 10.06582898
   2.00319810 10.05586116  2.00170903
   2.00303799 10.05580624  6.05081825
   1.96139552 10.01415470 10.06582270
   6.03952024  2.01324350  2.01110303
   6.03948627  2.01328303  6.04141521
   6.03951780  2.01321053 10.06577074
   6.03948621  6.04243314  2.00896613
   6.03945879  6.04231468  6.04345643
   6.03948176  6.03419575 10.06574552
   6.03952050 10.06281091  2.00893841
   6.03948286 10.06270945  6.04355303
   6.03951839 10.07098655 10.06583364
  10.06894686  2.01316407  2.00887152
  10.06879977  2.01323336  6.04356538
  10.06069721  2.01316680 10.06582202
  10.07589487  6.04950207  2.00161973
  10.07589104  6.04942613  6.05082556
  10.11768385  6.09089092 10.06584932
  10.07598552 10.05589847  2.00165902
  10.07591318 10.05581350  6.05081473
  10.11779631 10.01419284 10.06587267
   2.00328993 12.06752366 12.06893103
   2.01019036 12.07480973  4.02625079
   2.00308482 12.06753793  8.06250583
   2.00310116  4.03786235 12.06885143
   2.01009152  4.03056765  4.02627372
   2.00305897  4.03778384  8.06246878
   1.96131021  8.05247740 12.02746290
   2.01836735  8.05255297  4.02626999
   1.96125874  8.05249251  8.10416746
   6.03953276 12.07489872 12.07604215
   6.03952559 12.07696034  4.02618121
   6.03952199 12.07479983  8.05565344
   6.03952168  4.03048951 12.07592114
   6.03947695  4.02835596  4.02622006
   6.03946805  4.03052038  8.05555347
   6.03952421  8.05260892  0.00526089
   6.03946932  8.05258991  4.02624223
   6.03947233  8.05252126  8.04736344
  10.07615243 12.06752150 12.06893250
  10.06886484 12.07478172  4.02616189
  10.07596197 12.06753011  8.06258885
  10.07594050  4.03778094 12.06885463
  10.06882975  4.03054750  4.02624814
  10.07585148  4.03775879  8.06248685
  10.11776356  8.05254809 12.02746179
  10.06060083  8.05257204  4.02624251
  10.11766109  8.05251681  8.10418637
 


--------------------------------------------------------------------------------------------------------


 k-point   1 :   0.0000 0.0000 0.0000  plane waves:   31919

 maximum and minimum number of plane-waves per node :     31919    31919

 maximum number of plane-waves:     31919
 maximum index in each direction: 
   IXMAX=   19   IYMAX=   19   IZMAX=   19
   IXMIN=  -19   IYMIN=  -19   IZMIN=  -19


 serial   3D FFT for wavefunctions
 parallel 3D FFT for charge:
    minimum data exchange during FFTs selected (reduces bandwidth)


 total amount of memory used by VASP MPI-rank0   824309. kBytes
=======================================================================

   base      :      30000. kBytes
   nonl-proj :     113890. kBytes
   fftplans  :      71598. kBytes
   grid      :     206643. kBytes
   one-center:       1320. kBytes
   wavefun   :     400858. kBytes
 
     INWAV:  cpu time      0.4084: real time      0.4106
 Broyden mixing: mesh for mixing (old mesh)
   NGX = 39   NGY = 39   NGZ = 39
  (NGX  =160   NGY  =160   NGZ  =160)
  gives a total of  59319 points

 initial charge density was supplied:
 charge density of overlapping atoms calculated
 number of electron    1073.0000000 magnetization     215.0000000
 keeping initial charge density in first step


--------------------------------------------------------------------------------------------------------


 Maximum index for augmentation-charges          1837 (set IRDMAX)


--------------------------------------------------------------------------------------------------------


 First call to EWALD:  gamma=   0.147
 Maximum number of real-space cells 3x 3x 3
 Maximum number of reciprocal cells 3x 3x 3

    FEWALD:  cpu time      0.1923: real time      0.1929


--------------------------------------- Ionic step        1  -------------------------------------------




--------------------------------------- Iteration      1(   1)  ---------------------------------------


    POTLOK:  cpu time      0.1711: real time      0.1816
    SETDIJ:  cpu time      0.6200: real time      0.6220
     EDDAV:  cpu time      6.8475: real time      6.8783
       DOS:  cpu time      0.0004: real time      0.0004
    CHARGE:  cpu time      0.3549: real time      0.3564
    MIXING:  cpu time      0.0447: real time      0.0449
    --------------------------------------------
      LOOP:  cpu time      8.0386: real time      8.0835

 eigenvalue-minimisations  :  3584
 total energy-change (2. order) :-0.9523678E+03  (-0.1986110E+02)
 number of electron    1071.9999957 magnetization     141.7412677
 augmentation part      255.6428623 magnetization     141.4997360

 Broyden mixing:
  rms(total) = 0.13279E+02    rms(broyden)= 0.13269E+02
  rms(prec ) = 0.13627E+02
  weight for this iteration     100.00

 Free energy of the ion-electron system (eV)
  ---------------------------------------------------
  alpha Z        PSCENC =      2139.14908826
  Ewald energy   TEWEN  =    -59366.85858413
  -Hartree energ DENC   =    -23111.69666818
  -exchange      EXHF   =         0.00000000
  -V(xc)+E(xc)   XCENC  =      5397.23785432
  PAW double counting   =     66267.36392248   -68469.43131269
  entropy T*S    EENTRO =        -0.00000000
  eigenvalues    EBANDS =    -16260.11516557
  atomic energy  EATOM  =     92451.98304323
  Solvation  Ediel_sol  =         0.00000000
  ---------------------------------------------------
  free energy    TOTEN  =      -952.36782230 eV

  energy without entropy =     -952.36782230  energy(sigma->0) =     -952.36782230


--------------------------------------------------------------------------------------------------------




--------------------------------------- Iteration      1(   2)  ---------------------------------------


    POTLOK:  cpu time      0.0849: real time      0.0856
    SETDIJ:  cpu time      0.5636: real time      0.5657
     EDDAV:  cpu time      6.2720: real time      6.2988
       DOS:  cpu time      0.0003: real time      0.0003
[...]
     12.07889      4.00335      8.03305         0.000056     -0.003461      0.001822
      0.00008      8.05233      0.20436         0.000010     -0.000047      0.002102
      0.00004      8.05236      4.02650        -0.000008      0.000062      0.000389
     12.07890      8.05254      7.84990         0.000043     -0.000118     -0.001481
      4.02869      0.00233      0.00457         0.000300      0.000193      0.001732
      4.02844      0.00204      4.02650        -0.001069     -0.000971     -0.000128
      4.02871      0.00231      8.04790         0.000427      0.000091     -0.001442
      4.02872      4.02439      0.00461         0.000345     -0.000623      0.001893
      4.02846      4.02473      4.02654        -0.001012      0.000996     -0.000088
      4.02876      4.02444      8.04783         0.000411     -0.000464     -0.001750
      4.04954      8.05222      0.01984         0.002216      0.000053     -0.001788
      4.03123      8.05233      4.02655         0.006604      0.000026      0.000013
      4.04938      8.05222      8.03332         0.002228      0.000003      0.002859
      8.05049      0.00231      0.00456        -0.000377      0.000202      0.001721
      8.05062      0.00199      4.02640         0.001050     -0.000902      0.000022
      8.05033      0.00230      8.04798        -0.000431      0.000093     -0.001585
      8.05032      4.02429      0.00461        -0.000360     -0.000454      0.001880
      8.05048      4.02471      4.02651         0.001060      0.000992     -0.000083
      8.05016      4.02442      8.04784        -0.000348     -0.000453     -0.001752
      8.02950      8.05230      0.01983        -0.002241     -0.000092     -0.001803
      8.04772      8.05234      4.02653        -0.006546      0.000021      0.000014
      8.02955      8.05223      8.03333        -0.002173     -0.000001      0.002848
      0.00016      2.01305      2.01757        -0.000086      0.000262      0.006710
     12.07889      2.01321      6.03461         0.000053      0.000048     -0.007195
      0.00016      2.01295     10.06599        -0.000087     -0.000387     -0.000064
      0.00001      6.01983      2.03621         0.000039      0.001552      0.003077
      0.00001      6.01970      6.01583        -0.000044      0.002064     -0.003629
     12.07889      5.83509     10.06602         0.000046     -0.002097      0.000046
      0.00017     10.08531      2.03611        -0.000093     -0.001821      0.003465
      0.00002     10.08533      6.01567         0.000036     -0.002806     -0.003533
      0.00017     10.26845     10.06581        -0.000075      0.001484      0.000121
      4.02852      2.01297      2.01476        -0.001031      0.000034     -0.001022
      4.02838      2.01303      6.03747        -0.001000      0.000017      0.000900
      4.03129      2.01294     10.06600         0.006582     -0.000039      0.000009
      4.02867      6.03484      2.01513         0.000406     -0.001879      0.000526
      4.02856      6.03489      6.03714         0.000353     -0.001722     -0.000196
      4.04949      6.01963     10.06609         0.002293      0.001796      0.000041
      4.02884     10.07051      2.01506         0.000381      0.001766      0.000421
      4.02866     10.07042      6.03715         0.000484      0.001513     -0.000080
      4.04944     10.08500     10.06611         0.002206     -0.002810      0.000037
      8.05055      2.01290      2.01471         0.001046      0.000123     -0.000965
      8.05056      2.01299      6.03746         0.001117      0.000074      0.000910
      8.04778      2.01288     10.06605        -0.006578      0.000017     -0.000062
      8.05027      6.03484      2.01510        -0.000296     -0.001883      0.000550
      8.05036      6.03489      6.03713        -0.000334     -0.001726     -0.000193
      8.02945      6.01962     10.06610        -0.002164      0.001791      0.000003
      8.05024     10.07054      2.01500        -0.000373      0.001716      0.000485
      8.05028     10.07042      6.03714        -0.000371      0.001505     -0.000081
      8.02961     10.08505     10.06615        -0.002193     -0.002881     -0.000034
      2.01763      0.00238      2.01521         0.001460      0.000198      0.000350
      2.01751      0.00233      6.03714         0.001637      0.000346     -0.000361
      2.03243      0.02377     10.06592        -0.002496      0.003534      0.000107
      2.01741      4.02437      2.01513         0.001644     -0.000265      0.000231
      2.01743      4.02432      6.03709         0.001622     -0.000462     -0.000212
      2.03238      4.00324     10.06579        -0.001565     -0.003631     -0.000239
      2.03240      8.05253      2.03626        -0.001583      0.000283      0.003613
      2.03225      8.05238      6.01570        -0.002384     -0.000000     -0.003528
      2.21485      8.05223     10.06609         0.000650     -0.000253      0.000315
      6.03953      0.00201      2.01496         0.000021     -0.000864     -0.001060
      6.03952      0.00196      6.03751        -0.000016     -0.000938      0.000928
      6.03953      0.00473     10.06586         0.000028      0.006768      0.000018
      6.03949      4.02462      2.01483         0.000037      0.001024     -0.001023
      6.03946      4.02450      6.03746         0.000037      0.001061      0.000851
      6.03949      4.02186     10.06590         0.000039     -0.006585     -0.000094
      6.03949      8.05245      2.01760         0.000046      0.000095      0.006586
      6.03946      8.05250      6.03471         0.000042     -0.000016     -0.006759
      6.03949      8.05240     10.06595         0.000038     -0.000099      0.000106
     10.06167      0.00236      2.01509        -0.001754      0.000212      0.000547
     10.06144      0.00231      6.03713        -0.001539      0.000365     -0.000355
     10.04687      0.02376     10.06602         0.002251      0.003502     -0.000077
     10.06156      4.02431      2.01510        -0.001532     -0.000211      0.000255
     10.06147      4.02429      6.03709        -0.001600     -0.000430     -0.000211
     10.04658      4.00318     10.06582         0.001667     -0.003593     -0.000276
     10.04661      8.05257      2.03623         0.001655      0.000234      0.003615
     10.04668      8.05240      6.01567         0.002363     -0.000024     -0.003501
      9.86413      8.05228     10.06611        -0.000548     -0.000325      0.000271
      2.01574      2.01312      0.00271         0.003432      0.000131      0.003562
      2.01504      2.01296      4.02655         0.003424      0.000061     -0.000115
      2.01551      2.01295      8.04963         0.003620      0.000130     -0.003747
      2.01553      6.03680      0.00266        -0.001458      0.001579     -0.001575
      2.01555      6.03674      4.02641         0.003577     -0.003541     -0.000243
      2.01532      6.03679      8.04984        -0.001583      0.001774      0.000865
      2.01552     10.06846      0.00267        -0.001737     -0.000764     -0.001762
      2.01553     10.06870      4.02655         0.003595      0.003762     -0.000162
      2.01532     10.06853      8.04979        -0.001446     -0.000774      0.000824
      6.03953      2.01316      0.00220         0.000017      0.000044      0.003304
      6.03950      2.01302      4.02645         0.000023      0.000084     -0.000103
      6.03949      2.01300      8.05025         0.000042      0.000017     -0.003397
      6.03952      6.03681      0.00265        -0.000018     -0.003463      0.003469
      6.03946      6.03725      4.02629         0.000037     -0.003300     -0.000039
      6.03946      6.03679      8.04985         0.000040     -0.003374     -0.003495
      6.03953     10.06850      0.00267         0.000020      0.003499      0.003376
      6.03949     10.06812      4.02645         0.000049      0.003379     -0.000012
      6.03949     10.06855      8.04980         0.000044      0.003389     -0.003380
     10.06356      2.01299      0.00271        -0.003742      0.000338      0.003549
     10.06392      2.01292      4.02649        -0.003309      0.000109     -0.000068
     10.06346      2.01292      8.04968        -0.003523      0.000154     -0.003802
     10.06342      6.03680      0.00265         0.001550      0.001585     -0.001583
     10.06338      6.03675      4.02639        -0.003599     -0.003566     -0.000220
     10.06358      6.03679      8.04985         0.001603      0.001765      0.000834
     10.06378     10.06855      0.00266         0.001455     -0.000934     -0.001772
     10.06348     10.06871      4.02649        -0.003536      0.003766     -0.000114
     10.06366     10.06856      8.04983         0.001554     -0.000802      0.000763
      0.00022      2.01332      0.00527        -0.000214      0.000083     -0.003793
      0.00004      2.01328      4.02618         0.000045      0.000137     -0.000138
      0.00004      2.01324      8.04730         0.000035      0.000114      0.003722
      0.00002      6.09100     12.02735         0.000056     -0.000461      0.000462
      0.00001      6.03418      4.02613         0.000000      0.003791     -0.000079
     12.07889      6.09089      8.10417         0.000033     -0.000538      0.000122
      0.00022     10.01418     12.02746        -0.000180     -0.000120      0.000541
      0.00007     10.07106      4.02621         0.000002     -0.003725     -0.000108
      0.00005     10.01433      8.10402         0.000033      0.000152     -0.000148
      4.02215      2.01330     12.07592         0.002819     -0.000066      0.001643
      4.02433      2.01321      4.02630        -0.000487     -0.000001     -0.000062
      4.02214      2.01320      8.05551         0.002947      0.000012     -0.001705
      4.01471      6.04926     12.06910        -0.000654     -0.001874      0.001878
      4.02205      6.04243      4.02621         0.002894     -0.001619     -0.000016
      4.01467      6.04929      8.06269        -0.000780     -0.001897     -0.001928
      4.01479     10.05563     12.06907        -0.000874      0.002018      0.001900
      4.02215     10.06284      4.02629         0.002941      0.001699     -0.000039
      4.01476     10.05570      8.06262        -0.000897      0.001900     -0.001857
      8.05698      2.01321     12.07592        -0.002919      0.000082      0.001628
      8.05467      2.01317      4.02625         0.000524      0.000055     -0.000026
      8.05685      2.01317      8.05555        -0.002900      0.000039     -0.001745
      8.06429      6.04926     12.06910         0.000663     -0.001875      0.001872
      8.05688      6.04244      4.02619        -0.002848     -0.001641      0.000003
      8.06425      6.04928      8.06269         0.000841     -0.001894     -0.001954
      8.06436     10.05570     12.06907         0.000752      0.001868      0.001887
      8.05685     10.06284      4.02624        -0.002896      0.001714     -0.000009
      8.06423     10.05572      8.06266         0.000948      0.001878     -0.001905
      0.00023     12.06995      2.00412        -0.000220      0.002927      0.002909
      0.00002     12.07019      6.04817         0.000066      0.002874     -0.002870
      0.00023      0.03845     10.06583        -0.000222     -0.001308     -0.000025
      0.00004      4.03535      2.00410         0.000038     -0.002934      0.002937
     12.07889      4.03533      6.04840         0.000031     -0.002907     -0.002926
      0.00004      3.98756     10.06572         0.000034     -0.001776     -0.000030
      0.00007      8.05263      2.05189         0.000010      0.000029      0.001781
      0.00001      8.05253      6.00100         0.000003      0.000028      0.001311
      4.02248     12.07509      2.00926        -0.001167     -0.001171     -0.001314
      4.02230     12.07510      6.04328        -0.001125     -0.001224      0.001202
      4.01738     12.06993     10.06575         0.002561      0.002419      0.000156
      4.02244      4.03027      2.00922        -0.001161      0.001147     -0.001171
      4.02236      4.03025      6.04329        -0.001086      0.001227      0.001143
      4.01737      4.03531     10.06579         0.002791     -0.002734      0.000040
      4.01739      8.05254      2.00418         0.002779     -0.000005      0.002709
      4.01727      8.05256      6.04843         0.002640     -0.000063     -0.002400
      4.06423      8.05238     10.06594        -0.000878     -0.000174      0.000214
      8.05667     12.07507      2.00918         0.001065     -0.001150     -0.001173
      8.05671     12.07508      6.04327         0.001129     -0.001196      0.001201
      8.06177     12.06993     10.06583        -0.002682      0.002401     -0.000014
      8.05655      4.03023      2.00920         0.001210      0.001186     -0.001158
      8.05656      4.03023      6.04328         0.001140      0.001256      0.001149
      8.06161      4.03527     10.06581        -0.002740     -0.002702      0.000010
      8.06162      8.05258      2.00416        -0.002749     -0.000047      0.002723
      8.06166      8.05257      6.04842        -0.002603     -0.000080     -0.002400
      8.01476      8.05242     10.06596         0.000942     -0.000216      0.000183
      2.01021      2.01323      2.00892         0.001580      0.000049      0.002720
      2.01012      2.01327      6.04357         0.001805      0.000051     -0.002986
      2.01846      2.01322     10.06577        -0.003800     -0.000021     -0.000099
      2.00306      6.04950      2.00164         0.002068     -0.001779     -0.000662
      2.00303      6.04942      6.05083         0.002151     -0.001985      0.000279
      1.96123      6.09089     10.06583        -0.000133     -0.000383     -0.000266
      2.00320     10.05586      2.00171         0.001892      0.002021     -0.000828
      2.00304     10.05581      6.05082         0.002200      0.002106      0.000367
      1.96140     10.01415     10.06582        -0.000091     -0.000206     -0.000330
      6.03952      2.01324      2.01110         0.000027      0.000033     -0.000625
      6.03949      2.01328      6.04142         0.000030      0.000021      0.000496
      6.03952      2.01321     10.06577         0.000028      0.000052     -0.000057
      6.03949      6.04243      2.00897         0.000036     -0.001590      0.002765
      6.03946      6.04231      6.04346         0.000028     -0.001637     -0.002930
      6.03948      6.03420     10.06575         0.000035      0.003974      0.000006
      6.03952     10.06281      2.00894         0.000028      0.001719      0.002717
      6.03948     10.06271      6.04355         0.000039      0.001808     -0.002789
      6.03952     10.07099     10.06583         0.000022     -0.004197      0.000025
     10.06895      2.01316      2.00887        -0.001724      0.000140      0.002802
     10.06880      2.01323      6.04357        -0.001694      0.000095     -0.002985
     10.06070      2.01317     10.06582         0.003641      0.000050     -0.000199
     10.07589      6.04950      2.00162        -0.001989     -0.001793     -0.000641
     10.07589      6.04943      6.05083        -0.002192     -0.001997      0.000279
     10.11768      6.09089     10.06585         0.000222     -0.000396     -0.000302
     10.07599     10.05590      2.00166        -0.002060      0.001950     -0.000762
     10.07591     10.05581      6.05081        -0.002125      0.002095      0.000360
     10.11780     10.01419     10.06587        -0.000041     -0.000307     -0.000426
      2.00329     12.06752     12.06893         0.001875     -0.000264      0.002006
      2.01019     12.07481      4.02625         0.001744      0.002953     -0.000160
      2.00308     12.06754      8.06251         0.002167     -0.000353     -0.002011
      2.00310      4.03786     12.06885         0.002034      0.000575      0.001797
      2.01009      4.03057      4.02627         0.001692     -0.002766     -0.000105
      2.00306      4.03778      8.06247         0.002019      0.000786     -0.001976
      1.96131      8.05248     12.02746        -0.000182      0.000357      0.000403
      2.01837      8.05255      4.02627        -0.003720      0.000157     -0.000020
      1.96126      8.05249      8.10417         0.000009      0.000398      0.000284
      6.03953     12.07490     12.07604         0.000050      0.002933      0.001640
      6.03953     12.07696      4.02618        -0.000015     -0.000522     -0.000029
      6.03952     12.07480      8.05565        -0.000011      0.002797     -0.001813
      6.03952      4.03049     12.07592        -0.000011     -0.002763      0.001594
      6.03948      4.02836      4.02622         0.000027      0.000624     -0.000041
      6.03947      4.03052      8.05555         0.000039     -0.002719     -0.001728
      6.03952      8.05261      0.00526        -0.000019     -0.000002     -0.003972
      6.03947      8.05259      4.02624         0.000052      0.000054     -0.000048
      6.03947      8.05252      8.04736         0.000035     -0.000021      0.004206
     10.07615     12.06752     12.06893        -0.002471     -0.000287      0.001981
     10.06886     12.07478      4.02616        -0.001749      0.002994      0.000011
     10.07596     12.06753      8.06259        -0.002163     -0.000357     -0.002192
     10.07594      4.03778     12.06885        -0.002023      0.000733      0.001780
     10.06883      4.03055      4.02625        -0.001617     -0.002757     -0.000088
     10.07585      4.03776      8.06249        -0.001941      0.000805     -0.002002
     10.11776      8.05255     12.02746         0.000172      0.000214      0.000385
     10.06060      8.05257      4.02624         0.003727      0.000134     -0.000002
     10.11766      8.05252      8.10419         0.000055      0.000365      0.000234
 -----------------------------------------------------------------------------------
    total drift:                                0.000215     -0.015584      0.015494


--------------------------------------------------------------------------------------------------------



  FREE ENERGIE OF THE ION-ELECTRON SYSTEM (eV)
  ---------------------------------------------------
  free  energy   TOTEN  =     -1044.55142774 eV

  energy  without entropy=    -1044.55142774  energy(sigma->0) =    -1044.55142774
 


--------------------------------------------------------------------------------------------------------


    POTLOK:  cpu time      0.6857: real time      0.6883


--------------------------------------------------------------------------------------------------------




--------------------------------------------------------------------------------------------------------


  
 reached required accuracy - stopping structural energy minimisation
 writing wavefunctions
     LOOP+:  cpu time    275.2470: real time    276.8324
    4ORBIT:  cpu time      0.0000: real time      0.0000

 total amount of memory used by VASP MPI-rank0   824309. kBytes
=======================================================================

   base      :      30000. kBytes
   nonl-proj :     113890. kBytes
   fftplans  :      71598. kBytes
   grid      :     206643. kBytes
   one-center:       1320. kBytes
   wavefun   :     400858. kBytes
 
  
  
 General timing and accounting informations for this job:
 ========================================================
  
                  Total CPU time used (sec):      296.946
                            User time (sec):      293.283
                          System time (sec):        3.663
                         Elapsed time (sec):      299.312
  
                   Maximum memory used (kb):     2307840.
                   Average memory used (kb):          N/A
  
                          Minor page faults:       234872
                          Major page faults:           64
                 Voluntary context switches:        29625
