  17  17   0   0
  0.1996859E+02  0.5111958E-09  0.5111958E-09  0.1500000E-08  0.0000000E+00
  1.000000000000000E-004
  CAR 
 TS                                      
     12.29237513    -17.13438779  301      2.13144659      1.00000000
    -17.134  0.0000E+00  0.0000E+00
    -17.036  0.0000E+00  0.0000E+00
    -16.938  0.0000E+00  0.0000E+00
    -16.840  0.0000E+00  0.0000E+00
    -16.742  0.0000E+00  0.0000E+00
    -16.644  0.0000E+00  0.0000E+00
    -16.546  0.0000E+00  0.0000E+00
    -16.448  0.0000E+00  0.0000E+00
    -16.350  0.0000E+00  0.0000E+00
    -16.252  0.0000E+00  0.0000E+00
    -16.153  0.0000E+00  0.0000E+00
    -16.055  0.0000E+00  0.0000E+00
    -15.957  0.0000E+00  0.0000E+00
    -15.859  0.0000E+00  0.0000E+00
    -15.761  0.5094E-01  0.4996E-02
    -15.663  0.0000E+00  0.5000E-02
    -15.565  0.0000E+00  0.5000E-02
    -15.467  0.0000E+00  0.5000E-02
    -15.369  0.0000E+00  0.5000E-02
    -15.271  0.0000E+00  0.5000E-02
    -15.173  0.0000E+00  0.5000E-02
    -15.075  0.0000E+00  0.5000E-02
    -14.976  0.0000E+00  0.5000E-02
    -14.878  0.0000E+00  0.5000E-02
    -14.780  0.0000E+00  0.5000E-02
    -14.682  0.0000E+00  0.5000E-02
    -14.584  0.0000E+00  0.5000E-02
    -14.486  0.0000E+00  0.5000E-02
    -14.388  0.0000E+00  0.5000E-02
    -14.290  0.0000E+00  0.5000E-02
    -14.192  0.0000E+00  0.5000E-02
    -14.094  0.0000E+00  0.5000E-02
    -13.996  0.0000E+00  0.5000E-02
    -13.897  0.0000E+00  0.5000E-02
    -13.799  0.0000E+00  0.5000E-02
    -13.701  0.0000E+00  0.5000E-02
    -13.603  0.0000E+00  0.5000E-02
    -13.505  0.0000E+00  0.5000E-02
    -13.407  0.0000E+00  0.5000E-02
    -13.309  0.0000E+00  0.5000E-02
    -13.211  0.0000E+00  0.5000E-02
    -13.113  0.0000E+00  0.5000E-02
    -13.015  0.0000E+00  0.5000E-02
    -12.917  0.0000E+00  0.5000E-02
    -12.818  0.0000E+00  0.5000E-02
    -12.720  0.0000E+00  0.5000E-02
    -12.622  0.0000E+00  0.5000E-02
    -12.524  0.0000E+00  0.5000E-02
    -12.426  0.0000E+00  0.5000E-02
    -12.328  0.0000E+00  0.5000E-02
    -12.230  0.0000E+00  0.5000E-02
    -12.132  0.0000E+00  0.5000E-02
    -12.034  0.0000E+00  0.5000E-02
    -11.936  0.0000E+00  0.5000E-02
    -11.838  0.0000E+00  0.5000E-02
    -11.739  0.0000E+00  0.5000E-02
    -11.641  0.0000E+00  0.5000E-02
    -11.543  0.0000E+00  0.5000E-02
    -11.445  0.0000E+00  0.5000E-02
    -11.347  0.0000E+00  0.5000E-02
    -11.249  0.0000E+00  0.5000E-02
    -11.151  0.0000E+00  0.5000E-02
    -11.053  0.0000E+00  0.5000E-02
    -10.955  0.0000E+00  0.5000E-02
    -10.857  0.0000E+00  0.5000E-02
    -10.759  0.0000E+00  0.5000E-02
    -10.660  0.0000E+00  0.5000E-02
    -10.562  0.0000E+00  0.5000E-02
    -10.464  0.0000E+00  0.5000E-02
    -10.366  0.0000E+00  0.5000E-02
    -10.268  0.0000E+00  0.5000E-02
    -10.170  0.0000E+00  0.5000E-02
    -10.072  0.0000E+00  0.5000E-02
     -9.974  0.0000E+00  0.5000E-02
     -9.876  0.0000E+00  0.5000E-02
     -9.778  0.0000E+00  0.5000E-02
     -9.680  0.0000E+00  0.5000E-02
     -9.582  0.0000E+00  0.5000E-02
     -9.483  0.0000E+00  0.5000E-02
     -9.385  0.0000E+00  0.5000E-02
     -9.287  0.0000E+00  0.5000E-02
     -9.189  0.0000E+00  0.5000E-02
     -9.091  0.0000E+00  0.5000E-02
     -8.993  0.0000E+00  0.5000E-02
     -8.895  0.0000E+00  0.5000E-02
     -8.797  0.0000E+00  0.5000E-02
     -8.699  0.0000E+00  0.5000E-02
     -8.601  0.0000E+00  0.5000E-02
     -8.503  0.0000E+00  0.5000E-02
     -8.404  0.0000E+00  0.5000E-02
     -8.306  0.0000E+00  0.5000E-02
     -8.208  0.0000E+00  0.5000E-02
     -8.110  0.0000E+00  0.5000E-02
     -8.012  0.0000E+00  0.5000E-02
     -7.914  0.0000E+00  0.5000E-02
     -7.816  0.0000E+00  0.5000E-02
     -7.718  0.0000E+00  0.5000E-02
     -7.620  0.0000E+00  0.5000E-02
     -7.522  0.0000E+00  0.5000E-02
     -7.424  0.0000E+00  0.5000E-02
     -7.325  0.0000E+00  0.5000E-02
     -7.227  0.0000E+00  0.5000E-02
     -7.129  0.0000E+00  0.5000E-02
     -7.031  0.0000E+00  0.5000E-02
     -6.933  0.0000E+00  0.5000E-02
     -6.835  0.0000E+00  0.5000E-02
     -6.737  0.2518E-12  0.5000E-02
     -6.639  0.6293E-03  0.5062E-02
     -6.541  0.3776E-02  0.5432E-02
     -6.443  0.6299E-10  0.5432E-02
     -6.345  0.3776E-02  0.5802E-02
     -6.246  0.3776E-02  0.6173E-02
     -6.148  0.0000E+00  0.6173E-02
     -6.050  0.1579E-05  0.6173E-02
     -5.952  0.7550E-02  0.6914E-02
     -5.854  0.1045E-03  0.6924E-02
     -5.756  0.0000E+00  0.7284E-02
     -5.658  0.0000E+00  0.7284E-02
     -5.560  0.2959E-02  0.7574E-02
     -5.462  0.7373E-02  0.8378E-02
     -5.364  0.5203E-03  0.8446E-02
     -5.266  0.3744E-02  0.8824E-02
     -5.168  0.3776E-02  0.9198E-02
     -5.069  0.3776E-02  0.9568E-02
     -4.971  0.3982E-02  0.9959E-02
     -4.873  0.2514E-02  0.1068E-01
     -4.775  0.8846E-02  0.1155E-01
     -4.677  0.2609E-15  0.1216E-01
     -4.579  0.3776E-02  0.1253E-01
     -4.481  0.2563E-02  0.1278E-01
     -4.383  0.2487E-02  0.1315E-01
     -4.285  0.1000E-01  0.1425E-01
     -4.187  0.8808E-02  0.1512E-01
     -4.089  0.2716E-02  0.1539E-01
     -3.990  0.7552E-02  0.1623E-01
     -3.892  0.6590E-02  0.1688E-01
     -3.794  0.2265E-06  0.1722E-01
     -3.696  0.6916E-02  0.1790E-01
     -3.598  0.1122E-01  0.1900E-01
     -3.500  0.1218E-01  0.2058E-01
     -3.402  0.5036E-02  0.2173E-01
     -3.304  0.1606E-01  0.2343E-01
     -3.206  0.1205E-01  0.2476E-01
     -3.108  0.4451E-02  0.2525E-01
     -3.010  0.1919E-01  0.2732E-01
     -2.911  0.4379E-01  0.3263E-01
     -2.813  0.1424E-01  0.3461E-01
     -2.715  0.3823E-01  0.3887E-01
     -2.617  0.1938E-01  0.4128E-01
     -2.519  0.4536E-01  0.4636E-01
     -2.421  0.4681E-01  0.5157E-01
     -2.323  0.3207E-01  0.5586E-01
     -2.225  0.2932E-01  0.5942E-01
     -2.127  0.3700E-01  0.6338E-01
     -2.029  0.6810E-01  0.7143E-01
     -1.931  0.6641E-01  0.7960E-01
     -1.832  0.7102E-01  0.8925E-01
     -1.734  0.5195E-01  0.9639E-01
     -1.636  0.4970E-01  0.1027E+00
     -1.538  0.6722E-01  0.1108E+00
     -1.440  0.6585E-01  0.1189E+00
     -1.342  0.8299E-01  0.1283E+00
     -1.244  0.8374E-01  0.1380E+00
     -1.146  0.7636E-01  0.1477E+00
     -1.048  0.7571E-01  0.1566E+00
     -0.950  0.1012E+00  0.1687E+00
     -0.852  0.1060E+00  0.1810E+00
     -0.753  0.1224E+00  0.1962E+00
     -0.655  0.1436E+00  0.2133E+00
     -0.557  0.1533E+00  0.2311E+00
     -0.459  0.1481E+00  0.2490E+00
     -0.361  0.8599E-01  0.2598E+00
     -0.263  0.6396E-01  0.2677E+00
     -0.165  0.1285E+00  0.2833E+00
     -0.067  0.1110E+00  0.2968E+00
      0.031  0.1042E+00  0.3088E+00
      0.129  0.1298E+00  0.3238E+00
      0.227  0.1284E+00  0.3401E+00
      0.325  0.1436E+00  0.3577E+00
      0.424  0.1346E+00  0.3731E+00
      0.522  0.1980E+00  0.3955E+00
      0.620  0.1513E+00  0.4146E+00
      0.718  0.7888E-01  0.4249E+00
      0.816  0.2805E-01  0.4284E+00
      0.914  0.2405E-01  0.4316E+00
      1.012  0.1631E-01  0.4342E+00
      1.110  0.1977E-01  0.4365E+00
      1.208  0.3041E-01  0.4400E+00
      1.306  0.8626E-02  0.4412E+00
      1.404  0.2284E-01  0.4437E+00
      1.503  0.6839E-02  0.4453E+00
      1.601  0.1690E-01  0.4473E+00
      1.699  0.5322E-02  0.4482E+00
      1.797  0.3556E-02  0.4490E+00
      1.895  0.1399E-01  0.4508E+00
      1.993  0.1323E-01  0.4522E+00
      2.091  0.2309E-01  0.4545E+00
      2.189  0.1680E-01  0.4563E+00
      2.287  0.6308E-02  0.4570E+00
      2.385  0.1773E-01  0.4590E+00
      2.483  0.5034E-02  0.4597E+00
      2.582  0.6208E-02  0.4603E+00
      2.680  0.4580E-02  0.4608E+00
      2.778  0.7671E-02  0.4617E+00
      2.876  0.2398E-01  0.4645E+00
      2.974  0.1446E-01  0.4661E+00
      3.072  0.8144E-02  0.4669E+00
      3.170  0.1938E-01  0.4689E+00
      3.268  0.1007E-01  0.4702E+00
      3.366  0.5308E-02  0.4707E+00
      3.464  0.4498E-02  0.4712E+00
      3.562  0.9676E-02  0.4726E+00
      3.661  0.1748E-01  0.4747E+00
      3.759  0.3464E-02  0.4755E+00
      3.857  0.7671E-02  0.4764E+00
      3.955  0.1109E-01  0.4777E+00
      4.053  0.7158E-02  0.4787E+00
      4.151  0.1128E-01  0.4804E+00
      4.249  0.8179E-02  0.4814E+00
      4.347  0.7503E-02  0.4822E+00
      4.445  0.2054E-01  0.4844E+00
      4.543  0.6504E-02  0.4851E+00
      4.641  0.1020E-01  0.4864E+00
      4.740  0.1260E-01  0.4878E+00
      4.838  0.1257E-01  0.4891E+00
      4.936  0.4580E-10  0.4891E+00
      5.034  0.1297E-01  0.4904E+00
      5.132  0.3386E-02  0.4912E+00
      5.230  0.1037E-01  0.4925E+00
      5.328  0.1162E-01  0.4937E+00
      5.426  0.5405E-02  0.4945E+00
      5.524  0.7147E-02  0.4956E+00
      5.622  0.1377E-01  0.4972E+00
      5.720  0.1259E-02  0.4975E+00
      5.818  0.4671E-02  0.4979E+00
      5.917  0.1090E-01  0.4992E+00
      6.015  0.7045E-02  0.4999E+00
      6.113  0.1156E-01  0.5011E+00
      6.211  0.3218E-02  0.5016E+00
      6.309  0.9417E-02  0.5026E+00
      6.407  0.1636E-01  0.5043E+00
      6.505  0.3110E-02  0.5047E+00
      6.603  0.5817E-02  0.5053E+00
      6.701  0.7301E-02  0.5061E+00
      6.799  0.6911E-02  0.5069E+00
      6.897  0.1134E-01  0.5080E+00
      6.996  0.1733E-01  0.5098E+00
      7.094  0.8323E-02  0.5112E+00
      7.192  0.1156E-01  0.5124E+00
      7.290  0.7049E-02  0.5133E+00
      7.388  0.7957E-02  0.5142E+00
      7.486  0.1067E-01  0.5154E+00
      7.584  0.2399E-01  0.5180E+00
      7.682  0.1084E-01  0.5199E+00
      7.780  0.1320E-01  0.5214E+00
      7.878  0.1566E-01  0.5233E+00
      7.976  0.6088E-02  0.5241E+00
      8.075  0.1566E-01  0.5259E+00
      8.173  0.1184E-01  0.5272E+00
      8.271  0.1340E-01  0.5292E+00
      8.369  0.8348E-02  0.5302E+00
      8.467  0.8569E-02  0.5318E+00
      8.565  0.1192E-01  0.5333E+00
      8.663  0.1486E-01  0.5351E+00
      8.761  0.1648E-01  0.5371E+00
      8.859  0.1027E-01  0.5381E+00
      8.957  0.9411E-02  0.5396E+00
      9.055  0.1007E-01  0.5410E+00
      9.154  0.1616E-01  0.5429E+00
      9.252  0.1528E-01  0.5446E+00
      9.350  0.1369E-01  0.5467E+00
      9.448  0.1991E-01  0.5491E+00
      9.546  0.1231E-01  0.5507E+00
      9.644  0.1578E-01  0.5524E+00
      9.742  0.1442E-01  0.5543E+00
      9.840  0.1301E-01  0.5560E+00
      9.938  0.1270E-01  0.5579E+00
     10.036  0.9864E-02  0.5591E+00
     10.134  0.9940E-02  0.5603E+00
     10.233  0.1417E-01  0.5617E+00
     10.331  0.1606E-01  0.5635E+00
     10.429  0.2261E-01  0.5661E+00
     10.527  0.1168E-01  0.5674E+00
     10.625  0.8015E-02  0.5683E+00
     10.723  0.1263E-02  0.5686E+00
     10.821  0.8553E-02  0.5694E+00
     10.919  0.3776E-02  0.5699E+00
     11.017  0.1259E-02  0.5700E+00
     11.115  0.0000E+00  0.5700E+00
     11.213  0.0000E+00  0.5700E+00
     11.311  0.0000E+00  0.5700E+00
     11.410  0.0000E+00  0.5700E+00
     11.508  0.0000E+00  0.5700E+00
     11.606  0.0000E+00  0.5700E+00
     11.704  0.0000E+00  0.5700E+00
     11.802  0.0000E+00  0.5700E+00
     11.900  0.0000E+00  0.5700E+00
     11.998  0.0000E+00  0.5700E+00
     12.096  0.0000E+00  0.5700E+00
     12.194  0.0000E+00  0.5700E+00
     12.292  0.0000E+00  0.5700E+00
