       N       E                     dE             d eps       ncg     rms          rms(c)
DAV:   1     0.179565086154E+04    0.17957E+04   -0.76807E+04 18696   0.233E+03
DAV:   2     0.229117777583E+03   -0.15665E+04   -0.15147E+04 18696   0.482E+02
DAV:   3    -0.512175027092E+02   -0.28034E+03   -0.25966E+03 21492   0.237E+02
DAV:   4    -0.773537359521E+02   -0.26136E+02   -0.24766E+02 26568   0.822E+01
DAV:   5    -0.782499382199E+02   -0.89620E+00   -0.89143E+00 23214   0.162E+01    0.321E+01
DAV:   6    -0.714548996182E+02    0.67950E+01   -0.16556E+02 23226   0.139E+02    0.233E+01
DAV:   7    -0.636782996102E+02    0.77766E+01   -0.90539E+01 25092   0.898E+01    0.888E+00
DAV:   8    -0.624063796866E+02    0.12719E+01   -0.14815E+01 27186   0.651E+01    0.523E+00
DAV:   9    -0.622713746969E+02    0.13500E+00   -0.42018E+00 26910   0.289E+01    0.280E+00
DAV:  10    -0.621623496491E+02    0.10903E+00   -0.18870E+00 27828   0.136E+01    0.261E+00
DAV:  11    -0.621486568264E+02    0.13693E-01   -0.69561E-01 27834   0.112E+01    0.199E+00
DAV:  12    -0.621282064672E+02    0.20450E-01   -0.54471E-01 27588   0.812E+00    0.118E+00
DAV:  13    -0.621113720441E+02    0.16834E-01   -0.18047E-01 27600   0.497E+00    0.789E-01
DAV:  14    -0.621031551340E+02    0.82169E-02   -0.40764E-02 24864   0.293E+00    0.261E-01
DAV:  15    -0.621040917702E+02   -0.93664E-03   -0.16093E-02 27546   0.127E+00    0.129E-01
DAV:  16    -0.621040293194E+02    0.62451E-04   -0.28725E-03 22974   0.827E-01    0.829E-02
DAV:  17    -0.621041991731E+02   -0.16985E-03   -0.16042E-03 28998   0.610E-01    0.122E-01
DAV:  18    -0.621040414835E+02    0.15769E-03   -0.60692E-04 22056   0.323E-01    0.525E-02
DAV:  19    -0.621040906085E+02   -0.49125E-04   -0.60916E-04 29682   0.262E-01    0.371E-02
DAV:  20    -0.621041524304E+02   -0.61822E-04   -0.16275E-04 25680   0.137E-01    0.262E-02
DAV:  21    -0.621041889572E+02   -0.36527E-04   -0.57737E-05 26280   0.827E-02    0.907E-03
DAV:  22    -0.621042216389E+02   -0.32682E-04   -0.22035E-05 24540   0.792E-02    0.920E-03
DAV:  23    -0.621042484432E+02   -0.26804E-04   -0.99451E-06 26700   0.552E-02    0.333E-03
DAV:  24    -0.621042547032E+02   -0.62600E-05   -0.31820E-06 26700   0.283E-02    0.248E-03
DAV:  25    -0.621042570319E+02   -0.23287E-05   -0.12192E-06 21048   0.200E-02    0.199E-03
DAV:  26    -0.621042591067E+02   -0.20748E-05   -0.11774E-06 22224   0.113E-02    0.172E-03
DAV:  27    -0.621042591767E+02   -0.69940E-07   -0.18630E-07 15072   0.674E-03
   1 F= -.62104259E+02 E0= -.62103941E+02  d E =-.621043E+02
       N       E                     dE             d eps       ncg     rms          rms(c)
DAV:   1    -0.621043010378E+02   -0.41931E-04   -0.66198E-03 19356   0.257E-01    0.866E-03
DAV:   2    -0.621043161005E+02   -0.15063E-04   -0.15464E-04 27726   0.713E-02    0.742E-03
DAV:   3    -0.621043161525E+02   -0.51976E-07   -0.10878E-05 21624   0.630E-02    0.644E-03
DAV:   4    -0.621043157419E+02    0.41059E-06   -0.29390E-06 22164   0.333E-02    0.398E-03
DAV:   5    -0.621043156009E+02    0.14095E-06   -0.14375E-06 29022   0.248E-02    0.305E-03
DAV:   6    -0.621043154723E+02    0.12859E-06   -0.89183E-07 22566   0.228E-02    0.806E-04
DAV:   7    -0.621043154823E+02   -0.10008E-07   -0.15745E-07 11988   0.574E-03
   2 F= -.62104315E+02 E0= -.62103997E+02  d E =-.563057E-04
       N       E                     dE             d eps       ncg     rms          rms(c)
DAV:   1    -0.621043653982E+02   -0.49926E-04   -0.25532E-02 18990   0.506E-01    0.170E-02
DAV:   2    -0.621044230303E+02   -0.57632E-04   -0.59268E-04 27582   0.128E-01    0.127E-02
DAV:   3    -0.621044227367E+02    0.29358E-06   -0.23460E-05 22074   0.906E-02    0.112E-02
DAV:   4    -0.621044216209E+02    0.11158E-05   -0.88785E-06 22332   0.597E-02    0.770E-03
DAV:   5    -0.621044209280E+02    0.69294E-06   -0.56404E-06 36552   0.435E-02    0.534E-03
DAV:   6    -0.621044205363E+02    0.39163E-06   -0.26103E-06 25788   0.408E-02    0.170E-03
DAV:   7    -0.621044205470E+02   -0.10725E-07   -0.51557E-07 20646   0.914E-03
   3 F= -.62104421E+02 E0= -.62104102E+02  d E =-.105065E-03
       N       E                     dE             d eps       ncg     rms          rms(c)
DAV:   1    -0.621044399703E+02   -0.19434E-04   -0.54666E-02 18906   0.740E-01    0.249E-02
DAV:   2    -0.621045636251E+02   -0.12365E-03   -0.12722E-03 26922   0.174E-01    0.166E-02
DAV:   3    -0.621045613025E+02    0.23227E-05   -0.15510E-05 23550   0.507E-02    0.128E-02
DAV:   4    -0.621045606685E+02    0.63397E-06   -0.14822E-05 22572   0.835E-02    0.124E-02
DAV:   5    -0.621045583162E+02    0.23523E-05   -0.17673E-05 36216   0.670E-02    0.558E-03
DAV:   6    -0.621045579546E+02    0.36158E-06   -0.37963E-06 32058   0.419E-02    0.230E-03
DAV:   7    -0.621045579293E+02    0.25346E-07   -0.52775E-07 20202   0.949E-03
   4 F= -.62104558E+02 E0= -.62104239E+02  d E =-.137382E-03
       N       E                     dE             d eps       ncg     rms          rms(c)
DAV:   1    -0.621044527281E+02    0.10523E-03   -0.98146E-02 18738   0.994E-01    0.360E-02
DAV:   2    -0.621046937739E+02   -0.24105E-03   -0.24835E-03 26766   0.237E-01    0.225E-02
DAV:   3    -0.621046895144E+02    0.42594E-05   -0.28590E-05 23748   0.624E-02    0.170E-02
DAV:   4    -0.621046878137E+02    0.17007E-05   -0.20702E-05 23034   0.110E-01    0.158E-02
DAV:   5    -0.621046846694E+02    0.31443E-05   -0.32948E-05 36276   0.997E-02    0.867E-03
DAV:   6    -0.621046837030E+02    0.96632E-06   -0.10014E-05 32100   0.643E-02    0.308E-03
DAV:   7    -0.621046836579E+02    0.45115E-07   -0.11809E-06 28434   0.145E-02    0.205E-03
DAV:   8    -0.621046836114E+02    0.46482E-07   -0.19192E-07 12732   0.896E-03
   5 F= -.62104684E+02 E0= -.62104366E+02  d E =-.125682E-03
       N       E                     dE             d eps       ncg     rms          rms(c)
DAV:   1    -0.621043623111E+02    0.32135E-03   -0.16063E-01 18714   0.127E+00    0.482E-02
DAV:   2    -0.621047833892E+02   -0.42108E-03   -0.43396E-03 26892   0.310E-01    0.301E-02
DAV:   3    -0.621047777158E+02    0.56734E-05   -0.73274E-05 22080   0.131E-01    0.239E-02
DAV:   4    -0.621047746379E+02    0.30779E-05   -0.42560E-05 23016   0.138E-01    0.204E-02
DAV:   5    -0.621047689529E+02    0.56850E-05   -0.43690E-05 36060   0.115E-01    0.117E-02
DAV:   6    -0.621047670870E+02    0.18658E-05   -0.16002E-05 31368   0.914E-02    0.400E-03
DAV:   7    -0.621047670585E+02    0.28533E-07   -0.24112E-06 28464   0.205E-02    0.263E-03
DAV:   8    -0.621047669760E+02    0.82553E-07   -0.41245E-07 17382   0.115E-02
   6 F= -.62104767E+02 E0= -.62104450E+02  d E =-.833645E-04
       N       E                     dE             d eps       ncg     rms          rms(c)
DAV:   1    -0.621043043429E+02    0.46272E-03   -0.23299E-01 18714   0.153E+00    0.595E-02
DAV:   2    -0.621049289258E+02   -0.62458E-03   -0.64446E-03 26814   0.370E-01    0.356E-02
DAV:   3    -0.621049192997E+02    0.96260E-05   -0.80974E-05 22608   0.101E-01    0.268E-02
DAV:   4    -0.621049139899E+02    0.53098E-05   -0.45351E-05 22962   0.171E-01    0.233E-02
DAV:   5    -0.621049076003E+02    0.63896E-05   -0.75626E-05 36216   0.150E-01    0.127E-02
DAV:   6    -0.621049053411E+02    0.22591E-05   -0.26071E-05 32022   0.985E-02    0.498E-03
DAV:   7    -0.621049052035E+02    0.13759E-06   -0.29967E-06 27906   0.194E-02    0.301E-03
DAV:   8    -0.621049051156E+02    0.87926E-07   -0.46465E-07 19218   0.121E-02
   7 F= -.62104905E+02 E0= -.62104589E+02  d E =-.138140E-03
       N       E                     dE             d eps       ncg     rms          rms(c)
DAV:   1    -0.621043683010E+02    0.53690E-03   -0.30365E-01 18714   0.175E+00    0.660E-02
DAV:   2    -0.621051564473E+02   -0.78815E-03   -0.81286E-03 26868   0.422E-01    0.413E-02
DAV:   3    -0.621051426889E+02    0.13758E-04   -0.10164E-04 22632   0.132E-01    0.312E-02
DAV:   4    -0.621051381063E+02    0.45826E-05   -0.77294E-05 23442   0.202E-01    0.292E-02
DAV:   5    -0.621051261590E+02    0.11947E-04   -0.10329E-04 36288   0.169E-01    0.143E-02
DAV:   6    -0.621051233643E+02    0.27947E-05   -0.30889E-05 34188   0.111E-01    0.528E-03
DAV:   7    -0.621051233569E+02    0.73960E-08   -0.44966E-06 28506   0.274E-02    0.365E-03
DAV:   8    -0.621051232137E+02    0.14322E-06   -0.67277E-07 22080   0.132E-02    0.223E-03
DAV:   9    -0.621051231813E+02    0.32400E-07   -0.39313E-07 16242   0.120E-02
   8 F= -.62105123E+02 E0= -.62104808E+02  d E =-.218066E-03
       N       E                     dE             d eps       ncg     rms          rms(c)
DAV:   1    -0.621044437706E+02    0.67944E-03   -0.37971E-01 18714   0.196E+00    0.744E-02
DAV:   2    -0.621054441311E+02   -0.10004E-02   -0.10327E-02 26868   0.472E-01    0.463E-02
DAV:   3    -0.621054277640E+02    0.16367E-04   -0.14177E-04 22452   0.155E-01    0.357E-02
DAV:   4    -0.621054212857E+02    0.64783E-05   -0.94169E-05 23148   0.214E-01    0.322E-02
DAV:   5    -0.621054079553E+02    0.13330E-04   -0.12903E-04 36312   0.201E-01    0.180E-02
DAV:   6    -0.621054030879E+02    0.48674E-05   -0.43254E-05 29934   0.144E-01    0.609E-03
DAV:   7    -0.621054030071E+02    0.80792E-07   -0.61147E-06 27426   0.272E-02    0.394E-03
DAV:   8    -0.621054028645E+02    0.14260E-06   -0.95572E-07 22044   0.190E-02    0.258E-03
DAV:   9    -0.621054027969E+02    0.67634E-07   -0.54761E-07 19602   0.137E-02
   9 F= -.62105403E+02 E0= -.62105089E+02  d E =-.279616E-03
       N       E                     dE             d eps       ncg     rms          rms(c)
DAV:   1    -0.621041726081E+02    0.12303E-02   -0.45121E-01 18714   0.214E+00    0.866E-02
DAV:   2    -0.621054552577E+02   -0.12826E-02   -0.13237E-02 27150   0.550E-01    0.551E-02
DAV:   3    -0.621054482123E+02    0.70454E-05   -0.40099E-04 22020   0.366E-01    0.475E-02
DAV:   4    -0.621054295891E+02    0.18623E-04   -0.16870E-04 23340   0.264E-01    0.340E-02
DAV:   5    -0.621054143518E+02    0.15237E-04   -0.95422E-05 34968   0.165E-01    0.200E-02
DAV:   6    -0.621054089762E+02    0.53757E-05   -0.46022E-05 28896   0.158E-01    0.699E-03
DAV:   7    -0.621054090230E+02   -0.46854E-07   -0.90174E-06 28422   0.433E-02    0.467E-03
DAV:   8    -0.621054088175E+02    0.20555E-06   -0.17059E-06 25254   0.201E-02    0.280E-03
DAV:   9    -0.621054087702E+02    0.47268E-07   -0.76995E-07 21738   0.174E-02
  10 F= -.62105409E+02 E0= -.62105093E+02  d E =-.597330E-05
       N       E                     dE             d eps       ncg     rms          rms(c)
DAV:   1    -0.621036238525E+02    0.17850E-02   -0.46967E-01 18702   0.216E+00    0.101E-01
DAV:   2    -0.621051756950E+02   -0.15518E-02   -0.16105E-02 27162   0.603E-01    0.589E-02
DAV:   3    -0.621051826080E+02   -0.69130E-05   -0.65026E-04 21672   0.481E-01    0.545E-02
DAV:   4    -0.621051566051E+02    0.26003E-04   -0.20531E-04 23034   0.290E-01    0.349E-02
DAV:   5    -0.621051457808E+02    0.10824E-04   -0.89400E-05 31422   0.171E-01    0.236E-02
DAV:   6    -0.621051373607E+02    0.84202E-05   -0.63152E-05 29856   0.165E-01    0.848E-03
DAV:   7    -0.621051376174E+02   -0.25672E-06   -0.15730E-05 28338   0.549E-02    0.551E-03
DAV:   8    -0.621051373666E+02    0.25081E-06   -0.26750E-06 24636   0.239E-02    0.316E-03
DAV:   9    -0.621051373565E+02    0.10066E-07   -0.11839E-06 22404   0.211E-02    0.182E-03
DAV:  10    -0.621051373761E+02   -0.19634E-07   -0.37674E-07 17208   0.129E-02
  11 F= -.62105137E+02 E0= -.62104825E+02  d E =0.271394E-03
       N       E                     dE             d eps       ncg     rms          rms(c)
DAV:   1    -0.621035841325E+02    0.15532E-02   -0.39587E-01 18708   0.199E+00    0.881E-02
DAV:   2    -0.621048226992E+02   -0.12386E-02   -0.12835E-02 27696   0.647E-01    0.675E-02
DAV:   3    -0.621048391135E+02   -0.16414E-04   -0.11447E-03 22068   0.654E-01    0.608E-02
DAV:   4    -0.621047955052E+02    0.43608E-04   -0.32453E-04 22728   0.349E-01    0.319E-02
DAV:   5    -0.621047894347E+02    0.60705E-05   -0.96010E-05 32538   0.199E-01    0.237E-02
DAV:   6    -0.621047818713E+02    0.75634E-05   -0.57158E-05 24810   0.180E-01    0.517E-03
DAV:   7    -0.621047828440E+02   -0.97273E-06   -0.15208E-05 28182   0.473E-02    0.441E-03
DAV:   8    -0.621047827724E+02    0.71686E-07   -0.27653E-06 21216   0.315E-02    0.277E-03
DAV:   9    -0.621047827235E+02    0.48825E-07   -0.71877E-07 21672   0.151E-02
  12 F= -.62104783E+02 E0= -.62104466E+02  d E =0.354653E-03
       N       E                     dE             d eps       ncg     rms          rms(c)
DAV:   1    -0.621038626505E+02    0.92012E-03   -0.23744E-01 18696   0.152E+00    0.735E-02
DAV:   2    -0.621046771004E+02   -0.81445E-03   -0.84982E-03 27492   0.519E-01    0.519E-02
DAV:   3    -0.621046939985E+02   -0.16898E-04   -0.77616E-04 21912   0.548E-01    0.504E-02
DAV:   4    -0.621046638325E+02    0.30166E-04   -0.21404E-04 22632   0.282E-01    0.250E-02
DAV:   5    -0.621046604152E+02    0.34173E-05   -0.57745E-05 31362   0.146E-01    0.182E-02
DAV:   6    -0.621046559433E+02    0.44719E-05   -0.36240E-05 24420   0.139E-01    0.522E-03
DAV:   7    -0.621046564300E+02   -0.48676E-06   -0.10232E-05 28272   0.422E-02    0.342E-03
DAV:   8    -0.621046564252E+02    0.48603E-08   -0.18215E-06 22272   0.226E-02    0.218E-03
DAV:   9    -0.621046564401E+02   -0.14894E-07   -0.59932E-07 20988   0.150E-02
  13 F= -.62104656E+02 E0= -.62104344E+02  d E =0.126283E-03
       N       E                     dE             d eps       ncg     rms          rms(c)
DAV:   1    -0.621041150652E+02    0.54136E-03   -0.12227E-01 18696   0.110E+00    0.534E-02
DAV:   2    -0.621045342082E+02   -0.41914E-03   -0.43520E-03 27420   0.370E-01    0.366E-02
DAV:   3    -0.621045427801E+02   -0.85719E-05   -0.36126E-04 22128   0.376E-01    0.353E-02
DAV:   4    -0.621045283288E+02    0.14451E-04   -0.10494E-04 22608   0.199E-01    0.182E-02
DAV:   5    -0.621045266383E+02    0.16905E-05   -0.28432E-05 30996   0.983E-02    0.128E-02
DAV:   6    -0.621045244343E+02    0.22040E-05   -0.19008E-05 24288   0.992E-02    0.411E-03
DAV:   7    -0.621045246390E+02   -0.20471E-06   -0.53772E-06 28518   0.324E-02    0.234E-03
DAV:   8    -0.621045246505E+02   -0.11558E-07   -0.98261E-07 22296   0.146E-02
  14 F= -.62104525E+02 E0= -.62104209E+02  d E =0.131790E-03
       N       E                     dE             d eps       ncg     rms          rms(c)
DAV:   1    -0.621039976830E+02    0.52696E-03   -0.11519E-01 18696   0.106E+00    0.520E-02
DAV:   2    -0.621044027867E+02   -0.40510E-03   -0.41961E-03 27120   0.301E-01    0.296E-02
DAV:   3    -0.621044067011E+02   -0.39144E-05   -0.19119E-04 21672   0.257E-01    0.286E-02
DAV:   4    -0.621043985491E+02    0.81520E-05   -0.63687E-05 23016   0.159E-01    0.170E-02
DAV:   5    -0.621043960266E+02    0.25225E-05   -0.21586E-05 30816   0.925E-02    0.116E-02
DAV:   6    -0.621043943228E+02    0.17038E-05   -0.13768E-05 27396   0.834E-02    0.383E-03
DAV:   7    -0.621043943812E+02   -0.58324E-07   -0.33388E-06 27678   0.211E-02    0.256E-03
DAV:   8    -0.621043943128E+02    0.68372E-07   -0.49630E-07 18474   0.114E-02
  15 F= -.62104394E+02 E0= -.62104079E+02  d E =0.130338E-03
       N       E                     dE             d eps       ncg     rms          rms(c)
DAV:   1    -0.621038855969E+02    0.50878E-03   -0.14311E-01 18696   0.119E+00    0.569E-02
DAV:   2    -0.621043771110E+02   -0.49151E-03   -0.50765E-03 27000   0.305E-01    0.294E-02
DAV:   3    -0.621043732729E+02    0.38381E-05   -0.75744E-05 22146   0.112E-01    0.224E-02
DAV:   4    -0.621043705346E+02    0.27383E-05   -0.29068E-05 23646   0.133E-01    0.189E-02
DAV:   5    -0.621043672679E+02    0.32667E-05   -0.47269E-05 34740   0.123E-01    0.125E-02
DAV:   6    -0.621043651101E+02    0.21577E-05   -0.21490E-05 34368   0.899E-02    0.405E-03
DAV:   7    -0.621043650216E+02    0.88534E-07   -0.22442E-06 28320   0.189E-02    0.225E-03
DAV:   8    -0.621043649832E+02    0.38439E-07   -0.39405E-07 17820   0.124E-02
  16 F= -.62104365E+02 E0= -.62104048E+02  d E =0.293296E-04
       N       E                     dE             d eps       ncg     rms          rms(c)
DAV:   1    -0.621037327605E+02    0.63226E-03   -0.16967E-01 18696   0.129E+00    0.633E-02
DAV:   2    -0.621043240412E+02   -0.59128E-03   -0.61313E-03 27150   0.366E-01    0.353E-02
DAV:   3    -0.621043263057E+02   -0.22645E-05   -0.22708E-04 21504   0.284E-01    0.324E-02
DAV:   4    -0.621043175460E+02    0.87597E-05   -0.72187E-05 23190   0.172E-01    0.208E-02
DAV:   5    -0.621043138296E+02    0.37164E-05   -0.31036E-05 31404   0.973E-02    0.142E-02
DAV:   6    -0.621043107729E+02    0.30567E-05   -0.22501E-05 28872   0.980E-02    0.521E-03
DAV:   7    -0.621043108602E+02   -0.87315E-07   -0.59696E-06 28350   0.342E-02    0.334E-03
DAV:   8    -0.621043107595E+02    0.10076E-06   -0.93306E-07 22524   0.129E-02    0.189E-03
DAV:   9    -0.621043107485E+02    0.10976E-07   -0.39691E-07 16428   0.128E-02
  17 F= -.62104311E+02 E0= -.62103993E+02  d E =0.542347E-04
       N       E                     dE             d eps       ncg     rms          rms(c)
DAV:   1    -0.621038362785E+02    0.47448E-03   -0.12991E-01 18696   0.114E+00    0.545E-02
DAV:   2    -0.621042792939E+02   -0.44302E-03   -0.45980E-03 27360   0.371E-01    0.365E-02
DAV:   3    -0.621042885428E+02   -0.92489E-05   -0.36149E-04 22176   0.373E-01    0.357E-02
DAV:   4    -0.621042736341E+02    0.14909E-04   -0.10712E-04 22632   0.203E-01    0.185E-02
DAV:   5    -0.621042715826E+02    0.20515E-05   -0.29612E-05 32082   0.101E-01    0.130E-02
DAV:   6    -0.621042692663E+02    0.23163E-05   -0.19501E-05 24408   0.102E-01    0.426E-03
DAV:   7    -0.621042694619E+02   -0.19560E-06   -0.53867E-06 28494   0.323E-02    0.247E-03
DAV:   8    -0.621042694663E+02   -0.43838E-08   -0.98098E-07 22020   0.145E-02
  18 F= -.62104269E+02 E0= -.62103948E+02  d E =0.412822E-04
       N       E                     dE             d eps       ncg     rms          rms(c)
DAV:   1    -0.621041544475E+02    0.11501E-03   -0.42857E-02 18696   0.644E-01    0.334E-02
DAV:   2    -0.621043078001E+02   -0.15335E-03   -0.16144E-03 27414   0.251E-01    0.241E-02
DAV:   3    -0.621043118253E+02   -0.40251E-05   -0.18473E-04 21912   0.272E-01    0.233E-02
DAV:   4    -0.621043051474E+02    0.66778E-05   -0.47751E-05 22086   0.129E-01    0.108E-02
DAV:   5    -0.621043047452E+02    0.40227E-06   -0.11035E-05 30030   0.582E-02    0.772E-03
DAV:   6    -0.621043038483E+02    0.89692E-06   -0.71913E-06 23352   0.603E-02    0.263E-03
DAV:   7    -0.621043039004E+02   -0.52125E-07   -0.20963E-06 28332   0.217E-02    0.133E-03
DAV:   8    -0.621043039130E+02   -0.12620E-07   -0.35468E-07 15594   0.101E-02
  19 F= -.62104304E+02 E0= -.62103983E+02  d E =-.344467E-04
       N       E                     dE             d eps       ncg     rms          rms(c)
DAV:   1    -0.621042381908E+02    0.65710E-04   -0.29731E-02 18714   0.550E-01    0.237E-02
DAV:   2    -0.621043290288E+02   -0.90838E-04   -0.93753E-04 27000   0.140E-01    0.130E-02
DAV:   3    -0.621043282183E+02    0.81052E-06   -0.16055E-05 22542   0.533E-02    0.102E-02
DAV:   4    -0.621043276729E+02    0.54540E-06   -0.85945E-06 23376   0.598E-02    0.867E-03
DAV:   5    -0.621043266471E+02    0.10258E-05   -0.71216E-06 34050   0.535E-02    0.505E-03
DAV:   6    -0.621043263248E+02    0.32229E-06   -0.28789E-06 30270   0.392E-02    0.146E-03
DAV:   7    -0.621043263224E+02    0.24047E-08   -0.36386E-07 16476   0.564E-03
  20 F= -.62104326E+02 E0= -.62104004E+02  d E =-.224094E-04
       N       E                     dE             d eps       ncg     rms          rms(c)
DAV:   1    -0.621042323259E+02    0.93999E-04   -0.35930E-02 18702   0.602E-01    0.287E-02
DAV:   2    -0.621043511555E+02   -0.11883E-03   -0.12384E-03 27228   0.175E-01    0.164E-02
DAV:   3    -0.621043515319E+02   -0.37634E-06   -0.51915E-05 21678   0.142E-01    0.151E-02
DAV:   4    -0.621043496033E+02    0.19286E-05   -0.15268E-05 23196   0.792E-02    0.946E-03
DAV:   5    -0.621043489327E+02    0.67065E-06   -0.63292E-06 30288   0.397E-02    0.678E-03
DAV:   6    -0.621043481144E+02    0.81830E-06   -0.52611E-06 28578   0.450E-02    0.287E-03
DAV:   7    -0.621043480913E+02    0.23108E-07   -0.14992E-06 27336   0.208E-02    0.152E-03
DAV:   8    -0.621043480734E+02    0.17808E-07   -0.20899E-07 12960   0.659E-03
  21 F= -.62104348E+02 E0= -.62104025E+02  d E =-.217511E-04
       N       E                     dE             d eps       ncg     rms          rms(c)
DAV:   1    -0.621042803835E+02    0.67708E-04   -0.25105E-02 18708   0.505E-01    0.237E-02
DAV:   2    -0.621043637769E+02   -0.83393E-04   -0.86394E-04 27372   0.161E-01    0.156E-02
DAV:   3    -0.621043655656E+02   -0.17887E-05   -0.66226E-05 22068   0.160E-01    0.154E-02
DAV:   4    -0.621043628446E+02    0.27211E-05   -0.19502E-05 22392   0.864E-02    0.802E-03
DAV:   5    -0.621043624479E+02    0.39665E-06   -0.53493E-06 31824   0.407E-02    0.553E-03
DAV:   6    -0.621043620307E+02    0.41722E-06   -0.37069E-06 23886   0.436E-02    0.200E-03
DAV:   7    -0.621043620675E+02   -0.36838E-07   -0.10487E-06 26208   0.153E-02    0.108E-03
DAV:   8    -0.621043620669E+02    0.61118E-09   -0.16483E-07 11688   0.632E-03
  22 F= -.62104362E+02 E0= -.62104037E+02  d E =-.139935E-04
       N       E                     dE             d eps       ncg     rms          rms(c)
DAV:   1    -0.621043184076E+02    0.43660E-04   -0.18458E-02 18720   0.433E-01    0.189E-02
DAV:   2    -0.621043752813E+02   -0.56874E-04   -0.59287E-04 27492   0.136E-01    0.135E-02
DAV:   3    -0.621043763791E+02   -0.10978E-05   -0.50871E-05 21924   0.138E-01    0.131E-02
DAV:   4    -0.621043743674E+02    0.20117E-05   -0.14157E-05 22668   0.730E-02    0.673E-03
DAV:   5    -0.621043740203E+02    0.34703E-06   -0.39659E-06 30510   0.391E-02    0.496E-03
DAV:   6    -0.621043736283E+02    0.39209E-06   -0.24530E-06 24738   0.358E-02    0.145E-03
DAV:   7    -0.621043736497E+02   -0.21439E-07   -0.67042E-07 22626   0.102E-02
  23 F= -.62104374E+02 E0= -.62104049E+02  d E =-.115828E-04
       N       E                     dE             d eps       ncg     rms          rms(c)
DAV:   1    -0.621043114121E+02    0.62216E-04   -0.16681E-02 18696   0.407E-01    0.206E-02
DAV:   2    -0.621043714507E+02   -0.60039E-04   -0.62158E-04 27300   0.128E-01    0.121E-02
DAV:   3    -0.621043723425E+02   -0.89187E-06   -0.35082E-05 21996   0.118E-01    0.119E-02
DAV:   4    -0.621043708856E+02    0.14570E-05   -0.10661E-05 22428   0.654E-02    0.659E-03
DAV:   5    -0.621043706632E+02    0.22236E-06   -0.33212E-06 31098   0.323E-02    0.468E-03
DAV:   6    -0.621043703816E+02    0.28163E-06   -0.25666E-06 24798   0.347E-02    0.185E-03
DAV:   7    -0.621043703987E+02   -0.17128E-07   -0.71646E-07 23802   0.134E-02
  24 F= -.62104370E+02 E0= -.62104044E+02  d E =0.325098E-05
       N       E                     dE             d eps       ncg     rms          rms(c)
DAV:   1    -0.621043117381E+02    0.58643E-04   -0.21117E-02 18696   0.460E-01    0.219E-02
DAV:   2    -0.621043840380E+02   -0.72300E-04   -0.74830E-04 27312   0.124E-01    0.122E-02
DAV:   3    -0.621043841634E+02   -0.12536E-06   -0.26132E-05 22248   0.894E-02    0.113E-02
DAV:   4    -0.621043829877E+02    0.11757E-05   -0.10469E-05 23784   0.646E-02    0.721E-03
DAV:   5    -0.621043825784E+02    0.40927E-06   -0.38832E-06 30036   0.464E-02    0.553E-03
DAV:   6    -0.621043821832E+02    0.39527E-06   -0.27293E-06 31290   0.368E-02    0.161E-03
DAV:   7    -0.621043821832E+02   -0.36380E-10   -0.49516E-07 18696   0.948E-03
  25 F= -.62104382E+02 E0= -.62104056E+02  d E =-.117845E-04
       N       E                     dE             d eps       ncg     rms          rms(c)
DAV:   1    -0.621043185446E+02    0.63639E-04   -0.27209E-02 18708   0.527E-01    0.240E-02
DAV:   2    -0.621044061519E+02   -0.87607E-04   -0.90675E-04 27324   0.137E-01    0.127E-02
DAV:   3    -0.621044053518E+02    0.80017E-06   -0.16893E-05 21996   0.591E-02    0.102E-02
DAV:   4    -0.621044047730E+02    0.57876E-06   -0.82706E-06 23748   0.573E-02    0.810E-03
DAV:   5    -0.621044041553E+02    0.61769E-06   -0.63180E-06 27300   0.567E-02    0.589E-03
DAV:   6    -0.621044036719E+02    0.48339E-06   -0.37230E-06 32136   0.414E-02    0.155E-03
DAV:   7    -0.621044036947E+02   -0.22770E-07   -0.67144E-07 22224   0.741E-03
  26 F= -.62104404E+02 E0= -.62104076E+02  d E =-.215115E-04
       N       E                     dE             d eps       ncg     rms          rms(c)
DAV:   1    -0.621043330525E+02    0.70619E-04   -0.21396E-02 18702   0.464E-01    0.228E-02
DAV:   2    -0.621044061591E+02   -0.73107E-04   -0.76400E-04 27252   0.139E-01    0.129E-02
DAV:   3    -0.621044067519E+02   -0.59280E-06   -0.37246E-05 21654   0.119E-01    0.124E-02
DAV:   4    -0.621044053415E+02    0.14104E-05   -0.10510E-05 23136   0.646E-02    0.741E-03
DAV:   5    -0.621044048897E+02    0.45181E-06   -0.34732E-06 29256   0.257E-02    0.486E-03
DAV:   6    -0.621044044310E+02    0.45872E-06   -0.28088E-06 25632   0.323E-02    0.207E-03
DAV:   7    -0.621044044192E+02    0.11758E-07   -0.87472E-07 24708   0.162E-02
  27 F= -.62104404E+02 E0= -.62104076E+02  d E =-.724525E-06
       N       E                     dE             d eps       ncg     rms          rms(c)
DAV:   1    -0.621043682259E+02    0.36205E-04   -0.95833E-03 18696   0.309E-01    0.158E-02
DAV:   2    -0.621044030153E+02   -0.34789E-04   -0.36052E-04 27378   0.118E-01    0.114E-02
DAV:   3    -0.621044039553E+02   -0.94001E-06   -0.39184E-05 22104   0.126E-01    0.109E-02
DAV:   4    -0.621044025429E+02    0.14124E-05   -0.10493E-05 22044   0.613E-02    0.510E-03
DAV:   5    -0.621044025113E+02    0.31527E-07   -0.24152E-06 30042   0.277E-02    0.372E-03
DAV:   6    -0.621044023694E+02    0.14195E-06   -0.16465E-06 23280   0.285E-02    0.135E-03
DAV:   7    -0.621044023814E+02   -0.12024E-07   -0.42886E-07 19044   0.107E-02
  28 F= -.62104402E+02 E0= -.62104072E+02  d E =0.203779E-05
       N       E                     dE             d eps       ncg     rms          rms(c)
DAV:   1    -0.621043167999E+02    0.85570E-04   -0.14039E-02 18696   0.371E-01    0.187E-02
DAV:   2    -0.621043677724E+02   -0.50973E-04   -0.52660E-04 27186   0.998E-02    0.930E-03
DAV:   3    -0.621043675372E+02    0.23513E-06   -0.90097E-06 22044   0.434E-02    0.720E-03
DAV:   4    -0.621043672237E+02    0.31352E-06   -0.19890E-06 23232   0.370E-02    0.545E-03
DAV:   5    -0.621043669829E+02    0.24082E-06   -0.29507E-06 27870   0.273E-02    0.344E-03
DAV:   6    -0.621043668463E+02    0.13662E-06   -0.26227E-06 22992   0.268E-02    0.162E-03
DAV:   7    -0.621043668384E+02    0.78981E-08   -0.36667E-07 17190   0.120E-02
  29 F= -.62104367E+02 E0= -.62104036E+02  d E =0.355430E-04
       N       E                     dE             d eps       ncg     rms          rms(c)
DAV:   1    -0.621042408716E+02    0.12597E-03   -0.23721E-02 18696   0.478E-01    0.250E-02
DAV:   2    -0.621043294798E+02   -0.88608E-04   -0.91614E-04 27174   0.131E-01    0.123E-02
DAV:   3    -0.621043290781E+02    0.40164E-06   -0.16077E-05 21900   0.581E-02    0.949E-03
DAV:   4    -0.621043285654E+02    0.51269E-06   -0.34789E-06 23382   0.475E-02    0.712E-03
DAV:   5    -0.621043282302E+02    0.33521E-06   -0.50751E-06 31506   0.361E-02    0.473E-03
DAV:   6    -0.621043279755E+02    0.25469E-06   -0.47264E-06 27120   0.356E-02    0.226E-03
DAV:   7    -0.621043279541E+02    0.21395E-07   -0.78433E-07 20916   0.181E-02
  30 F= -.62104328E+02 E0= -.62103996E+02  d E =0.388843E-04
       N       E                     dE             d eps       ncg     rms          rms(c)
DAV:   1    -0.621041812157E+02    0.14676E-03   -0.26318E-02 18696   0.507E-01    0.255E-02
DAV:   2    -0.621042756597E+02   -0.94444E-04   -0.98091E-04 27318   0.152E-01    0.145E-02
DAV:   3    -0.621042768998E+02   -0.12400E-05   -0.50713E-05 21648   0.137E-01    0.145E-02
DAV:   4    -0.621042746618E+02    0.22380E-05   -0.16087E-05 22800   0.796E-02    0.800E-03
DAV:   5    -0.621042742062E+02    0.45557E-06   -0.48093E-06 28980   0.441E-02    0.567E-03
DAV:   6    -0.621042737258E+02    0.48044E-06   -0.33623E-06 26214   0.407E-02    0.188E-03
DAV:   7    -0.621042737438E+02   -0.18026E-07   -0.92152E-07 25578   0.122E-02
  31 F= -.62104274E+02 E0= -.62103941E+02  d E =0.542103E-04
       N       E                     dE             d eps       ncg     rms          rms(c)
DAV:   1    -0.621040941945E+02    0.17953E-03   -0.26357E-02 18696   0.506E-01    0.260E-02
DAV:   2    -0.621041909911E+02   -0.96797E-04   -0.10010E-03 27312   0.168E-01    0.163E-02
DAV:   3    -0.621041932614E+02   -0.22703E-05   -0.75452E-05 22056   0.170E-01    0.165E-02
DAV:   4    -0.621041900844E+02    0.31770E-05   -0.23006E-05 22404   0.944E-02    0.814E-03
DAV:   5    -0.621041898541E+02    0.23025E-06   -0.56983E-06 30414   0.465E-02    0.596E-03
DAV:   6    -0.621041894518E+02    0.40239E-06   -0.37639E-06 24900   0.434E-02    0.190E-03
DAV:   7    -0.621041895017E+02   -0.49946E-07   -0.10871E-06 26622   0.140E-02    0.115E-03
DAV:   8    -0.621041894973E+02    0.43910E-08   -0.16790E-07 11844   0.711E-03
  32 F= -.62104189E+02 E0= -.62103855E+02  d E =0.842465E-04
       N       E                     dE             d eps       ncg     rms          rms(c)
DAV:   1    -0.621039704270E+02    0.21907E-03   -0.37433E-02 18696   0.597E-01    0.305E-02
DAV:   2    -0.621041082769E+02   -0.13785E-03   -0.14223E-03 27048   0.161E-01    0.149E-02
DAV:   3    -0.621041076702E+02    0.60668E-06   -0.22506E-05 22452   0.640E-02    0.115E-02
DAV:   4    -0.621041069513E+02    0.71891E-06   -0.74080E-06 23868   0.632E-02    0.909E-03
DAV:   5    -0.621041064621E+02    0.48920E-06   -0.10600E-05 30312   0.652E-02    0.687E-03
DAV:   6    -0.621041058542E+02    0.60796E-06   -0.61647E-06 33240   0.504E-02    0.190E-03
DAV:   7    -0.621041058481E+02    0.60536E-08   -0.60632E-07 22650   0.818E-03
  33 F= -.62104106E+02 E0= -.62103770E+02  d E =0.836492E-04
       N       E                     dE             d eps       ncg     rms          rms(c)
DAV:   1    -0.621038725667E+02    0.23329E-03   -0.48308E-02 18696   0.679E-01    0.353E-02
DAV:   2    -0.621040532764E+02   -0.18071E-03   -0.18679E-03 27054   0.185E-01    0.173E-02
DAV:   3    -0.621040528426E+02    0.43383E-06   -0.36709E-05 22068   0.956E-02    0.141E-02
DAV:   4    -0.621040516532E+02    0.11894E-05   -0.12258E-05 23814   0.759E-02    0.106E-02
DAV:   5    -0.621040510999E+02    0.55326E-06   -0.12533E-05 25908   0.772E-02    0.852E-03
DAV:   6    -0.621040501009E+02    0.99908E-06   -0.79364E-06 30942   0.564E-02    0.223E-03
DAV:   7    -0.621040501448E+02   -0.43969E-07   -0.14345E-06 27552   0.117E-02    0.161E-03
DAV:   8    -0.621040501172E+02    0.27656E-07   -0.15321E-07 12168   0.814E-03
  34 F= -.62104050E+02 E0= -.62103713E+02  d E =0.557310E-04
       N       E                     dE             d eps       ncg     rms          rms(c)
DAV:   1    -0.621037761229E+02    0.27402E-03   -0.60816E-02 18696   0.765E-01    0.386E-02
DAV:   2    -0.621039976894E+02   -0.22157E-03   -0.22879E-03 27114   0.210E-01    0.193E-02
DAV:   3    -0.621039968535E+02    0.83584E-06   -0.42506E-05 21996   0.108E-01    0.153E-02
DAV:   4    -0.621039952580E+02    0.15955E-05   -0.82580E-06 23196   0.796E-02    0.110E-02
DAV:   5    -0.621039936085E+02    0.16495E-05   -0.74462E-06 29826   0.318E-02    0.402E-03
DAV:   6    -0.621039935971E+02    0.11463E-07   -0.32974E-06 27738   0.292E-02    0.254E-03
DAV:   7    -0.621039935387E+02    0.58364E-07   -0.57853E-07 16134   0.159E-02
  35 F= -.62103994E+02 E0= -.62103654E+02  d E =0.565785E-04
       N       E                     dE             d eps       ncg     rms          rms(c)
DAV:   1    -0.621037822517E+02    0.21135E-03   -0.69028E-02 18696   0.828E-01    0.397E-02
DAV:   2    -0.621040157971E+02   -0.23355E-03   -0.24166E-03 27162   0.230E-01    0.207E-02
DAV:   3    -0.621040147582E+02    0.10389E-05   -0.55207E-05 21768   0.135E-01    0.165E-02
DAV:   4    -0.621040128141E+02    0.19440E-05   -0.10409E-05 23076   0.841E-02    0.113E-02
DAV:   5    -0.621040112319E+02    0.15822E-05   -0.71143E-06 30624   0.449E-02    0.602E-03
DAV:   6    -0.621040108686E+02    0.36332E-06   -0.40330E-06 26334   0.437E-02    0.254E-03
DAV:   7    -0.621040108557E+02    0.12835E-07   -0.95932E-07 25992   0.152E-02
  36 F= -.62104011E+02 E0= -.62103667E+02  d E =-.173170E-04
       N       E                     dE             d eps       ncg     rms          rms(c)
DAV:   1    -0.621039758418E+02    0.35027E-04   -0.23106E-02 18714   0.483E-01    0.219E-02
DAV:   2    -0.621040458975E+02   -0.70056E-04   -0.72748E-04 26478   0.152E-01    0.133E-02
DAV:   3    -0.621040462370E+02   -0.33949E-06   -0.37018E-05 22116   0.131E-01    0.121E-02
DAV:   4    -0.621040449602E+02    0.12768E-05   -0.94220E-06 23484   0.643E-02    0.713E-03
DAV:   5    -0.621040448889E+02    0.71341E-07   -0.50502E-06 29250   0.370E-02    0.598E-03
DAV:   6    -0.621040443901E+02    0.49880E-06   -0.43030E-06 28122   0.413E-02    0.259E-03
DAV:   7    -0.621040443707E+02    0.19412E-07   -0.96087E-07 25398   0.187E-02
  37 F= -.62104044E+02 E0= -.62103698E+02  d E =-.335149E-04
       N       E                     dE             d eps       ncg     rms          rms(c)
DAV:   1    -0.621040493299E+02   -0.49399E-05   -0.73445E-03 19290   0.271E-01    0.994E-03
DAV:   2    -0.621040660642E+02   -0.16734E-04   -0.17698E-04 28392   0.999E-02    0.103E-02
DAV:   3    -0.621040659595E+02    0.10471E-06   -0.24174E-05 21222   0.957E-02    0.712E-03
DAV:   4    -0.621040654804E+02    0.47902E-06   -0.47851E-06 21714   0.380E-02    0.402E-03
DAV:   5    -0.621040654117E+02    0.68729E-07   -0.14043E-06 21732   0.269E-02    0.340E-03
DAV:   6    -0.621040651923E+02    0.21938E-06   -0.12475E-06 25632   0.196E-02    0.844E-04
DAV:   7    -0.621040651959E+02   -0.35361E-08   -0.20424E-07 13824   0.851E-03
  38 F= -.62104065E+02 E0= -.62103719E+02  d E =-.208252E-04
       N       E                     dE             d eps       ncg     rms          rms(c)
DAV:   1    -0.621040739262E+02   -0.87339E-05   -0.39579E-03 19344   0.197E-01    0.576E-03
DAV:   2    -0.621040817967E+02   -0.78704E-05   -0.80485E-05 27342   0.551E-02    0.500E-03
DAV:   3    -0.621040818455E+02   -0.48825E-07   -0.54508E-06 22074   0.461E-02    0.417E-03
DAV:   4    -0.621040816561E+02    0.18937E-06   -0.14454E-06 20724   0.230E-02    0.265E-03
DAV:   5    -0.621040815802E+02    0.75888E-07   -0.47191E-07 15696   0.142E-02
  39 F= -.62104082E+02 E0= -.62103734E+02  d E =-.163844E-04
       N       E                     dE             d eps       ncg     rms          rms(c)
DAV:   1    -0.621040850095E+02   -0.33533E-05   -0.46107E-03 19176   0.216E-01    0.784E-03
DAV:   2    -0.621040958167E+02   -0.10807E-04   -0.11165E-04 28392   0.613E-02    0.547E-03
DAV:   3    -0.621040957414E+02    0.75361E-07   -0.44170E-06 20754   0.458E-02    0.459E-03
DAV:   4    -0.621040955580E+02    0.18339E-06   -0.99315E-07 20448   0.225E-02    0.280E-03
DAV:   5    -0.621040955384E+02    0.19518E-07   -0.12263E-06 17136   0.228E-02    0.298E-03
DAV:   6    -0.621040953818E+02    0.15661E-06   -0.11934E-06 21006   0.200E-02    0.832E-04
DAV:   7    -0.621040953858E+02   -0.39727E-08   -0.17371E-07 10500   0.665E-03
  40 F= -.62104095E+02 E0= -.62103747E+02  d E =-.138056E-04
       N       E                     dE             d eps       ncg     rms          rms(c)
DAV:   1    -0.621041009308E+02   -0.55490E-05   -0.38423E-03 19020   0.197E-01    0.767E-03
DAV:   2    -0.621041104827E+02   -0.95519E-05   -0.98660E-05 27972   0.657E-02    0.604E-03
DAV:   3    -0.621041103510E+02    0.13176E-06   -0.57941E-06 20706   0.570E-02    0.462E-03
DAV:   4    -0.621041101853E+02    0.16568E-06   -0.95463E-07 20520   0.199E-02    0.264E-03
DAV:   5    -0.621041101416E+02    0.43703E-07   -0.94607E-07 17154   0.165E-02
  41 F= -.62104110E+02 E0= -.62103759E+02  d E =-.147558E-04
       N       E                     dE             d eps       ncg     rms          rms(c)
DAV:   1    -0.621041155882E+02   -0.54029E-05   -0.37348E-03 19518   0.194E-01    0.596E-03
DAV:   2    -0.621041233588E+02   -0.77706E-05   -0.79430E-05 28338   0.530E-02    0.513E-03
DAV:   3    -0.621041232435E+02    0.11531E-06   -0.35086E-06 21042   0.414E-02    0.376E-03
DAV:   4    -0.621041231154E+02    0.12805E-06   -0.10592E-06 20304   0.209E-02    0.271E-03
DAV:   5    -0.621041230694E+02    0.46053E-07   -0.71590E-07 14826   0.168E-02
  42 F= -.62104123E+02 E0= -.62103772E+02  d E =-.129278E-04
