 vasp.5.4.4.18Apr17-6-g9f103f2a35 (build Jun 16 2022 14:25:58) complex          
  
 executed on             LinuxIFC date 2025.05.15  00:01:46
 running on   48 total cores
 each image running on   24 cores
 distrk:  each k-point on   24 cores,    1 groups
 distr:  one band on NCORES_PER_BAND=   4 cores,    6 groups


--------------------------------------------------------------------------------------------------------


 INCAR:
 POTCAR:    PAW_PBE Cu 22Jun2005                  
 POTCAR:    PAW_PBE O 08Apr2002                   
 POTCAR:    PAW_PBE Cu 22Jun2005                  
   VRHFIN =Cu: d10 p1                                                           
   LEXCH  = PE                                                                  
   EATOM  =  1390.9808 eV,  102.2342 Ry                                         
                                                                                
   TITEL  = PAW_PBE Cu 22Jun2005                                                
   LULTRA =        F    use ultrasoft PP ?                                      
   IUNSCR =        1    unscreen: 0-lin 1-nonlin 2-no                           
   RPACOR =    2.000    partial core radius                                     
   POMASS =   63.546; ZVAL   =   11.000    mass and valenz                      
   RCORE  =    2.300    outmost cutoff radius                                   
   RWIGS  =    2.200; RWIGS  =    1.164    wigner-seitz radius (au A)           
   ENMAX  =  295.446; ENMIN  =  221.585 eV                                      
   ICORE  =        3    local potential                                         
   LCOR   =        T    correct aug charges                                     
   LPAW   =        T    paw PP                                                  
   EAUG   =  586.980                                                            
   DEXC   =    0.000                                                            
   RMAX   =    2.344    core radius for proj-oper                               
   RAUG   =    1.300    factor for augmentation sphere                          
   RDEP   =    2.302    radius for radial grids                                 
   RDEPT  =    1.771    core radius for aug-charge                              
                                                                                
   Atomic configuration                                                         
    9 entries                                                                   
     n  l   j            E        occ.                                          
     1  0  0.50     -8850.2468   2.0000                                         
     2  0  0.50     -1062.3498   2.0000                                         
     2  1  1.50      -916.8226   6.0000                                         
     3  0  0.50      -114.6929   2.0000                                         
     3  1  1.50       -72.1325   6.0000                                         
     3  2  2.50        -5.0394  10.0000                                         
     4  0  0.50        -4.6097   1.0000                                         
     4  1  0.50        -4.0817   0.0000                                         
     4  3  2.50        -1.3606   0.0000                                         
   Description                                                                  
     l       E           TYP  RCUT    TYP  RCUT                                 
     2     -5.0393973     23  2.200                                             
     2     10.8846608     23  2.200                                             
     0     -4.6097109     23  2.200                                             
     0      8.2520465     23  2.200                                             
     1     -2.7211652     23  2.200                                             
     1     21.7055443     23  2.200                                             
     3      2.7211652     23  2.300                                             
  local pseudopotential read in
  partial core-charges read in
  partial kinetic energy density read in
  atomic valenz-charges read in
  non local Contribution for L=           2  read in
    real space projection operators read in
  non local Contribution for L=           2  read in
    real space projection operators read in
  non local Contribution for L=           0  read in
    real space projection operators read in
  non local Contribution for L=           0  read in
    real space projection operators read in
  non local Contribution for L=           1  read in
    real space projection operators read in
  non local Contribution for L=           1  read in
    real space projection operators read in
    PAW grid and wavefunctions read in
 
   number of l-projection  operators is LMAX  =           6
   number of lm-projection operators is LMMAX =          18
 
 POTCAR:    PAW_PBE O 08Apr2002                   
   VRHFIN =O: s2p4                                                              
   LEXCH  = PE                                                                  
   EATOM  =   432.3788 eV,   31.7789 Ry                                         
                                                                                
   TITEL  = PAW_PBE O 08Apr2002                                                 
   LULTRA =        F    use ultrasoft PP ?                                      
   IUNSCR =        1    unscreen: 0-lin 1-nonlin 2-no                           
   RPACOR =    1.200    partial core radius                                     
   POMASS =   16.000; ZVAL   =    6.000    mass and valenz                      
   RCORE  =    1.520    outmost cutoff radius                                   
   RWIGS  =    1.550; RWIGS  =    0.820    wigner-seitz radius (au A)           
   ENMAX  =  400.000; ENMIN  =  300.000 eV                                      
   ICORE  =        2    local potential                                         
   LCOR   =        T    correct aug charges                                     
   LPAW   =        T    paw PP                                                  
   EAUG   =  605.392                                                            
   DEXC   =    0.000                                                            
   RMAX   =    1.553    core radius for proj-oper                               
   RAUG   =    1.300    factor for augmentation sphere                          
   RDEP   =    1.550    radius for radial grids                                 
   RDEPT  =    1.329    core radius for aug-charge                              
                                                                                
   Atomic configuration                                                         
    4 entries                                                                   
     n  l   j            E        occ.                                          
     1  0  0.50      -514.6923   2.0000                                         
     2  0  0.50       -23.9615   2.0000                                         
     2  1  0.50        -9.0305   4.0000                                         
     3  2  1.50        -9.5241   0.0000                                         
   Description                                                                  
     l       E           TYP  RCUT    TYP  RCUT                                 
     0    -23.9615318     23  1.200                                             
     0     -9.5240782     23  1.200                                             
     1     -9.0304911     23  1.520                                             
     1      8.1634956     23  1.520                                             
     2     -9.5240782      7  1.500                                             
  local pseudopotential read in
  partial core-charges read in
  partial kinetic energy density read in
  kinetic energy density of atom read in
  atomic valenz-charges read in
  non local Contribution for L=           0  read in
    real space projection operators read in
  non local Contribution for L=           0  read in
    real space projection operators read in
  non local Contribution for L=           1  read in
    real space projection operators read in
  non local Contribution for L=           1  read in
    real space projection operators read in
    PAW grid and wavefunctions read in
 
   number of l-projection  operators is LMAX  =           4
   number of lm-projection operators is LMMAX =           8
 
 Optimization of the real space projectors (new method)

 maximal supplied QI-value         = 16.25
 optimisation between [QCUT,QGAM] = [ 11.38, 22.75] = [ 36.24,144.96] Ry 
 Optimized for a Real-space Cutoff    1.52 Angstroem

   l    n(q)    QCUT    max X(q) W(low)/X(q) W(high)/X(q)  e(spline) 
   2      9    11.376     4.610    0.21E-03    0.10E-03    0.26E-06
   2      9    11.376     8.522    0.33E-03    0.16E-03    0.37E-06
   0     10    11.376    51.609    0.62E-04    0.20E-04    0.13E-06
   0     10    11.376    27.747    0.54E-04    0.20E-04    0.13E-06
   1     10    11.376    20.408    0.13E-04    0.99E-04    0.19E-06
   1     10    11.376    13.425    0.12E-04    0.87E-04    0.17E-06
 Optimization of the real space projectors (new method)

 maximal supplied QI-value         = 24.76
 optimisation between [QCUT,QGAM] = [ 11.39, 22.77] = [ 36.31,145.25] Ry 
 Optimized for a Real-space Cutoff    1.00 Angstroem

   l    n(q)    QCUT    max X(q) W(low)/X(q) W(high)/X(q)  e(spline) 
   0      7    11.387    20.381    0.39E-03    0.13E-02    0.15E-06
   0      7    11.387    15.268    0.42E-03    0.14E-02    0.17E-06
   1      6    11.387     5.964    0.41E-03    0.11E-02    0.17E-06
   1      6    11.387     5.382    0.39E-03    0.87E-03    0.15E-06
  PAW_PBE Cu 22Jun2005                  :
 energy of atom  1       EATOM=-1390.9808
 kinetic energy error for atom=    0.0043 (will be added to EATOM!!)
  PAW_PBE O 08Apr2002                   :
 energy of atom  2       EATOM= -432.3788
 kinetic energy error for atom=    0.0224 (will be added to EATOM!!)
 
 
 POSCAR: Cu   O                                  
  positions in direct lattice
  velocities in cartesian coordinates
 exchange correlation table for  LEXCH =        8
   RHO(1)=    0.500       N(1)  =     2000
   RHO(2)=  100.500       N(2)  =     4000

 VTST: version 3.2, (02/03/18)

 CHAIN: initializing optimizer
 
 OPT: Using Quick-Min optimizer
 OPT: QM, Init
 OPT: QM, MAXMOVE       0.200000
 OPT: QM, TIMESTEP      0.100000
 
 CHAIN: Read ICHAIN            0
 CHAIN: Running the NEB
 NEB:          SPRING     -5.000000
 NEB:          LCLIMB      T
 NEB:     LTANGENTOLD      F
 NEB:           LDNEB      F
 NEB:        LDNEBORG      F
 NEB:        LNEBCELL      F
 NEB:          EFIRST      0.000000
 NEB:           ELAST      0.000000
 
 POSCAR: Cu   O                                  
  positions in direct lattice
  No initial velocities read in
 
 POSCAR: Cu   O                                  
  positions in direct lattice
  No initial velocities read in
 


--------------------------------------------------------------------------------------------------------


 ion  position               nearest neighbor table
   1  0.000  0.000  0.000-   5 2.56   8 2.56  13 2.56  12 2.56  12 2.56   9 2.56   9 2.56   4 2.56
                             4 2.56
   2  0.831  0.669  0.280-   3 2.48  15 2.49   6 2.54  10 2.54  14 2.56  14 2.56   8 2.56  10 2.57
                             6 2.57   5 2.58  16 2.58   7 2.61
   3  0.516  0.526  0.417-  17 1.85  15 2.34   2 2.48  11 2.52   7 2.54   6 2.54   7 2.58  11 2.60
                            14 2.63  15 2.77
   4  0.500  0.500  0.000-  16 2.56  13 2.56   8 2.56   9 2.56   9 2.56  12 2.56  12 2.56   1 2.56
                             1 2.56
   5  0.167  0.833  0.139-   6 2.54  14 2.55   1 2.56  12 2.56   9 2.56   8 2.56   8 2.56  13 2.56
                            13 2.56  16 2.56  16 2.56   2 2.58
   6  0.331  0.674  0.279-  10 2.53   3 2.54   5 2.54   2 2.54  14 2.55  14 2.56   7 2.57   2 2.57
                             8 2.57  10 2.58  13 2.59  11 2.60
   7  0.005  0.495  0.420-  15 2.54   3 2.54  11 2.56  11 2.56   6 2.57  10 2.57   3 2.58  15 2.58
                             2 2.61
   8  0.667  0.833  0.139-  12 2.56   1 2.56   4 2.56   5 2.56   5 2.56  16 2.56  16 2.56  13 2.56
                            13 2.56   2 2.56   6 2.57  10 2.57
   9  0.000  0.500  0.000-  13 2.56  16 2.56   5 2.56   4 2.56   4 2.56   1 2.56   1 2.56  12 2.56
                            12 2.56
  10  0.826  0.169  0.279-   6 2.53  15 2.54  16 2.54   2 2.54  14 2.55  14 2.56   7 2.57   2 2.57
                             8 2.57   6 2.58  13 2.59  11 2.60
  11  0.482  0.018  0.419-  15 2.52   3 2.52  14 2.55   7 2.56   7 2.56  10 2.60   6 2.60   3 2.60
                            15 2.60
  12  0.500  0.000  0.000-   8 2.56   5 2.56  16 2.56   1 2.56   1 2.56   4 2.56   4 2.56   9 2.56
                             9 2.56
  13  0.167  0.333  0.139-  14 2.50   9 2.56   4 2.56   1 2.56  16 2.56  16 2.56   5 2.56   5 2.56
                             8 2.56   8 2.56   6 2.59  10 2.59
  14  0.328  0.172  0.276-  13 2.50  16 2.55   5 2.55  11 2.55  10 2.55   6 2.55   2 2.56   2 2.56
                             6 2.56  10 2.56  15 2.63   3 2.63
  15  0.974  0.985  0.417-  17 1.85   3 2.34   2 2.49  11 2.52   7 2.54  10 2.54   7 2.58  11 2.60
                            14 2.63   3 2.77
  16  0.667  0.333  0.139-  10 2.54  14 2.55   4 2.56   9 2.56  12 2.56  13 2.56  13 2.56   8 2.56
                             8 2.56   5 2.56   5 2.56   2 2.58
  17  0.244  0.256  0.498-  15 1.85   3 1.85
 

IMPORTANT INFORMATION: All symmetrisations will be switched off!
NOSYMM: (Re-)initialisation of all symmetry stuff for point group C_1.

 
 
 KPOINTS: K-Spacing Value to Generate K-Mesh: 0.04

Automatic generation of k-mesh.
Space group operators:
 irot       det(A)        alpha          n_x          n_y          n_z        tau_x        tau_y        tau_z
    1     1.000000     0.000000     1.000000     0.000000     0.000000     0.000000     0.000000     0.000000
 
 Subroutine IBZKPT returns following result:
 ===========================================
 
 Found     82 irreducible k-points:
 
 Following reciprocal coordinates:
            Coordinates               Weight
  0.000000  0.000000  0.000000      1.000000
  0.111111  0.000000  0.000000      2.000000
  0.222222  0.000000  0.000000      2.000000
  0.333333  0.000000  0.000000      2.000000
  0.444444  0.000000  0.000000      2.000000
 -0.000000  0.111111  0.000000      2.000000
  0.111111  0.111111  0.000000      2.000000
  0.222222  0.111111  0.000000      2.000000
  0.333333  0.111111  0.000000      2.000000
  0.444444  0.111111  0.000000      2.000000
 -0.444444  0.111111  0.000000      2.000000
 -0.333333  0.111111  0.000000      2.000000
 -0.222222  0.111111  0.000000      2.000000
 -0.111111  0.111111  0.000000      2.000000
  0.000000  0.222222  0.000000      2.000000
  0.111111  0.222222  0.000000      2.000000
  0.222222  0.222222  0.000000      2.000000
  0.333333  0.222222  0.000000      2.000000
  0.444444  0.222222  0.000000      2.000000
 -0.444444  0.222222  0.000000      2.000000
 -0.333333  0.222222  0.000000      2.000000
 -0.222222  0.222222  0.000000      2.000000
 -0.111111  0.222222  0.000000      2.000000
  0.000000  0.333333  0.000000      2.000000
  0.111111  0.333333  0.000000      2.000000
  0.222222  0.333333  0.000000      2.000000
  0.333333  0.333333  0.000000      2.000000
  0.444444  0.333333  0.000000      2.000000
 -0.444444  0.333333  0.000000      2.000000
 -0.333333  0.333333  0.000000      2.000000
 -0.222222  0.333333  0.000000      2.000000
 -0.111111  0.333333  0.000000      2.000000
  0.000000  0.444444  0.000000      2.000000
  0.111111  0.444444  0.000000      2.000000
  0.222222  0.444444  0.000000      2.000000
  0.333333  0.444444  0.000000      2.000000
  0.444444  0.444444  0.000000      2.000000
 -0.444444  0.444444  0.000000      2.000000
 -0.333333  0.444444  0.000000      2.000000
 -0.222222  0.444444  0.000000      2.000000
 -0.111111  0.444444  0.000000      2.000000
  0.000000  0.000000  0.500000      1.000000
  0.111111  0.000000  0.500000      2.000000
  0.222222  0.000000  0.500000      2.000000
  0.333333  0.000000  0.500000      2.000000
  0.444444  0.000000  0.500000      2.000000
 -0.000000  0.111111  0.500000      2.000000
  0.111111  0.111111  0.500000      2.000000
  0.222222  0.111111  0.500000      2.000000
  0.333333  0.111111  0.500000      2.000000
  0.444444  0.111111  0.500000      2.000000
 -0.444444  0.111111  0.500000      2.000000
 -0.333333  0.111111  0.500000      2.000000
 -0.222222  0.111111  0.500000      2.000000
 -0.111111  0.111111  0.500000      2.000000
  0.000000  0.222222  0.500000      2.000000
  0.111111  0.222222  0.500000      2.000000
  0.222222  0.222222  0.500000      2.000000
  0.333333  0.222222  0.500000      2.000000
  0.444444  0.222222  0.500000      2.000000
 -0.444444  0.222222  0.500000      2.000000
 -0.333333  0.222222  0.500000      2.000000
 -0.222222  0.222222  0.500000      2.000000
 -0.111111  0.222222  0.500000      2.000000
  0.000000  0.333333  0.500000      2.000000
  0.111111  0.333333  0.500000      2.000000
  0.222222  0.333333  0.500000      2.000000
  0.333333  0.333333  0.500000      2.000000
  0.444444  0.333333  0.500000      2.000000
 -0.444444  0.333333  0.500000      2.000000
 -0.333333  0.333333  0.500000      2.000000
 -0.222222  0.333333  0.500000      2.000000
 -0.111111  0.333333  0.500000      2.000000
  0.000000  0.444444  0.500000      2.000000
  0.111111  0.444444  0.500000      2.000000
  0.222222  0.444444  0.500000      2.000000
  0.333333  0.444444  0.500000      2.000000
  0.444444  0.444444  0.500000      2.000000
 -0.444444  0.444444  0.500000      2.000000
 -0.333333  0.444444  0.500000      2.000000
 -0.222222  0.444444  0.500000      2.000000
 -0.111111  0.444444  0.500000      2.000000
 
 Following cartesian coordinates:
            Coordinates               Weight
  0.000000  0.000000  0.000000      1.000000
  0.025098  0.000000  0.000000      2.000000
  0.050196  0.000000  0.000000      2.000000
  0.075294  0.000000  0.000000      2.000000
  0.100392  0.000000  0.000000      2.000000
  0.012549  0.021736  0.000000      2.000000
  0.037647  0.021736  0.000000      2.000000
  0.062745  0.021736  0.000000      2.000000
  0.087843  0.021736  0.000000      2.000000
  0.112941  0.021736  0.000000      2.000000
 -0.087843  0.021736  0.000000      2.000000
 -0.062745  0.021736  0.000000      2.000000
 -0.037647  0.021736  0.000000      2.000000
 -0.012549  0.021736  0.000000      2.000000
  0.025098  0.043471  0.000000      2.000000
  0.050196  0.043471  0.000000      2.000000
  0.075294  0.043471  0.000000      2.000000
  0.100392  0.043471  0.000000      2.000000
  0.125490  0.043471  0.000000      2.000000
 -0.075294  0.043471  0.000000      2.000000
 -0.050196  0.043471  0.000000      2.000000
 -0.025098  0.043471  0.000000      2.000000
  0.000000  0.043471  0.000000      2.000000
  0.037647  0.065207  0.000000      2.000000
  0.062745  0.065207  0.000000      2.000000
  0.087843  0.065207  0.000000      2.000000
  0.112941  0.065207  0.000000      2.000000
  0.138039  0.065207  0.000000      2.000000
 -0.062745  0.065207  0.000000      2.000000
 -0.037647  0.065207  0.000000      2.000000
 -0.012549  0.065207  0.000000      2.000000
  0.012549  0.065207  0.000000      2.000000
  0.050196  0.086942  0.000000      2.000000
  0.075294  0.086942  0.000000      2.000000
  0.100392  0.086942  0.000000      2.000000
  0.125490  0.086942  0.000000      2.000000
  0.150588  0.086942  0.000000      2.000000
 -0.050196  0.086942  0.000000      2.000000
 -0.025098  0.086942  0.000000      2.000000
 -0.000000  0.086942  0.000000      2.000000
  0.025098  0.086942  0.000000      2.000000
  0.000000  0.000000  0.033333      1.000000
  0.025098  0.000000  0.033333      2.000000
  0.050196  0.000000  0.033333      2.000000
  0.075294  0.000000  0.033333      2.000000
  0.100392  0.000000  0.033333      2.000000
  0.012549  0.021736  0.033333      2.000000
  0.037647  0.021736  0.033333      2.000000
  0.062745  0.021736  0.033333      2.000000
  0.087843  0.021736  0.033333      2.000000
  0.112941  0.021736  0.033333      2.000000
 -0.087843  0.021736  0.033333      2.000000
 -0.062745  0.021736  0.033333      2.000000
 -0.037647  0.021736  0.033333      2.000000
 -0.012549  0.021736  0.033333      2.000000
  0.025098  0.043471  0.033333      2.000000
  0.050196  0.043471  0.033333      2.000000
  0.075294  0.043471  0.033333      2.000000
  0.100392  0.043471  0.033333      2.000000
  0.125490  0.043471  0.033333      2.000000
 -0.075294  0.043471  0.033333      2.000000
 -0.050196  0.043471  0.033333      2.000000
 -0.025098  0.043471  0.033333      2.000000
  0.000000  0.043471  0.033333      2.000000
  0.037647  0.065207  0.033333      2.000000
  0.062745  0.065207  0.033333      2.000000
  0.087843  0.065207  0.033333      2.000000
  0.112941  0.065207  0.033333      2.000000
  0.138039  0.065207  0.033333      2.000000
 -0.062745  0.065207  0.033333      2.000000
 -0.037647  0.065207  0.033333      2.000000
 -0.012549  0.065207  0.033333      2.000000
  0.012549  0.065207  0.033333      2.000000
  0.050196  0.086942  0.033333      2.000000
  0.075294  0.086942  0.033333      2.000000
  0.100392  0.086942  0.033333      2.000000
  0.125490  0.086942  0.033333      2.000000
  0.150588  0.086942  0.033333      2.000000
 -0.050196  0.086942  0.033333      2.000000
 -0.025098  0.086942  0.033333      2.000000
 -0.000000  0.086942  0.033333      2.000000
  0.025098  0.086942  0.033333      2.000000
 


--------------------------------------------------------------------------------------------------------




 Dimension of arrays:
   k-points           NKPTS =     82   k-points in BZ     NKDIM =     82   number of bands    NBANDS=    114
   number of dos      NEDOS =    301   number of ions     NIONS =     17
   non local maximal  LDIM  =      6   non local SUM 2l+1 LMDIM =     18
   total plane-waves  NPLWV =  65856
   max r-space proj   IRMAX =   2896   max aug-charges    IRDMAX=   5818
   dimension x,y,z NGX =    28 NGY =   28 NGZ =   84
   dimension x,y,z NGXF=    56 NGYF=   56 NGZF=  168
   support grid    NGXF=    56 NGYF=   56 NGZF=  168
   ions per type =              16   1
   NGX,Y,Z   is equivalent  to a cutoff of   9.11,  9.11,  9.31 a.u.
   NGXF,Y,Z  is equivalent  to a cutoff of  18.21, 18.21, 18.62 a.u.

 SYSTEM =  TS                                      
 POSCAR =  Cu   O                                  

 Startparameter for this run:
   NWRITE =      2    write-flag & timer
   PREC   = normal    normal or accurate (medium, high low for compatibility)
   ISTART =      0    job   : 0-new  1-cont  2-samecut
   ICHARG =      2    charge: 1-file 2-atom 10-const
   ISPIN  =      1    spin polarized calculation?
   LNONCOLLINEAR =      F non collinear calculations
   LSORBIT =      F    spin-orbit coupling
   INIWAV =      1    electr: 0-lowe 1-rand  2-diag
   LASPH  =      T    aspherical Exc in radial PAW
   METAGGA=      F    non-selfconsistent MetaGGA calc.

 Electronic Relaxation 1
   ENCUT  =  500.0 eV  36.75 Ry    6.06 a.u.   9.32  9.32 27.35*2*pi/ulx,y,z
   ENINI  =  500.0     initial cutoff
   ENAUG  =  605.4 eV  augmentation charge cutoff
   NELM   =     60;   NELMIN=  2; NELMDL=  0     # of ELM steps 
   EDIFF  = 0.1E-06   stopping-criterion for ELM
   LREAL  =      T    real-space projection
   NLSPLINE    = F    spline interpolate recip. space projectors
   LCOMPAT=      F    compatible to vasp.4.4
   GGA_COMPAT  = T    GGA compatible to vasp.4.4-vasp.4.6
   LMAXPAW     = -100 max onsite density
   LMAXMIX     =    2 max onsite mixed and CHGCAR
   VOSKOWN=      0    Vosko Wilk Nusair interpolation
   ROPT   =   -0.00050  -0.00050
 Ionic relaxation
   EDIFFG = -.1E-01   stopping-criterion for IOM
   NSW    =    400    number of steps for IOM
   NBLOCK =      1;   KBLOCK =    400    inner block; outer block 
   IBRION =      3    ionic relax: 0-MD 1-quasi-New 2-CG
   NFREE  =      0    steps in history (QN), initial steepest desc. (CG)
   ISIF   =      2    stress and relaxation
   IWAVPR =     11    prediction:  0-non 1-charg 2-wave 3-comb
   ISYM   =      0    0-nonsym 1-usesym 2-fastsym
   LCORR  =      T    Harris-Foulkes like correction to forces

   POTIM  = 0.0000    time-step for ionic-motion
   TEIN   =    0.0    initial temperature
   TEBEG  =    0.0;   TEEND  =   0.0 temperature during run
   SMASS  =  -3.00    Nose mass-parameter (am)
   estimated Nose-frequenzy (Omega)   =  0.10E-29 period in steps =  0.00 mass=  -0.597E-27a.u.
   SCALEE = 1.0000    scale energy and forces
   NPACO  =    256;   APACO  = 16.0  distance and # of slots for P.C.
   PSTRESS=    0.0 pullay stress

  Mass of Ions in am
   POMASS =  63.55 16.00
  Ionic Valenz
   ZVAL   =  11.00  6.00
  Atomic Wigner-Seitz radii
   RWIGS  =  -1.00 -1.00
  virtual crystal weights 
   VCA    =   1.00  1.00
   NELECT =     182.0000    total number of electrons
   NUPDOWN=      -1.0000    fix difference up-down

 DOS related values:
   EMIN   =  10.00;   EMAX   =-10.00  energy-range for DOS
   EFERMI =   0.00
   ISMEAR =     0;   SIGMA  =   0.01  broadening in eV -4-tet -1-fermi 0-gaus

 Electronic relaxation 2 (details)
   IALGO  =     38    algorithm
   LDIAG  =      T    sub-space diagonalisation (order eigenvalues)
   LSUBROT=      F    optimize rotation matrix (better conditioning)
   TURBO    =      0    0=normal 1=particle mesh
   IRESTART =      0    0=no restart 2=restart with 2 vectors
   NREBOOT  =      0    no. of reboots
   NMIN     =      0    reboot dimension
   EREF     =   0.00    reference energy to select bands
   IMIX   =      4    mixing-type and parameters
     AMIX     =   0.40;   BMIX     =  1.00
     AMIX_MAG =   1.60;   BMIX_MAG =  1.00
     AMIN     =   0.10
     WC   =   100.;   INIMIX=   1;  MIXPRE=   1;  MAXMIX= -45

 Intra band minimization:
   WEIMIN = 0.0010     energy-eigenvalue tresh-hold
   EBREAK =  0.22E-09  absolut break condition
   DEPER  =   0.30     relativ break condition  

   TIME   =   0.40     timestep for ELM

  volume/ion in A,a.u.               =      19.97       134.75
  Fermi-wavevector in a.u.,A,eV,Ry     =   1.329943  2.513229 24.065297  1.768749
  Thomas-Fermi vector in A             =   2.459068
 
 Write flags
   LWAVE        =      F    write WAVECAR
   LDOWNSAMPLE  =      F    k-point downsampling of WAVECAR
   LCHARG       =      F    write CHGCAR
   LVTOT        =      F    write LOCPOT, total local potential
   LVHAR        =      F    write LOCPOT, Hartree potential only
   LELF         =      F    write electronic localiz. function (ELF)
   LORBIT       =      0    0 simple, 1 ext, 2 COOP (PROOUT), +10 PAW based schemes


 Dipole corrections
   LMONO  =      F    monopole corrections only (constant potential shift)
   LDIPOL =      F    correct potential (dipole corrections)
   IDIPOL =      0    1-x, 2-y, 3-z, 4-all directions 
   EPSILON=  1.0000000 bulk dielectric constant

 Exchange correlation treatment:
   GGA     =    --    GGA type
   LEXCH   =     8    internal setting for exchange type
   VOSKOWN=      0    Vosko Wilk Nusair interpolation
   LHFCALC =     F    Hartree Fock is set to
   LHFONE  =     F    Hartree Fock one center treatment
   AEXX    =    0.0000 exact exchange contribution

 Linear response parameters
   LEPSILON=     F    determine dielectric tensor
   LRPA    =     F    only Hartree local field effects (RPA)
   LNABLA  =     F    use nabla operator in PAW spheres
   LVEL    =     F    velocity operator in full k-point grid
   LINTERFAST=   F  fast interpolation
   KINTER  =     0    interpolate to denser k-point grid
   CSHIFT  =0.1000    complex shift for real part using Kramers Kronig
   OMEGAMAX=  -1.0    maximum frequency
   DEG_THRESHOLD= 0.2000000E-02 threshold for treating states as degnerate
   RTIME   =   -0.100 relaxation time in fs
  (WPLASMAI=    0.000 imaginary part of plasma frequency in eV, 0.658/RTIME)
   DFIELD  = 0.0000000 0.0000000 0.0000000 field for delta impulse in time
 
 Orbital magnetization related:
   ORBITALMAG=     F  switch on orbital magnetization
   LCHIMAG   =     F  perturbation theory with respect to B field
   DQ        =  0.001000  dq finite difference perturbation B field
   LLRAUG    =     F  two centre corrections for induced B field



--------------------------------------------------------------------------------------------------------


 quickmin algorithm: (dynamic with friction)
   using selective dynamics as specified on POSCAR
 charge density and potential will be updated during run
 non-spin polarized calculation
 Variant of blocked Davidson
 Davidson routine will perform the subspace rotation
 perform sub-space diagonalisation
    after iterative eigenvector-optimisation
 modified Broyden-mixing scheme, WC =      100.0
 initial mixing is a Kerker type mixing with AMIX =  0.4000 and BMIX =      1.0000
 Hartree-type preconditioning will be used
 using additional bands           23
 real space projection scheme for non local part
 use partial core corrections
 calculate Harris-corrections to forces 
   (improved forces if not selfconsistent)
 use gradient corrections 
 use of overlap-Matrix (Vanderbilt PP)
 Gauss-broadening in eV      SIGMA  =   0.01


--------------------------------------------------------------------------------------------------------


  energy-cutoff  :      500.00
  volume of cell :      339.47
      direct lattice vectors                 reciprocal lattice vectors
     4.427085287 -2.555978882  0.000000000     0.225882253  0.000000000  0.000000000
     0.000000000  5.111957764  0.000000000     0.112941127  0.195619770  0.000000000
     0.000000000  0.000000000 15.000000000     0.000000000  0.000000000  0.066666667

  length of vectors
     5.111957764  5.111957764 15.000000000     0.225882253  0.225882253  0.066666667


 
 k-points in units of 2pi/SCALE and weight: K-Spacing Value to Generate K-Mesh: 0.04
   0.00000000  0.00000000  0.00000000       0.006
   0.02509803  0.00000000  0.00000000       0.012
   0.05019606  0.00000000  0.00000000       0.012
   0.07529408  0.00000000  0.00000000       0.012
   0.10039211  0.00000000  0.00000000       0.012
   0.01254901  0.02173553  0.00000000       0.012
   0.03764704  0.02173553  0.00000000       0.012
   0.06274507  0.02173553  0.00000000       0.012
   0.08784310  0.02173553  0.00000000       0.012
   0.11294113  0.02173553  0.00000000       0.012
  -0.08784310  0.02173553  0.00000000       0.012
  -0.06274507  0.02173553  0.00000000       0.012
  -0.03764704  0.02173553  0.00000000       0.012
  -0.01254901  0.02173553  0.00000000       0.012
   0.02509803  0.04347106  0.00000000       0.012
   0.05019606  0.04347106  0.00000000       0.012
   0.07529408  0.04347106  0.00000000       0.012
   0.10039211  0.04347106  0.00000000       0.012
   0.12549014  0.04347106  0.00000000       0.012
  -0.07529408  0.04347106  0.00000000       0.012
  -0.05019606  0.04347106  0.00000000       0.012
  -0.02509803  0.04347106  0.00000000       0.012
   0.00000000  0.04347106  0.00000000       0.012
   0.03764704  0.06520659  0.00000000       0.012
   0.06274507  0.06520659  0.00000000       0.012
   0.08784310  0.06520659  0.00000000       0.012
   0.11294113  0.06520659  0.00000000       0.012
   0.13803915  0.06520659  0.00000000       0.012
  -0.06274507  0.06520659  0.00000000       0.012
  -0.03764704  0.06520659  0.00000000       0.012
  -0.01254901  0.06520659  0.00000000       0.012
   0.01254901  0.06520659  0.00000000       0.012
   0.05019606  0.08694212  0.00000000       0.012
   0.07529408  0.08694212  0.00000000       0.012
   0.10039211  0.08694212  0.00000000       0.012
   0.12549014  0.08694212  0.00000000       0.012
   0.15058817  0.08694212  0.00000000       0.012
  -0.05019606  0.08694212  0.00000000       0.012
  -0.02509803  0.08694212  0.00000000       0.012
  -0.00000000  0.08694212  0.00000000       0.012
   0.02509803  0.08694212  0.00000000       0.012
   0.00000000  0.00000000  0.03333333       0.006
   0.02509803  0.00000000  0.03333333       0.012
   0.05019606  0.00000000  0.03333333       0.012
   0.07529408  0.00000000  0.03333333       0.012
   0.10039211  0.00000000  0.03333333       0.012
   0.01254901  0.02173553  0.03333333       0.012
   0.03764704  0.02173553  0.03333333       0.012
   0.06274507  0.02173553  0.03333333       0.012
   0.08784310  0.02173553  0.03333333       0.012
   0.11294113  0.02173553  0.03333333       0.012
  -0.08784310  0.02173553  0.03333333       0.012
  -0.06274507  0.02173553  0.03333333       0.012
  -0.03764704  0.02173553  0.03333333       0.012
  -0.01254901  0.02173553  0.03333333       0.012
   0.02509803  0.04347106  0.03333333       0.012
   0.05019606  0.04347106  0.03333333       0.012
   0.07529408  0.04347106  0.03333333       0.012
   0.10039211  0.04347106  0.03333333       0.012
   0.12549014  0.04347106  0.03333333       0.012
  -0.07529408  0.04347106  0.03333333       0.012
  -0.05019606  0.04347106  0.03333333       0.012
  -0.02509803  0.04347106  0.03333333       0.012
   0.00000000  0.04347106  0.03333333       0.012
   0.03764704  0.06520659  0.03333333       0.012
   0.06274507  0.06520659  0.03333333       0.012
   0.08784310  0.06520659  0.03333333       0.012
   0.11294113  0.06520659  0.03333333       0.012
   0.13803915  0.06520659  0.03333333       0.012
  -0.06274507  0.06520659  0.03333333       0.012
  -0.03764704  0.06520659  0.03333333       0.012
  -0.01254901  0.06520659  0.03333333       0.012
   0.01254901  0.06520659  0.03333333       0.012
   0.05019606  0.08694212  0.03333333       0.012
   0.07529408  0.08694212  0.03333333       0.012
   0.10039211  0.08694212  0.03333333       0.012
   0.12549014  0.08694212  0.03333333       0.012
   0.15058817  0.08694212  0.03333333       0.012
  -0.05019606  0.08694212  0.03333333       0.012
  -0.02509803  0.08694212  0.03333333       0.012
  -0.00000000  0.08694212  0.03333333       0.012
   0.02509803  0.08694212  0.03333333       0.012
 
 k-points in reciprocal lattice and weights: K-Spacing Value to Generate K-Mesh: 0.04
   0.00000000  0.00000000  0.00000000       0.006
   0.11111111  0.00000000  0.00000000       0.012
   0.22222222  0.00000000  0.00000000       0.012
   0.33333333  0.00000000  0.00000000       0.012
   0.44444444  0.00000000  0.00000000       0.012
  -0.00000000  0.11111111  0.00000000       0.012
   0.11111111  0.11111111  0.00000000       0.012
   0.22222222  0.11111111  0.00000000       0.012
   0.33333333  0.11111111  0.00000000       0.012
   0.44444444  0.11111111  0.00000000       0.012
  -0.44444444  0.11111111  0.00000000       0.012
  -0.33333333  0.11111111  0.00000000       0.012
  -0.22222222  0.11111111  0.00000000       0.012
  -0.11111111  0.11111111  0.00000000       0.012
   0.00000000  0.22222222  0.00000000       0.012
   0.11111111  0.22222222  0.00000000       0.012
   0.22222222  0.22222222  0.00000000       0.012
   0.33333333  0.22222222  0.00000000       0.012
   0.44444444  0.22222222  0.00000000       0.012
  -0.44444444  0.22222222  0.00000000       0.012
  -0.33333333  0.22222222  0.00000000       0.012
  -0.22222222  0.22222222  0.00000000       0.012
  -0.11111111  0.22222222  0.00000000       0.012
   0.00000000  0.33333333  0.00000000       0.012
   0.11111111  0.33333333  0.00000000       0.012
   0.22222222  0.33333333  0.00000000       0.012
   0.33333333  0.33333333  0.00000000       0.012
   0.44444444  0.33333333  0.00000000       0.012
  -0.44444444  0.33333333  0.00000000       0.012
  -0.33333333  0.33333333  0.00000000       0.012
  -0.22222222  0.33333333  0.00000000       0.012
  -0.11111111  0.33333333  0.00000000       0.012
   0.00000000  0.44444444  0.00000000       0.012
   0.11111111  0.44444444  0.00000000       0.012
   0.22222222  0.44444444  0.00000000       0.012
   0.33333333  0.44444444  0.00000000       0.012
   0.44444444  0.44444444  0.00000000       0.012
  -0.44444444  0.44444444  0.00000000       0.012
  -0.33333333  0.44444444  0.00000000       0.012
  -0.22222222  0.44444444  0.00000000       0.012
  -0.11111111  0.44444444  0.00000000       0.012
   0.00000000  0.00000000  0.50000000       0.006
   0.11111111  0.00000000  0.50000000       0.012
   0.22222222  0.00000000  0.50000000       0.012
   0.33333333  0.00000000  0.50000000       0.012
   0.44444444  0.00000000  0.50000000       0.012
  -0.00000000  0.11111111  0.50000000       0.012
   0.11111111  0.11111111  0.50000000       0.012
   0.22222222  0.11111111  0.50000000       0.012
   0.33333333  0.11111111  0.50000000       0.012
   0.44444444  0.11111111  0.50000000       0.012
  -0.44444444  0.11111111  0.50000000       0.012
  -0.33333333  0.11111111  0.50000000       0.012
  -0.22222222  0.11111111  0.50000000       0.012
  -0.11111111  0.11111111  0.50000000       0.012
   0.00000000  0.22222222  0.50000000       0.012
   0.11111111  0.22222222  0.50000000       0.012
   0.22222222  0.22222222  0.50000000       0.012
   0.33333333  0.22222222  0.50000000       0.012
   0.44444444  0.22222222  0.50000000       0.012
  -0.44444444  0.22222222  0.50000000       0.012
  -0.33333333  0.22222222  0.50000000       0.012
  -0.22222222  0.22222222  0.50000000       0.012
  -0.11111111  0.22222222  0.50000000       0.012
   0.00000000  0.33333333  0.50000000       0.012
   0.11111111  0.33333333  0.50000000       0.012
   0.22222222  0.33333333  0.50000000       0.012
   0.33333333  0.33333333  0.50000000       0.012
   0.44444444  0.33333333  0.50000000       0.012
  -0.44444444  0.33333333  0.50000000       0.012
  -0.33333333  0.33333333  0.50000000       0.012
  -0.22222222  0.33333333  0.50000000       0.012
  -0.11111111  0.33333333  0.50000000       0.012
   0.00000000  0.44444444  0.50000000       0.012
   0.11111111  0.44444444  0.50000000       0.012
   0.22222222  0.44444444  0.50000000       0.012
   0.33333333  0.44444444  0.50000000       0.012
   0.44444444  0.44444444  0.50000000       0.012
  -0.44444444  0.44444444  0.50000000       0.012
  -0.33333333  0.44444444  0.50000000       0.012
  -0.22222222  0.44444444  0.50000000       0.012
  -0.11111111  0.44444444  0.50000000       0.012
 
 position of ions in fractional coordinates (direct lattice) 
   0.00000000  0.00000000  0.00000000
   0.83084303  0.66919458  0.27976969
   0.51560611  0.52597888  0.41675396
   0.50000000  0.50000000  0.00000000
   0.16666667  0.83333333  0.13912987
   0.33059367  0.67435248  0.27914313
   0.00470398  0.49537680  0.42047336
   0.66666667  0.83333333  0.13912987
   0.00000000  0.50000000  0.00000000
   0.82565955  0.16941348  0.27914805
   0.48243709  0.01764841  0.41933275
   0.50000000  0.00000000  0.00000000
   0.16666667  0.33333333  0.13912987
   0.32777388  0.17224984  0.27622753
   0.97415829  0.98452623  0.41677165
   0.66666667  0.33333333  0.13912987
   0.24448800  0.25553381  0.49819563
 
 position of ions in cartesian coordinates  (Angst):
   0.00000000  0.00000000  0.00000000
   3.67821294  1.29727718  4.19654532
   2.28263223  1.37090346  6.25130934
   2.21354264  1.27798944  0.00000000
   0.73784755  3.83396832  2.08694802
   1.46356639  2.60227095  4.18714694
   0.02082493  2.52032202  6.30710044
   2.95139019  2.55597888  2.08694802
   0.00000000  2.55597888  0.00000000
   3.65526525 -1.24433380  4.18722080
   2.13579012 -1.14288108  6.28999132
   2.21354264 -1.27798944  0.00000000
   0.73784755  1.27798944  2.08694802
   1.45108290  0.04275080  4.14341293
   4.31268184  2.54292849  6.25157470
   2.95139019  0.00000000  2.08694802
   1.08236921  0.68137190  7.47293450
 


--------------------------------------------------------------------------------------------------------


 k-point  1 :   0.0000 0.0000 0.0000  plane waves:    8599
 k-point  2 :   0.1111 0.0000 0.0000  plane waves:    8622
 k-point  3 :   0.2222 0.0000 0.0000  plane waves:    8636
 k-point  4 :   0.3333 0.0000 0.0000  plane waves:    8596
 k-point  5 :   0.4444 0.0000 0.0000  plane waves:    8616
 k-point  6 :  -0.0000 0.1111 0.0000  plane waves:    8622
 k-point  7 :   0.1111 0.1111 0.0000  plane waves:    8641
 k-point  8 :   0.2222 0.1111 0.0000  plane waves:    8628
 k-point  9 :   0.3333 0.1111 0.0000  plane waves:    8622
 k-point 10 :   0.4444 0.1111 0.0000  plane waves:    8636
 k-point 11 :  -0.4444 0.1111 0.0000  plane waves:    8622
 k-point 12 :  -0.3333 0.1111 0.0000  plane waves:    8628
 k-point 13 :  -0.2222 0.1111 0.0000  plane waves:    8641
 k-point 14 :  -0.1111 0.1111 0.0000  plane waves:    8622
 k-point 15 :   0.0000 0.2222 0.0000  plane waves:    8636
 k-point 16 :   0.1111 0.2222 0.0000  plane waves:    8628
 k-point 17 :   0.2222 0.2222 0.0000  plane waves:    8611
 k-point 18 :   0.3333 0.2222 0.0000  plane waves:    8605
 k-point 19 :   0.4444 0.2222 0.0000  plane waves:    8605
 k-point 20 :  -0.4444 0.2222 0.0000  plane waves:    8611
 k-point 21 :  -0.3333 0.2222 0.0000  plane waves:    8628
 k-point 22 :  -0.2222 0.2222 0.0000  plane waves:    8636
 k-point 23 :  -0.1111 0.2222 0.0000  plane waves:    8641
 k-point 24 :   0.0000 0.3333 0.0000  plane waves:    8596
 k-point 25 :   0.1111 0.3333 0.0000  plane waves:    8622
 k-point 26 :   0.2222 0.3333 0.0000  plane waves:    8605
 k-point 27 :   0.3333 0.3333 0.0000  plane waves:    8601
 k-point 28 :   0.4444 0.3333 0.0000  plane waves:    8605
 k-point 29 :  -0.4444 0.3333 0.0000  plane waves:    8622
 k-point 30 :  -0.3333 0.3333 0.0000  plane waves:    8596
 k-point 31 :  -0.2222 0.3333 0.0000  plane waves:    8628
 k-point 32 :  -0.1111 0.3333 0.0000  plane waves:    8628
 k-point 33 :   0.0000 0.4444 0.0000  plane waves:    8616
 k-point 34 :   0.1111 0.4444 0.0000  plane waves:    8636
 k-point 35 :   0.2222 0.4444 0.0000  plane waves:    8605
 k-point 36 :   0.3333 0.4444 0.0000  plane waves:    8605
 k-point 37 :   0.4444 0.4444 0.0000  plane waves:    8636
 k-point 38 :  -0.4444 0.4444 0.0000  plane waves:    8616
 k-point 39 :  -0.3333 0.4444 0.0000  plane waves:    8622
 k-point 40 :  -0.2222 0.4444 0.0000  plane waves:    8611
 k-point 41 :  -0.1111 0.4444 0.0000  plane waves:    8622
 k-point 42 :   0.0000 0.0000 0.5000  plane waves:    8670
 k-point 43 :   0.1111 0.0000 0.5000  plane waves:    8644
 k-point 44 :   0.2222 0.0000 0.5000  plane waves:    8638
 k-point 45 :   0.3333 0.0000 0.5000  plane waves:    8624
 k-point 46 :   0.4444 0.0000 0.5000  plane waves:    8630
 k-point 47 :  -0.0000 0.1111 0.5000  plane waves:    8644
 k-point 48 :   0.1111 0.1111 0.5000  plane waves:    8646
 k-point 49 :   0.2222 0.1111 0.5000  plane waves:    8608
 k-point 50 :   0.3333 0.1111 0.5000  plane waves:    8628
 k-point 51 :   0.4444 0.1111 0.5000  plane waves:    8592
 k-point 52 :  -0.4444 0.1111 0.5000  plane waves:    8628
 k-point 53 :  -0.3333 0.1111 0.5000  plane waves:    8608
 k-point 54 :  -0.2222 0.1111 0.5000  plane waves:    8646
 k-point 55 :  -0.1111 0.1111 0.5000  plane waves:    8644
 k-point 56 :   0.0000 0.2222 0.5000  plane waves:    8638
 k-point 57 :   0.1111 0.2222 0.5000  plane waves:    8608
 k-point 58 :   0.2222 0.2222 0.5000  plane waves:    8614
 k-point 59 :   0.3333 0.2222 0.5000  plane waves:    8586
 k-point 60 :   0.4444 0.2222 0.5000  plane waves:    8586
 k-point 61 :  -0.4444 0.2222 0.5000  plane waves:    8614
 k-point 62 :  -0.3333 0.2222 0.5000  plane waves:    8608
 k-point 63 :  -0.2222 0.2222 0.5000  plane waves:    8638
 k-point 64 :  -0.1111 0.2222 0.5000  plane waves:    8646
 k-point 65 :   0.0000 0.3333 0.5000  plane waves:    8624
 k-point 66 :   0.1111 0.3333 0.5000  plane waves:    8628
 k-point 67 :   0.2222 0.3333 0.5000  plane waves:    8586
 k-point 68 :   0.3333 0.3333 0.5000  plane waves:    8544
 k-point 69 :   0.4444 0.3333 0.5000  plane waves:    8586
 k-point 70 :  -0.4444 0.3333 0.5000  plane waves:    8628
 k-point 71 :  -0.3333 0.3333 0.5000  plane waves:    8624
 k-point 72 :  -0.2222 0.3333 0.5000  plane waves:    8608
 k-point 73 :  -0.1111 0.3333 0.5000  plane waves:    8608
 k-point 74 :   0.0000 0.4444 0.5000  plane waves:    8630
 k-point 75 :   0.1111 0.4444 0.5000  plane waves:    8592
 k-point 76 :   0.2222 0.4444 0.5000  plane waves:    8586
 k-point 77 :   0.3333 0.4444 0.5000  plane waves:    8586
 k-point 78 :   0.4444 0.4444 0.5000  plane waves:    8592
 k-point 79 :  -0.4444 0.4444 0.5000  plane waves:    8630
 k-point 80 :  -0.3333 0.4444 0.5000  plane waves:    8628
 k-point 81 :  -0.2222 0.4444 0.5000  plane waves:    8614
 k-point 82 :  -0.1111 0.4444 0.5000  plane waves:    8628

 maximum and minimum number of plane-waves per node :      2186     2102

 maximum number of plane-waves:      8670
 maximum index in each direction: 
   IXMAX=    9   IYMAX=    9   IZMAX=   27
   IXMIN=   -9   IYMIN=   -9   IZMIN=  -27


 real space projection operators:
  total allocation   :       6267.50 KBytes
  max/ min on nodes  :       1568.73       1564.61


 parallel 3D FFT for wavefunctions:
    minimum data exchange during FFTs selected (reduces bandwidth)
 parallel 3D FFT for charge:
    minimum data exchange during FFTs selected (reduces bandwidth)


 total amount of memory used by VASP MPI-rank0    93192. kBytes
=======================================================================

   base      :      30000. kBytes
   nonlr-proj:       2757. kBytes
   fftplans  :       1417. kBytes
   grid      :       2255. kBytes
   one-center:         77. kBytes
   wavefun   :      56686. kBytes
 
     INWAV:  cpu time    0.0000: real time    0.0000
 Broyden mixing: mesh for mixing (old mesh)
   NGX = 19   NGY = 19   NGZ = 55
  (NGX  = 56   NGY  = 56   NGZ  =168)
  gives a total of  19855 points

 initial charge density was supplied:
 charge density of overlapping atoms calculated
 number of electron     182.0000000 magnetization 
 keeping initial charge density in first step


--------------------------------------------------------------------------------------------------------


 Maximum index for non-local projection operator          709
 Maximum index for augmentation-charges          576 (set IRDMAX)


--------------------------------------------------------------------------------------------------------


 First call to EWALD:  gamma=   0.254
 Maximum number of real-space cells 4x 4x 2
 Maximum number of reciprocal cells 2x 2x 5

    FEWALD:  cpu time    0.0019: real time    0.0019


--------------------------------------- Iteration      1(   1)  ---------------------------------------


    POTLOK:  cpu time    0.0177: real time    0.0199
    SETDIJ:  cpu time    0.1623: real time    0.1623
     EDDAV:  cpu time    9.8910: real time    9.8912
       DOS:  cpu time    0.0038: real time    0.0038
    --------------------------------------------
      LOOP:  cpu time   10.0747: real time   10.0772

 eigenvalue-minimisations  : 18696
 total energy-change (2. order) : 0.1795651E+04  (-0.7680690E+04)
 number of electron     182.0000000 magnetization 
 augmentation part      182.0000000 magnetization 

 Free energy of the ion-electron system (eV)
  ---------------------------------------------------
  alpha Z        PSCENC =       582.73103390
  Ewald energy   TEWEN  =     14007.25774382
  -Hartree energ DENC   =    -36490.60244831
  -exchange      EXHF   =         0.00000000
  -V(xc)+E(xc)   XCENC  =       756.55696332
  PAW double counting   =     19997.85603494   -21693.12362158
  entropy T*S    EENTRO =        -0.00040676
  eigenvalues    EBANDS =      1946.99440363
  atomic energy  EATOM  =     22687.98115858
  Solvation  Ediel_sol  =         0.00000000
  ---------------------------------------------------
  free energy    TOTEN  =      1795.65086154 eV

  energy without entropy =     1795.65126830  energy(sigma->0) =     1795.65106492


--------------------------------------------------------------------------------------------------------




--------------------------------------- Iteration      1(   2)  ---------------------------------------


     EDDAV:  cpu time    9.8756: real time    9.8778
       DOS:  cpu time    0.0035: real time    0.0035
    --------------------------------------------
      LOOP:  cpu time    9.8790: real time    9.8813

 eigenvalue-minimisations  : 18696
 total energy-change (2. order) :-0.1566533E+04  (-0.1514698E+04)
 number of electron     182.0000000 magnetization 
 augmentation part      182.0000000 magnetization 

 Free energy of the ion-electron system (eV)
  ---------------------------------------------------
  alpha Z        PSCENC =       582.73103390
  Ewald energy   TEWEN  =     14007.25774382
  -Hartree energ DENC   =    -36490.60244831
  -exchange      EXHF   =         0.00000000
  -V(xc)+E(xc)   XCENC  =       756.55696332
  PAW double counting   =     19997.85603494   -21693.12362158
  entropy T*S    EENTRO =        -0.00039663
  eigenvalues    EBANDS =       380.46130954
  atomic energy  EATOM  =     22687.98115858
  Solvation  Ediel_sol  =         0.00000000
  ---------------------------------------------------
  free energy    TOTEN  =       229.11777758 eV

  energy without entropy =      229.11817421  energy(sigma->0) =      229.11797590


--------------------------------------------------------------------------------------------------------




--------------------------------------- Iteration      1(   3)  ---------------------------------------


     EDDAV:  cpu time   11.0130: real time   11.0129
       DOS:  cpu time    0.0036: real time    0.0036
    --------------------------------------------
      LOOP:  cpu time   11.0166: real time   11.0166

 eigenvalue-minimisations  : 21492
 total energy-change (2. order) :-0.2803353E+03  (-0.2596615E+03)
 number of electron     182.0000000 magnetization 
 augmentation part      182.0000000 magnetization 

 Free energy of the ion-electron system (eV)
  ---------------------------------------------------
  alpha Z        PSCENC =       582.73103390
  Ewald energy   TEWEN  =     14007.25774382
  -Hartree energ DENC   =    -36490.60244831
  -exchange      EXHF   =         0.00000000
  -V(xc)+E(xc)   XCENC  =       756.55696332
  PAW double counting   =     19997.85603494   -21693.12362158
  entropy T*S    EENTRO =        -0.00041027
  eigenvalues    EBANDS =       100.12604290
  atomic energy  EATOM  =     22687.98115858
  Solvation  Ediel_sol  =         0.00000000
  ---------------------------------------------------
  free energy    TOTEN  =       -51.21750271 eV

  energy without entropy =      -51.21709244  energy(sigma->0) =      -51.21729757


--------------------------------------------------------------------------------------------------------




--------------------------------------- Iteration      1(   4)  ---------------------------------------


     EDDAV:  cpu time   13.0953: real time   13.0952
       DOS:  cpu time    0.0034: real time    0.0034
    --------------------------------------------
      LOOP:  cpu time   13.0987: real time   13.0986

 eigenvalue-minimisations  : 26568
 total energy-change (2. order) :-0.2613623E+02  (-0.2476630E+02)
 number of electron     182.0000000 magnetization 
 augmentation part      182.0000000 magnetization 

 Free energy of the ion-electron system (eV)
  ---------------------------------------------------
  alpha Z        PSCENC =       582.73103390
  Ewald energy   TEWEN  =     14007.25774382
  -Hartree energ DENC   =    -36490.60244831
  -exchange      EXHF   =         0.00000000
  -V(xc)+E(xc)   XCENC  =       756.55696332
  PAW double counting   =     19997.85603494   -21693.12362158
  entropy T*S    EENTRO =        -0.00060451
  eigenvalues    EBANDS =        73.99000389
  atomic energy  EATOM  =     22687.98115858
  Solvation  Ediel_sol  =         0.00000000
  ---------------------------------------------------
  free energy    TOTEN  =       -77.35373595 eV

  energy without entropy =      -77.35313144  energy(sigma->0) =      -77.35343370


--------------------------------------------------------------------------------------------------------




--------------------------------------- Iteration      1(   5)  ---------------------------------------


     EDDAV:  cpu time   11.7190: real time   11.7201
       DOS:  cpu time    0.0037: real time    0.0037
    CHARGE:  cpu time    0.3224: real time    0.3224
    MIXING:  cpu time    0.0007: real time    0.0008
    --------------------------------------------
      LOOP:  cpu time   12.0458: real time   12.0471

 eigenvalue-minimisations  : 23214
 total energy-change (2. order) :-0.8962023E+00  (-0.8914308E+00)
 number of electron     181.9999859 magnetization 
 augmentation part      104.6234691 magnetization 

 Broyden mixing:
  rms(total) = 0.32063E+01    rms(broyden)= 0.32061E+01
  rms(prec ) = 0.36423E+01
  weight for this iteration     100.00

 Free energy of the ion-electron system (eV)
  ---------------------------------------------------
  alpha Z        PSCENC =       582.73103390
  Ewald energy   TEWEN  =     14007.25774382
  -Hartree energ DENC   =    -36490.60244831
  -exchange      EXHF   =         0.00000000
  -V(xc)+E(xc)   XCENC  =       756.55696332
  PAW double counting   =     19997.85603494   -21693.12362158
  entropy T*S    EENTRO =        -0.00074483
  eigenvalues    EBANDS =        73.09394194
  atomic energy  EATOM  =     22687.98115858
  Solvation  Ediel_sol  =         0.00000000
  ---------------------------------------------------
  free energy    TOTEN  =       -78.24993822 eV

  energy without entropy =      -78.24919339  energy(sigma->0) =      -78.24956581


--------------------------------------------------------------------------------------------------------




--------------------------------------- Iteration      1(   6)  ---------------------------------------


    POTLOK:  cpu time    0.0139: real time    0.0139
    SETDIJ:  cpu time    0.1616: real time    0.1616
     EDDAV:  cpu time   11.8345: real time   11.8344
       DOS:  cpu time    0.0036: real time    0.0036
    CHARGE:  cpu time    0.3241: real time    0.3241
    MIXING:  cpu time    0.0007: real time    0.0007
    --------------------------------------------
      LOOP:  cpu time   12.3383: real time   12.3382

 eigenvalue-minimisations  : 23226
 total energy-change (2. order) : 0.6795039E+01  (-0.1655595E+02)
 number of electron     181.9999851 magnetization 
 augmentation part      117.7881743 magnetization 

 Broyden mixing:
  rms(total) = 0.23281E+01    rms(broyden)= 0.23275E+01
  rms(prec ) = 0.28261E+01
  weight for this iteration     100.00

 eigenvalues of (default mixing * dielectric matrix)
  average eigenvalue GAMMA=   0.5859
  0.5859

 Free energy of the ion-electron system (eV)
  ---------------------------------------------------
  alpha Z        PSCENC =       582.73103390
  Ewald energy   TEWEN  =     14007.25774382
  -Hartree energ DENC   =    -36023.55576159
  -exchange      EXHF   =         0.00000000
  -V(xc)+E(xc)   XCENC  =       735.80165766
  PAW double counting   =     20255.55772096   -21859.38801278
  entropy T*S    EENTRO =        -0.00040427
  eigenvalues    EBANDS =      -457.84003590
  atomic energy  EATOM  =     22687.98115858
  Solvation  Ediel_sol  =         0.00000000
  ---------------------------------------------------
  free energy    TOTEN  =       -71.45489962 eV

  energy without entropy =      -71.45449535  energy(sigma->0) =      -71.45469748


--------------------------------------------------------------------------------------------------------




--------------------------------------- Iteration      1(   7)  ---------------------------------------


    POTLOK:  cpu time    0.0147: real time    0.0147
    SETDIJ:  cpu time    0.1625: real time    0.1625
     EDDAV:  cpu time   12.6033: real time   12.6031
       DOS:  cpu time    0.0036: real time    0.0036
    CHARGE:  cpu time    0.3231: real time    0.3231
    MIXING:  cpu time    0.0006: real time    0.0006
    --------------------------------------------
      LOOP:  cpu time   13.1077: real time   13.1076

 eigenvalue-minimisations  : 25092
 total energy-change (2. order) : 0.7776600E+01  (-0.9053919E+01)
 number of electron     181.9999851 magnetization 
 augmentation part      114.2569291 magnetization 

 Broyden mixing:
  rms(total) = 0.88783E+00    rms(broyden)= 0.88704E+00
  rms(prec ) = 0.12825E+01
  weight for this iteration     100.00

 eigenvalues of (default mixing * dielectric matrix)
  average eigenvalue GAMMA=   0.5049
  0.6131  0.3966

 Free energy of the ion-electron system (eV)
  ---------------------------------------------------
  alpha Z        PSCENC =       582.73103390
  Ewald energy   TEWEN  =     14007.25774382
  -Hartree energ DENC   =    -36193.58016383
  -exchange      EXHF   =         0.00000000
  -V(xc)+E(xc)   XCENC  =       741.08281270
  PAW double counting   =     20617.91577344   -22292.52008399
  entropy T*S    EENTRO =        -0.00077454
  eigenvalues    EBANDS =      -214.54579968
  atomic energy  EATOM  =     22687.98115858
  Solvation  Ediel_sol  =         0.00000000
  ---------------------------------------------------
  free energy    TOTEN  =       -63.67829961 eV

  energy without entropy =      -63.67752507  energy(sigma->0) =      -63.67791234


--------------------------------------------------------------------------------------------------------




--------------------------------------- Iteration      1(   8)  ---------------------------------------


    POTLOK:  cpu time    0.0149: real time    0.0166
    SETDIJ:  cpu time    0.1622: real time    0.1622
     EDDAV:  cpu time   13.4394: real time   13.4393
       DOS:  cpu time    0.0033: real time    0.0033
    CHARGE:  cpu time    0.3247: real time    0.3247
    MIXING:  cpu time    0.0006: real time    0.0006
    --------------------------------------------
      LOOP:  cpu time   13.9452: real time   13.9467

 eigenvalue-minimisations  : 27186
 total energy-change (2. order) : 0.1271920E+01  (-0.1481533E+01)
 number of electron     181.9999850 magnetization 
 augmentation part      113.2161736 magnetization 

 Broyden mixing:
  rms(total) = 0.52276E+00    rms(broyden)= 0.52268E+00
  rms(prec ) = 0.63206E+00
  weight for this iteration     100.00

 eigenvalues of (default mixing * dielectric matrix)
  average eigenvalue GAMMA=   0.4547
  0.6564  0.3538  0.3538

 Free energy of the ion-electron system (eV)
  ---------------------------------------------------
  alpha Z        PSCENC =       582.73103390
  Ewald energy   TEWEN  =     14007.25774382
  -Hartree energ DENC   =    -36210.05892363
  -exchange      EXHF   =         0.00000000
  -V(xc)+E(xc)   XCENC  =       742.42033630
  PAW double counting   =     20767.08954886   -22459.08776412
  entropy T*S    EENTRO =        -0.00005166
  eigenvalues    EBANDS =      -180.73946173
  atomic energy  EATOM  =     22687.98115858
  Solvation  Ediel_sol  =         0.00000000
  ---------------------------------------------------
  free energy    TOTEN  =       -62.40637969 eV

  energy without entropy =      -62.40632802  energy(sigma->0) =      -62.40635386


--------------------------------------------------------------------------------------------------------




--------------------------------------- Iteration      1(   9)  ---------------------------------------


    POTLOK:  cpu time    0.0146: real time    0.0146
    SETDIJ:  cpu time    0.1616: real time    0.1616
     EDDAV:  cpu time   13.2178: real time   13.2177
       DOS:  cpu time    0.0038: real time    0.0038
    CHARGE:  cpu time    0.3242: real time    0.3242
    MIXING:  cpu time    0.0006: real time    0.0006
    --------------------------------------------
      LOOP:  cpu time   13.7226: real time   13.7224

 eigenvalue-minimisations  : 26910
 total energy-change (2. order) : 0.1350050E+00  (-0.4201766E+00)
 number of electron     181.9999853 magnetization 
 augmentation part      112.8286383 magnetization 

 Broyden mixing:
  rms(total) = 0.27975E+00    rms(broyden)= 0.27971E+00
  rms(prec ) = 0.37695E+00
  weight for this iteration     100.00

 eigenvalues of (default mixing * dielectric matrix)
  average eigenvalue GAMMA=   0.7452
  1.6591  0.5165  0.5165  0.2889

 Free energy of the ion-electron system (eV)
  ---------------------------------------------------
  alpha Z        PSCENC =       582.73103390
  Ewald energy   TEWEN  =     14007.25774382
  -Hartree energ DENC   =    -36212.24115485
  -exchange      EXHF   =         0.00000000
  -V(xc)+E(xc)   XCENC  =       742.57858945
  PAW double counting   =     20861.13832271   -22560.41421174
  entropy T*S    EENTRO =        -0.00105922
  eigenvalues    EBANDS =      -171.30179734
  atomic energy  EATOM  =     22687.98115858
  Solvation  Ediel_sol  =         0.00000000
  ---------------------------------------------------
  free energy    TOTEN  =       -62.27137470 eV

  energy without entropy =      -62.27031548  energy(sigma->0) =      -62.27084509


--------------------------------------------------------------------------------------------------------




--------------------------------------- Iteration      1(  10)  ---------------------------------------


    POTLOK:  cpu time    0.0146: real time    0.0146
    SETDIJ:  cpu time    0.1621: real time    0.1621
     EDDAV:  cpu time   13.6717: real time   13.6716
       DOS:  cpu time    0.0037: real time    0.0037
    CHARGE:  cpu time    0.3250: real time    0.3250
    MIXING:  cpu time    0.0007: real time    0.0007
    --------------------------------------------
      LOOP:  cpu time   14.1778: real time   14.1776

 eigenvalue-minimisations  : 27828
 total energy-change (2. order) : 0.1090250E+00  (-0.1886971E+00)
 number of electron     181.9999853 magnetization 
 augmentation part      112.7828694 magnetization 

 Broyden mixing:
  rms(total) = 0.26075E+00    rms(broyden)= 0.26057E+00
  rms(prec ) = 0.33359E+00
  weight for this iteration     100.00

 eigenvalues of (default mixing * dielectric matrix)
  average eigenvalue GAMMA=   0.7399
  1.9099  0.5813  0.4752  0.4752  0.2578

 Free energy of the ion-electron system (eV)
  ---------------------------------------------------
  alpha Z        PSCENC =       582.73103390
  Ewald energy   TEWEN  =     14007.25774382
  -Hartree energ DENC   =    -36195.29297959
  -exchange      EXHF   =         0.00000000
  -V(xc)+E(xc)   XCENC  =       741.85081491
  PAW double counting   =     21177.55706967   -22894.65321396
  entropy T*S    EENTRO =        -0.00061055
  eigenvalues    EBANDS =      -169.59336642
  atomic energy  EATOM  =     22687.98115858
  Solvation  Ediel_sol  =         0.00000000
  ---------------------------------------------------
  free energy    TOTEN  =       -62.16234965 eV

  energy without entropy =      -62.16173910  energy(sigma->0) =      -62.16204437


--------------------------------------------------------------------------------------------------------




--------------------------------------- Iteration      1(  11)  ---------------------------------------


    POTLOK:  cpu time    0.0150: real time    0.0165
    SETDIJ:  cpu time    0.1620: real time    0.1620
     EDDAV:  cpu time   13.5401: real time   13.5400
       DOS:  cpu time    0.0034: real time    0.0034
    CHARGE:  cpu time    0.3256: real time    0.3256
    MIXING:  cpu time    0.0007: real time    0.0007
    --------------------------------------------
      LOOP:  cpu time   14.0468: real time   14.0481

 eigenvalue-minimisations  : 27834
 total energy-change (2. order) : 0.1369282E-01  (-0.6956100E-01)
 number of electron     181.9999854 magnetization 
 augmentation part      112.7293686 magnetization 

 Broyden mixing:
  rms(total) = 0.19896E+00    rms(broyden)= 0.19895E+00
  rms(prec ) = 0.23410E+00
  weight for this iteration     100.00

 eigenvalues of (default mixing * dielectric matrix)
  average eigenvalue GAMMA=   0.8530
  2.2866  0.9771  0.6027  0.6027  0.2651  0.3836

 Free energy of the ion-electron system (eV)
  ---------------------------------------------------
  alpha Z        PSCENC =       582.73103390
  Ewald energy   TEWEN  =     14007.25774382
  -Hartree energ DENC   =    -36193.27149440
  -exchange      EXHF   =         0.00000000
  -V(xc)+E(xc)   XCENC  =       741.57275335
  PAW double counting   =     21261.78820562   -22984.11411691
  entropy T*S    EENTRO =        -0.00067662
  eigenvalues    EBANDS =      -166.09326417
  atomic energy  EATOM  =     22687.98115858
  Solvation  Ediel_sol  =         0.00000000
  ---------------------------------------------------
  free energy    TOTEN  =       -62.14865683 eV

  energy without entropy =      -62.14798021  energy(sigma->0) =      -62.14831852


--------------------------------------------------------------------------------------------------------




--------------------------------------- Iteration      1(  12)  ---------------------------------------


    POTLOK:  cpu time    0.0145: real time    0.0145
    SETDIJ:  cpu time    0.1616: real time    0.1616
     EDDAV:  cpu time   13.5843: real time   13.5841
       DOS:  cpu time    0.0035: real time    0.0035
    CHARGE:  cpu time    0.3248: real time    0.3248
    MIXING:  cpu time    0.0008: real time    0.0008
    --------------------------------------------
      LOOP:  cpu time   14.0895: real time   14.0893

 eigenvalue-minimisations  : 27588
 total energy-change (2. order) : 0.2045036E-01  (-0.5447148E-01)
 number of electron     181.9999853 magnetization 
 augmentation part      112.7697272 magnetization 

 Broyden mixing:
  rms(total) = 0.11821E+00    rms(broyden)= 0.11811E+00
  rms(prec ) = 0.16990E+00
  weight for this iteration     100.00

 eigenvalues of (default mixing * dielectric matrix)
  average eigenvalue GAMMA=   0.8548
  2.3187  1.1629  0.7541  0.5443  0.5443  0.2652  0.3943

 Free energy of the ion-electron system (eV)
  ---------------------------------------------------
  alpha Z        PSCENC =       582.73103390
  Ewald energy   TEWEN  =     14007.25774382
  -Hartree energ DENC   =    -36189.09929154
  -exchange      EXHF   =         0.00000000
  -V(xc)+E(xc)   XCENC  =       741.06854203
  PAW double counting   =     21346.37171179   -23073.68166964
  entropy T*S    EENTRO =        -0.00038283
  eigenvalues    EBANDS =      -164.75705257
  atomic energy  EATOM  =     22687.98115858
  Solvation  Ediel_sol  =         0.00000000
  ---------------------------------------------------
  free energy    TOTEN  =       -62.12820647 eV

  energy without entropy =      -62.12782363  energy(sigma->0) =      -62.12801505


--------------------------------------------------------------------------------------------------------




--------------------------------------- Iteration      1(  13)  ---------------------------------------


    POTLOK:  cpu time    0.0145: real time    0.0145
    SETDIJ:  cpu time    0.1622: real time    0.1622
     EDDAV:  cpu time   13.4667: real time   13.4665
       DOS:  cpu time    0.0036: real time    0.0036
    CHARGE:  cpu time    0.3245: real time    0.3245
    MIXING:  cpu time    0.0008: real time    0.0008
    --------------------------------------------
      LOOP:  cpu time   13.9722: real time   13.9720

 eigenvalue-minimisations  : 27600
 total energy-change (2. order) : 0.1683442E-01  (-0.1804659E-01)
 number of electron     181.9999853 magnetization 
 augmentation part      112.9037885 magnetization 

 Broyden mixing:
  rms(total) = 0.78911E-01    rms(broyden)= 0.78906E-01
  rms(prec ) = 0.10083E+00
  weight for this iteration     100.00

 eigenvalues of (default mixing * dielectric matrix)
  average eigenvalue GAMMA=   0.8259
  2.3507  1.0173  0.9649  0.5901  0.5901  0.2653  0.4500  0.3790

 Free energy of the ion-electron system (eV)
  ---------------------------------------------------
  alpha Z        PSCENC =       582.73103390
  Ewald energy   TEWEN  =     14007.25774382
  -Hartree energ DENC   =    -36183.91587622
  -exchange      EXHF   =         0.00000000
  -V(xc)+E(xc)   XCENC  =       740.82356808
  PAW double counting   =     21364.41208863   -23091.19530609
  entropy T*S    EENTRO =        -0.00029114
  eigenvalues    EBANDS =      -170.20549159
  atomic energy  EATOM  =     22687.98115858
  Solvation  Ediel_sol  =         0.00000000
  ---------------------------------------------------
  free energy    TOTEN  =       -62.11137204 eV

  energy without entropy =      -62.11108090  energy(sigma->0) =      -62.11122647


--------------------------------------------------------------------------------------------------------




--------------------------------------- Iteration      1(  14)  ---------------------------------------


    POTLOK:  cpu time    0.0147: real time    0.0166
    SETDIJ:  cpu time    0.1616: real time    0.1616
     EDDAV:  cpu time   12.4342: real time   12.4341
       DOS:  cpu time    0.0035: real time    0.0035
    CHARGE:  cpu time    0.3440: real time    0.3440
    MIXING:  cpu time    0.0008: real time    0.0008
    --------------------------------------------
      LOOP:  cpu time   12.9588: real time   12.9606

 eigenvalue-minimisations  : 24864
 total energy-change (2. order) : 0.8216910E-02  (-0.4076356E-02)
 number of electron     181.9999853 magnetization 
 augmentation part      112.9473311 magnetization 

 Broyden mixing:
  rms(total) = 0.26126E-01    rms(broyden)= 0.26108E-01
  rms(prec ) = 0.32693E-01
  weight for this iteration     100.00

 eigenvalues of (default mixing * dielectric matrix)
  average eigenvalue GAMMA=   0.8469
  2.2801  1.4932  0.8247  0.8247  0.5749  0.5749  0.2654  0.4098  0.3746

 Free energy of the ion-electron system (eV)
  ---------------------------------------------------
  alpha Z        PSCENC =       582.73103390
  Ewald energy   TEWEN  =     14007.25774382
  -Hartree energ DENC   =    -36182.83420424
  -exchange      EXHF   =         0.00000000
  -V(xc)+E(xc)   XCENC  =       740.80040478
  PAW double counting   =     21369.07369016   -23095.52088529
  entropy T*S    EENTRO =        -0.00053996
  eigenvalues    EBANDS =      -171.59155688
  atomic energy  EATOM  =     22687.98115858
  Solvation  Ediel_sol  =         0.00000000
  ---------------------------------------------------
  free energy    TOTEN  =       -62.10315513 eV

  energy without entropy =      -62.10261518  energy(sigma->0) =      -62.10288515


--------------------------------------------------------------------------------------------------------




--------------------------------------- Iteration      1(  15)  ---------------------------------------


    POTLOK:  cpu time    0.0145: real time    0.0145
    SETDIJ:  cpu time    0.1618: real time    0.1618
     EDDAV:  cpu time   13.5346: real time   13.5345
       DOS:  cpu time    0.0037: real time    0.0037
    CHARGE:  cpu time    0.3251: real time    0.3251
    MIXING:  cpu time    0.0009: real time    0.0009
    --------------------------------------------
      LOOP:  cpu time   14.0406: real time   14.0405

 eigenvalue-minimisations  : 27546
 total energy-change (2. order) :-0.9366361E-03  (-0.1609293E-02)
 number of electron     181.9999853 magnetization 
 augmentation part      112.9381016 magnetization 

 Broyden mixing:
  rms(total) = 0.12897E-01    rms(broyden)= 0.12885E-01
  rms(prec ) = 0.18359E-01
  weight for this iteration     100.00

 eigenvalues of (default mixing * dielectric matrix)
  average eigenvalue GAMMA=   0.9057
  2.1965  2.1965  0.9971  0.9971  0.5846  0.5846  0.5052  0.2653  0.3843  0.3460

 Free energy of the ion-electron system (eV)
  ---------------------------------------------------
  alpha Z        PSCENC =       582.73103390
  Ewald energy   TEWEN  =     14007.25774382
  -Hartree energ DENC   =    -36184.65113649
  -exchange      EXHF   =         0.00000000
  -V(xc)+E(xc)   XCENC  =       740.84081577
  PAW double counting   =     21371.42323997   -23098.02533911
  entropy T*S    EENTRO =        -0.00056411
  eigenvalues    EBANDS =      -169.66104410
  atomic energy  EATOM  =     22687.98115858
  Solvation  Ediel_sol  =         0.00000000
  ---------------------------------------------------
  free energy    TOTEN  =       -62.10409177 eV

  energy without entropy =      -62.10352766  energy(sigma->0) =      -62.10380972


--------------------------------------------------------------------------------------------------------




--------------------------------------- Iteration      1(  16)  ---------------------------------------


    POTLOK:  cpu time    0.0153: real time    0.0153
    SETDIJ:  cpu time    0.1621: real time    0.1621
     EDDAV:  cpu time   11.6675: real time   11.6674
       DOS:  cpu time    0.0037: real time    0.0037
    CHARGE:  cpu time    0.3243: real time    0.3243
    MIXING:  cpu time    0.0009: real time    0.0009
    --------------------------------------------
      LOOP:  cpu time   12.1738: real time   12.1736

 eigenvalue-minimisations  : 22974
 total energy-change (2. order) : 0.6245077E-04  (-0.2872537E-03)
 number of electron     181.9999853 magnetization 
 augmentation part      112.9147944 magnetization 

 Broyden mixing:
  rms(total) = 0.82926E-02    rms(broyden)= 0.82837E-02
  rms(prec ) = 0.10636E-01
  weight for this iteration     100.00

 eigenvalues of (default mixing * dielectric matrix)
  average eigenvalue GAMMA=   0.9438
  2.6718  2.4077  0.9197  0.9197  0.8611  0.5837  0.5837  0.2653  0.4435  0.3760
  0.3493

 Free energy of the ion-electron system (eV)
  ---------------------------------------------------
  alpha Z        PSCENC =       582.73103390
  Ewald energy   TEWEN  =     14007.25774382
  -Hartree energ DENC   =    -36187.45636096
  -exchange      EXHF   =         0.00000000
  -V(xc)+E(xc)   XCENC  =       740.90640357
  PAW double counting   =     21374.40266488   -23101.14283033
  entropy T*S    EENTRO =        -0.00068117
  eigenvalues    EBANDS =      -166.78316159
  atomic energy  EATOM  =     22687.98115858
  Solvation  Ediel_sol  =         0.00000000
  ---------------------------------------------------
  free energy    TOTEN  =       -62.10402932 eV

  energy without entropy =      -62.10334815  energy(sigma->0) =      -62.10368873


--------------------------------------------------------------------------------------------------------




--------------------------------------- Iteration      1(  17)  ---------------------------------------


    POTLOK:  cpu time    0.0149: real time    0.0163
    SETDIJ:  cpu time    0.1616: real time    0.1616
     EDDAV:  cpu time   14.7431: real time   14.7430
       DOS:  cpu time    0.0039: real time    0.0039
    CHARGE:  cpu time    0.3403: real time    0.3403
    MIXING:  cpu time    0.0010: real time    0.0010
    --------------------------------------------
      LOOP:  cpu time   15.2649: real time   15.2662

 eigenvalue-minimisations  : 28998
 total energy-change (2. order) :-0.1698538E-03  (-0.1604218E-03)
 number of electron     181.9999853 magnetization 
 augmentation part      112.9151514 magnetization 

 Broyden mixing:
  rms(total) = 0.12248E-01    rms(broyden)= 0.12245E-01
  rms(prec ) = 0.16831E-01
  weight for this iteration     100.00

 eigenvalues of (default mixing * dielectric matrix)
  average eigenvalue GAMMA=   0.9521
  2.8916  2.3634  1.0850  0.9650  0.9650  0.5778  0.5778  0.5918  0.2653  0.4209
  0.3793  0.3423

 Free energy of the ion-electron system (eV)
  ---------------------------------------------------
  alpha Z        PSCENC =       582.73103390
  Ewald energy   TEWEN  =     14007.25774382
  -Hartree energ DENC   =    -36188.48082206
  -exchange      EXHF   =         0.00000000
  -V(xc)+E(xc)   XCENC  =       740.90510322
  PAW double counting   =     21374.76392141   -23101.37958752
  entropy T*S    EENTRO =        -0.00075245
  eigenvalues    EBANDS =      -165.88199808
  atomic energy  EATOM  =     22687.98115858
  Solvation  Ediel_sol  =         0.00000000
  ---------------------------------------------------
  free energy    TOTEN  =       -62.10419917 eV

  energy without entropy =      -62.10344673  energy(sigma->0) =      -62.10382295


--------------------------------------------------------------------------------------------------------




--------------------------------------- Iteration      1(  18)  ---------------------------------------


    POTLOK:  cpu time    0.0147: real time    0.0147
    SETDIJ:  cpu time    0.1620: real time    0.1620
     EDDAV:  cpu time   11.2684: real time   11.2683
       DOS:  cpu time    0.0034: real time    0.0034
    CHARGE:  cpu time    0.3252: real time    0.3252
    MIXING:  cpu time    0.0010: real time    0.0010
    --------------------------------------------
      LOOP:  cpu time   11.7747: real time   11.7746

 eigenvalue-minimisations  : 22056
 total energy-change (2. order) : 0.1576896E-03  (-0.6069175E-04)
 number of electron     181.9999853 magnetization 
 augmentation part      112.9231070 magnetization 

 Broyden mixing:
  rms(total) = 0.52515E-02    rms(broyden)= 0.52505E-02
  rms(prec ) = 0.72511E-02
  weight for this iteration     100.00

 eigenvalues of (default mixing * dielectric matrix)
  average eigenvalue GAMMA=   0.9564
  2.8082  2.4511  1.0631  1.0631  1.1448  0.8865  0.5807  0.5807  0.2653  0.4622
  0.3956  0.3956  0.3363

 Free energy of the ion-electron system (eV)
  ---------------------------------------------------
  alpha Z        PSCENC =       582.73103390
  Ewald energy   TEWEN  =     14007.25774382
  -Hartree energ DENC   =    -36188.74429222
  -exchange      EXHF   =         0.00000000
  -V(xc)+E(xc)   XCENC  =       740.88634314
  PAW double counting   =     21373.46142609   -23099.97667189
  entropy T*S    EENTRO =        -0.00068115
  eigenvalues    EBANDS =      -165.70010174
  atomic energy  EATOM  =     22687.98115858
  Solvation  Ediel_sol  =         0.00000000
  ---------------------------------------------------
  free energy    TOTEN  =       -62.10404148 eV

  energy without entropy =      -62.10336033  energy(sigma->0) =      -62.10370091


--------------------------------------------------------------------------------------------------------




--------------------------------------- Iteration      1(  19)  ---------------------------------------


    POTLOK:  cpu time    0.0146: real time    0.0146
    SETDIJ:  cpu time    0.1627: real time    0.1627
     EDDAV:  cpu time   14.4239: real time   14.4237
       DOS:  cpu time    0.0037: real time    0.0037
    CHARGE:  cpu time    0.3287: real time    0.3287
    MIXING:  cpu time    0.0011: real time    0.0011
    --------------------------------------------
      LOOP:  cpu time   14.9347: real time   14.9345

 eigenvalue-minimisations  : 29682
 total energy-change (2. order) :-0.4912498E-04  (-0.6091615E-04)
 number of electron     181.9999853 magnetization 
 augmentation part      112.9255254 magnetization 

 Broyden mixing:
  rms(total) = 0.37141E-02    rms(broyden)= 0.37081E-02
  rms(prec ) = 0.51169E-02
  weight for this iteration     100.00

 eigenvalues of (default mixing * dielectric matrix)
  average eigenvalue GAMMA=   0.9839
  2.9085  2.6517  1.3170  1.3170  0.9950  0.9950  0.5804  0.5804  0.5894  0.2653
  0.4474  0.4086  0.3750  0.3435

 Free energy of the ion-electron system (eV)
  ---------------------------------------------------
  alpha Z        PSCENC =       582.73103390
  Ewald energy   TEWEN  =     14007.25774382
  -Hartree energ DENC   =    -36189.18493621
  -exchange      EXHF   =         0.00000000
  -V(xc)+E(xc)   XCENC  =       740.88339383
[...]
     65       0.0553      2.00000
     66       0.1129      2.00000
     67       0.1287      2.00000
     68       0.1591      2.00000
     69       0.1683      2.00000
     70       0.2380      2.00000
     71       0.2652      2.00000
     72       0.2893      2.00000
     73       0.3231      2.00000
     74       0.3705      2.00000
     75       0.4230      2.00000
     76       0.4411      2.00000
     77       0.4462      2.00000
     78       0.4543      2.00000
     79       0.4803      2.00000
     80       0.4981      2.00000
     81       0.5386      2.00000
     82       0.5525      2.00000
     83       0.5791      2.00000
     84       0.6549      2.00000
     85       0.6778      2.00000
     86       0.7769      2.00000
     87       0.8470      2.00000
     88       0.8840      2.00000
     89       1.1976      2.00000
     90       1.4219      2.00000
     91       1.7027      2.00000
     92       2.5414      0.00000
     93       2.8127      0.00000
     94       3.1958      0.00000
     95       4.0675      0.00000
     96       4.3817      0.00000
     97       4.6227      0.00000
     98       4.7811      0.00000
     99       5.1339      0.00000
    100       5.5043      0.00000
    101       6.2531      0.00000
    102       7.1182      0.00000
    103       7.3305      0.00000
    104       7.5181      0.00000
    105       8.0582      0.00000
    106       8.4815      0.00000
    107       9.2201      0.00000
    108       9.3189      0.00000
    109       9.4474      0.00000
    110       9.6990      0.00000
    111       9.7809      0.00000
    112       9.8338      0.00000
    113      10.0833      0.00000
    114      10.2150      0.00000

 k-point    82 :      -0.1111    0.4444    0.5000
  band No.  band energies     occupation 
      1     -15.7835      2.00000
      2      -5.4788      2.00000
      3      -4.3350      2.00000
      4      -4.0332      2.00000
      5      -3.3179      2.00000
      6      -2.9978      2.00000
      7      -2.9327      2.00000
      8      -2.7485      2.00000
      9      -2.5432      2.00000
     10      -2.4136      2.00000
     11      -2.2995      2.00000
     12      -2.1483      2.00000
     13      -2.1128      2.00000
     14      -2.0327      2.00000
     15      -2.0141      2.00000
     16      -1.8741      2.00000
     17      -1.8528      2.00000
     18      -1.7961      2.00000
     19      -1.7531      2.00000
     20      -1.6937      2.00000
     21      -1.6277      2.00000
     22      -1.5420      2.00000
     23      -1.4725      2.00000
     24      -1.4122      2.00000
     25      -1.3745      2.00000
     26      -1.3609      2.00000
     27      -1.3239      2.00000
     28      -1.3016      2.00000
     29      -1.2233      2.00000
     30      -1.1926      2.00000
     31      -1.1599      2.00000
     32      -1.1072      2.00000
     33      -1.0429      2.00000
     34      -1.0284      2.00000
     35      -1.0011      2.00000
     36      -0.9353      2.00000
     37      -0.8850      2.00000
     38      -0.8283      2.00000
     39      -0.8087      2.00000
     40      -0.7657      2.00000
     41      -0.7349      2.00000
     42      -0.6746      2.00000
     43      -0.6497      2.00000
     44      -0.6191      2.00000
     45      -0.5840      2.00000
     46      -0.5758      2.00000
     47      -0.5577      2.00000
     48      -0.5109      2.00000
     49      -0.4845      2.00000
     50      -0.4625      2.00000
     51      -0.4216      2.00000
     52      -0.3928      2.00000
     53      -0.3902      2.00000
     54      -0.3735      2.00000
     55      -0.2943      2.00000
     56      -0.2393      2.00000
     57      -0.2284      2.00000
     58      -0.2048      2.00000
     59      -0.1875      2.00000
     60      -0.1462      2.00000
     61      -0.1218      2.00000
     62      -0.0360      2.00000
     63      -0.0133      2.00000
     64       0.0395      2.00000
     65       0.0571      2.00000
     66       0.0713      2.00000
     67       0.1067      2.00000
     68       0.1353      2.00000
     69       0.1515      2.00000
     70       0.1766      2.00000
     71       0.2418      2.00000
     72       0.2491      2.00000
     73       0.2771      2.00000
     74       0.3050      2.00000
     75       0.3600      2.00000
     76       0.3865      2.00000
     77       0.4111      2.00000
     78       0.4510      2.00000
     79       0.4747      2.00000
     80       0.4990      2.00000
     81       0.5311      2.00000
     82       0.5513      2.00000
     83       0.5591      2.00000
     84       0.5892      2.00000
     85       0.6332      2.00000
     86       0.6908      2.00000
     87       1.0329      2.00000
     88       1.0946      2.00000
     89       1.3439      2.00000
     90       1.5817      2.00000
     91       1.8613      2.00000
     92       2.4533      0.00000
     93       2.8498      0.00000
     94       3.1506      0.00000
     95       3.5561      0.00000
     96       3.9765      0.00000
     97       4.5243      0.00000
     98       4.7085      0.00000
     99       5.6134      0.00000
    100       5.8946      0.00000
    101       6.3816      0.00000
    102       6.9711      0.00000
    103       7.5504      0.00000
    104       7.5971      0.00000
    105       8.3614      0.00000
    106       8.6577      0.00000
    107       8.9789      0.00000
    108       9.1029      0.00000
    109       9.4544      0.00000
    110       9.7477      0.00000
    111       9.8477      0.00000
    112      10.0036      0.00000
    113      10.2727      0.00000
    114      10.5164      0.00000


--------------------------------------------------------------------------------------------------------


 soft charge-density along one line, spin component           1
         0         1         2         3         4         5         6         7         8         9
 total charge-density along one line
 
 pseudopotential strength for first ion, spin component:           1
 -6.660  -0.005  -0.001  -0.000   0.000  -1.883   0.003   0.000
 -0.005  -6.619  -0.001   0.000   0.000   0.003  -1.916   0.000
 -0.001  -0.001  -6.612  -0.002   0.001   0.000   0.000  -1.922
 -0.000   0.000  -0.002  -6.620   0.001   0.000  -0.000   0.001
  0.000   0.000   0.001   0.001  -6.660  -0.000  -0.000  -0.001
 -1.883   0.003   0.000   0.000  -0.000   8.306  -0.002  -0.000
  0.003  -1.916   0.000  -0.000  -0.000  -0.002   8.330  -0.000
  0.000   0.000  -1.922   0.001  -0.001  -0.000  -0.000   8.335
  0.000  -0.000   0.001  -1.915  -0.001  -0.000   0.000  -0.001
 -0.000  -0.000  -0.001  -0.001  -1.882   0.000   0.000   0.000
 -0.000   0.000  -0.008   0.001  -0.000   0.000  -0.000   0.003
 -0.000   0.001  -0.015   0.001  -0.000   0.000  -0.000   0.005
  0.001  -0.008  -0.000   0.000  -0.001  -0.001   0.007   0.000
  0.000   0.001  -0.008   0.001  -0.000  -0.000  -0.000   0.007
  0.001   0.000  -0.001  -0.008   0.001  -0.000  -0.000   0.000
  0.001  -0.009  -0.000   0.000  -0.001  -0.001   0.008   0.000
  0.000   0.001  -0.009   0.001  -0.000  -0.000  -0.000   0.008
  0.001   0.000  -0.001  -0.009   0.001  -0.000  -0.000   0.000
 total augmentation occupancy for first ion, spin component:           1
  1.910  -0.006  -0.001  -0.001   0.001  -0.015   0.005   0.000   0.000  -0.000   0.000   0.000   0.006   0.000  -0.000   0.000
 -0.006   1.927  -0.001  -0.000  -0.000   0.005  -0.032   0.000   0.000   0.000  -0.003  -0.000   0.011   0.001   0.001  -0.010
 -0.001  -0.001   1.928  -0.003  -0.000   0.000   0.000  -0.027   0.001   0.000  -0.003   0.014  -0.001   0.053   0.001  -0.000
 -0.001  -0.000  -0.003   1.927   0.005   0.000   0.000   0.001  -0.031  -0.005  -0.004  -0.000   0.001   0.001   0.011  -0.000
  0.001  -0.000  -0.000   0.005   1.909  -0.000   0.000   0.000  -0.005  -0.015   0.002   0.001   0.001  -0.000  -0.007  -0.000
 -0.015   0.005   0.000   0.000  -0.000   0.014   0.000  -0.000  -0.000   0.000  -0.000  -0.000   0.003  -0.000  -0.000  -0.000
  0.005  -0.032   0.000   0.000   0.000   0.000   0.010  -0.000  -0.000  -0.000   0.001   0.000   0.016  -0.000  -0.000  -0.001
  0.000   0.000  -0.027   0.001   0.000  -0.000  -0.000   0.013  -0.000  -0.000  -0.044   0.002   0.000   0.023  -0.000  -0.000
  0.000   0.000   0.001  -0.031  -0.005  -0.000  -0.000  -0.000   0.010  -0.000   0.001   0.000  -0.000  -0.000   0.016   0.000
 -0.000   0.000   0.000  -0.005  -0.015   0.000  -0.000  -0.000  -0.000   0.014  -0.000  -0.000  -0.000   0.000  -0.002   0.000
  0.000  -0.003  -0.003  -0.004   0.002  -0.000   0.001  -0.044   0.001  -0.000   1.708  -0.137  -0.001   0.134  -0.002   0.000
  0.000  -0.000   0.014  -0.000   0.001  -0.000   0.000   0.002   0.000  -0.000  -0.137   0.017  -0.000  -0.023  -0.000  -0.000
  0.006   0.011  -0.001   0.001   0.001   0.003   0.016   0.000  -0.000  -0.000  -0.001  -0.000   0.209   0.002  -0.001  -0.013
  0.000   0.001   0.053   0.001  -0.000  -0.000  -0.000   0.023  -0.000   0.000   0.134  -0.023   0.002   0.125   0.002  -0.000
 -0.000   0.001   0.001   0.011  -0.007  -0.000  -0.000  -0.000   0.016  -0.002  -0.002  -0.000  -0.001   0.002   0.205   0.000
  0.000  -0.010  -0.000  -0.000  -0.000  -0.000  -0.001  -0.000   0.000   0.000   0.000  -0.000  -0.013  -0.000   0.000   0.001
  0.000   0.000  -0.014   0.001   0.000   0.000  -0.000  -0.001  -0.000  -0.000  -0.019   0.002  -0.000  -0.009  -0.000  -0.000
  0.000  -0.000  -0.000  -0.010   0.001  -0.000   0.000   0.000  -0.001   0.000   0.000  -0.000   0.000  -0.000  -0.013  -0.000


------------------------ aborting loop because EDIFF is reached ----------------------------------------


    CHARGE:  cpu time    0.3256: real time    0.3256
    FORLOC:  cpu time    0.0025: real time    0.0025
    FORNL :  cpu time    1.9494: real time    1.9494
    STRESS:  cpu time    5.8837: real time    5.8836
    FORCOR:  cpu time    0.0165: real time    0.0165
    FORHAR:  cpu time    0.0052: real time    0.0052
    MIXING:  cpu time    0.0006: real time    0.0006
    OFIELD:  cpu time    0.0000: real time    0.0000

  FORCE on cell =-STRESS in cart. coord.  units (eV):
  Direction    XX          YY          ZZ          XY          YZ          ZX
  --------------------------------------------------------------------------------------
  Alpha Z   582.73103   582.73103   582.73103
  Ewald   25973.74969 25885.74725-37834.38293    76.18414     0.05932    -0.05361
  Hartree 32455.98756 32413.65021-28660.81609    36.64921     1.06146    -0.62623
  E(xc)   -1057.28380 -1057.40978 -1059.22743     0.10908     0.00520    -0.00301
  Local  -60668.58395-60542.25948 64244.68090  -109.35678    -1.47358     0.88378
  n-local  -363.76585  -365.46144  -370.93671     1.46827    -0.01599     0.00910
  augment  1518.11987  1519.91172  1525.96313    -1.55132     0.08726    -0.05046
  Kinetic  1560.01221  1561.91503  1571.63231    -1.64751     0.17528    -0.10119
  Fock        0.00000     0.00000     0.00000     0.00000     0.00000     0.00000
  -------------------------------------------------------------------------------------
  Total       0.96677    -1.17544    -0.35579     1.85508    -0.10105     0.05838
  in kB       4.56285    -5.54774    -1.67922     8.75543    -0.47694     0.27555
  external pressure =       -0.89 kB  Pullay stress =        0.00 kB


 VOLUME and BASIS-vectors are now :
 -----------------------------------------------------------------------------
  energy-cutoff  :      500.00
  volume of cell :      339.47
      direct lattice vectors                 reciprocal lattice vectors
     4.427085287 -2.555978882  0.000000000     0.225882253  0.000000000  0.000000000
     0.000000000  5.111957764  0.000000000     0.112941127  0.195619770  0.000000000
     0.000000000  0.000000000 15.000000000     0.000000000  0.000000000  0.066666667

  length of vectors
     5.111957764  5.111957764 15.000000000     0.225882253  0.225882253  0.066666667


 FORCES acting on ions
    electron-ion (+dipol)            ewald-force                    non-local-force                 convergence-correction
 -----------------------------------------------------------------------------------------------
   0.103E+00 -.136E+00 0.256E+04   -.308E+00 0.240E-01 -.256E+04   0.171E+00 0.875E-01 -.211E+01   -.624E-04 -.507E-04 -.253E-02
   -.583E+01 0.101E+02 -.705E+03   0.576E+01 -.100E+02 0.706E+03   0.672E-01 -.117E+00 -.103E+01   0.385E-02 -.430E-02 0.116E-01
   -.781E+02 -.593E+02 -.230E+04   0.785E+02 0.596E+02 0.230E+04   -.408E+00 -.264E+00 -.828E+00   -.418E-02 0.576E-02 0.505E-02
   0.669E-01 -.157E+00 0.256E+04   0.133E+00 0.279E+00 -.256E+04   -.161E+00 -.104E+00 -.211E+01   0.881E-04 0.438E-04 -.244E-02
   0.325E+01 0.443E+01 0.931E+03   -.333E+01 -.441E+01 -.930E+03   0.429E-01 -.255E-01 -.790E+00   -.684E-04 0.121E-03 0.829E-02
   0.552E+01 -.800E+00 -.722E+03   -.587E+01 0.838E+00 0.722E+03   0.342E+00 -.341E-01 0.429E+00   0.321E-02 -.247E-02 0.137E-01
   0.229E+02 -.397E+02 -.242E+04   -.243E+02 0.420E+02 0.242E+04   0.136E+01 -.236E+01 0.503E+01   -.108E-02 0.143E-02 0.388E-02
   -.481E+00 0.833E+00 0.926E+03   0.637E+00 -.110E+01 -.926E+03   -.160E+00 0.277E+00 -.641E+00   0.969E-04 -.246E-04 0.831E-02
   -.455E-01 0.786E-01 0.256E+04   0.167E-01 -.286E-01 -.256E+04   0.121E-01 -.210E-01 -.171E+01   -.115E-03 0.180E-03 -.248E-02
   -.207E+01 -.519E+01 -.722E+03   0.221E+01 0.551E+01 0.722E+03   -.141E+00 -.313E+00 0.429E+00   0.114E-02 -.493E-02 0.147E-01
   -.367E+02 0.636E+02 -.242E+04   0.380E+02 -.658E+02 0.241E+04   -.130E+01 0.226E+01 0.446E+01   -.518E-02 0.869E-02 0.162E-01
   -.156E+00 0.271E+00 0.256E+04   0.157E+00 -.271E+00 -.256E+04   0.202E-01 -.352E-01 -.221E+01   -.158E-04 0.273E-04 -.249E-02
   0.329E+01 -.571E+01 0.928E+03   -.344E+01 0.595E+01 -.928E+03   0.136E+00 -.235E+00 -.678E+00   -.419E-04 -.127E-03 0.838E-02
   0.123E+01 -.214E+01 -.695E+03   -.122E+01 0.211E+01 0.693E+03   -.190E-01 0.329E-01 0.181E+01   0.103E-02 -.338E-02 0.138E-01
   0.904E+02 0.380E+02 -.230E+04   -.908E+02 -.382E+02 0.230E+04   0.435E+00 0.223E+00 -.827E+00   -.542E-02 0.517E-02 0.291E-02
   -.546E+01 -.602E+00 0.931E+03   0.549E+01 0.677E+00 -.930E+03   0.686E-03 -.499E-01 -.790E+00   0.781E-05 0.516E-04 0.815E-02
   0.154E+01 -.264E+01 -.164E+04   -.164E+01 0.282E+01 0.167E+04   0.108E+00 -.185E+00 -.255E+02   -.329E-02 -.462E-03 0.147E-02
 -----------------------------------------------------------------------------------------------
   -.519E+00 0.903E+00 0.270E+02   -.733E-13 0.253E-13 0.455E-12   0.503E+00 -.864E+00 -.271E+02   -.100E-01 0.572E-02 0.107E+00
 
 
 POSITION                                       TOTAL-FORCE (eV/Angst)
 -----------------------------------------------------------------------------------
      0.00000      0.00000      0.00000        -0.033317     -0.027539      0.001495
      3.69134      1.27450      4.19111         0.001270     -0.002632     -0.001412
      2.29974      1.34295      6.24863        -0.000593      0.004482     -0.002792
      2.21354      1.27799      0.00000         0.040494      0.015062      0.001490
      0.73785      3.83397      2.08695        -0.035893     -0.016774     -0.025068
      1.47805      2.58018      4.18765         0.001545     -0.001035      0.000205
      0.03854      2.48944      6.29516        -0.001064      0.001497     -0.001538
      2.95139      2.55598      2.08695        -0.002926      0.005138     -0.021113
      0.00000      2.55598      0.00000        -0.015332      0.026519      0.010669
      3.66723     -1.26786      4.18764        -0.000034     -0.001838      0.000111
      2.15040     -1.16838      6.30535        -0.003542      0.005663      0.006556
      2.21354     -1.27799      0.00000         0.022157     -0.038385      0.023360
      0.73785      1.27799      2.08695        -0.004767      0.008346      0.040089
      1.46429      0.01992      4.14268         0.000896     -0.001703     -0.000207
      4.32782      2.51385      6.24852        -0.003156      0.003044     -0.002156
      2.95139      0.00000      2.08695         0.032588      0.022750     -0.025127
      1.12786      0.60246      7.46759         0.001675     -0.002593     -0.004562
 -----------------------------------------------------------------------------------
    total drift:                               -0.025814      0.045018     -0.023111


--------------------------------------------------------------------------------------------------------



  FREE ENERGIE OF THE ION-ELECTRON SYSTEM (eV)
  ---------------------------------------------------
  free  energy   TOTEN  =       -62.10412307 eV

  energy  without entropy=      -62.10342048  energy(sigma->0) =      -62.10377177
 
 d Force = 0.1156509E-04[ 0.111E-04, 0.120E-04]  d Energy = 0.1292781E-04-0.136E-05
 d Force =-0.3535053E+00[-0.353E+00,-0.354E+00]  d Ewald  =-0.3535053E+00-0.966E-08


--------------------------------------------------------------------------------------------------------


    POTLOK:  cpu time    0.1789: real time    0.1789


--------------------------------------------------------------------------------------------------------


 NEB: the previous image is higher in energy: F
 NEB: the next image is higher in energy    : F
 NEB: image is at an extrema
 NEB: diff energy (min, max):     0.249179   62.104123

 NEB: Tangent
 ----------------------------------------------
      0.00000      0.00000      0.00000
      0.01161     -0.01988      0.01626
      0.08721      0.03749     -0.09634
      0.00000      0.00000      0.00000
      0.00000      0.00000      0.00000
     -0.01422      0.03228      0.01148
      0.05171     -0.08926      0.16206
      0.00000      0.00000      0.00000
      0.00000      0.00000      0.00000
     -0.02065      0.02856      0.01150
     -0.11250      0.19524     -0.02109
      0.00000      0.00000      0.00000
      0.00000      0.00000      0.00000
     -0.01521      0.02661     -0.00806
     -0.07600     -0.05669     -0.09651
      0.00000      0.00000      0.00000
     -0.46659      0.80799      0.01342

 NEB: forces: par spring, perp REAL, dneb     1.472237    0.013957    0.000000
 NEB: distance to prev, next image, angle between     0.745631    0.451183  144.163768
 NEB: projections on to tangent (spring, REAL)    -1.472237   -0.001466

 stress matrix after NEB project (eV)
      0.96677      1.85508      0.05838
      1.85508     -1.17544     -0.10105
      0.05838     -0.10105     -0.35579
  FORCES: max atom, RMS     0.009800    0.003404
  FORCE total and by dimension    0.014034    0.006495
  Stress total and by dimension    3.058235    1.855083
 OPT: skip step - force has converged


--------------------------------------------------------------------------------------------------------


  
 reached required accuracy - stopping structural energy minimisation
     LOOP+:  cpu time   65.2394: real time   65.2492
    4ORBIT:  cpu time    0.0000: real time    0.0000

 total amount of memory used by VASP MPI-rank0    93192. kBytes
=======================================================================

   base      :      30000. kBytes
   nonlr-proj:       2757. kBytes
   fftplans  :       1417. kBytes
   grid      :       2255. kBytes
   one-center:         77. kBytes
   wavefun   :      56686. kBytes
 
  
  
 General timing and accounting informations for this job:
 ========================================================
  
                  Total CPU time used (sec):     4806.976
                            User time (sec):     4700.936
                          System time (sec):      106.040
                         Elapsed time (sec):     4813.504
  
                   Maximum memory used (kb):      232864.
                   Average memory used (kb):           0.
  
                          Minor page faults:       183793
                          Major page faults:           27
                 Voluntary context switches:         5639
