TS                                      
           1
     4.427085   -2.555979    0.000000
     0.000000    5.111958    0.000000
     0.000000    0.000000   15.000000
   Cu   O 
  16   1
Direct configuration=     1
   0.00000000  0.00000000  0.00000000
   0.83086178  0.66917644  0.27976795
   0.51561326  0.52588880  0.41676311
   0.50000000  0.50000000  0.00000000
   0.16666667  0.83333333  0.13912987
   0.33060746  0.67433005  0.27914275
   0.00475467  0.49532652  0.42047730
   0.66666667  0.83333333  0.13912987
   0.00000000  0.50000000  0.00000000
   0.82568241  0.16940022  0.27914766
   0.48248688  0.01759919  0.41932504
   0.50000000 -0.00000000  0.00000000
   0.16666667  0.33333333  0.13912987
   0.32779109  0.17223332  0.27622715
   0.97423587  0.98450638  0.41677713
   0.66666667  0.33333333  0.13912987
   0.24454918  0.25549331  0.49818673
Direct configuration=     2
   0.00000000  0.00000000  0.00000000
   0.83089797  0.66914057  0.27976558
   0.51565292  0.52573231  0.41677644
   0.50000000  0.50000000  0.00000000
   0.16666667  0.83333333  0.13912987
   0.33063600  0.67428532  0.27914225
   0.00485391  0.49522764  0.42048485
   0.66666667  0.83333333  0.13912987
   0.00000000  0.50000000  0.00000000
   0.82572785  0.16937267  0.27914706
   0.48258777  0.01749849  0.41930941
   0.50000000 -0.00000000  0.00000000
   0.16666667  0.33333333  0.13912987
   0.32782549  0.17220009  0.27622625
   0.97437297  0.98444742  0.41678473
   0.66666667  0.33333333  0.13912987
   0.24467094  0.25540511  0.49817603
Direct configuration=     3
   0.00000000  0.00000000  0.00000000
   0.83094951  0.66908705  0.27976472
   0.51576557  0.52555377  0.41678404
   0.50000000  0.50000000  0.00000000
   0.16666667  0.83333333  0.13912987
   0.33067981  0.67421958  0.27914232
   0.00499828  0.49508173  0.42049682
   0.66666667  0.83333333  0.13912987
   0.00000000  0.50000000  0.00000000
   0.82579360  0.16932969  0.27914672
   0.48273923  0.01734587  0.41928603
   0.50000000 -0.00000000  0.00000000
   0.16666667  0.33333333  0.13912987
   0.32787595  0.17215056  0.27622464
   0.97453912  0.98432220  0.41678930
   0.66666667  0.33333333  0.13912987
   0.24484693  0.25526003  0.49817362
Direct configuration=     4
   0.00000000  0.00000000  0.00000000
   0.83102057  0.66901878  0.27976255
   0.51592274  0.52534889  0.41679193
   0.50000000  0.50000000  0.00000000
   0.16666667  0.83333333  0.13912987
   0.33074845  0.67413163  0.27914134
   0.00517024  0.49491300  0.42049915
   0.66666667  0.83333333  0.13912987
   0.00000000  0.50000000  0.00000000
   0.82588679  0.16926698  0.27914526
   0.48295803  0.01712972  0.41926158
   0.50000000 -0.00000000  0.00000000
   0.16666667  0.33333333  0.13912987
   0.32795051  0.17208035  0.27622211
   0.97474577  0.98416584  0.41679657
   0.66666667  0.33333333  0.13912987
   0.24506106  0.25498359  0.49818667
Direct configuration=     5
   0.00000000  0.00000000  0.00000000
   0.83110817  0.66892898  0.27975972
   0.51608245  0.52508076  0.41681084
   0.50000000  0.50000000  0.00000000
   0.16666667  0.83333333  0.13912987
   0.33084061  0.67401317  0.27914073
   0.00535837  0.49472197  0.42048731
   0.66666667  0.83333333  0.13912987
   0.00000000  0.50000000  0.00000000
   0.82600570  0.16917595  0.27914414
   0.48324239  0.01684347  0.41924178
   0.50000000 -0.00000000  0.00000000
   0.16666667  0.33333333  0.13912987
   0.32805016  0.17198130  0.27622167
   0.97499498  0.98398725  0.41681093
   0.66666667  0.33333333  0.13912987
   0.24542907  0.25465797  0.49817808
Direct configuration=     6
   0.00000000  0.00000000  0.00000000
   0.83121462  0.66881508  0.27975819
   0.51636088  0.52483235  0.41681336
   0.50000000  0.50000000  0.00000000
   0.16666667  0.83333333  0.13912987
   0.33095345  0.67387302  0.27914013
   0.00559190  0.49448374  0.42047728
   0.66666667  0.83333333  0.13912987
   0.00000000  0.50000000  0.00000000
   0.82614574  0.16906393  0.27914271
   0.48356269  0.01651903  0.41921939
   0.50000000 -0.00000000  0.00000000
   0.16666667  0.33333333  0.13912987
   0.32817044  0.17185965  0.27622136
   0.97524449  0.98370914  0.41681399
   0.66666667  0.33333333  0.13912987
   0.24586678  0.25423967  0.49819256
Direct configuration=     7
   0.00000000  0.00000000  0.00000000
   0.83135451  0.66867326  0.27975441
   0.51667499  0.52450473  0.41681350
   0.50000000  0.50000000  0.00000000
   0.16666667  0.83333333  0.13912987
   0.33108084  0.67371397  0.27914179
   0.00590627  0.49416158  0.42048857
   0.66666667  0.83333333  0.13912987
   0.00000000  0.50000000  0.00000000
   0.82630396  0.16893520  0.27914374
   0.48387928  0.01619582  0.41919634
   0.50000000 -0.00000000  0.00000000
   0.16666667  0.33333333  0.13912987
   0.32830671  0.17172070  0.27622201
   0.97558014  0.98340432  0.41681763
   0.66666667  0.33333333  0.13912987
   0.24633684  0.25378649  0.49816468
Direct configuration=     8
   0.00000000  0.00000000  0.00000000
   0.83151883  0.66850881  0.27974738
   0.51710669  0.52423347  0.41679255
   0.50000000  0.50000000  0.00000000
   0.16666667  0.83333333  0.13912987
   0.33122962  0.67354060  0.27914511
   0.00626241  0.49380169  0.42050231
   0.66666667  0.83333333  0.13912987
   0.00000000  0.50000000  0.00000000
   0.82647513  0.16878287  0.27914703
   0.48422057  0.01584937  0.41917941
   0.50000000 -0.00000000  0.00000000
   0.16666667  0.33333333  0.13912987
   0.32846128  0.17156199  0.27621878
   0.97586023  0.98298277  0.41679986
   0.66666667  0.33333333  0.13912987
   0.24687814  0.25326989  0.49815408
Direct configuration=     9
   0.00000000  0.00000000  0.00000000
   0.83170129  0.66832657  0.27972298
   0.51734086  0.52378181  0.41681136
   0.50000000  0.50000000  0.00000000
   0.16666667  0.83333333  0.13912987
   0.33140726  0.67333985  0.27914572
   0.00661305  0.49344908  0.42048576
   0.66666667  0.83333333  0.13912987
   0.00000000  0.50000000  0.00000000
   0.82667260  0.16860107  0.27914802
   0.48459737  0.01546905  0.41918527
   0.50000000 -0.00000000  0.00000000
   0.16666667  0.33333333  0.13912987
   0.32864351  0.17137628  0.27621463
   0.97632243  0.98275987  0.41682195
   0.66666667  0.33333333  0.13912987
   0.24751213  0.25266076  0.49808604
Direct configuration=    10
   0.00000000  0.00000000  0.00000000
   0.83185112  0.66818390  0.27970843
   0.51777211  0.52366502  0.41678060
   0.50000000  0.50000000  0.00000000
   0.16666667  0.83333333  0.13912987
   0.33160013  0.67315433  0.27913848
   0.00682611  0.49324213  0.42041007
   0.66666667  0.83333333  0.13912987
   0.00000000  0.50000000  0.00000000
   0.82686075  0.16841083  0.27914150
   0.48499300  0.01507849  0.41919724
   0.50000000 -0.00000000  0.00000000
   0.16666667  0.33333333  0.13912987
   0.32882803  0.17119605  0.27620676
   0.97645183  0.98234278  0.41679333
   0.66666667  0.33333333  0.13912987
   0.24819696  0.25189429  0.49823674
Direct configuration=    11
   0.00000000  0.00000000  0.00000000
   0.83200802  0.66802818  0.27967577
   0.51761831  0.52302674  0.41686371
   0.50000000  0.50000000  0.00000000
   0.16666667  0.83333333  0.13912987
   0.33177140  0.67297607  0.27913110
   0.00705791  0.49301086  0.42034093
   0.66666667  0.83333333  0.13912987
   0.00000000  0.50000000  0.00000000
   0.82703819  0.16823889  0.27913435
   0.48526496  0.01480671  0.41923407
   0.50000000 -0.00000000  0.00000000
   0.16666667  0.33333333  0.13912987
   0.32900706  0.17101759  0.27621036
   0.97705585  0.98246288  0.41686774
   0.66666667  0.33333333  0.13912987
   0.24885766  0.25130891  0.49814853
Direct configuration=    12
   0.00000000  0.00000000  0.00000000
   0.83209934  0.66793931  0.27968571
   0.51808691  0.52318049  0.41681067
   0.50000000  0.50000000  0.00000000
   0.16666667  0.83333333  0.13912987
   0.33190820  0.67286505  0.27913256
   0.00716411  0.49290952  0.42028267
   0.66666667  0.83333333  0.13912987
   0.00000000  0.50000000  0.00000000
   0.82715457  0.16810848  0.27913538
   0.48547832  0.01459574  0.41925458
   0.50000000 -0.00000000  0.00000000
   0.16666667  0.33333333  0.13912987
   0.32913247  0.17089844  0.27621239
   0.97692229  0.98201278  0.41681819
   0.66666667  0.33333333  0.13912987
   0.24932643  0.25073151  0.49826036
Direct configuration=    13
   0.00000000  0.00000000  0.00000000
   0.83219578  0.66784250  0.27967188
   0.51803380  0.52287127  0.41684897
   0.50000000  0.50000000  0.00000000
   0.16666667  0.83333333  0.13912987
   0.33200681  0.67277237  0.27913425
   0.00730969  0.49276201  0.42025395
   0.66666667  0.83333333  0.13912987
   0.00000000  0.50000000  0.00000000
   0.82724688  0.16800992  0.27913692
   0.48556697  0.01450578  0.41928930
   0.50000000 -0.00000000  0.00000000
   0.16666667  0.33333333  0.13912987
   0.32923271  0.17079884  0.27621831
   0.97720741  0.98204344  0.41685074
   0.66666667  0.33333333  0.13912987
   0.24969482  0.25041329  0.49814848
Direct configuration=    14
   0.00000000  0.00000000  0.00000000
   0.83227538  0.66776077  0.27966764
   0.51825715  0.52287743  0.41682792
   0.50000000  0.50000000  0.00000000
   0.16666667  0.83333333  0.13912987
   0.33211357  0.67268378  0.27913481
   0.00740174  0.49266838  0.42020684
   0.66666667  0.83333333  0.13912987
   0.00000000  0.50000000  0.00000000
   0.82733558  0.16790389  0.27913714
   0.48570005  0.01437123  0.41931893
   0.50000000 -0.00000000  0.00000000
   0.16666667  0.33333333  0.13912987
   0.32933010  0.17070177  0.27621878
   0.97720548  0.98182474  0.41683119
   0.66666667  0.33333333  0.13912987
   0.25009613  0.25000482  0.49818231
Direct configuration=    15
   0.00000000  0.00000000  0.00000000
   0.83239384  0.66763981  0.27965250
   0.51839000  0.52272660  0.41682156
   0.50000000  0.50000000  0.00000000
   0.16666667  0.83333333  0.13912987
   0.33223790  0.67257912  0.27913598
   0.00757099  0.49249590  0.42017083
   0.66666667  0.83333333  0.13912987
   0.00000000  0.50000000  0.00000000
   0.82743823  0.16777786  0.27913816
   0.48577513  0.01429320  0.41936729
   0.50000000 -0.00000000  0.00000000
   0.16666667  0.33333333  0.13912987
   0.32944730  0.17058266  0.27621962
   0.97735664  0.98169179  0.41682542
   0.66666667  0.33333333  0.13912987
   0.25054782  0.24957824  0.49814844
Direct configuration=    16
   0.00000000  0.00000000  0.00000000
   0.83252245  0.66751409  0.27963224
   0.51861980  0.52268154  0.41678852
   0.50000000  0.50000000  0.00000000
   0.16666667  0.83333333  0.13912987
   0.33238217  0.67247819  0.27913365
   0.00774380  0.49232381  0.42012810
   0.66666667  0.83333333  0.13912987
   0.00000000  0.50000000  0.00000000
   0.82754263  0.16763669  0.27913566
   0.48585360  0.01421651  0.41941949
   0.50000000 -0.00000000  0.00000000
   0.16666667  0.33333333  0.13912987
   0.32957075  0.17045997  0.27621098
   0.97741498  0.98147596  0.41679515
   0.66666667  0.33333333  0.13912987
   0.25098900  0.24907441  0.49822446
Direct configuration=    17
   0.00000000  0.00000000  0.00000000
   0.83264809  0.66738890  0.27961206
   0.51857229  0.52239806  0.41681698
   0.50000000  0.50000000  0.00000000
   0.16666667  0.83333333  0.13912987
   0.33251149  0.67239092  0.27913885
   0.00791752  0.49214959  0.42010460
   0.66666667  0.83333333  0.13912987
   0.00000000  0.50000000  0.00000000
   0.82762722  0.16750597  0.27914104
   0.48587993  0.01418925  0.41948353
   0.50000000 -0.00000000  0.00000000
   0.16666667  0.33333333  0.13912987
   0.32967792  0.17035338  0.27620952
   0.97766639  0.98149186  0.41681661
   0.66666667  0.33333333  0.13912987
   0.25137654  0.24875842  0.49811116
Direct configuration=    18
   0.00000000  0.00000000  0.00000000
   0.83269443  0.66734197  0.27960887
   0.51876717  0.52250504  0.41678233
   0.50000000  0.50000000  0.00000000
   0.16666667  0.83333333  0.13912987
   0.33257504  0.67235548  0.27913885
   0.00796354  0.49210372  0.42008234
   0.66666667  0.83333333  0.13912987
   0.00000000  0.50000000  0.00000000
   0.82766406  0.16744392  0.27914079
   0.48592227  0.01414602  0.41950514
   0.50000000 -0.00000000  0.00000000
   0.16666667  0.33333333  0.13912987
   0.32972575  0.17030603  0.27620383
   0.97757417  0.98131088  0.41678577
   0.66666667  0.33333333  0.13912987
   0.25155498  0.24853979  0.49819612
Direct configuration=    19
   0.00000000  0.00000000  0.00000000
   0.83276761  0.66726669  0.27959715
   0.51881064  0.52242645  0.41677755
   0.50000000  0.50000000  0.00000000
   0.16666667  0.83333333  0.13912987
   0.33264878  0.67231357  0.27914128
   0.00806430  0.49200029  0.42007524
   0.66666667  0.83333333  0.13912987
   0.00000000  0.50000000  0.00000000
   0.82770543  0.16736915  0.27914320
   0.48590755  0.01415863  0.41954324
   0.50000000 -0.00000000  0.00000000
   0.16666667  0.33333333  0.13912987
   0.32978238  0.17024787  0.27619971
   0.97765303  0.98126754  0.41678134
   0.66666667  0.33333333  0.13912987
   0.25173823  0.24837588  0.49818548
Direct configuration=    20
   0.00000000  0.00000000  0.00000000
   0.83284331  0.66719509  0.27958537
   0.51891090  0.52240907  0.41676112
   0.50000000  0.50000000  0.00000000
   0.16666667  0.83333333  0.13912987
   0.33273262  0.67227181  0.27914195
   0.00815968  0.49190820  0.42006263
   0.66666667  0.83333333  0.13912987
   0.00000000  0.50000000  0.00000000
   0.82775160  0.16728915  0.27914387
   0.48591274  0.01415672  0.41958011
   0.50000000 -0.00000000  0.00000000
   0.16666667  0.33333333  0.13912987
   0.32984458  0.17018914  0.27619219
   0.97768135  0.98117781  0.41676661
   0.66666667  0.33333333  0.13912987
   0.25189106  0.24814909  0.49823722
Direct configuration=    21
   0.00000000  0.00000000  0.00000000
   0.83290564  0.66713270  0.27957917
   0.51889690  0.52229929  0.41677466
   0.50000000  0.50000000  0.00000000
   0.16666667  0.83333333  0.13912987
   0.33280048  0.67223274  0.27914737
   0.00823630  0.49183032  0.42005701
   0.66666667  0.83333333  0.13912987
   0.00000000  0.50000000  0.00000000
   0.82779061  0.16722102  0.27914936
   0.48591663  0.01415220  0.41961721
   0.50000000 -0.00000000  0.00000000
   0.16666667  0.33333333  0.13912987
   0.32989581  0.17013776  0.27619188
   0.97776933  0.98117053  0.41677476
   0.66666667  0.33333333  0.13912987
   0.25205124  0.24803650  0.49817809
Direct configuration=    22
   0.00000000  0.00000000  0.00000000
   0.83295494  0.66708030  0.27957739
   0.51902237  0.52234684  0.41675505
   0.50000000  0.50000000  0.00000000
   0.16666667  0.83333333  0.13912987
   0.33286038  0.67219946  0.27915183
   0.00829134  0.49177284  0.42005078
   0.66666667  0.83333333  0.13912987
   0.00000000  0.50000000  0.00000000
   0.82782284  0.16716058  0.27915352
   0.48592525  0.01414093  0.41964647
   0.50000000 -0.00000000  0.00000000
   0.16666667  0.33333333  0.13912987
   0.32993918  0.17009280  0.27618939
   0.97772546  0.98104812  0.41675667
   0.66666667  0.33333333  0.13912987
   0.25219004  0.24790972  0.49819284
Direct configuration=    23
   0.00000000  0.00000000  0.00000000
   0.83300246  0.66703693  0.27957231
   0.51903236  0.52229214  0.41676098
   0.50000000  0.50000000  0.00000000
   0.16666667  0.83333333  0.13912987
   0.33291476  0.67216761  0.27915594
   0.00833764  0.49172976  0.42004010
   0.66666667  0.83333333  0.13912987
   0.00000000  0.50000000  0.00000000
   0.82785913  0.16711072  0.27915773
   0.48595178  0.01411832  0.41967545
   0.50000000 -0.00000000  0.00000000
   0.16666667  0.33333333  0.13912987
   0.32998374  0.17005282  0.27619056
   0.97778961  0.98104732  0.41676393
   0.66666667  0.33333333  0.13912987
   0.25227541  0.24774269  0.49814409
Direct configuration=    24
   0.00000000  0.00000000  0.00000000
   0.83305414  0.66698470  0.27956943
   0.51911509  0.52230009  0.41675136
   0.50000000  0.50000000  0.00000000
   0.16666667  0.83333333  0.13912987
   0.33297665  0.67212962  0.27916145
   0.00838338  0.49168195  0.42002804
   0.66666667  0.83333333  0.13912987
   0.00000000  0.50000000  0.00000000
   0.82789714  0.16704882  0.27916312
   0.48597623  0.01409285  0.41970886
   0.50000000 -0.00000000  0.00000000
   0.16666667  0.33333333  0.13912987
   0.33003310  0.17000309  0.27619150
   0.97775952  0.98094275  0.41674896
   0.66666667  0.33333333  0.13912987
   0.25245562  0.24760805  0.49811688
Direct configuration=    25
   0.00000000  0.00000000  0.00000000
   0.83312203  0.66691184  0.27956165
   0.51921415  0.52231062  0.41673086
   0.50000000  0.50000000  0.00000000
   0.16666667  0.83333333  0.13912987
   0.33304634  0.67208904  0.27916868
   0.00845797  0.49160353  0.42002637
   0.66666667  0.83333333  0.13912987
   0.00000000  0.50000000  0.00000000
   0.82793642  0.16697841  0.27916982
   0.48595964  0.01410502  0.41975263
   0.50000000 -0.00000000  0.00000000
   0.16666667  0.33333333  0.13912987
   0.33008977  0.16994536  0.27619194
   0.97775376  0.98084684  0.41673056
   0.66666667  0.33333333  0.13912987
   0.25261435  0.24746394  0.49806921
Direct configuration=    26
   0.00000000  0.00000000  0.00000000
   0.83317822  0.66685423  0.27954640
   0.51928052  0.52231247  0.41671048
   0.50000000  0.50000000  0.00000000
   0.16666667  0.83333333  0.13912987
   0.33310420  0.67205335  0.27916750
   0.00851072  0.49154751  0.42001302
   0.66666667  0.83333333  0.13912987
   0.00000000  0.50000000  0.00000000
   0.82797103  0.16691894  0.27916853
   0.48596534  0.01409686  0.41978414
   0.50000000 -0.00000000  0.00000000
   0.16666667  0.33333333  0.13912987
   0.33013797  0.16989519  0.27618543
   0.97775478  0.98078354  0.41671089
   0.66666667  0.33333333  0.13912987
   0.25276243  0.24732863  0.49812139
Direct configuration=    27
   0.00000000  0.00000000  0.00000000
   0.83321132  0.66682334  0.27954000
   0.51925024  0.52224429  0.41672072
   0.50000000  0.50000000  0.00000000
   0.16666667  0.83333333  0.13912987
   0.33314160  0.67202965  0.27916937
   0.00853760  0.49152241  0.42000312
   0.66666667  0.83333333  0.13912987
   0.00000000  0.50000000  0.00000000
   0.82799682  0.16688335  0.27917040
   0.48598198  0.01408181  0.41980639
   0.50000000 -0.00000000  0.00000000
   0.16666667  0.33333333  0.13912987
   0.33016968  0.16986504  0.27618611
   0.97782616  0.98081612  0.41672073
   0.66666667  0.33333333  0.13912987
   0.25283035  0.24722571  0.49807805
Direct configuration=    28
   0.00000000  0.00000000  0.00000000
   0.83324736  0.66678952  0.27953605
   0.51928218  0.52223237  0.41671992
   0.50000000  0.50000000  0.00000000
   0.16666667  0.83333333  0.13912987
   0.33318982  0.67199811  0.27917195
   0.00855480  0.49150656  0.41998349
   0.66666667  0.83333333  0.13912987
   0.00000000  0.50000000  0.00000000
   0.82803076  0.16683749  0.27917292
   0.48602249  0.01404279  0.41983148
   0.50000000 -0.00000000  0.00000000
   0.16666667  0.33333333  0.13912987
   0.33021102  0.16982625  0.27618743
   0.97783649  0.98078187  0.41671901
   0.66666667  0.33333333  0.13912987
   0.25295294  0.24707138  0.49805144
Direct configuration=    29
   0.00000000  0.00000000  0.00000000
   0.83328904  0.66674659  0.27953117
   0.51931725  0.52221666  0.41671888
   0.50000000  0.50000000  0.00000000
   0.16666667  0.83333333  0.13912987
   0.33324525  0.67195684  0.27917518
   0.00857057  0.49148861  0.41995745
   0.66666667  0.83333333  0.13912987
   0.00000000  0.50000000  0.00000000
   0.82807157  0.16678181  0.27917603
   0.48606924  0.01399483  0.41986332
   0.50000000 -0.00000000  0.00000000
   0.16666667  0.33333333  0.13912987
   0.33026059  0.16977664  0.27619031
   0.97783985  0.98073290  0.41671509
   0.66666667  0.33333333  0.13912987
   0.25314838  0.24690390  0.49800863
Direct configuration=    30
   0.00000000  0.00000000  0.00000000
   0.83333801  0.66669432  0.27952077
   0.51940300  0.52224976  0.41669704
   0.50000000  0.50000000  0.00000000
   0.16666667  0.83333333  0.13912987
   0.33330459  0.67191571  0.27917482
   0.00859552  0.49145977  0.41993029
   0.66666667  0.83333333  0.13912987
   0.00000000  0.50000000  0.00000000
   0.82811152  0.16672133  0.27917544
   0.48608591  0.01397510  0.41989783
   0.50000000 -0.00000000  0.00000000
   0.16666667  0.33333333  0.13912987
   0.33031370  0.16972147  0.27618932
   0.97781004  0.98065107  0.41669491
   0.66666667  0.33333333  0.13912987
   0.25334528  0.24671771  0.49803319
Direct configuration=    31
   0.00000000  0.00000000  0.00000000
   0.83338070  0.66665342  0.27950962
   0.51935891  0.52216382  0.41670981
   0.50000000  0.50000000  0.00000000
   0.16666667  0.83333333  0.13912987
   0.33335991  0.67187485  0.27917455
   0.00861036  0.49144631  0.41989721
   0.66666667  0.83333333  0.13912987
   0.00000000  0.50000000  0.00000000
   0.82815440  0.16666785  0.27917509
   0.48612916  0.01393200  0.41993021
   0.50000000 -0.00000000  0.00000000
   0.16666667  0.33333333  0.13912987
   0.33036493  0.16967210  0.27619160
   0.97790037  0.98070004  0.41670871
   0.66666667  0.33333333  0.13912987
   0.25351063  0.24651145  0.49799100
Direct configuration=    32
   0.00000000  0.00000000  0.00000000
   0.83342314  0.66661059  0.27950302
   0.51939674  0.52215973  0.41670823
   0.50000000  0.50000000  0.00000000
   0.16666667  0.83333333  0.13912987
   0.33342480  0.67182610  0.27917492
   0.00860822  0.49144615  0.41985306
   0.66666667  0.83333333  0.13912987
   0.00000000  0.50000000  0.00000000
   0.82820291  0.16660257  0.27917545
   0.48619089  0.01386934  0.41996649
   0.50000000 -0.00000000  0.00000000
   0.16666667  0.33333333  0.13912987
   0.33042271  0.16961340  0.27619489
   0.97789024  0.98064892  0.41670309
   0.66666667  0.33333333  0.13912987
   0.25377097  0.24627751  0.49797134
Direct configuration=    33
   0.00000000  0.00000000  0.00000000
   0.83348292  0.66654655  0.27949264
   0.51946822  0.52218631  0.41668956
   0.50000000  0.50000000  0.00000000
   0.16666667  0.83333333  0.13912987
   0.33350147  0.67177368  0.27917563
   0.00862688  0.49142435  0.41981100
   0.66666667  0.83333333  0.13912987
   0.00000000  0.50000000  0.00000000
   0.82825119  0.16652366  0.27917561
   0.48619104  0.01386484  0.42002011
   0.50000000 -0.00000000  0.00000000
   0.16666667  0.33333333  0.13912987
   0.33049158  0.16954317  0.27619878
   0.97787022  0.98058418  0.41668730
   0.66666667  0.33333333  0.13912987
   0.25405071  0.24600529  0.49793851
Direct configuration=    34
   0.00000000  0.00000000  0.00000000
   0.83355795  0.66647519  0.27947129
   0.51949689  0.52218973  0.41667056
   0.50000000  0.50000000  0.00000000
   0.16666667  0.83333333  0.13912987
   0.33359209  0.67172231  0.27917187
   0.00865131  0.49140153  0.41975789
   0.66666667  0.83333333  0.13912987
   0.00000000  0.50000000  0.00000000
   0.82830446  0.16643383  0.27917199
   0.48618520  0.01387211  0.42008378
   0.50000000 -0.00000000  0.00000000
   0.16666667  0.33333333  0.13912987
   0.33057209  0.16946344  0.27619767
   0.97787301  0.98056235  0.41666995
   0.66666667  0.33333333  0.13912987
   0.25433502  0.24566590  0.49793859
Direct configuration=    35
   0.00000000  0.00000000  0.00000000
   0.83364374  0.66638533  0.27944426
   0.51947698  0.52217472  0.41665089
   0.50000000  0.50000000  0.00000000
   0.16666667  0.83333333  0.13912987
   0.33369583  0.67167428  0.27916596
   0.00868390  0.49136642  0.41970471
   0.66666667  0.83333333  0.13912987
   0.00000000  0.50000000  0.00000000
   0.82835183  0.16632942  0.27916620
   0.48610209  0.01395313  0.42016696
   0.50000000 -0.00000000  0.00000000
   0.16666667  0.33333333  0.13912987
   0.33065572  0.16937960  0.27619145
   0.97784538  0.98054140  0.41664027
   0.66666667  0.33333333  0.13912987
   0.25467843  0.24540735  0.49796294
Direct configuration=    36
   0.00000000  0.00000000  0.00000000
   0.83369397  0.66633700  0.27943803
   0.51949029  0.52223549  0.41663219
   0.50000000  0.50000000  0.00000000
   0.16666667  0.83333333  0.13912987
   0.33374865  0.67167207  0.27917114
   0.00871100  0.49134228  0.41970027
   0.66666667  0.83333333  0.13912987
   0.00000000  0.50000000  0.00000000
   0.82836039  0.16628366  0.27917058
   0.48598335  0.01407319  0.42022356
   0.50000000 -0.00000000  0.00000000
   0.16666667  0.33333333  0.13912987
   0.33068910  0.16935108  0.27619056
   0.97783925  0.98058088  0.41663518
   0.66666667  0.33333333  0.13912987
   0.25463200  0.24526110  0.49788873
Direct configuration=    37
   0.00000000  0.00000000  0.00000000
   0.83371946  0.66631574  0.27943400
   0.51952263  0.52230790  0.41661595
   0.50000000  0.50000000  0.00000000
   0.16666667  0.83333333  0.13912987
   0.33377760  0.67167108  0.27917241
   0.00871197  0.49134160  0.41969270
   0.66666667  0.83333333  0.13912987
   0.00000000  0.50000000  0.00000000
   0.82836277  0.16625518  0.27917228
   0.48594267  0.01411581  0.42025052
   0.50000000 -0.00000000  0.00000000
   0.16666667  0.33333333  0.13912987
   0.33070617  0.16933449  0.27618741
   0.97771341  0.98049787  0.41660534
   0.66666667  0.33333333  0.13912987
   0.25471271  0.24525808  0.49790046
Direct configuration=    38
   0.00000000  0.00000000  0.00000000
   0.83374129  0.66629017  0.27942628
   0.51949545  0.52232030  0.41660843
   0.50000000  0.50000000  0.00000000
   0.16666667  0.83333333  0.13912987
   0.33379782  0.67167208  0.27917350
   0.00872049  0.49133008  0.41969237
   0.66666667  0.83333333  0.13912987
   0.00000000  0.50000000  0.00000000
   0.82836107  0.16623497  0.27917286
   0.48588001  0.01417407  0.42027666
   0.50000000 -0.00000000  0.00000000
   0.16666667  0.33333333  0.13912987
   0.33071835  0.16932228  0.27618490
   0.97769778  0.98052209  0.41659781
   0.66666667  0.33333333  0.13912987
   0.25471893  0.24526209  0.49788183
Direct configuration=    39
   0.00000000  0.00000000  0.00000000
   0.83376088  0.66626050  0.27942028
   0.51949081  0.52236478  0.41659568
   0.50000000  0.50000000  0.00000000
   0.16666667  0.83333333  0.13912987
   0.33381971  0.67166543  0.27917521
   0.00871359  0.49132637  0.41968648
   0.66666667  0.83333333  0.13912987
   0.00000000  0.50000000  0.00000000
   0.82835943  0.16620572  0.27917415
   0.48582627  0.01421626  0.42030537
   0.50000000 -0.00000000  0.00000000
   0.16666667  0.33333333  0.13912987
   0.33073004  0.16930259  0.27618252
   0.97764762  0.98052080  0.41658625
   0.66666667  0.33333333  0.13912987
   0.25479459  0.24530028  0.49786832
Direct configuration=    40
   0.00000000  0.00000000  0.00000000
   0.83378298  0.66624176  0.27941441
   0.51949881  0.52241865  0.41658148
   0.50000000  0.50000000  0.00000000
   0.16666667  0.83333333  0.13912987
   0.33384070  0.67166805  0.27917603
   0.00871421  0.49132839  0.41968446
   0.66666667  0.83333333  0.13912987
   0.00000000  0.50000000  0.00000000
   0.82835975  0.16618741  0.27917483
   0.48577851  0.01426620  0.42032938
   0.50000000 -0.00000000  0.00000000
   0.16666667  0.33333333  0.13912987
   0.33074280  0.16929176  0.27618057
   0.97763055  0.98054801  0.41658092
   0.66666667  0.33333333  0.13912987
   0.25473516  0.24523690  0.49785366
Direct configuration=    41
   0.00000000  0.00000000  0.00000000
   0.83380750  0.66622163  0.27940760
   0.51947096  0.52244277  0.41657534
   0.50000000  0.50000000  0.00000000
   0.16666667  0.83333333  0.13912987
   0.33386495  0.67166621  0.27917635
   0.00870615  0.49133693  0.41967759
   0.66666667  0.83333333  0.13912987
   0.00000000  0.50000000  0.00000000
   0.82836231  0.16616293  0.27917568
   0.48573716  0.01430996  0.42035679
   0.50000000 -0.00000000  0.00000000
   0.16666667  0.33333333  0.13912987
   0.33075817  0.16927636  0.27617890
   0.97757713  0.98054828  0.41656815
   0.66666667  0.33333333  0.13912987
   0.25476348  0.24523579  0.49783928
Direct configuration=    42
   0.00000000  0.00000000  0.00000000
   0.83380750  0.66622163  0.27940760
   0.51947096  0.52244277  0.41657534
   0.50000000  0.50000000  0.00000000
   0.16666667  0.83333333  0.13912987
   0.33386495  0.67166621  0.27917635
   0.00870615  0.49133693  0.41967759
   0.66666667  0.83333333  0.13912987
   0.00000000  0.50000000  0.00000000
   0.82836231  0.16616293  0.27917568
   0.48573716  0.01430996  0.42035679
   0.50000000 -0.00000000  0.00000000
   0.16666667  0.33333333  0.13912987
   0.33075817  0.16927636  0.27617890
   0.97757713  0.98054828  0.41656815
   0.66666667  0.33333333  0.13912987
   0.25476348  0.24523579  0.49783928
