 vasp.5.4.4.18Apr17-6-g9f103f2a35 (build Dec 11 2018 16:16:58) complex          
  
 executed on             LinuxIFC date 2020.07.21  16:39:58
 running on   20 total cores
 distrk:  each k-point on   20 cores,    1 groups
 distr:  one band on NCORES_PER_BAND=   1 cores,   20 groups


--------------------------------------------------------------------------------------------------------


 INCAR:
 POTCAR:   PAW_PBE Ni 06Sep2000                   
 POTCAR:    PAW_PBE S 17Jan2003                   

 ----------------------------------------------------------------------------- 
|                                                                             |
|           W    W    AA    RRRRR   N    N  II  N    N   GGGG   !!!           |
|           W    W   A  A   R    R  NN   N  II  NN   N  G    G  !!!           |
|           W    W  A    A  R    R  N N  N  II  N N  N  G       !!!           |
|           W WW W  AAAAAA  RRRRR   N  N N  II  N  N N  G  GGG   !            |
|           WW  WW  A    A  R   R   N   NN  II  N   NN  G    G                |
|           W    W  A    A  R    R  N    N  II  N    N   GGGG   !!!           |
|                                                                             |
|      For optimal performance we recommend to set                            |
|        NCORE= 4 - approx SQRT( number of cores)                             |
|      NCORE specifies how many cores store one orbital (NPAR=cpu/NCORE).     |
|      This setting can  greatly improve the performance of VASP for DFT.     |
|      The default,   NCORE=1            might be grossly inefficient         |
|      on modern multi-core architectures or massively parallel machines.     |
|      Do your own testing !!!!                                               |
|      Unfortunately you need to use the default for GW and RPA calculations. |
|      (for HF NCORE is supported but not extensively tested yet)             |
|                                                                             |
 ----------------------------------------------------------------------------- 

 POTCAR:   PAW_PBE Ni 06Sep2000                   
  local pseudopotential read in
  partial core-charges read in
  atomic valenz-charges read in
  non local Contribution for L=           2  read in
    real space projection operators read in
  non local Contribution for L=           2  read in
    real space projection operators read in
  non local Contribution for L=           0  read in
    real space projection operators read in
  non local Contribution for L=           0  read in
    real space projection operators read in
  non local Contribution for L=           1  read in
    real space projection operators read in
  non local Contribution for L=           1  read in
    real space projection operators read in
    PAW grid and wavefunctions read in
 
   number of l-projection  operators is LMAX  =           6
   number of lm-projection operators is LMMAX =          18
 
 POTCAR:    PAW_PBE S 17Jan2003                   
  local pseudopotential read in
  partial core-charges read in
  atomic valenz-charges read in
  non local Contribution for L=           0  read in
    real space projection operators read in
  non local Contribution for L=           0  read in
    real space projection operators read in
  non local Contribution for L=           1  read in
    real space projection operators read in
  non local Contribution for L=           1  read in
    real space projection operators read in
    PAW grid and wavefunctions read in
 
   number of l-projection  operators is LMAX  =           4
   number of lm-projection operators is LMMAX =           8
 
 Optimization of the real space projectors (new method)

 maximal supplied QI-value         = 16.25
 optimisation between [QCUT,QGAM] = [ 10.24, 20.48] = [ 29.35,117.42] Ry 
 Optimized for a Real-space Cutoff    1.38 Angstroem

   l    n(q)    QCUT    max X(q) W(low)/X(q) W(high)/X(q)  e(spline) 
   2      7    10.239     4.811    0.22E-04    0.77E-04    0.38E-07
   2      7    10.239    15.146    0.35E-03    0.64E-03    0.10E-06
   0      8    10.239    14.357    0.23E-04    0.95E-05    0.71E-08
   0      8    10.239    43.282    0.33E-03    0.32E-04    0.83E-07
   1      8    10.239     5.514    0.10E-03    0.12E-03    0.15E-07
   1      8    10.239     7.697    0.32E-03    0.50E-03    0.12E-06
 Optimization of the real space projectors (new method)

 maximal supplied QI-value         = 19.84
 optimisation between [QCUT,QGAM] = [ 10.12, 20.44] = [ 28.68,116.96] Ry 
 Optimized for a Real-space Cutoff    1.23 Angstroem

   l    n(q)    QCUT    max X(q) W(low)/X(q) W(high)/X(q)  e(spline) 
   0      7    10.119     5.487    0.26E-04    0.13E-04    0.41E-08
   0      7    10.119    85.627    0.61E-04    0.28E-03    0.52E-07
   1      7    10.119     3.530    0.28E-04    0.18E-04    0.15E-07
   1      7    10.119    42.714    0.44E-03    0.62E-03    0.12E-06
 PAW_PBE Ni 06Sep2000                   :
 energy of atom  1       EATOM=-1077.9025
 kinetic energy error for atom=    0.0101 (will be added to EATOM!!)
  PAW_PBE S 17Jan2003                   :
 energy of atom  2       EATOM= -276.8230
 kinetic energy error for atom=    0.0046 (will be added to EATOM!!)
 
 
 POSCAR: IS-1                                    
  positions in direct lattice
  No initial velocities read in
 exchange correlation table for  LEXCH =        8
   RHO(1)=    0.500       N(1)  =     2000
   RHO(2)=  100.500       N(2)  =     4000
 


--------------------------------------------------------------------------------------------------------


 ion  position               nearest neighbor table
   1  0.350  0.596  0.410-  10 2.41  19 2.42   8 2.44  16 2.45   3 2.50  17 2.51   2 2.51  24 2.52

   2  0.451  0.663  0.377-  19 2.41   5 2.42  16 2.45   4 2.45   3 2.50  20 2.51   1 2.51   6 2.52

   3  0.411  0.663  0.496-  10 2.41   5 2.42   4 2.44   8 2.45   2 2.50   1 2.50  12 2.52  11 2.54

   4  0.513  0.724  0.464-   5 2.30   6 2.44  12 2.44   3 2.44   2 2.45   7 2.45
   5  0.515  0.609  0.465-   4 2.30  28 2.36  12 2.40   7 2.40   6 2.41   2 2.42   3 2.42  10 2.47
                            23 2.47  14 2.48  19 2.48  13 2.49
   6  0.577  0.665  0.378-  23 2.41   5 2.41   4 2.44  35 2.45   7 2.51   2 2.52  20 2.52  32 2.52

   7  0.615  0.665  0.497-   5 2.40  14 2.42   4 2.45  33 2.46  32 2.50   6 2.51  15 2.51  12 2.52

   8  0.316  0.593  0.528-  10 2.30   1 2.44   3 2.45  24 2.45  11 2.46   9 2.47
   9  0.352  0.488  0.582-  56 1.91  10 2.39  27 2.40  42 2.47   8 2.47  24 2.49  25 2.51  11 2.53
                            39 2.59
  10  0.415  0.543  0.497-   8 2.30  28 2.36   9 2.39   3 2.41   1 2.41  11 2.41  24 2.41  13 2.47
                             5 2.47  19 2.48  26 2.48  27 2.50
  11  0.412  0.597  0.604-  13 2.40  10 2.41  40 2.44   8 2.46  12 2.51   9 2.53   3 2.54  39 2.56

  12  0.513  0.664  0.571-   5 2.40  13 2.42  40 2.43   4 2.44  15 2.51  11 2.51   7 2.52   3 2.52

  13  0.514  0.543  0.570-  40 2.30  28 2.36  41 2.40  11 2.40  15 2.41  12 2.42  39 2.46  27 2.46
                            10 2.47   5 2.49  14 2.49  31 2.50
  14  0.615  0.544  0.498-  33 2.29  28 2.35  15 2.40  34 2.40  32 2.41   7 2.42  37 2.42  30 2.48
                             5 2.48  23 2.48  31 2.49  13 2.49
  15  0.615  0.599  0.604-  14 2.40  13 2.41  40 2.44  33 2.45  41 2.50  12 2.51   7 2.51  34 2.55

  16  0.393  0.593  0.296-  19 2.30  18 2.44   1 2.45   2 2.45  17 2.45  20 2.45
  17  0.352  0.489  0.345-  19 2.40  26 2.42  50 2.43  16 2.45   1 2.51  24 2.51  47 2.51  18 2.53

  18  0.454  0.491  0.270-  19 2.41  21 2.41  16 2.44  48 2.44  22 2.51  20 2.51  17 2.53  47 2.53

  19  0.454  0.542  0.379-  16 2.30  28 2.36  17 2.40  18 2.41   2 2.41   1 2.42  20 2.42  21 2.46
                            10 2.48  23 2.48   5 2.48  26 2.49
  20  0.515  0.598  0.291-  23 2.41  19 2.42  35 2.45  16 2.45  22 2.50  18 2.51   2 2.51   6 2.52

  21  0.517  0.439  0.359-  48 2.30  28 2.36  47 2.40  49 2.41  18 2.41  22 2.41  52 2.42  19 2.46
                            29 2.48  23 2.48  30 2.48  26 2.50
  22  0.579  0.492  0.271-  23 2.41  21 2.41  35 2.45  48 2.45  20 2.50  18 2.51  49 2.51  36 2.52

  23  0.578  0.544  0.380-  35 2.30  28 2.37  32 2.40  20 2.41   6 2.41  36 2.41  22 2.41   5 2.47
                            30 2.48  21 2.48  19 2.48  14 2.48
  24  0.312  0.488  0.464-  26 2.40  10 2.41   8 2.45  50 2.46   9 2.49  17 2.51  25 2.52   1 2.52

  25  0.352  0.381  0.517-  26 2.39  27 2.44  42 2.45  50 2.46   9 2.51  43 2.51  51 2.52  24 2.52

  26  0.416  0.437  0.433-  50 2.30  28 2.35  25 2.39  51 2.40  24 2.40  17 2.42  47 2.42  27 2.47
                            10 2.48  29 2.48  19 2.49  21 2.50
  27  0.455  0.437  0.550-  42 2.33  28 2.35   9 2.40  43 2.40  25 2.44  31 2.46  13 2.46  26 2.47
                            10 2.50  29 2.50  44 2.50  39 2.50
  28  0.516  0.491  0.465-  27 2.35  14 2.35  26 2.35  13 2.36  31 2.36  30 2.36   5 2.36  19 2.36
                            21 2.36  29 2.36  10 2.36  23 2.37
  29  0.518  0.372  0.464-  55 2.30  28 2.36  43 2.40  52 2.41  53 2.41  51 2.41  45 2.41  30 2.47
                            21 2.48  31 2.48  26 2.48  27 2.50
  30  0.617  0.439  0.432-  54 2.30  28 2.36  38 2.40  37 2.40  36 2.42  53 2.42  49 2.42  29 2.47
                            23 2.48  14 2.48  21 2.48  31 2.49
  31  0.578  0.438  0.550-  46 2.30  28 2.36  41 2.40  45 2.40  34 2.41  38 2.42  44 2.46  27 2.46
                            29 2.48  14 2.49  30 2.49  13 2.50
  32  0.679  0.600  0.412-  23 2.40  14 2.41  33 2.45  35 2.45  37 2.50   7 2.50   6 2.52  36 2.52

  33  0.712  0.597  0.530-  14 2.29  32 2.45  34 2.45  15 2.45   7 2.46  37 2.46
  34  0.680  0.492  0.584-  14 2.40  31 2.41  46 2.44  33 2.45  41 2.50  38 2.51  37 2.52  15 2.55

  35  0.638  0.597  0.297-  23 2.30  36 2.44   6 2.45  32 2.45  22 2.45  20 2.45
  36  0.681  0.493  0.345-  23 2.41  30 2.42  35 2.44  54 2.44  37 2.51  22 2.52  32 2.52  49 2.52

  37  0.720  0.493  0.464-  30 2.40  14 2.42  54 2.45  33 2.46  32 2.50  36 2.51  34 2.52  38 2.52

  38  0.682  0.385  0.517-  30 2.40  31 2.42  46 2.43  54 2.45  45 2.51  34 2.51  37 2.52  53 2.52

  39  0.453  0.491  0.663-  56 1.81  40 2.45  13 2.46  27 2.50  42 2.53  41 2.54  11 2.56   9 2.59
                            44 2.60
  40  0.514  0.597  0.672-  13 2.30  12 2.43  11 2.44  15 2.44  39 2.45  41 2.50
  41  0.579  0.492  0.657-  31 2.40  13 2.40  15 2.50  34 2.50  40 2.50  46 2.50  44 2.53  39 2.54

  42  0.393  0.384  0.633-  56 1.89  27 2.33  25 2.45   9 2.47  43 2.47  39 2.53  44 2.53
  43  0.455  0.317  0.549-  29 2.40  27 2.40  42 2.47  55 2.47  51 2.49  25 2.51  45 2.53  44 2.59

  44  0.519  0.382  0.642-  46 2.45  31 2.46  27 2.50  42 2.53  41 2.53  45 2.56  43 2.59  39 2.60

  45  0.582  0.318  0.550-  31 2.40  29 2.41  46 2.44  55 2.46  38 2.51  43 2.53  53 2.54  44 2.56

  46  0.641  0.386  0.631-  31 2.30  38 2.43  34 2.44  45 2.44  44 2.45  41 2.50
  47  0.416  0.383  0.324-  21 2.40  26 2.42  50 2.43  48 2.45  51 2.51  52 2.51  17 2.51  18 2.53

  48  0.517  0.387  0.256-  21 2.30  18 2.44  52 2.44  49 2.45  47 2.45  22 2.45
  49  0.619  0.386  0.324-  21 2.41  30 2.42  54 2.44  48 2.45  53 2.50  52 2.51  22 2.51  36 2.52

  50  0.319  0.385  0.399-  26 2.30  17 2.43  47 2.43  24 2.46  51 2.46  25 2.46
  51  0.416  0.316  0.431-  26 2.40  29 2.41  50 2.46  55 2.46  43 2.49  47 2.51  25 2.52  52 2.53

  52  0.518  0.318  0.356-  29 2.41  21 2.42  48 2.44  55 2.45  53 2.50  47 2.51  49 2.51  51 2.53

  53  0.620  0.319  0.429-  29 2.41  30 2.42  54 2.44  55 2.45  49 2.50  52 2.50  38 2.52  45 2.54

  54  0.715  0.389  0.399-  30 2.30  53 2.44  36 2.44  49 2.44  38 2.45  37 2.45
  55  0.520  0.258  0.463-  29 2.30  53 2.45  52 2.45  45 2.46  51 2.46  43 2.47
  56  0.367  0.465  0.674-  39 1.81  42 1.89   9 1.91
 
  LATTYP: Found a simple cubic cell.
 ALAT       =    20.0000000000
  
  Lattice vectors:
  
 A1 = (  20.0000000000,   0.0000000000,   0.0000000000)
 A2 = (   0.0000000000,  20.0000000000,   0.0000000000)
 A3 = (   0.0000000000,   0.0000000000,  20.0000000000)


Analysis of symmetry for initial positions (statically):
=====================================================================
 Subroutine PRICEL returns:
 Original cell was already a primitive cell.
 

 Routine SETGRP: Setting up the symmetry group for a 
 simple cubic supercell.


 Subroutine GETGRP returns: Found  1 space group operations
 (whereof  1 operations were pure point group operations)
 out of a pool of 48 trial point group operations.


The static configuration has the point symmetry C_1 .


Analysis of symmetry for dynamics (positions and initial velocities):
=====================================================================
 Subroutine PRICEL returns:
 Original cell was already a primitive cell.
 

 Routine SETGRP: Setting up the symmetry group for a 
 simple cubic supercell.


 Subroutine GETGRP returns: Found  1 space group operations
 (whereof  1 operations were pure point group operations)
 out of a pool of 48 trial point group operations.


The dynamic configuration has the point symmetry C_1 .


Analysis of structural, dynamic, and magnetic symmetry:
=====================================================================
 Subroutine PRICEL returns:
 Original cell was already a primitive cell.
 

 Routine SETGRP: Setting up the symmetry group for a 
 simple cubic supercell.


 Subroutine GETGRP returns: Found  1 space group operations
 (whereof  1 operations were pure point group operations)
 out of a pool of 48 trial point group operations.


The magnetic configuration has the point symmetry C_1 .


 Subroutine INISYM returns: Found  1 space group operations
 (whereof  1 operations are pure point group operations),
 and found     1 'primitive' translations

 
 
 KPOINTS: 4x2x1                                   

Automatic generation of k-mesh.
Space group operators:
 irot       det(A)        alpha          n_x          n_y          n_z        tau_x        tau_y        tau_z
    1     1.000000     0.000000     1.000000     0.000000     0.000000     0.000000     0.000000     0.000000
 
 Subroutine IBZKPT returns following result:
 ===========================================
 
 Found      1 irreducible k-points:
 
 Following reciprocal coordinates:
            Coordinates               Weight
  0.000000  0.000000  0.000000      1.000000
 
 Following cartesian coordinates:
            Coordinates               Weight
  0.000000  0.000000  0.000000      1.000000
 


--------------------------------------------------------------------------------------------------------




 Dimension of arrays:
   k-points           NKPTS =      1   k-points in BZ     NKDIM =      1   number of bands    NBANDS=    380
   number of dos      NEDOS =    301   number of ions     NIONS =     56
   non local maximal  LDIM  =      6   non local SUM 2l+1 LMDIM =     18
   total plane-waves  NPLWV = 941192
   max r-space proj   IRMAX =   1346   max aug-charges    IRDMAX=   4013
   dimension x,y,z NGX =    98 NGY =   98 NGZ =   98
   dimension x,y,z NGXF=   196 NGYF=  196 NGZF=  196
   support grid    NGXF=   196 NGYF=  196 NGZF=  196
   ions per type =              55   1
   NGX,Y,Z   is equivalent  to a cutoff of   8.15,  8.15,  8.15 a.u.
   NGXF,Y,Z  is equivalent  to a cutoff of  16.29, 16.29, 16.29 a.u.

 SYSTEM =  1x1_001_aAl2O3                          
 POSCAR =  IS-1                                    

 Startparameter for this run:
   NWRITE =      1    write-flag & timer
   PREC   = normal    normal or accurate (medium, high low for compatibility)
   ISTART =      0    job   : 0-new  1-cont  2-samecut
   ICHARG =      2    charge: 1-file 2-atom 10-const
   ISPIN  =      2    spin polarized calculation?
   LNONCOLLINEAR =      F non collinear calculations
   LSORBIT =      F    spin-orbit coupling
   INIWAV =      1    electr: 0-lowe 1-rand  2-diag
   LASPH  =      F    aspherical Exc in radial PAW
   METAGGA=      F    non-selfconsistent MetaGGA calc.

 Electronic Relaxation 1
   ENCUT  =  400.0 eV  29.40 Ry    5.42 a.u.  32.61 32.61 32.61*2*pi/ulx,y,z
   ENINI  =  400.0     initial cutoff
   ENAUG  =  544.6 eV  augmentation charge cutoff
   NELM   =    100;   NELMIN=  2; NELMDL= -5     # of ELM steps 
   EDIFF  = 0.1E-05   stopping-criterion for ELM
   LREAL  =      T    real-space projection
   NLSPLINE    = F    spline interpolate recip. space projectors
   LCOMPAT=      F    compatible to vasp.4.4
   GGA_COMPAT  = T    GGA compatible to vasp.4.4-vasp.4.6
   LMAXPAW     = -100 max onsite density
   LMAXMIX     =    2 max onsite mixed and CHGCAR
   VOSKOWN=      0    Vosko Wilk Nusair interpolation
   ROPT   =   -0.00050  -0.00050
 Ionic relaxation
   EDIFFG = -.3E-01   stopping-criterion for IOM
   NSW    =    100    number of steps for IOM
   NBLOCK =      1;   KBLOCK =    100    inner block; outer block 
   IBRION =      2    ionic relax: 0-MD 1-quasi-New 2-CG
   NFREE  =      5    steps in history (QN), initial steepest desc. (CG)
   ISIF   =      0    stress and relaxation
   IWAVPR =     11    prediction:  0-non 1-charg 2-wave 3-comb
   ISYM   =      2    0-nonsym 1-usesym 2-fastsym
   LCORR  =      T    Harris-Foulkes like correction to forces

   POTIM  = 0.2000    time-step for ionic-motion
   TEIN   =    0.0    initial temperature
   TEBEG  =    0.0;   TEEND  =   0.0 temperature during run
   SMASS  =  -3.00    Nose mass-parameter (am)
   estimated Nose-frequenzy (Omega)   =  0.10E-29 period in steps =****** mass=  -0.914E-26a.u.
   SCALEE = 1.0000    scale energy and forces
   NPACO  =    256;   APACO  = 16.0  distance and # of slots for P.C.
   PSTRESS=    0.0 pullay stress

  Mass of Ions in am
   POMASS =  58.69 32.07
  Ionic Valenz
   ZVAL   =  10.00  6.00
  Atomic Wigner-Seitz radii
   RWIGS  =  -1.00 -1.00
  virtual crystal weights 
   VCA    =   1.00  1.00
   NELECT =     556.0000    total number of electrons
   NUPDOWN=      -1.0000    fix difference up-down

 DOS related values:
   EMIN   =  10.00;   EMAX   =-10.00  energy-range for DOS
   EFERMI =   0.00
   ISMEAR =     0;   SIGMA  =   0.10  broadening in eV -4-tet -1-fermi 0-gaus

 Electronic relaxation 2 (details)
   IALGO  =     68    algorithm
   LDIAG  =      T    sub-space diagonalisation (order eigenvalues)
   LSUBROT=      F    optimize rotation matrix (better conditioning)
   TURBO    =      0    0=normal 1=particle mesh
   IRESTART =      0    0=no restart 2=restart with 2 vectors
   NREBOOT  =      0    no. of reboots
   NMIN     =      0    reboot dimension
   EREF     =   0.00    reference energy to select bands
   IMIX   =      4    mixing-type and parameters
     AMIX     =   0.40;   BMIX     =  1.00
     AMIX_MAG =   1.60;   BMIX_MAG =  1.00
     AMIN     =   0.10
     WC   =   100.;   INIMIX=   1;  MIXPRE=   1;  MAXMIX= -45

 Intra band minimization:
   WEIMIN = 0.0010     energy-eigenvalue tresh-hold
   EBREAK =  0.66E-09  absolut break condition
   DEPER  =   0.30     relativ break condition  

   TIME   =   0.40     timestep for ELM

  volume/ion in A,a.u.               =     142.86       964.05
  Fermi-wavevector in a.u.,A,eV,Ry     =   0.673085  1.271946  6.164026  0.453043
  Thomas-Fermi vector in A             =   1.749399
 
 Write flags
   LWAVE        =      F    write WAVECAR
   LDOWNSAMPLE  =      F    k-point downsampling of WAVECAR
   LCHARG       =      F    write CHGCAR
   LVTOT        =      F    write LOCPOT, total local potential
   LVHAR        =      F    write LOCPOT, Hartree potential only
   LELF         =      F    write electronic localiz. function (ELF)
   LORBIT       =      0    0 simple, 1 ext, 2 COOP (PROOUT), +10 PAW based schemes


 Dipole corrections
   LMONO  =      F    monopole corrections only (constant potential shift)
   LDIPOL =      F    correct potential (dipole corrections)
   IDIPOL =      0    1-x, 2-y, 3-z, 4-all directions 
   EPSILON=  1.0000000 bulk dielectric constant

 Exchange correlation treatment:
   GGA     =    --    GGA type
   LEXCH   =     8    internal setting for exchange type
   VOSKOWN=      0    Vosko Wilk Nusair interpolation
   LHFCALC =     F    Hartree Fock is set to
   LHFONE  =     F    Hartree Fock one center treatment
   AEXX    =    0.0000 exact exchange contribution

 Linear response parameters
   LEPSILON=     F    determine dielectric tensor
   LRPA    =     F    only Hartree local field effects (RPA)
   LNABLA  =     F    use nabla operator in PAW spheres
   LVEL    =     F    velocity operator in full k-point grid
   LINTERFAST=   F  fast interpolation
   KINTER  =     0    interpolate to denser k-point grid
   CSHIFT  =0.1000    complex shift for real part using Kramers Kronig
   OMEGAMAX=  -1.0    maximum frequency
   DEG_THRESHOLD= 0.2000000E-02 threshold for treating states as degnerate
   RTIME   =   -0.100 relaxation time in fs
  (WPLASMAI=    0.000 imaginary part of plasma frequency in eV, 0.658/RTIME)
   DFIELD  = 0.0000000 0.0000000 0.0000000 field for delta impulse in time
 
 Orbital magnetization related:
   ORBITALMAG=     F  switch on orbital magnetization
   LCHIMAG   =     F  perturbation theory with respect to B field
   DQ        =  0.001000  dq finite difference perturbation B field
   LLRAUG    =     F  two centre corrections for induced B field



--------------------------------------------------------------------------------------------------------


 conjugate gradient relaxation of ions
 charge density and potential will be updated during run
 spin polarized calculation
 RMM-DIIS sequential band-by-band and
  variant of blocked Davidson during initial phase
 perform sub-space diagonalisation
    before iterative eigenvector-optimisation
 modified Broyden-mixing scheme, WC =      100.0
 initial mixing is a Kerker type mixing with AMIX =  0.4000 and BMIX =      1.0000
 Hartree-type preconditioning will be used
 using additional bands          102
 real space projection scheme for non local part
 use partial core corrections
 calculate Harris-corrections to forces 
   (improved forces if not selfconsistent)
 use gradient corrections 
 use of overlap-Matrix (Vanderbilt PP)
 Gauss-broadening in eV      SIGMA  =   0.10


--------------------------------------------------------------------------------------------------------


  energy-cutoff  :      400.00
  volume of cell :     8000.00
      direct lattice vectors                 reciprocal lattice vectors
    20.000000000  0.000000000  0.000000000     0.050000000  0.000000000  0.000000000
     0.000000000 20.000000000  0.000000000     0.000000000  0.050000000  0.000000000
     0.000000000  0.000000000 20.000000000     0.000000000  0.000000000  0.050000000

  length of vectors
    20.000000000 20.000000000 20.000000000     0.050000000  0.050000000  0.050000000


 
 k-points in units of 2pi/SCALE and weight: 4x2x1                                   
   0.00000000  0.00000000  0.00000000       1.000
 
 k-points in reciprocal lattice and weights: 4x2x1                                   
   0.00000000  0.00000000  0.00000000       1.000
 
 position of ions in fractional coordinates (direct lattice) 
   0.34999999  0.59609997  0.41023001
   0.45111999  0.66298002  0.37739000
   0.41144001  0.66333997  0.49592999
   0.51289999  0.72356999  0.46397001
   0.51455998  0.60857999  0.46454999
   0.57696998  0.66512001  0.37803999
   0.61531001  0.66529000  0.49739999
   0.31621998  0.59328002  0.52759999
   0.35165000  0.48844001  0.58240998
   0.41481999  0.54310000  0.49675000
   0.41226000  0.59715998  0.60433000
   0.51300001  0.66443002  0.57078999
   0.51393002  0.54326999  0.57043999
   0.61514002  0.54430997  0.49803001
   0.61504000  0.59938997  0.60447001
   0.39269999  0.59319001  0.29561001
   0.35174000  0.48896000  0.34492999
   0.45374000  0.49070001  0.27023000
   0.45361000  0.54241002  0.37911001
   0.51520002  0.59798002  0.29126000
   0.51659000  0.43858001  0.35894001
   0.57914001  0.49233002  0.27079999
   0.57756001  0.54448003  0.37959999
   0.31229001  0.48839000  0.46421999
   0.35187000  0.38130999  0.51739001
   0.41624001  0.43660000  0.43307000
   0.45506999  0.43731001  0.55010003
   0.51587999  0.49059999  0.46496999
   0.51804000  0.37242001  0.46355999
   0.61691999  0.43946001  0.43193999
   0.57789999  0.43765000  0.55014002
   0.67907000  0.59966999  0.41204000
   0.71208000  0.59684998  0.52977002
   0.68033999  0.49168000  0.58374000
   0.63770002  0.59675997  0.29679000
   0.68107003  0.49320999  0.34472001
   0.71951002  0.49331000  0.46399999
   0.68197000  0.38521001  0.51692998
   0.45265999  0.49094000  0.66323000
   0.51353002  0.59705001  0.67210001
   0.57927000  0.49200001  0.65692002
   0.39315000  0.38383001  0.63277000
   0.45515999  0.31744999  0.54939002
   0.51909000  0.38150001  0.64209998
   0.58157003  0.31762001  0.55027002
   0.64121002  0.38648999  0.63142002
   0.41586000  0.38284001  0.32444999
   0.51719999  0.38745001  0.25582999
   0.61895001  0.38558999  0.32365999
   0.31948999  0.38475001  0.39871001
   0.41635999  0.31641999  0.43090999
   0.51840001  0.31786001  0.35631999
   0.62011999  0.31862000  0.42938000
   0.71500999  0.38927999  0.39916000
   0.51953000  0.25764999  0.46280000
   0.36684999  0.46491000  0.67382997
 
 position of ions in cartesian coordinates  (Angst):
   6.99999988 11.92199946  8.20460022
   9.02239978 13.25960040  7.54779994
   8.22880030 13.26679944  9.91859972
  10.25799990 14.47139978  9.27940012
  10.29119968 12.17159986  9.29099978
  11.53939962 13.30240012  7.56079972
  12.30620026 13.30579996  9.94799972
   6.32439970 11.86560034 10.55199980
   7.03300000  9.76880014 11.64819956
   8.29639972 10.86199998  9.93499994
   8.24519992 11.94319964 12.08660006
  10.26000022 13.28860044 11.41579986
  10.27860046 10.86539984 11.40879988
  12.30280042 10.88619948  9.96060014
  12.30080008 11.98779940 12.08940030
   7.85399974 11.86380028  5.91220022
   7.03480006  9.77919996  6.89859986
   9.07480002  9.81400012  5.40459990
   9.07220006 10.84820032  7.58220016
  10.30400038 11.95960044  5.82520008
  10.33179998  8.77160012  7.17880010
  11.58280014  9.84660030  5.41599988
  11.55120016 10.88960052  7.59199976
   6.24580026  9.76779998  9.28439974
   7.03740000  7.62619972 10.34780026
   8.32480014  8.73200000  8.66140008
   9.10139978  8.74620020 11.00200058
  10.31759978  9.81199980  9.29939986
  10.36080002  7.44840026  9.27119970
  12.33839988  8.78920018  8.63879978
  11.55799984  8.75299990 11.00280046
  13.58139992 11.99339986  8.24079990
  14.24160004 11.93699956 10.59540034
  13.60679984  9.83359992 11.67479992
  12.75400042 11.93519950  5.93580008
  13.62140060  9.86419976  6.89440012
  14.39020038  9.86620008  9.27999974
  13.63940000  7.70420014 10.33859968
   9.05319988  9.81880010 13.26460004
  10.27060032 11.94100022 13.44200016
  11.58540010  9.84000028 13.13840032
   7.86300004  7.67660022 12.65540004
   9.10319984  6.34899974 10.98780036
  10.38179994  7.63000012 12.84199954
  11.63140058  6.35240018 11.00540042
  12.82420040  7.72979974 12.62840032
   8.31719994  7.65680016  6.48899972
  10.34399986  7.74900020  5.11659980
  12.37900018  7.71179974  6.47319972
   6.38979972  7.69500018  7.97420024
   8.32719982  6.32839978  8.61819982
  10.36800026  6.35720014  7.12639988
  12.40239978  6.37239992  8.58760000
  14.30019974  7.78559982  7.98319996
  10.39059996  5.15299976  9.25599992
   7.33699978  9.29820002 13.47659946
 


--------------------------------------------------------------------------------------------------------


 k-point  1 :   0.0000 0.0000 0.0000  plane waves:  145165

 maximum and minimum number of plane-waves per node :    145165   145165

 maximum number of plane-waves:    145165
 maximum index in each direction: 
   IXMAX=   32   IYMAX=   32   IZMAX=   32
   IXMIN=  -32   IYMIN=  -32   IZMIN=  -32


 serial   3D FFT for wavefunctions
 parallel 3D FFT for charge:
    minimum data exchange during FFTs selected (reduces bandwidth)


 total amount of memory used by VASP MPI-rank0   256272. kBytes
=======================================================================

   base      :      30000. kBytes
   nonlr-proj:      12280. kBytes
   fftplans  :      16788. kBytes
   grid      :     106586. kBytes
   one-center:       1741. kBytes
   wavefun   :      88877. kBytes
 
     INWAV:  cpu time    0.0000: real time    0.0001
 Broyden mixing: mesh for mixing (old mesh)
   NGX = 65   NGY = 65   NGZ = 65
  (NGX  =196   NGY  =196   NGZ  =196)
  gives a total of 274625 points

 initial charge density was supplied:
 charge density of overlapping atoms calculated
 number of electron     556.0000000 magnetization      56.0000000
 keeping initial charge density in first step


--------------------------------------------------------------------------------------------------------


 Maximum index for non-local projection operator         1272
 Maximum index for augmentation-charges          291 (set IRDMAX)


--------------------------------------------------------------------------------------------------------


 First call to EWALD:  gamma=   0.089
 Maximum number of real-space cells 3x 3x 3
 Maximum number of reciprocal cells 3x 3x 3

    FEWALD:  cpu time    0.0040: real time    0.0033


--------------------------------------- Iteration      1(   1)  ---------------------------------------


    POTLOK:  cpu time    0.9689: real time    0.9733
    SETDIJ:  cpu time    0.0250: real time    0.0243
     EDDAV:  cpu time   22.8755: real time   22.9856
       DOS:  cpu time    0.0030: real time    0.0031
    --------------------------------------------
      LOOP:  cpu time   23.8724: real time   23.9863

 eigenvalue-minimisations  :  1520
 total energy-change (2. order) : 0.2849473E+04  (-0.1616023E+05)
 number of electron     556.0000000 magnetization      56.0000000
 augmentation part      556.0000000 magnetization      56.0000000

 Free energy of the ion-electron system (eV)
  ---------------------------------------------------
  alpha Z        PSCENC =       387.12086559
  Ewald energy   TEWEN  =    181570.25771297
  -Hartree energ DENC   =   -236326.25853440
  -exchange      EXHF   =         0.00000000
  -V(xc)+E(xc)   XCENC  =      1725.29507291
  PAW double counting   =     47977.39182462   -51648.67119642
  entropy T*S    EENTRO =        -0.38611470
  eigenvalues    EBANDS =      -396.17947539
  atomic energy  EATOM  =     59560.90262231
  Solvation  Ediel_sol  =         0.00000000
  ---------------------------------------------------
  free energy    TOTEN  =      2849.47277749 eV

  energy without entropy =     2849.85889219  energy(sigma->0) =     2849.66583484


--------------------------------------------------------------------------------------------------------




--------------------------------------- Iteration      1(   2)  ---------------------------------------


     EDDAV:  cpu time   24.3083: real time   24.3973
       DOS:  cpu time    0.0030: real time    0.0030
    --------------------------------------------
      LOOP:  cpu time   24.3113: real time   24.4003

 eigenvalue-minimisations  :  1640
 total energy-change (2. order) :-0.2987528E+04  (-0.2886257E+04)
 number of electron     556.0000000 magnetization      56.0000000
 augmentation part      556.0000000 magnetization      56.0000000

 Free energy of the ion-electron system (eV)
  ---------------------------------------------------
  alpha Z        PSCENC =       387.12086559
  Ewald energy   TEWEN  =    181570.25771297
  -Hartree energ DENC   =   -236326.25853440
  -exchange      EXHF   =         0.00000000
  -V(xc)+E(xc)   XCENC  =      1725.29507291
  PAW double counting   =     47977.39182462   -51648.67119642
  entropy T*S    EENTRO =        -0.57973612
  eigenvalues    EBANDS =     -3383.51430307
  atomic energy  EATOM  =     59560.90262231
  Solvation  Ediel_sol  =         0.00000000
  ---------------------------------------------------
  free energy    TOTEN  =      -138.05567161 eV

  energy without entropy =     -137.47593549  energy(sigma->0) =     -137.76580355


--------------------------------------------------------------------------------------------------------




--------------------------------------- Iteration      1(   3)  ---------------------------------------


     EDDAV:  cpu time   25.8941: real time   26.0188
       DOS:  cpu time    0.0030: real time    0.0030
    --------------------------------------------
      LOOP:  cpu time   25.8971: real time   26.0218

 eigenvalue-minimisations  :  1780
 total energy-change (2. order) :-0.1631902E+03  (-0.1563718E+03)
 number of electron     556.0000000 magnetization      56.0000000
 augmentation part      556.0000000 magnetization      56.0000000

 Free energy of the ion-electron system (eV)
  ---------------------------------------------------
  alpha Z        PSCENC =       387.12086559
  Ewald energy   TEWEN  =    181570.25771297
  -Hartree energ DENC   =   -236326.25853440
  -exchange      EXHF   =         0.00000000
  -V(xc)+E(xc)   XCENC  =      1725.29507291
  PAW double counting   =     47977.39182462   -51648.67119642
  entropy T*S    EENTRO =        -0.51428911
  eigenvalues    EBANDS =     -3546.76992943
  atomic energy  EATOM  =     59560.90262231
  Solvation  Ediel_sol  =         0.00000000
  ---------------------------------------------------
  free energy    TOTEN  =      -301.24585096 eV

  energy without entropy =     -300.73156185  energy(sigma->0) =     -300.98870640


--------------------------------------------------------------------------------------------------------




--------------------------------------- Iteration      1(   4)  ---------------------------------------


     EDDAV:  cpu time   24.5513: real time   24.6389
       DOS:  cpu time    0.0030: real time    0.0030
    --------------------------------------------
      LOOP:  cpu time   24.5543: real time   24.6419

 eigenvalue-minimisations  :  1660
 total energy-change (2. order) :-0.3948864E+01  (-0.3886851E+01)
 number of electron     556.0000000 magnetization      56.0000000
 augmentation part      556.0000000 magnetization      56.0000000

 Free energy of the ion-electron system (eV)
  ---------------------------------------------------
  alpha Z        PSCENC =       387.12086559
  Ewald energy   TEWEN  =    181570.25771297
  -Hartree energ DENC   =   -236326.25853440
  -exchange      EXHF   =         0.00000000
  -V(xc)+E(xc)   XCENC  =      1725.29507291
  PAW double counting   =     47977.39182462   -51648.67119642
  entropy T*S    EENTRO =        -0.52132243
  eigenvalues    EBANDS =     -3550.71176001
  atomic energy  EATOM  =     59560.90262231
  Solvation  Ediel_sol  =         0.00000000
  ---------------------------------------------------
  free energy    TOTEN  =      -305.19471485 eV

  energy without entropy =     -304.67339242  energy(sigma->0) =     -304.93405364


--------------------------------------------------------------------------------------------------------




--------------------------------------- Iteration      1(   5)  ---------------------------------------


     EDDAV:  cpu time   25.2242: real time   25.3481
       DOS:  cpu time    0.0030: real time    0.0030
    CHARGE:  cpu time    1.1068: real time    1.1112
    MIXING:  cpu time    0.0150: real time    0.0148
    --------------------------------------------
      LOOP:  cpu time   26.3490: real time   26.4771

 eigenvalue-minimisations  :  1720
 total energy-change (2. order) :-0.9864521E-01  (-0.9857283E-01)
 number of electron     555.9999993 magnetization      54.8323965
 augmentation part      316.1871935 magnetization      45.7208159

 Broyden mixing:
  rms(total) = 0.54476E+01    rms(broyden)= 0.54467E+01
  rms(prec ) = 0.59823E+01
  weight for this iteration     100.00

 Free energy of the ion-electron system (eV)
  ---------------------------------------------------
  alpha Z        PSCENC =       387.12086559
  Ewald energy   TEWEN  =    181570.25771297
  -Hartree energ DENC   =   -236326.25853440
  -exchange      EXHF   =         0.00000000
  -V(xc)+E(xc)   XCENC  =      1725.29507291
  PAW double counting   =     47977.39182462   -51648.67119642
  entropy T*S    EENTRO =        -0.52156363
  eigenvalues    EBANDS =     -3550.81016401
  atomic energy  EATOM  =     59560.90262231
  Solvation  Ediel_sol  =         0.00000000
  ---------------------------------------------------
  free energy    TOTEN  =      -305.29336006 eV

  energy without entropy =     -304.77179642  energy(sigma->0) =     -305.03257824


--------------------------------------------------------------------------------------------------------




--------------------------------------- Iteration      1(   6)  ---------------------------------------


    POTLOK:  cpu time    0.9449: real time    0.9478
    SETDIJ:  cpu time    0.0240: real time    0.0239
    EDDIAG:  cpu time    4.8343: real time    4.8513
  RMM-DIIS:  cpu time    9.4336: real time    9.4669
    ORTHCH:  cpu time    1.6587: real time    1.6637
       DOS:  cpu time    0.0040: real time    0.0029
    CHARGE:  cpu time    1.0718: real time    1.0769
    MIXING:  cpu time    0.0160: real time    0.0152
    --------------------------------------------
      LOOP:  cpu time   17.9873: real time   18.0486

 eigenvalue-minimisations  :  1522
 total energy-change (2. order) :-0.8287406E+02  (-0.5788751E+02)
 number of electron     556.0000006 magnetization      53.7301798
 augmentation part      349.4589434 magnetization      50.6710568

 Broyden mixing:
  rms(total) = 0.12806E+02    rms(broyden)= 0.12805E+02
  rms(prec ) = 0.14833E+02
  weight for this iteration     100.00

 eigenvalues of (default mixing * dielectric matrix)
  average eigenvalue GAMMA=   0.2301
  0.2301

 Free energy of the ion-electron system (eV)
  ---------------------------------------------------
  alpha Z        PSCENC =       387.12086559
  Ewald energy   TEWEN  =    181570.25771297
  -Hartree energ DENC   =   -235639.75979021
  -exchange      EXHF   =         0.00000000
  -V(xc)+E(xc)   XCENC  =      1672.97103734
  PAW double counting   =     47708.64045439   -51195.17263911
  entropy T*S    EENTRO =        -0.27846562
  eigenvalues    EBANDS =     -4452.84921938
  atomic energy  EATOM  =     59560.90262231
  Solvation  Ediel_sol  =         0.00000000
  ---------------------------------------------------
  free energy    TOTEN  =      -388.16742172 eV

  energy without entropy =     -387.88895610  energy(sigma->0) =     -388.02818891


--------------------------------------------------------------------------------------------------------




--------------------------------------- Iteration      1(   7)  ---------------------------------------


    POTLOK:  cpu time    0.9489: real time    0.9527
    SETDIJ:  cpu time    0.0230: real time    0.0227
    EDDIAG:  cpu time    4.8233: real time    4.8392
  RMM-DIIS:  cpu time    9.4406: real time    9.5190
    ORTHCH:  cpu time    1.6557: real time    1.6602
       DOS:  cpu time    0.0010: real time    0.0008
    CHARGE:  cpu time    1.0888: real time    1.0936
    MIXING:  cpu time    0.0170: real time    0.0157
    --------------------------------------------
      LOOP:  cpu time   17.9983: real time   18.1040

 eigenvalue-minimisations  :  1522
 total energy-change (2. order) : 0.6048470E+02  (-0.2770804E+02)
 number of electron     555.9999918 magnetization      52.9456269
 augmentation part      350.4974518 magnetization      44.6741325

 Broyden mixing:
  rms(total) = 0.80743E+01    rms(broyden)= 0.80731E+01
  rms(prec ) = 0.90556E+01
  weight for this iteration     100.00

 eigenvalues of (default mixing * dielectric matrix)
  average eigenvalue GAMMA=   0.2310
  0.2942  0.1679

 Free energy of the ion-electron system (eV)
  ---------------------------------------------------
  alpha Z        PSCENC =       387.12086559
  Ewald energy   TEWEN  =    181570.25771297
  -Hartree energ DENC   =   -235520.56479665
  -exchange      EXHF   =         0.00000000
  -V(xc)+E(xc)   XCENC  =      1677.39912396
  PAW double counting   =     48023.23287759   -51566.67405099
  entropy T*S    EENTRO =        -0.59292812
  eigenvalues    EBANDS =     -4458.76414952
  atomic energy  EATOM  =     59560.90262231
  Solvation  Ediel_sol  =         0.00000000
  ---------------------------------------------------
  free energy    TOTEN  =      -327.68272286 eV

  energy without entropy =     -327.08979474  energy(sigma->0) =     -327.38625880


--------------------------------------------------------------------------------------------------------




--------------------------------------- Iteration      1(   8)  ---------------------------------------


    POTLOK:  cpu time    0.9459: real time    0.9496
    SETDIJ:  cpu time    0.0240: real time    0.0238
    EDDIAG:  cpu time    4.8333: real time    4.8502
  RMM-DIIS:  cpu time    9.4696: real time    9.5053
    ORTHCH:  cpu time    1.6587: real time    1.6630
       DOS:  cpu time    0.0030: real time    0.0031
    CHARGE:  cpu time    1.0838: real time    1.0869
    MIXING:  cpu time    0.0180: real time    0.0177
    --------------------------------------------
      LOOP:  cpu time   18.0363: real time   18.0996

 eigenvalue-minimisations  :  1525
 total energy-change (2. order) : 0.3232434E+02  (-0.1059584E+02)
 number of electron     556.0000043 magnetization      51.9716140
 augmentation part      346.3544013 magnetization      43.9148277

 Broyden mixing:
  rms(total) = 0.86889E+01    rms(broyden)= 0.86881E+01
  rms(prec ) = 0.99904E+01
  weight for this iteration     100.00

 eigenvalues of (default mixing * dielectric matrix)
  average eigenvalue GAMMA=   0.2825
  0.5251  0.1612  0.1612

 Free energy of the ion-electron system (eV)
  ---------------------------------------------------
  alpha Z        PSCENC =       387.12086559
  Ewald energy   TEWEN  =    181570.25771297
  -Hartree energ DENC   =   -235794.07391223
  -exchange      EXHF   =         0.00000000
  -V(xc)+E(xc)   XCENC  =      1684.21796705
  PAW double counting   =     48507.69330014   -52124.88847606
  entropy T*S    EENTRO =        -0.48157267
  eigenvalues    EBANDS =     -4086.10688894
  atomic energy  EATOM  =     59560.90262231
  Solvation  Ediel_sol  =         0.00000000
  ---------------------------------------------------
  free energy    TOTEN  =      -295.35838185 eV

  energy without entropy =     -294.87680918  energy(sigma->0) =     -295.11759551


--------------------------------------------------------------------------------------------------------




--------------------------------------- Iteration      1(   9)  ---------------------------------------


    POTLOK:  cpu time    0.9459: real time    0.9497
    SETDIJ:  cpu time    0.0230: real time    0.0225
    EDDIAG:  cpu time    4.8423: real time    4.8596
  RMM-DIIS:  cpu time    9.4626: real time    9.4997
    ORTHCH:  cpu time    1.6607: real time    1.6646
       DOS:  cpu time    0.0020: real time    0.0017
    CHARGE:  cpu time    1.0888: real time    1.0927
    MIXING:  cpu time    0.0190: real time    0.0185
    --------------------------------------------
      LOOP:  cpu time   18.0443: real time   18.1090

 eigenvalue-minimisations  :  1525
 total energy-change (2. order) : 0.1701613E+02  (-0.4755776E+01)
 number of electron     556.0000066 magnetization      51.5309621
 augmentation part      341.1317364 magnetization      43.2267816

 Broyden mixing:
  rms(total) = 0.74873E+01    rms(broyden)= 0.74864E+01
  rms(prec ) = 0.88846E+01
  weight for this iteration     100.00

 eigenvalues of (default mixing * dielectric matrix)
  average eigenvalue GAMMA=   0.2530
  0.5729  0.1710  0.1710  0.0969

 Free energy of the ion-electron system (eV)
  ---------------------------------------------------
  alpha Z        PSCENC =       387.12086559
  Ewald energy   TEWEN  =    181570.25771297
  -Hartree energ DENC   =   -236035.70565329
  -exchange      EXHF   =         0.00000000
  -V(xc)+E(xc)   XCENC  =      1688.28377528
  PAW double counting   =     48932.78014705   -52610.46382508
  entropy T*S    EENTRO =        -0.53644517
  eigenvalues    EBANDS =     -3770.98144889
  atomic energy  EATOM  =     59560.90262231
  Solvation  Ediel_sol  =         0.00000000
  ---------------------------------------------------
  free energy    TOTEN  =      -278.34224923 eV

  energy without entropy =     -277.80580406  energy(sigma->0) =     -278.07402665


--------------------------------------------------------------------------------------------------------




--------------------------------------- Iteration      1(  10)  ---------------------------------------


    POTLOK:  cpu time    0.9449: real time    0.9479
    SETDIJ:  cpu time    0.0230: real time    0.0236
    EDDIAG:  cpu time    4.8293: real time    4.8634
  RMM-DIIS:  cpu time    9.4406: real time    9.4957
    ORTHCH:  cpu time    1.6587: real time    1.6647
       DOS:  cpu time    0.0020: real time    0.0015
    CHARGE:  cpu time    1.0868: real time    1.0910
    MIXING:  cpu time    0.0200: real time    0.0200
    --------------------------------------------
      LOOP:  cpu time   18.0053: real time   18.1080

 eigenvalue-minimisations  :  1527
 total energy-change (2. order) : 0.1431464E+02  (-0.1987188E+01)
 number of electron     555.9999916 magnetization      51.2875629
 augmentation part      340.6337066 magnetization      40.7181954

 Broyden mixing:
  rms(total) = 0.47229E+01    rms(broyden)= 0.47219E+01
  rms(prec ) = 0.52752E+01
  weight for this iteration     100.00

 eigenvalues of (default mixing * dielectric matrix)
  average eigenvalue GAMMA=   0.2321
  0.5727  0.2694  0.1314  0.0935  0.0935

 Free energy of the ion-electron system (eV)
  ---------------------------------------------------
  alpha Z        PSCENC =       387.12086559
  Ewald energy   TEWEN  =    181570.25771297
  -Hartree energ DENC   =   -236092.60024421
  -exchange      EXHF   =         0.00000000
  -V(xc)+E(xc)   XCENC  =      1689.62451572
  PAW double counting   =     49060.63249312   -52753.62663810
  entropy T*S    EENTRO =        -0.65529379
  eigenvalues    EBANDS =     -3685.68364386
  atomic energy  EATOM  =     59560.90262231
  Solvation  Ediel_sol  =         0.00000000
  ---------------------------------------------------
  free energy    TOTEN  =      -264.02761026 eV

  energy without entropy =     -263.37231646  energy(sigma->0) =     -263.69996336


--------------------------------------------------------------------------------------------------------




--------------------------------------- Iteration      1(  11)  ---------------------------------------


    POTLOK:  cpu time    0.9419: real time    0.9455
    SETDIJ:  cpu time    0.0250: real time    0.0241
    EDDIAG:  cpu time    4.8533: real time    4.8683
  RMM-DIIS:  cpu time    9.4846: real time    9.5217
    ORTHCH:  cpu time    1.6607: real time    1.6652
       DOS:  cpu time    0.0020: real time    0.0017
    CHARGE:  cpu time    1.0978: real time    1.1026
    MIXING:  cpu time    0.0200: real time    0.0199
    --------------------------------------------
      LOOP:  cpu time   18.0853: real time   18.1492

 eigenvalue-minimisations  :  1528
 total energy-change (2. order) : 0.3554247E+01  (-0.6240915E+00)
 number of electron     555.9999969 magnetization      50.7075156
 augmentation part      341.3104077 magnetization      41.0266761

 Broyden mixing:
  rms(total) = 0.51709E+01    rms(broyden)= 0.51698E+01
  rms(prec ) = 0.59326E+01
  weight for this iteration     100.00

 eigenvalues of (default mixing * dielectric matrix)
  average eigenvalue GAMMA=   0.2516
  0.5669  0.5096  0.1459  0.1140  0.1140  0.0596

 Free energy of the ion-electron system (eV)
  ---------------------------------------------------
  alpha Z        PSCENC =       387.12086559
  Ewald energy   TEWEN  =    181570.25771297
  -Hartree energ DENC   =   -236115.34314686
  -exchange      EXHF   =         0.00000000
  -V(xc)+E(xc)   XCENC  =      1689.71244477
  PAW double counting   =     49144.61946036   -52844.35177227
  entropy T*S    EENTRO =        -0.63897264
  eigenvalues    EBANDS =     -3652.75257745
  atomic energy  EATOM  =     59560.90262231
  Solvation  Ediel_sol  =         0.00000000
  ---------------------------------------------------
  free energy    TOTEN  =      -260.47336323 eV

  energy without entropy =     -259.83439058  energy(sigma->0) =     -260.15387690


--------------------------------------------------------------------------------------------------------




--------------------------------------- Iteration      1(  12)  ---------------------------------------


    POTLOK:  cpu time    0.9449: real time    0.9478
    SETDIJ:  cpu time    0.0230: real time    0.0227
    EDDIAG:  cpu time    4.8453: real time    4.8615
  RMM-DIIS:  cpu time    9.4166: real time    9.4890
    ORTHCH:  cpu time    1.6577: real time    1.6640
       DOS:  cpu time    0.0030: real time    0.0025
    CHARGE:  cpu time    1.1118: real time    1.1160
    MIXING:  cpu time    0.0230: real time    0.0224
    --------------------------------------------
      LOOP:  cpu time   18.0253: real time   18.1258

 eigenvalue-minimisations  :  1528
 total energy-change (2. order) : 0.4174327E+01  (-0.7486368E+00)
 number of electron     555.9999950 magnetization      50.0029723
 augmentation part      340.3624308 magnetization      41.2139489

 Broyden mixing:
  rms(total) = 0.43009E+01    rms(broyden)= 0.43000E+01
  rms(prec ) = 0.47927E+01
  weight for this iteration     100.00

 eigenvalues of (default mixing * dielectric matrix)
  average eigenvalue GAMMA=   0.2559
  0.6110  0.6110  0.1470  0.1470  0.1183  0.1046  0.0527

 Free energy of the ion-electron system (eV)
  ---------------------------------------------------
  alpha Z        PSCENC =       387.12086559
  Ewald energy   TEWEN  =    181570.25771297
  -Hartree energ DENC   =   -236172.68517768
  -exchange      EXHF   =         0.00000000
  -V(xc)+E(xc)   XCENC  =      1691.15028351
  PAW double counting   =     49324.91576179   -53038.75823053
  entropy T*S    EENTRO =        -0.61706009
  eigenvalues    EBANDS =     -3578.58581452
  atomic energy  EATOM  =     59560.90262231
  Solvation  Ediel_sol  =         0.00000000
  ---------------------------------------------------
  free energy    TOTEN  =      -256.29903664 eV

  energy without entropy =     -255.68197656  energy(sigma->0) =     -255.99050660


--------------------------------------------------------------------------------------------------------




--------------------------------------- Iteration      1(  13)  ---------------------------------------


    POTLOK:  cpu time    0.9459: real time    0.9493
    SETDIJ:  cpu time    0.0250: real time    0.0240
    EDDIAG:  cpu time    4.8373: real time    4.8555
  RMM-DIIS:  cpu time    9.4646: real time    9.5020
    ORTHCH:  cpu time    1.6537: real time    1.6590
       DOS:  cpu time    0.0020: real time    0.0021
    CHARGE:  cpu time    1.1038: real time    1.1081
    MIXING:  cpu time    0.0230: real time    0.0232
    --------------------------------------------
      LOOP:  cpu time   18.0553: real time   18.1232

 eigenvalue-minimisations  :  1528
 total energy-change (2. order) : 0.1990936E+01  (-0.5455650E+00)
 number of electron     556.0000011 magnetization      49.5279040
 augmentation part      339.7691237 magnetization      40.5875727

 Broyden mixing:
  rms(total) = 0.42051E+01    rms(broyden)= 0.42041E+01
  rms(prec ) = 0.46708E+01
  weight for this iteration     100.00

 eigenvalues of (default mixing * dielectric matrix)
  average eigenvalue GAMMA=   0.2467
  0.6189  0.6189  0.1987  0.1987  0.0954  0.0942  0.0942  0.0550

 Free energy of the ion-electron system (eV)
  ---------------------------------------------------
  alpha Z        PSCENC =       387.12086559
  Ewald energy   TEWEN  =    181570.25771297
  -Hartree energ DENC   =   -236233.71089611
  -exchange      EXHF   =         0.00000000
  -V(xc)+E(xc)   XCENC  =      1692.23161482
  PAW double counting   =     49515.13177625   -53242.45763327
  entropy T*S    EENTRO =        -0.56309728
  eigenvalues    EBANDS =     -3503.22106581
  atomic energy  EATOM  =     59560.90262231
  Solvation  Ediel_sol  =         0.00000000
  ---------------------------------------------------
  free energy    TOTEN  =      -254.30810051 eV

  energy without entropy =     -253.74500324  energy(sigma->0) =     -254.02655188


--------------------------------------------------------------------------------------------------------




--------------------------------------- Iteration      1(  14)  ---------------------------------------


    POTLOK:  cpu time    0.9489: real time    0.9520
    SETDIJ:  cpu time    0.0230: real time    0.0231
    EDDIAG:  cpu time    4.8353: real time    4.8525
  RMM-DIIS:  cpu time    9.4636: real time    9.4980
    ORTHCH:  cpu time    1.6537: real time    1.6608
       DOS:  cpu time    0.0020: real time    0.0008
    CHARGE:  cpu time    1.1108: real time    1.1150
    MIXING:  cpu time    0.0260: real time    0.0257
    --------------------------------------------
      LOOP:  cpu time   18.0633: real time   18.1279

 eigenvalue-minimisations  :  1528
 total energy-change (2. order) : 0.2138250E+01  (-0.2893416E+00)
 number of electron     555.9999971 magnetization      49.2350778
 augmentation part      339.6293069 magnetization      40.1952663

 Broyden mixing:
  rms(total) = 0.32901E+01    rms(broyden)= 0.32895E+01
  rms(prec ) = 0.37158E+01
  weight for this iteration     100.00

 eigenvalues of (default mixing * dielectric matrix)
  average eigenvalue GAMMA=   0.2342
  0.6639  0.3780  0.3780  0.2598  0.1151  0.0959  0.0959  0.0540  0.0672

 Free energy of the ion-electron system (eV)
  ---------------------------------------------------
  alpha Z        PSCENC =       387.12086559
  Ewald energy   TEWEN  =    181570.25771297
  -Hartree energ DENC   =   -236262.23203293
  -exchange      EXHF   =         0.00000000
  -V(xc)+E(xc)   XCENC  =      1693.04546362
  PAW double counting   =     49631.90312791   -53365.91952802
  entropy T*S    EENTRO =        -0.54269635
  eigenvalues    EBANDS =     -3466.70538609
  atomic energy  EATOM  =     59560.90262231
  Solvation  Ediel_sol  =         0.00000000
  ---------------------------------------------------
  free energy    TOTEN  =      -252.16985098 eV

  energy without entropy =     -251.62715464  energy(sigma->0) =     -251.89850281


--------------------------------------------------------------------------------------------------------




--------------------------------------- Iteration      1(  15)  ---------------------------------------


    POTLOK:  cpu time    0.9439: real time    0.9469
    SETDIJ:  cpu time    0.0240: real time    0.0237
    EDDIAG:  cpu time    4.9133: real time    4.9634
  RMM-DIIS:  cpu time    9.4926: real time    9.5297
    ORTHCH:  cpu time    1.6597: real time    1.6644
       DOS:  cpu time    0.0020: real time    0.0017
    CHARGE:  cpu time    1.1138: real time    1.1189
    MIXING:  cpu time    0.0290: real time    0.0275
    --------------------------------------------
      LOOP:  cpu time   18.1782: real time   18.2760

 eigenvalue-minimisations  :  1528
 total energy-change (2. order) : 0.1284894E+01  (-0.1280843E+00)
 number of electron     555.9999987 magnetization      48.9855012
 augmentation part      339.6511438 magnetization      39.9231611

 Broyden mixing:
  rms(total) = 0.25383E+01    rms(broyden)= 0.25377E+01
  rms(prec ) = 0.28542E+01
  weight for this iteration     100.00

 eigenvalues of (default mixing * dielectric matrix)
  average eigenvalue GAMMA=   0.2534
  0.6964  0.5535  0.5535  0.1921  0.1096  0.1096  0.1176  0.0817  0.0535  0.0661

 Free energy of the ion-electron system (eV)
  ---------------------------------------------------
  alpha Z        PSCENC =       387.12086559
  Ewald energy   TEWEN  =    181570.25771297
  -Hartree energ DENC   =   -236272.40117273
  -exchange      EXHF   =         0.00000000
  -V(xc)+E(xc)   XCENC  =      1693.24215072
  PAW double counting   =     49698.94194754   -53435.72352119
  entropy T*S    EENTRO =        -0.57012957
  eigenvalues    EBANDS =     -3452.65543250
  atomic energy  EATOM  =     59560.90262231
  Solvation  Ediel_sol  =         0.00000000
  ---------------------------------------------------
  free energy    TOTEN  =      -250.88495686 eV

  energy without entropy =     -250.31482729  energy(sigma->0) =     -250.59989207


--------------------------------------------------------------------------------------------------------




--------------------------------------- Iteration      1(  16)  ---------------------------------------


    POTLOK:  cpu time    0.9469: real time    0.9510
    SETDIJ:  cpu time    0.0240: real time    0.0235
    EDDIAG:  cpu time    4.8423: real time    4.8584
  RMM-DIIS:  cpu time    9.4886: real time    9.5303
    ORTHCH:  cpu time    1.6567: real time    1.6616
       DOS:  cpu time    0.0010: real time    0.0009
    CHARGE:  cpu time    1.0908: real time    1.0962
    MIXING:  cpu time    0.0310: real time    0.0303
    --------------------------------------------
      LOOP:  cpu time   18.0813: real time   18.1521

 eigenvalue-minimisations  :  1528
 total energy-change (2. order) : 0.5584437E+00  (-0.1136406E+00)
 number of electron     555.9999996 magnetization      48.7597338
 augmentation part      339.8197352 magnetization      39.7820395

 Broyden mixing:
  rms(total) = 0.21061E+01    rms(broyden)= 0.21055E+01
  rms(prec ) = 0.23580E+01
  weight for this iteration     100.00

 eigenvalues of (default mixing * dielectric matrix)
  average eigenvalue GAMMA=   0.2664
  0.7434  0.6581  0.6581  0.1756  0.1323  0.1323  0.1449  0.0877  0.0877  0.0551
  0.0555

 Free energy of the ion-electron system (eV)
  ---------------------------------------------------
  alpha Z        PSCENC =       387.12086559
  Ewald energy   TEWEN  =    181570.25771297
  -Hartree energ DENC   =   -236277.62760465
  -exchange      EXHF   =         0.00000000
  -V(xc)+E(xc)   XCENC  =      1693.32144885
  PAW double counting   =     49752.03091339   -53490.24230575
  entropy T*S    EENTRO =        -0.62098915
  eigenvalues    EBANDS =     -3445.46917670
  atomic energy  EATOM  =     59560.90262231
  Solvation  Ediel_sol  =         0.00000000
  ---------------------------------------------------
  free energy    TOTEN  =      -250.32651315 eV

  energy without entropy =     -249.70552399  energy(sigma->0) =     -250.01601857


--------------------------------------------------------------------------------------------------------




--------------------------------------- Iteration      1(  17)  ---------------------------------------


    POTLOK:  cpu time    0.9469: real time    0.9510
    SETDIJ:  cpu time    0.0230: real time    0.0228
    EDDIAG:  cpu time    4.8453: real time    4.8601
  RMM-DIIS:  cpu time    9.3906: real time    9.4683
    ORTHCH:  cpu time    1.6517: real time    1.6572
       DOS:  cpu time    0.0040: real time    0.0024
    CHARGE:  cpu time    1.0798: real time    1.0851
    MIXING:  cpu time    0.0340: real time    0.0338
    --------------------------------------------
      LOOP:  cpu time   17.9753: real time   18.0806

 eigenvalue-minimisations  :  1528
 total energy-change (2. order) :-0.4468620E+00  (-0.1268381E+00)
 number of electron     556.0000018 magnetization      48.6237331
 augmentation part      339.9599538 magnetization      40.0895033

 Broyden mixing:
  rms(total) = 0.19877E+01    rms(broyden)= 0.19873E+01
  rms(prec ) = 0.22240E+01
  weight for this iteration     100.00

 eigenvalues of (default mixing * dielectric matrix)
  average eigenvalue GAMMA=   0.2630
  0.7893  0.6562  0.6562  0.2236  0.1664  0.1457  0.1457  0.0936  0.0936  0.0747
  0.0578  0.0530

 Free energy of the ion-electron system (eV)
  ---------------------------------------------------
  alpha Z        PSCENC =       387.12086559
  Ewald energy   TEWEN  =    181570.25771297
  -Hartree energ DENC   =   -236283.99393799
  -exchange      EXHF   =         0.00000000
  -V(xc)+E(xc)   XCENC  =      1692.92194251
  PAW double counting   =     49798.26122517   -53537.65031797
  entropy T*S    EENTRO =        -0.63692224
  eigenvalues    EBANDS =     -3437.95656547
  atomic energy  EATOM  =     59560.90262231
  Solvation  Ediel_sol  =         0.00000000
  ---------------------------------------------------
  free energy    TOTEN  =      -250.77337512 eV

  energy without entropy =     -250.13645287  energy(sigma->0) =     -250.45491400


--------------------------------------------------------------------------------------------------------




--------------------------------------- Iteration      1(  18)  ---------------------------------------


    POTLOK:  cpu time    0.9439: real time    0.9474
    SETDIJ:  cpu time    0.0220: real time    0.0234
    EDDIAG:  cpu time    4.8443: real time    4.8599
  RMM-DIIS:  cpu time    9.4526: real time    9.4883
    ORTHCH:  cpu time    1.6577: real time    1.6620
       DOS:  cpu time    0.0010: real time    0.0014
    CHARGE:  cpu time    1.0898: real time    1.0948
    MIXING:  cpu time    0.0380: real time    0.0379
    --------------------------------------------
      LOOP:  cpu time   18.0493: real time   18.1151

 eigenvalue-minimisations  :  1528
 total energy-change (2. order) :-0.4578423E+00  (-0.5336770E-01)
 number of electron     556.0000016 magnetization      48.5411741
 augmentation part      339.9244658 magnetization      40.2859658

 Broyden mixing:
  rms(total) = 0.19655E+01    rms(broyden)= 0.19653E+01
  rms(prec ) = 0.22173E+01
  weight for this iteration     100.00

 eigenvalues of (default mixing * dielectric matrix)
  average eigenvalue GAMMA=   0.2538
  0.8147  0.6322  0.6322  0.3247  0.1527  0.1527  0.1491  0.0954  0.0954  0.0765
  0.0644  0.0545  0.0545

 Free energy of the ion-electron system (eV)
  ---------------------------------------------------
  alpha Z        PSCENC =       387.12086559
  Ewald energy   TEWEN  =    181570.25771297
  -Hartree energ DENC   =   -236292.59595608
  -exchange      EXHF   =         0.00000000
  -V(xc)+E(xc)   XCENC  =      1692.49289362
  PAW double counting   =     49826.50780739   -53567.50723515
  entropy T*S    EENTRO =        -0.69207322
  eigenvalues    EBANDS =     -3427.71785484
  atomic energy  EATOM  =     59560.90262231
  Solvation  Ediel_sol  =         0.00000000
  ---------------------------------------------------
  free energy    TOTEN  =      -251.23121741 eV

  energy without entropy =     -250.53914419  energy(sigma->0) =     -250.88518080


--------------------------------------------------------------------------------------------------------




--------------------------------------- Iteration      1(  19)  ---------------------------------------


    POTLOK:  cpu time    0.9449: real time    0.9488
    SETDIJ:  cpu time    0.0240: real time    0.0235
    EDDIAG:  cpu time    4.8483: real time    4.8640
  RMM-DIIS:  cpu time    9.4956: real time    9.5362
    ORTHCH:  cpu time    1.6527: real time    1.6578
       DOS:  cpu time    0.0030: real time    0.0031
    CHARGE:  cpu time    1.0948: real time    1.0982
    MIXING:  cpu time    0.0430: real time    0.0424
    --------------------------------------------
      LOOP:  cpu time   18.1062: real time   18.1740

 eigenvalue-minimisations  :  1527
 total energy-change (2. order) : 0.2587617E+00  (-0.2683983E-01)
 number of electron     556.0000008 magnetization      48.3694786
 augmentation part      339.7995197 magnetization      40.1302807

 Broyden mixing:
  rms(total) = 0.12653E+01    rms(broyden)= 0.12651E+01
  rms(prec ) = 0.14320E+01
  weight for this iteration     100.00

 eigenvalues of (default mixing * dielectric matrix)
  average eigenvalue GAMMA=   0.2539
  0.8250  0.6633  0.6633  0.3232  0.1824  0.1824  0.1469  0.1125  0.1125  0.0833
  0.0833  0.0667  0.0531  0.0573

 Free energy of the ion-electron system (eV)
  ---------------------------------------------------
  alpha Z        PSCENC =       387.12086559
  Ewald energy   TEWEN  =    181570.25771297
  -Hartree energ DENC   =   -236301.79813962
  -exchange      EXHF   =         0.00000000
  -V(xc)+E(xc)   XCENC  =      1692.16060060
  PAW double counting   =     49843.48999474   -53586.17068297
  entropy T*S    EENTRO =        -0.66564918
  eigenvalues    EBANDS =     -3416.26978012
  atomic energy  EATOM  =     59560.90262231
  Solvation  Ediel_sol  =         0.00000000
  ---------------------------------------------------
  free energy    TOTEN  =      -250.97245567 eV

  energy without entropy =     -250.30680650  energy(sigma->0) =     -250.63963109


--------------------------------------------------------------------------------------------------------




--------------------------------------- Iteration      1(  20)  ---------------------------------------


    POTLOK:  cpu time    0.9449: real time    0.9484
    SETDIJ:  cpu time    0.0240: real time    0.0236
    EDDIAG:  cpu time    4.8283: real time    4.8803
  RMM-DIIS:  cpu time    9.4696: real time    9.5060
    ORTHCH:  cpu time    1.6557: real time    1.6612
       DOS:  cpu time    0.0040: real time    0.0027
    CHARGE:  cpu time    1.0978: real time    1.1021
    MIXING:  cpu time    0.0490: real time    0.0484
    --------------------------------------------
      LOOP:  cpu time   18.0733: real time   18.1727

 eigenvalue-minimisations  :  1528
 total energy-change (2. order) :-0.4493097E+00  (-0.3976311E-01)
 number of electron     555.9999998 magnetization      47.7472750
 augmentation part      339.8288012 magnetization      39.6701525

 Broyden mixing:
  rms(total) = 0.14072E+01    rms(broyden)= 0.14068E+01
  rms(prec ) = 0.16233E+01
  weight for this iteration     100.00

 eigenvalues of (default mixing * dielectric matrix)
  average eigenvalue GAMMA=   0.3029
  0.9263  0.9263  0.8758  0.4156  0.4156  0.1575  0.1575  0.1191  0.1191  0.0941
  0.0941  0.0758  0.0532  0.0569  0.0569

 Free energy of the ion-electron system (eV)
  ---------------------------------------------------
  alpha Z        PSCENC =       387.12086559
  Ewald energy   TEWEN  =    181570.25771297
  -Hartree energ DENC   =   -236311.45575978
  -exchange      EXHF   =         0.00000000
  -V(xc)+E(xc)   XCENC  =      1691.65656908
  PAW double counting   =     49871.56135507   -53615.81451267
  entropy T*S    EENTRO =        -0.65454945
  eigenvalues    EBANDS =     -3404.99606845
  atomic energy  EATOM  =     59560.90262231
  Solvation  Ediel_sol  =         0.00000000
  ---------------------------------------------------
  free energy    TOTEN  =      -251.42176533 eV

  energy without entropy =     -250.76721588  energy(sigma->0) =     -251.09449061


--------------------------------------------------------------------------------------------------------




--------------------------------------- Iteration      1(  21)  ---------------------------------------


    POTLOK:  cpu time    0.9429: real time    0.9471
    SETDIJ:  cpu time    0.0240: real time    0.0237
    EDDIAG:  cpu time    4.8213: real time    4.8376
  RMM-DIIS:  cpu time    9.4766: real time    9.5117
    ORTHCH:  cpu time    1.6537: real time    1.6598
       DOS:  cpu time    0.0020: real time    0.0014
    CHARGE:  cpu time    1.1068: real time    1.1107
    MIXING:  cpu time    0.0510: real time    0.0508
    --------------------------------------------
      LOOP:  cpu time   18.0783: real time   18.1428

 eigenvalue-minimisations  :  1524
 total energy-change (2. order) :-0.1566799E+01  (-0.1214281E+00)
 number of electron     556.0000012 magnetization      47.0478286
 augmentation part      340.1074721 magnetization      39.6735860

 Broyden mixing:
  rms(total) = 0.23776E+01    rms(broyden)= 0.23770E+01
  rms(prec ) = 0.27504E+01
  weight for this iteration     100.00

 eigenvalues of (default mixing * dielectric matrix)
  average eigenvalue GAMMA=   0.3167
  1.0459  1.0459  0.9526  0.4719  0.4719  0.1651  0.1651  0.1195  0.1195  0.1006
  0.1006  0.0826  0.0601  0.0590  0.0530  0.0536

 Free energy of the ion-electron system (eV)
  ---------------------------------------------------
  alpha Z        PSCENC =       387.12086559
  Ewald energy   TEWEN  =    181570.25771297
  -Hartree energ DENC   =   -236336.05566478
  -exchange      EXHF   =         0.00000000
  -V(xc)+E(xc)   XCENC  =      1690.80148824
  PAW double counting   =     49968.63133322   -53716.83522003
  entropy T*S    EENTRO =        -0.68663761
  eigenvalues    EBANDS =     -3377.12506430
  atomic energy  EATOM  =     59560.90262231
  Solvation  Ediel_sol  =         0.00000000
  ---------------------------------------------------
  free energy    TOTEN  =      -252.98856438 eV

  energy without entropy =     -252.30192678  energy(sigma->0) =     -252.64524558


--------------------------------------------------------------------------------------------------------




--------------------------------------- Iteration      1(  22)  ---------------------------------------


    POTLOK:  cpu time    0.9419: real time    0.9450
    SETDIJ:  cpu time    0.0230: real time    0.0225
    EDDIAG:  cpu time    4.8213: real time    4.8383
  RMM-DIIS:  cpu time    9.4216: real time    9.5052
    ORTHCH:  cpu time    1.6567: real time    1.6610
       DOS:  cpu time    0.0020: real time    0.0019
    CHARGE:  cpu time    1.1068: real time    1.1123
    MIXING:  cpu time    0.0550: real time    0.0555
    --------------------------------------------
      LOOP:  cpu time   18.0283: real time   18.1416

 eigenvalue-minimisations  :  1527
 total energy-change (2. order) : 0.1336164E+00  (-0.1072054E+00)
 number of electron     555.9999994 magnetization      46.9114683
 augmentation part      340.2854106 magnetization      40.3024368

 Broyden mixing:
  rms(total) = 0.13739E+01    rms(broyden)= 0.13730E+01
  rms(prec ) = 0.15228E+01
  weight for this iteration     100.00

 eigenvalues of (default mixing * dielectric matrix)
  average eigenvalue GAMMA=   0.3033
  1.0496  1.0496  0.9635  0.4507  0.4507  0.1804  0.1804  0.1219  0.1219  0.1025
  0.1025  0.0871  0.0675  0.0675  0.0561  0.0533  0.0499

 Free energy of the ion-electron system (eV)
  ---------------------------------------------------
  alpha Z        PSCENC =       387.12086559
  Ewald energy   TEWEN  =    181570.25771297
  -Hartree energ DENC   =   -236361.29758267
  -exchange      EXHF   =         0.00000000
  -V(xc)+E(xc)   XCENC  =      1690.12816473
  PAW double counting   =     50075.01502248   -53826.74355478
  entropy T*S    EENTRO =        -0.74329857
  eigenvalues    EBANDS =     -3347.49490010
  atomic energy  EATOM  =     59560.90262231
  Solvation  Ediel_sol  =         0.00000000
  ---------------------------------------------------
  free energy    TOTEN  =      -252.85494803 eV

  energy without entropy =     -252.11164946  energy(sigma->0) =     -252.48329875


--------------------------------------------------------------------------------------------------------




--------------------------------------- Iteration      1(  23)  ---------------------------------------


    POTLOK:  cpu time    0.9479: real time    0.9501
    SETDIJ:  cpu time    0.0230: real time    0.0238
    EDDIAG:  cpu time    4.8093: real time    4.8258
  RMM-DIIS:  cpu time    9.4536: real time    9.4883
    ORTHCH:  cpu time    1.6547: real time    1.6593
       DOS:  cpu time    0.0020: real time    0.0023
    CHARGE:  cpu time    1.1118: real time    1.1171
    MIXING:  cpu time    0.0600: real time    0.0597
    --------------------------------------------
      LOOP:  cpu time   18.0623: real time   18.1264

 eigenvalue-minimisations  :  1528
 total energy-change (2. order) : 0.7194504E-01  (-0.2268837E-01)
 number of electron     556.0000001 magnetization      46.7699146
 augmentation part      340.2976556 magnetization      40.2872599

 Broyden mixing:
  rms(total) = 0.10721E+01    rms(broyden)= 0.10719E+01
  rms(prec ) = 0.11469E+01
  weight for this iteration     100.00

 eigenvalues of (default mixing * dielectric matrix)
  average eigenvalue GAMMA=   0.2979
  1.0280  1.0280  0.9811  0.4276  0.4276  0.3408  0.1721  0.1282  0.1282  0.1076
  0.1076  0.0895  0.0895  0.0839  0.0588  0.0588  0.0531  0.0520

 Free energy of the ion-electron system (eV)
  ---------------------------------------------------
  alpha Z        PSCENC =       387.12086559
  Ewald energy   TEWEN  =    181570.25771297
  -Hartree energ DENC   =   -236366.71556617
  -exchange      EXHF   =         0.00000000
  -V(xc)+E(xc)   XCENC  =      1690.03073892
  PAW double counting   =     50092.77317187   -53845.20654752
  entropy T*S    EENTRO =        -0.75089781
  eigenvalues    EBANDS =     -3341.19510314
  atomic energy  EATOM  =     59560.90262231
  Solvation  Ediel_sol  =         0.00000000
  ---------------------------------------------------
  free energy    TOTEN  =      -252.78300299 eV

  energy without entropy =     -252.03210518  energy(sigma->0) =     -252.40755408


--------------------------------------------------------------------------------------------------------




--------------------------------------- Iteration      1(  24)  ---------------------------------------


    POTLOK:  cpu time    0.9479: real time    0.9504
    SETDIJ:  cpu time    0.0230: real time    0.0235
    EDDIAG:  cpu time    4.8383: real time    4.8557
  RMM-DIIS:  cpu time    9.4786: real time    9.5166
    ORTHCH:  cpu time    1.6587: real time    1.6634
       DOS:  cpu time    0.0020: real time    0.0013
    CHARGE:  cpu time    1.1158: real time    1.1199
    MIXING:  cpu time    0.0650: real time    0.0649
    --------------------------------------------
      LOOP:  cpu time   18.1292: real time   18.1958

 eigenvalue-minimisations  :  1527
 total energy-change (2. order) :-0.7559578E-01  (-0.1222018E-01)
 number of electron     555.9999993 magnetization      46.5729622
 augmentation part      340.3239109 magnetization      40.1345630

 Broyden mixing:
  rms(total) = 0.10974E+01    rms(broyden)= 0.10973E+01
  rms(prec ) = 0.12016E+01
  weight for this iteration     100.00

 eigenvalues of (default mixing * dielectric matrix)
  average eigenvalue GAMMA=   0.3047
  0.9956  0.9783  0.9783  0.5831  0.5831  0.3996  0.1822  0.1435  0.1435  0.1150
  0.1150  0.1006  0.1006  0.0838  0.0631  0.0631  0.0567  0.0533  0.0504

 Free energy of the ion-electron system (eV)
  ---------------------------------------------------
  alpha Z        PSCENC =       387.12086559
  Ewald energy   TEWEN  =    181570.25771297
  -Hartree energ DENC   =   -236372.09065411
  -exchange      EXHF   =         0.00000000
  -V(xc)+E(xc)   XCENC  =      1690.03014060
  PAW double counting   =     50109.19932370   -53862.46648005
  entropy T*S    EENTRO =        -0.75073053
  eigenvalues    EBANDS =     -3335.06139926
  atomic energy  EATOM  =     59560.90262231
  Solvation  Ediel_sol  =         0.00000000
  ---------------------------------------------------
  free energy    TOTEN  =      -252.85859877 eV

  energy without entropy =     -252.10786824  energy(sigma->0) =     -252.48323350


--------------------------------------------------------------------------------------------------------




--------------------------------------- Iteration      1(  25)  ---------------------------------------


    POTLOK:  cpu time    0.9429: real time    0.9465
    SETDIJ:  cpu time    0.0240: real time    0.0234
    EDDIAG:  cpu time    4.8103: real time    4.8595
  RMM-DIIS:  cpu time    9.4346: real time    9.4721
    ORTHCH:  cpu time    1.6597: real time    1.6644
       DOS:  cpu time    0.0030: real time    0.0028
    CHARGE:  cpu time    1.1168: real time    1.1215
    MIXING:  cpu time    0.0690: real time    0.0680
    --------------------------------------------
      LOOP:  cpu time   18.0603: real time   18.1581

 eigenvalue-minimisations  :  1525
 total energy-change (2. order) :-0.6794033E-01  (-0.2103730E-01)
 number of electron     556.0000005 magnetization      46.4594329
 augmentation part      340.2871082 magnetization      39.9379625

 Broyden mixing:
  rms(total) = 0.11621E+01    rms(broyden)= 0.11619E+01
  rms(prec ) = 0.13054E+01
  weight for this iteration     100.00

 eigenvalues of (default mixing * dielectric matrix)
  average eigenvalue GAMMA=   0.3022
  1.0040  0.9541  0.9541  0.6491  0.6491  0.3650  0.2549  0.1641  0.1641  0.1161
  0.1161  0.1004  0.1004  0.0966  0.0710  0.0653  0.0572  0.0572  0.0531  0.0513

 Free energy of the ion-electron system (eV)
  ---------------------------------------------------
  alpha Z        PSCENC =       387.12086559
  Ewald energy   TEWEN  =    181570.25771297
  -Hartree energ DENC   =   -236378.88820909
  -exchange      EXHF   =         0.00000000
  -V(xc)+E(xc)   XCENC  =      1690.08092919
  PAW double counting   =     50126.93170217   -53881.21881949
  entropy T*S    EENTRO =        -0.77483545
  eigenvalues    EBANDS =     -3327.33850730
  atomic energy  EATOM  =     59560.90262231
  Solvation  Ediel_sol  =         0.00000000
  ---------------------------------------------------
  free energy    TOTEN  =      -252.92653910 eV

  energy without entropy =     -252.15170365  energy(sigma->0) =     -252.53912138


--------------------------------------------------------------------------------------------------------




--------------------------------------- Iteration      1(  26)  ---------------------------------------


    POTLOK:  cpu time    0.9439: real time    0.9481
    SETDIJ:  cpu time    0.0240: real time    0.0234
    EDDIAG:  cpu time    4.8303: real time    4.8482
  RMM-DIIS:  cpu time    9.4906: real time    9.5268
    ORTHCH:  cpu time    1.6517: real time    1.6575
       DOS:  cpu time    0.0030: real time    0.0021
    CHARGE:  cpu time    1.0998: real time    1.1040
    MIXING:  cpu time    0.0740: real time    0.0732
    --------------------------------------------
      LOOP:  cpu time   18.1172: real time   18.1834

 eigenvalue-minimisations  :  1527
 total energy-change (2. order) : 0.6803960E-01  (-0.8385724E-02)
 number of electron     556.0000001 magnetization      45.9580606
 augmentation part      340.2571670 magnetization      39.3918273

 Broyden mixing:
  rms(total) = 0.97572E+00    rms(broyden)= 0.97566E+00
  rms(prec ) = 0.10911E+01
  weight for this iteration     100.00

 eigenvalues of (default mixing * dielectric matrix)
  average eigenvalue GAMMA=   0.3363
  1.0625  0.9263  0.9263  0.9186  0.9186  0.4927  0.4927  0.1595  0.1595  0.1173
  0.1173  0.1030  0.1030  0.1013  0.1013  0.0786  0.0631  0.0604  0.0570  0.0533
  0.0508

 Free energy of the ion-electron system (eV)
  ---------------------------------------------------
  alpha Z        PSCENC =       387.12086559
  Ewald energy   TEWEN  =    181570.25771297
  -Hartree energ DENC   =   -236382.84058252
  -exchange      EXHF   =         0.00000000
  -V(xc)+E(xc)   XCENC  =      1690.04358832
  PAW double counting   =     50131.92942640   -53886.66007414
  entropy T*S    EENTRO =        -0.76537086
  eigenvalues    EBANDS =     -3322.84668758
  atomic energy  EATOM  =     59560.90262231
  Solvation  Ediel_sol  =         0.00000000
  ---------------------------------------------------
  free energy    TOTEN  =      -252.85849950 eV

  energy without entropy =     -252.09312864  energy(sigma->0) =     -252.47581407


--------------------------------------------------------------------------------------------------------




--------------------------------------- Iteration      1(  27)  ---------------------------------------


    POTLOK:  cpu time    0.9449: real time    0.9485
[...]
 -0.034  -0.014   0.002  -0.022  -0.015   0.003   0.001  -0.003  -0.002   0.068  -0.008  -0.003   0.035  -0.004   0.046  -0.003
  0.003   0.001   0.004  -0.003   0.000   0.031   0.012   0.086  -0.058  -0.008   1.242  -0.301  -0.065   0.037   0.104   0.011
 -0.023  -0.008  -0.028   0.021   0.009   0.003   0.001  -0.019   0.011  -0.003  -0.301   0.100   0.032  -0.017  -0.050  -0.004
  0.028   0.009   0.014  -0.009   0.000   0.043   0.015   0.014   0.005   0.035  -0.065   0.032   0.138   0.008   0.020  -0.010
 -0.008  -0.006  -0.001   0.013   0.006   0.005  -0.036   0.028   0.052  -0.004   0.037  -0.017   0.008   0.195  -0.027  -0.000
 -0.033  -0.009  -0.020   0.018   0.023  -0.020   0.006  -0.023   0.009   0.046   0.104  -0.050   0.020  -0.027   0.125  -0.001
 -0.009  -0.003  -0.003   0.000  -0.006  -0.003  -0.001  -0.001  -0.001  -0.003   0.011  -0.004  -0.010  -0.000  -0.001   0.001
  0.000   0.005  -0.003  -0.009  -0.000  -0.001   0.003  -0.002  -0.004   0.000  -0.006   0.002  -0.000  -0.013   0.001  -0.000
  0.005   0.000   0.005  -0.003  -0.009   0.001  -0.001   0.001  -0.000  -0.003  -0.017   0.006  -0.001   0.001  -0.010  -0.000
 total augmentation occupancy for first ion, spin component:           2
  0.156   0.008   0.027  -0.036  -0.067  -0.079   0.001  -0.002   0.008   0.021  -0.032  -0.007  -0.014   0.008   0.021  -0.000
  0.008   0.119   0.007  -0.007  -0.017   0.001  -0.076  -0.002  -0.001   0.006  -0.008  -0.002  -0.004   0.004   0.006  -0.000
  0.027   0.007   0.159  -0.036  -0.016  -0.001  -0.001  -0.089   0.012   0.001  -0.017   0.002  -0.010   0.001   0.017  -0.000
 -0.036  -0.007  -0.036   0.132  -0.012   0.007  -0.001   0.013  -0.078   0.009   0.020   0.000   0.009  -0.001  -0.015   0.000
 -0.067  -0.017  -0.016  -0.012   0.060   0.021   0.006   0.002   0.008  -0.050   0.014   0.004   0.006  -0.003  -0.009   0.000
 -0.079   0.001  -0.001   0.007   0.021   0.006  -0.000   0.000  -0.001  -0.003   0.002   0.002   0.000  -0.001  -0.001   0.000
  0.001  -0.076  -0.001  -0.001   0.006  -0.000   0.005  -0.000  -0.000  -0.001   0.000   0.001  -0.000  -0.000  -0.000   0.000
 -0.002  -0.002  -0.089   0.013   0.002   0.000  -0.000   0.009  -0.003  -0.000   0.005   0.003   0.002  -0.000  -0.003   0.000
  0.008  -0.001   0.012  -0.078   0.008  -0.001  -0.000  -0.003   0.007  -0.001  -0.005  -0.002  -0.002  -0.002   0.002   0.000
  0.021   0.006   0.001   0.009  -0.050  -0.003  -0.001  -0.000  -0.001   0.002  -0.000  -0.001  -0.001   0.000  -0.001   0.000
 -0.032  -0.008  -0.017   0.020   0.014   0.002   0.000   0.005  -0.005  -0.000  -0.012   0.034   0.002  -0.004  -0.004  -0.000
 -0.007  -0.002   0.002   0.000   0.004   0.002   0.001   0.003  -0.002  -0.001   0.034  -0.016  -0.002   0.001   0.003   0.000
 -0.014  -0.004  -0.010   0.009   0.006   0.000  -0.000   0.002  -0.002  -0.001   0.002  -0.002  -0.011  -0.002  -0.005   0.001
  0.008   0.004   0.001  -0.001  -0.003  -0.001  -0.000  -0.000  -0.002   0.000  -0.004   0.001  -0.002  -0.010   0.001   0.000
  0.021   0.006   0.017  -0.015  -0.009  -0.001  -0.000  -0.003   0.002  -0.001  -0.004   0.003  -0.005   0.001  -0.006   0.000
 -0.000  -0.000  -0.000   0.000   0.000   0.000   0.000   0.000   0.000   0.000  -0.000   0.000   0.001   0.000   0.000  -0.000
  0.000   0.000   0.000  -0.000  -0.000   0.000  -0.000   0.000   0.000  -0.000   0.000  -0.000   0.000   0.001  -0.000  -0.000
  0.001   0.000   0.000  -0.000  -0.000  -0.000   0.000  -0.000   0.000   0.000   0.000  -0.001   0.000  -0.000   0.001  -0.000


------------------------ aborting loop because EDIFF is reached ----------------------------------------


    CHARGE:  cpu time    1.1098: real time    1.1114
    FORLOC:  cpu time    0.1170: real time    0.1173
    FORNL :  cpu time    3.1955: real time    3.2035
    FORCOR:  cpu time    0.9169: real time    0.9194
    FORHAR:  cpu time    0.2060: real time    0.2065
    MIXING:  cpu time    0.0480: real time    0.0476
    OFIELD:  cpu time    0.0000: real time    0.0000

 VOLUME and BASIS-vectors are now :
 -----------------------------------------------------------------------------
  energy-cutoff  :      400.00
  volume of cell :     8000.00
      direct lattice vectors                 reciprocal lattice vectors
    20.000000000  0.000000000  0.000000000     0.050000000  0.000000000  0.000000000
     0.000000000 20.000000000  0.000000000     0.000000000  0.050000000  0.000000000
     0.000000000  0.000000000 20.000000000     0.000000000  0.000000000  0.050000000

  length of vectors
    20.000000000 20.000000000 20.000000000     0.050000000  0.050000000  0.050000000


 FORCES acting on ions
    electron-ion (+dipol)            ewald-force                    non-local-force                 convergence-correction
 -----------------------------------------------------------------------------------------------
   0.181E+04 -.116E+04 0.614E+03   -.181E+04 0.116E+04 -.613E+03   -.203E+01 0.121E+01 -.678E+00   -.914E-02 -.111E-01 0.188E-02
   0.714E+03 -.189E+04 0.966E+03   -.713E+03 0.189E+04 -.965E+03   -.860E+00 0.223E+01 -.107E+01   -.198E-01 -.249E-02 -.409E-02
   0.114E+04 -.189E+04 -.346E+03   -.114E+04 0.189E+04 0.346E+03   -.121E+01 0.202E+01 0.257E+00   -.271E-01 -.795E-02 -.251E-02
   0.260E+02 -.228E+04 0.130E+01   -.259E+02 0.227E+04 -.128E+01   -.765E-01 0.678E+01 -.441E-02   -.105E-01 0.106E-01 -.718E-02
   0.874E+01 -.129E+04 0.764E+01   -.879E+01 0.129E+04 -.751E+01   0.792E-01 0.767E+00 -.123E+00   -.233E-01 0.464E-02 -.111E-01
   -.680E+03 -.190E+04 0.960E+03   0.679E+03 0.190E+04 -.958E+03   0.742E+00 0.203E+01 -.104E+01   -.190E-02 0.848E-02 -.817E-02
   -.111E+04 -.191E+04 -.364E+03   0.111E+04 0.191E+04 0.363E+03   0.127E+01 0.227E+01 0.469E+00   0.508E-02 0.150E-01 -.855E-02
   0.196E+04 -.105E+04 -.595E+03   -.195E+04 0.105E+04 0.592E+03   -.592E+01 0.330E+01 0.224E+01   -.222E-02 -.768E-02 -.488E-02
   0.178E+04 -.154E+02 -.114E+04   -.178E+04 0.161E+02 0.114E+04   0.359E+00 -.683E+00 0.168E+01   -.952E-02 0.219E-02 -.199E-01
   0.110E+04 -.562E+03 -.342E+03   -.110E+04 0.561E+03 0.342E+03   -.453E+00 0.586E+00 -.605E-01   -.366E-01 -.654E-02 -.436E-02
   0.111E+04 -.122E+04 -.149E+04   -.110E+04 0.122E+04 0.149E+04   -.190E+01 0.675E+00 0.261E+01   -.317E-01 -.277E-02 -.976E-02
   0.710E+01 -.190E+04 -.117E+04   -.717E+01 0.190E+04 0.117E+04   0.798E-01 0.205E+01 0.121E+01   -.199E-01 0.118E-01 -.584E-03
   -.707E+01 -.575E+03 -.114E+04   0.691E+01 0.575E+03 0.114E+04   0.189E+00 0.588E+00 0.401E+00   -.315E-01 -.515E-02 -.570E-02
   -.110E+04 -.598E+03 -.357E+03   0.110E+04 0.598E+03 0.357E+03   0.664E+00 0.400E+00 0.141E+00   0.203E-02 0.431E-02 -.793E-02
   -.113E+04 -.120E+04 -.153E+04   0.112E+04 0.119E+04 0.153E+04   0.127E+01 0.127E+01 0.173E+01   0.749E-02 0.124E-01 0.438E-02
   0.123E+04 -.103E+04 0.167E+04   -.123E+04 0.103E+04 -.167E+04   -.354E+01 0.308E+01 -.509E+01   -.132E-01 -.109E-01 0.640E-02
   0.180E+04 0.194E+02 0.133E+04   -.180E+04 -.194E+02 -.133E+04   -.209E+01 -.573E-01 -.145E+01   -.215E-02 -.385E-02 0.492E-02
   0.692E+03 0.344E+01 0.211E+04   -.692E+03 -.354E+01 -.211E+04   -.752E+00 0.902E-01 -.230E+01   -.245E-01 -.413E-02 0.626E-02
   0.686E+03 -.577E+03 0.943E+03   -.685E+03 0.577E+03 -.943E+03   -.338E+00 0.385E+00 -.584E+00   -.353E-01 -.878E-02 -.622E-02
   0.960E+01 -.119E+04 0.189E+04   -.947E+01 0.118E+04 -.189E+04   -.115E+00 0.128E+01 -.209E+01   -.164E-01 0.124E-02 -.393E-02
   -.127E+02 0.581E+03 0.116E+04   0.127E+02 -.580E+03 -.116E+04   0.425E-01 -.344E+00 -.715E+00   -.337E-01 -.116E-01 -.731E-03
   -.700E+03 -.145E+02 0.211E+04   0.699E+03 0.145E+02 -.211E+04   0.681E+00 -.119E-01 -.233E+01   -.110E-01 0.115E-02 -.816E-02
   -.680E+03 -.593E+03 0.939E+03   0.679E+03 0.592E+03 -.938E+03   0.353E+00 0.463E+00 -.488E+00   -.926E-02 0.492E-02 -.964E-02
   0.220E+04 0.349E+02 0.317E+02   -.220E+04 -.348E+02 -.313E+02   -.279E+01 -.122E+00 -.367E+00   0.546E-02 0.222E-02 -.467E-02
   0.177E+04 0.122E+04 -.547E+03   -.177E+04 -.122E+04 0.547E+03   -.246E+01 -.967E+00 0.935E+00   0.337E-02 0.201E-02 -.112E-01
   0.109E+04 0.593E+03 0.383E+03   -.109E+04 -.593E+03 -.382E+03   -.611E+00 -.459E+00 -.310E+00   -.231E-01 -.841E-02 -.526E-02
   0.663E+03 0.582E+03 -.918E+03   -.662E+03 -.582E+03 0.918E+03   -.888E-01 -.219E+00 0.126E+00   -.290E-01 -.151E-01 -.147E-01
   -.632E+01 -.103E+01 0.882E+01   0.634E+01 0.113E+01 -.881E+01   0.170E-01 -.857E-01 -.234E-02   -.339E-01 -.162E-01 -.845E-02
   -.191E+02 0.129E+04 0.684E+01   0.192E+02 -.129E+04 -.700E+01   -.114E+00 -.693E+00 0.158E+00   -.307E-01 -.243E-01 -.101E-02
   -.111E+04 0.568E+03 0.366E+03   0.111E+04 -.568E+03 -.366E+03   0.673E+00 -.334E+00 -.268E+00   -.136E-01 -.113E-01 -.448E-02
   -.707E+03 0.574E+03 -.924E+03   0.707E+03 -.574E+03 0.923E+03   0.482E+00 -.437E+00 0.470E+00   -.203E-01 -.183E-01 -.643E-02
   -.179E+04 -.121E+04 0.592E+03   0.179E+04 0.120E+04 -.592E+03   0.201E+01 0.131E+01 -.542E+00   0.621E-02 0.110E-01 -.836E-02
   -.194E+04 -.107E+04 -.649E+03   0.194E+04 0.106E+04 0.647E+03   0.587E+01 0.316E+01 0.177E+01   0.140E-01 0.100E-01 -.323E-02
   -.181E+04 -.190E+02 -.132E+04   0.181E+04 0.190E+02 0.131E+04   0.202E+01 -.180E-01 0.151E+01   0.158E-01 0.326E-03 0.374E-02
   -.122E+04 -.106E+04 0.167E+04   0.121E+04 0.106E+04 -.166E+04   0.350E+01 0.310E+01 -.487E+01   0.394E-02 0.871E-02 -.685E-02
   -.181E+04 -.276E+02 0.132E+04   0.181E+04 0.275E+02 -.132E+04   0.202E+01 0.712E-02 -.137E+01   0.644E-02 0.693E-02 -.104E-01
   -.221E+04 -.285E+02 0.304E+01   0.221E+04 0.284E+02 -.304E+01   0.242E+01 0.124E+00 -.383E-02   0.121E-01 0.550E-02 -.371E-02
   -.182E+04 0.117E+04 -.585E+03   0.182E+04 -.116E+04 0.585E+03   0.206E+01 -.132E+01 0.857E+00   0.116E-02 -.154E-01 -.556E-03
   0.535E+03 -.308E+02 -.203E+04   -.533E+03 0.315E+02 0.203E+04   -.172E+01 -.725E+00 0.169E+00   -.209E-01 -.524E-02 -.679E-02
   -.339E+02 -.107E+04 -.203E+04   0.343E+02 0.107E+04 0.202E+04   -.362E+00 0.335E+01 0.629E+01   -.187E-01 0.867E-02 0.121E-01
   -.724E+03 0.176E+01 -.209E+04   0.723E+03 -.167E+01 0.209E+04   0.120E+01 -.748E-01 0.255E+01   -.523E-02 -.564E-02 0.106E-01
   0.111E+04 0.117E+04 -.154E+04   -.111E+04 -.117E+04 0.154E+04   -.210E+01 -.711E+00 0.289E+01   -.111E-01 0.384E-03 -.118E-01
   0.654E+03 0.192E+04 -.928E+03   -.654E+03 -.192E+04 0.927E+03   -.251E+00 -.297E+01 0.384E+00   -.837E-02 -.553E-02 -.167E-01
   -.507E+02 0.120E+04 -.186E+04   0.508E+02 -.120E+04 0.186E+04   -.103E+00 -.930E+00 0.264E+01   -.192E-01 -.180E-01 -.940E-02
   -.736E+03 0.189E+04 -.941E+03   0.735E+03 -.189E+04 0.940E+03   0.823E+00 -.213E+01 0.102E+01   -.227E-01 -.198E-01 -.112E-01
   -.125E+04 0.103E+04 -.166E+04   0.124E+04 -.103E+04 0.166E+04   0.360E+01 -.311E+01 0.488E+01   -.123E-02 -.157E-01 0.516E-02
   0.111E+04 0.120E+04 0.155E+04   -.110E+04 -.119E+04 -.155E+04   -.144E+01 -.137E+01 -.170E+01   -.140E-01 0.309E-02 0.111E-01
   -.169E+02 0.104E+04 0.205E+04   0.168E+02 -.103E+04 -.204E+04   0.159E+00 -.302E+01 -.615E+01   -.202E-01 -.547E-02 0.175E-02
   -.115E+04 0.116E+04 0.155E+04   0.114E+04 -.116E+04 -.155E+04   0.121E+01 -.149E+01 -.164E+01   -.103E-01 -.129E-01 -.458E-02
   0.194E+04 0.107E+04 0.665E+03   -.193E+04 -.107E+04 -.663E+03   -.572E+01 -.322E+01 -.191E+01   0.104E-01 0.718E-02 0.118E-02
   0.109E+04 0.191E+04 0.389E+03   -.109E+04 -.191E+04 -.388E+03   -.119E+01 -.214E+01 -.449E+00   -.149E-02 0.385E-02 0.239E-02
   -.314E+02 0.189E+04 0.120E+04   0.312E+02 -.188E+04 -.119E+04   0.198E+00 -.201E+01 -.146E+01   -.211E-01 -.895E-02 0.106E-01
   -.115E+04 0.188E+04 0.383E+03   0.115E+04 -.187E+04 -.382E+03   0.135E+01 -.200E+01 -.629E+00   -.203E-01 -.217E-01 0.503E-03
   -.196E+04 0.102E+04 0.651E+03   0.196E+04 -.101E+04 -.649E+03   0.585E+01 -.296E+01 -.201E+01   0.718E-02 -.106E-01 -.617E-02
   -.439E+02 0.227E+04 0.259E+02   0.442E+02 -.227E+04 -.264E+02   -.251E+00 -.680E+01 0.450E+00   -.154E-01 0.589E-03 -.765E-03
   0.766E+03 0.710E+02 -.103E+04   -.768E+03 -.709E+02 0.104E+04   0.199E+01 -.629E-01 -.275E+01   -.830E-02 -.649E-02 -.547E-02
 -----------------------------------------------------------------------------------------------
   -.410E+01 -.857E+00 0.679E+01   0.159E-11 -.125E-11 0.136E-11   0.470E+01 0.104E+01 -.663E+01   -.637E+00 -.181E+00 -.203E+00
 
 
 POSITION                                       TOTAL-FORCE (eV/Angst)
 -----------------------------------------------------------------------------------
      7.00959     11.91446      8.20941         0.004130     -0.002254     -0.004990
      9.03668     13.26864      7.53701        -0.002528     -0.008911      0.008088
      8.24680     13.24495      9.93751         0.003684      0.007312      0.001098
     10.26639     14.46123      9.28412         0.003734      0.005012      0.002651
     10.29737     12.16964      9.28086         0.003983     -0.003465     -0.004253
     11.54593     13.30015      7.55038         0.010173      0.003931     -0.006407
     12.32588     13.30636      9.93698         0.006116     -0.009322      0.002610
      6.32261     11.86470     10.53603         0.003379      0.000958      0.003718
      6.93385      9.81115     11.71445         0.004858      0.004993     -0.002644
      8.29603     10.83356      9.94336        -0.003953      0.003566      0.003071
      8.27188     11.95169     12.06749         0.005544      0.005753      0.001294
     10.28259     13.26796     11.42139        -0.003229      0.009446     -0.002131
     10.30298     10.85695     11.40100         0.000499      0.004375      0.023133
     12.31476     10.89732      9.93794        -0.004040      0.001547     -0.008436
     12.33243     11.97414     12.08643        -0.005449     -0.003556     -0.002735
      7.85403     11.87261      5.90931        -0.006462     -0.000503      0.012645
      7.03094      9.77600      6.87575         0.004705     -0.005506      0.015051
      9.07019      9.80971      5.41038        -0.004120     -0.006311     -0.005927
      9.07282     10.86022      7.57674         0.004068      0.003670      0.004003
     10.30296     11.96276      5.81660        -0.001271     -0.002106      0.000420
     10.34048      8.76551      7.17333        -0.007486     -0.004309     -0.004744
     11.58747      9.84402      5.40935         0.006167     -0.005236     -0.014706
     11.55159     10.88969      7.57954         0.002595      0.010729     -0.006629
      6.25421      9.75969      9.28446        -0.005506      0.006259      0.010399
      7.08324      7.61843     10.33559        -0.007827     -0.005659      0.008981
      8.33261      8.73833      8.61405        -0.000108      0.005734      0.004190
      9.09248      8.75241     10.99039         0.011426     -0.001196     -0.013072
     10.31968      9.81567      9.28710        -0.002187     -0.007344     -0.003755
     10.34053      7.45661      9.29214         0.000703     -0.008153     -0.002672
     12.33871      8.78691      8.62646         0.004984      0.000720     -0.003127
     11.58535      8.77441     10.97934        -0.014914     -0.001325      0.004980
     13.59474     12.00078      8.21797         0.005531     -0.002447     -0.005874
     14.25940     11.94101     10.57757         0.000379     -0.001839      0.008304
     13.62456      9.84557     11.67274        -0.006598     -0.007900     -0.001726
     12.75110     11.93160      5.91652        -0.001239      0.004814     -0.007462
     13.61991      9.86603      6.88815         0.011682     -0.000938     -0.010158
     14.39094      9.86574      9.28446         0.010807     -0.001936     -0.008721
     13.64917      7.70897     10.34515        -0.003774      0.001285      0.001322
      9.05038      9.83762     13.25250        -0.001003     -0.006403      0.005842
     10.32684     11.90726     13.45272         0.002786      0.004935     -0.007052
     11.57399      9.81950     13.15268        -0.012854      0.010186      0.003635
      7.89073      7.66431     12.66639        -0.002300     -0.010168     -0.013527
      9.11026      6.31292     11.00486        -0.003141      0.012208     -0.002286
     10.35084      7.65188     12.71299        -0.000830     -0.002671     -0.001992
     11.62399      6.35912     10.99906        -0.010263      0.004645      0.003445
     12.79726      7.75869     12.64358        -0.000260     -0.002869      0.003638
      8.31566      7.65263      6.46360         0.004977      0.008521      0.013204
     10.34965      7.74753      5.10724         0.001360      0.002082      0.005717
     12.39541      7.72548      6.46472         0.004876      0.000614     -0.008326
      6.39111      7.68957      7.98213         0.000864      0.001210     -0.008846
      8.33685      6.32498      8.61169        -0.001488      0.001276      0.005501
     10.37348      6.36771      7.12793        -0.003855     -0.004990     -0.007351
     12.40280      6.38798      8.60129         0.001805      0.000224      0.004367
     14.31511      7.78867      7.99205         0.001744      0.006649     -0.003866
     10.40311      5.15858      9.24018         0.002770      0.005533      0.003706
      7.03962      9.27338     13.80578        -0.013645     -0.020871      0.008403
 -----------------------------------------------------------------------------------
    total drift:                               -0.040547      0.006933     -0.038330


--------------------------------------------------------------------------------------------------------



  FREE ENERGIE OF THE ION-ELECTRON SYSTEM (eV)
  ---------------------------------------------------
  free  energy   TOTEN  =      -262.60178527 eV

  energy  without entropy=     -261.92534721  energy(sigma->0) =     -262.26356624
 
 d Force = 0.1128507E-02[ 0.443E-03, 0.181E-02]  d Energy = 0.1082084E-02 0.464E-04
 d Force = 0.3729544E+00[ 0.382E+00, 0.364E+00]  d Ewald  = 0.3729587E+00-0.429E-05


--------------------------------------------------------------------------------------------------------


    POTLOK:  cpu time    0.9739: real time    0.9758


--------------------------------------------------------------------------------------------------------


 Conjugate gradient step on ions:
 trial-energy change:   -0.001082  1 .order   -0.001129   -0.001814   -0.000443
  (g-gl).g = 0.388E-03      g.g   = 0.403E-03  gl.gl    = 0.815E-03
 g(Force)  = 0.403E-03   g(Stress)= 0.000E+00 ortho     = 0.209E-04
 gamma     =   0.47580
 trial     =   4.39198
 opt step  =   6.40599  (harmonic =   5.80946) maximal distance =0.00582997
 next E    =  -262.601882   (d E  =  -0.00118)


--------------------------------------------------------------------------------------------------------


  
 reached required accuracy - stopping structural energy minimisation
     LOOP+:  cpu time  294.5012: real time  295.2923
    4ORBIT:  cpu time    0.0000: real time    0.0000

 total amount of memory used by VASP MPI-rank0   256272. kBytes
=======================================================================

   base      :      30000. kBytes
   nonlr-proj:      12280. kBytes
   fftplans  :      16788. kBytes
   grid      :     106586. kBytes
   one-center:       1741. kBytes
   wavefun   :      88877. kBytes
 
  
  
 General timing and accounting informations for this job:
 ========================================================
  
                  Total CPU time used (sec):    12992.189
                            User time (sec):    12751.877
                          System time (sec):      240.312
                         Elapsed time (sec):    13031.527
  
                   Maximum memory used (kb):      571980.
                   Average memory used (kb):           0.
  
                          Minor page faults:      8208462
                          Major page faults:            0
                 Voluntary context switches:          109
