 vasp.6.3.2 27Jun22 (build Aug 05 2024 15:42:26) complex                        
  
 executed on             LinuxIFC date 2025.06.04  20:33:56
 running  294 mpi-ranks, with    1 threads/rank
 each image running on   42 cores
 distrk:  each k-point on   42 cores,    1 groups
 distr:  one band on NCORE=   1 cores,   42 groups


--------------------------------------------------------------------------------------------------------


 INCAR:
   ADDGRID = True
   ALGO = Fast
   EDIFF = 1e-06
   EDIFFG = -0.05
   ENCUT = 520.0
   IBRION = 1
   ISIF = 2
   ISMEAR = 0
   ISPIN = 2
   ISYM = 0
   LASPH = True
   LDAU = True
   LDAUJ = 0 0 0 0
   LDAUL = 0 0 2 0
   LDAUPRINT = 1
   LDAUTYPE = 2
   LDAUU = 0 0 4.38 0
   LMAXMIX = 4
   LORBIT = 11
   LREAL = False
   LWAVE = False
   MAGMOM = 93*0.6
   NELM = 100
   NELMIN = 3
   NSW = 450
   POTIM = 0.2
   PREC = Accurate
   SIGMA = 0.05
   IMAGES = 7
   SPRING = -5.0
   ICHAIN = 0
   LCLIMB = .TRUE.
   LNEBCELL = .FALSE.
   IOPT = 3

 POTCAR:   PAW_PBE Li_sv 23Jan2001                
 POTCAR:   PAW_PBE Nb_pv 08Apr2002                
 POTCAR:   PAW_PBE Mo_pv 08Apr2002                
 POTCAR:   PAW_PBE O 08Apr2002                    
 POTCAR:   PAW_PBE Li_sv 23Jan2001                
   VRHFIN =Li: 1s2s2p                                                                               
   LEXCH  = PE                                                                                      
   EATOM  =   202.7858 eV,   14.9043 Ry                                                             
                                                                                                    
   TITEL  = PAW_PBE Li_sv 23Jan2001                                                                 
   LULTRA =        F    use ultrasoft PP ?                                                          
   IUNSCR =        0    unscreen: 0-lin 1-nonlin 2-no                                               
   RPACOR =     .000    partial core radius                                                         
   POMASS =    7.010; ZVAL   =    3.000    mass and valenz                                          
   RCORE  =    2.050    outmost cutoff radius                                                       
   RWIGS  =    2.050; RWIGS  =    1.085    wigner-seitz radius (au A)                               
   ENMAX  =  271.649; ENMIN  =  203.737 eV                                                          
   ICORE  =        2    local potential                                                             
   LCOR   =        T    correct aug charges                                                         
   LPAW   =        T    paw PP                                                                      
   EAUG   =  428.394                                                                                
   RMAX   =    2.797    core radius for proj-oper                                                   
   RAUG   =    1.300    factor for augmentation sphere                                              
   RDEP   =    2.094    radius for radial grids                                                     
   RDEPT  =    1.550    core radius for aug-charge                                                  
   QCUT   =   -4.468; QGAM   =    8.937    optimization parameters                                  
                                                                                                    
   Description                                                                                      
     l     E      TYP  RCUT    TYP  RCUT                                                            
     0   .000     23  1.550                                                                         
     0   .000     23  2.050                                                                         
     0   .000     23  1.550                                                                         
     0   .000     23  2.050                                                                         
     1  -.200     23  2.050                                                                         
     1  1.500     23  2.050                                                                         
     2   .000      7  1.550                                                                         
  local pseudopotential read in
  atomic valenz-charges read in
  non local Contribution for L=           0  read in
    real space projection operators read in
  non local Contribution for L=           0  read in
    real space projection operators read in
  non local Contribution for L=           1  read in
    real space projection operators read in
  non local Contribution for L=           1  read in
    real space projection operators read in
    PAW grid and wavefunctions read in
 
   number of l-projection  operators is LMAX  =           4
   number of lm-projection operators is LMMAX =           8
 
 POTCAR:   PAW_PBE Nb_pv 08Apr2002                
   VRHFIN =Nb: 4p5s4d                                                                               
   LEXCH  = PE                                                                                      
   EATOM  =  1043.3919 eV,   76.6871 Ry                                                             
                                                                                                    
   TITEL  = PAW_PBE Nb_pv 08Apr2002                                                                 
   LULTRA =        F    use ultrasoft PP ?                                                          
   IUNSCR =        1    unscreen: 0-lin 1-nonlin 2-no                                               
   RPACOR =    2.200    partial core radius                                                         
   POMASS =   92.000; ZVAL   =   11.000    mass and valenz                                          
   RCORE  =    2.750    outmost cutoff radius                                                       
   RWIGS  =    2.840; RWIGS  =    1.503    wigner-seitz radius (au A)                               
   ENMAX  =  208.608; ENMIN  =  156.456 eV                                                          
   RCLOC  =    2.201    cutoff for local pot                                                        
   LCOR   =        T    correct aug charges                                                         
   LPAW   =        T    paw PP                                                                      
   EAUG   =  355.067                                                                                
   DEXC   =    -.005                                                                                
   RMAX   =    3.192    core radius for proj-oper                                                   
   RAUG   =    1.300    factor for augmentation sphere                                              
   RDEP   =    2.776    radius for radial grids                                                     
   QCUT   =   -3.916; QGAM   =    7.831    optimization parameters                                  
                                                                                                    
   Description                                                                                      
     l     E      TYP  RCUT    TYP  RCUT                                                            
     1   .000     23  2.600                                                                         
     1  -.100     23  2.600                                                                         
     2   .000     23  2.600                                                                         
     2   .000     23  2.600                                                                         
     0   .000     23  2.750                                                                         
     0  1.500     23  2.750                                                                         
     3   .000      7   .000                                                                         
  local pseudopotential read in
  partial core-charges read in
  atomic valenz-charges read in
  non local Contribution for L=           1  read in
    real space projection operators read in
  non local Contribution for L=           1  read in
    real space projection operators read in
  non local Contribution for L=           2  read in
    real space projection operators read in
  non local Contribution for L=           2  read in
    real space projection operators read in
  non local Contribution for L=           0  read in
    real space projection operators read in
  non local Contribution for L=           0  read in
    real space projection operators read in
    PAW grid and wavefunctions read in
 
   number of l-projection  operators is LMAX  =           6
   number of lm-projection operators is LMMAX =          18
 
 POTCAR:   PAW_PBE Mo_pv 08Apr2002                
   VRHFIN =Mo: 4p5s4d                                                                               
   LEXCH  = PE                                                                                      
   EATOM  =  1284.3009 eV,   94.3935 Ry                                                             
                                                                                                    
   TITEL  = PAW_PBE Mo_pv 08Apr2002                                                                 
   LULTRA =        F    use ultrasoft PP ?                                                          
   IUNSCR =        1    unscreen: 0-lin 1-nonlin 2-no                                               
   RPACOR =    2.200    partial core radius                                                         
   POMASS =   95.940; ZVAL   =   12.000    mass and valenz                                          
   RCORE  =    2.600    outmost cutoff radius                                                       
   RWIGS  =    2.750; RWIGS  =    1.455    wigner-seitz radius (au A)                               
   ENMAX  =  224.584; ENMIN  =  168.438 eV                                                          
   RCLOC  =    1.902    cutoff for local pot                                                        
   LCOR   =        T    correct aug charges                                                         
   LPAW   =        T    paw PP                                                                      
   EAUG   =  392.427                                                                                
   DEXC   =    -.006                                                                                
   RMAX   =    3.077    core radius for proj-oper                                                   
   RAUG   =    1.300    factor for augmentation sphere                                              
   RDEP   =    2.641    radius for radial grids                                                     
   QCUT   =   -4.063; QGAM   =    8.126    optimization parameters                                  
                                                                                                    
   Description                                                                                      
     l     E      TYP  RCUT    TYP  RCUT                                                            
     1   .000     23  2.500                                                                         
     1  -.200     23  2.500                                                                         
     2   .000     23  2.500                                                                         
     2   .000     23  2.500                                                                         
     0   .000     23  2.600                                                                         
     0  1.000     23  2.600                                                                         
     3   .000      7   .000                                                                         
  local pseudopotential read in
  partial core-charges read in
  atomic valenz-charges read in
  non local Contribution for L=           1  read in
    real space projection operators read in
  non local Contribution for L=           1  read in
    real space projection operators read in
  non local Contribution for L=           2  read in
    real space projection operators read in
  non local Contribution for L=           2  read in
    real space projection operators read in
  non local Contribution for L=           0  read in
    real space projection operators read in
  non local Contribution for L=           0  read in
    real space projection operators read in
    PAW grid and wavefunctions read in
 
   number of l-projection  operators is LMAX  =           6
   number of lm-projection operators is LMMAX =          18
 
 POTCAR:   PAW_PBE O 08Apr2002                    
   VRHFIN =O: s2p4                                                                                  
   LEXCH  = PE                                                                                      
   EATOM  =   432.3788 eV,   31.7789 Ry                                                             
                                                                                                    
   TITEL  = PAW_PBE O 08Apr2002                                                                     
   LULTRA =        F    use ultrasoft PP ?                                                          
   IUNSCR =        0    unscreen: 0-lin 1-nonlin 2-no                                               
   RPACOR =     .000    partial core radius                                                         
   POMASS =   16.000; ZVAL   =    6.000    mass and valenz                                          
   RCORE  =    1.520    outmost cutoff radius                                                       
   RWIGS  =    1.550; RWIGS  =     .820    wigner-seitz radius (au A)                               
   ENMAX  =  400.000; ENMIN  =  300.000 eV                                                          
   ICORE  =        2    local potential                                                             
   LCOR   =        T    correct aug charges                                                         
   LPAW   =        T    paw PP                                                                      
   EAUG   =  605.392                                                                                
   DEXC   =     .000                                                                                
   RMAX   =    2.264    core radius for proj-oper                                                   
   RAUG   =    1.300    factor for augmentation sphere                                              
   RDEP   =    1.550    radius for radial grids                                                     
   QCUT   =   -5.520; QGAM   =   11.041    optimization parameters                                  
                                                                                                    
   Description                                                                                      
     l     E      TYP  RCUT    TYP  RCUT                                                            
     0   .000     23  1.200                                                                         
     0  -.700     23  1.200                                                                         
     1   .000     23  1.520                                                                         
     1   .600     23  1.520                                                                         
     2   .000      7  1.500                                                                         
  local pseudopotential read in
  atomic valenz-charges read in
  non local Contribution for L=           0  read in
    real space projection operators read in
  non local Contribution for L=           0  read in
    real space projection operators read in
  non local Contribution for L=           1  read in
    real space projection operators read in
  non local Contribution for L=           1  read in
    real space projection operators read in
    PAW grid and wavefunctions read in
 
   number of l-projection  operators is LMAX  =           4
   number of lm-projection operators is LMMAX =           8
 
 -----------------------------------------------------------------------------
|                                                                             |
|               ----> ADVICE to this user running VASP <----                  |
|                                                                             |
|     You have a (more or less) 'large supercell' and for larger cells it     |
|     might be more efficient to use real-space projection operators.         |
|     Therefore, try LREAL= Auto in the INCAR file.                           |
|     Mind: If you want to do very accurate calculations, keep the            |
|     reciprocal projection scheme (i.e. LREAL=.FALSE.).                      |
|                                                                             |
 -----------------------------------------------------------------------------

 PAW_PBE Li_sv 23Jan2001                :
 energy of atom  1       EATOM= -202.7858
 kinetic energy error for atom=    0.0020 (will be added to EATOM!!)
 PAW_PBE Nb_pv 08Apr2002                :
 energy of atom  2       EATOM=-1043.3919
 kinetic energy error for atom=    0.0011 (will be added to EATOM!!)
 PAW_PBE Mo_pv 08Apr2002                :
 energy of atom  3       EATOM=-1284.3009
 kinetic energy error for atom=    0.0019 (will be added to EATOM!!)
 PAW_PBE O 08Apr2002                    :
 energy of atom  4       EATOM= -432.3788
 kinetic energy error for atom=    0.0208 (will be added to EATOM!!)
 
 
 POSCAR: Li   Nb   Mo   O
  positions in direct lattice
  No initial velocities read in
 exchange correlation table for  LEXCH =        8
   RHO(1)=    0.500       N(1)  =     2000
   RHO(2)=  100.500       N(2)  =     4000
 
 POSCAR: Li   Nb   Mo   O
  positions in direct lattice
  No initial velocities read in
 
 POSCAR: Li   Nb   Mo   O
  positions in direct lattice
  No initial velocities read in
 


--------------------------------------------------------------------------------------------------------


 ion  position               nearest neighbor table
   1  0.329  0.814  0.627-  74 1.61  65 1.62  70 2.22  82 2.25  13 2.61  18 2.67  22 2.73  21 2.78

   2  0.367  0.008  0.046-  42 1.84  34 1.89  33 2.00  33 2.03  90 2.19  86 2.33   9 3.46   9 3.48

   3  0.634  0.008  0.954-  43 1.86  35 1.87  32 2.00  32 2.03  91 2.21  87 2.31   8 3.46   8 3.48

   4  0.865  0.508  0.045-  44 1.86  36 1.87  31 2.00  31 2.03  92 2.19  88 2.31   7 3.45   7 3.47

   5  0.131  0.509  0.955-  45 1.83  37 1.91  30 2.00  30 2.03  93 2.15  89 2.34   6 3.46   6 3.49

   6  0.249  0.004  0.137-  54 1.81  34 1.99  89 2.02  89 2.02  46 2.06  30 2.36   5 3.46   5 3.49

   7  0.752  0.003  0.861-  55 1.81  88 2.02  35 2.02  88 2.02  47 2.02  31 2.35   4 3.45   4 3.47

   8  0.748  0.503  0.138-  56 1.81  36 2.01  87 2.02  87 2.02  48 2.03  32 2.36   3 3.46   3 3.48

   9  0.250  0.503  0.865-  57 1.81  37 1.95  86 2.02  86 2.02  49 2.09  33 2.35   2 3.46   2 3.48

  10  0.130  0.997  0.230-  46 1.85  62 1.89  85 2.01  85 2.03  38 2.17  50 2.32  25 3.44  25 3.46

  11  0.869  0.999  0.767-  63 1.85  47 1.87  84 2.01  84 2.03  39 2.21  51 2.30  24 3.42  24 3.44

  12  0.632  0.498  0.233-  64 1.85  48 1.86  83 2.01  83 2.03  40 2.21  52 2.29  23 3.41  23 3.43

  13  0.371  0.496  0.775-  49 1.83  65 1.91  82 2.00  82 2.03  41 2.12  53 2.39   1 2.61  22 3.52
                            22 3.54
  14  0.419  0.967  0.380-  81 1.85  29 1.93  58 2.01  81 2.05  66 2.07  54 2.14
  15  0.584  0.967  0.617-  80 1.85  29 1.93  67 2.01  80 2.05  59 2.09  55 2.14
  16  0.917  0.467  0.382-  79 1.85  28 1.93  68 2.03  79 2.05  60 2.06  56 2.15
  17  0.082  0.467  0.620-  78 1.85  28 1.93  61 2.03  78 2.05  69 2.06  57 2.14
  18  0.297  0.003  0.467-  66 1.83  62 1.99  73 2.02  73 2.02  74 2.03  70 2.39   1 2.67  21 3.51
                            21 3.51
  19  0.702  0.004  0.526-  67 1.86  75 1.95  72 2.01  72 2.01  63 2.06  71 2.29  20 3.44  20 3.44

  20  0.799  0.504  0.473-  68 1.85  76 1.95  71 2.01  71 2.02  64 2.05  72 2.31  19 3.44  19 3.44

  21  0.198  0.503  0.524-  69 1.84  77 1.89  70 2.02  70 2.02  65 2.18  73 2.36   1 2.78  18 3.51
                            18 3.51
  22  0.467  0.001  0.714-  59 1.82  74 1.99  53 2.02  53 2.02  43 2.05  82 2.39   1 2.73  13 3.52
                            13 3.54
  23  0.537  0.002  0.287-  58 1.86  75 1.93  52 2.01  52 2.01  42 2.10  83 2.28  12 3.41  12 3.43

  24  0.964  0.502  0.712-  61 1.86  76 1.93  51 2.01  51 2.02  45 2.10  84 2.30  11 3.42  11 3.44

  25  0.033  0.501  0.284-  60 1.84  77 1.99  50 2.01  50 2.01  44 2.05  85 2.31  10 3.44  10 3.46

  26  0.999  0.252  0.000-  39 1.79  92 1.79  38 1.80  93 1.80
  27  0.501  0.753  0.001-  40 1.78  91 1.79  90 1.79  41 1.81
  28  0.000  0.491  0.500-  16 1.93  17 1.93
  29  0.501  0.991  0.499-  15 1.93  14 1.93
  30  0.149  0.004  0.991-   5 2.00   5 2.03   6 2.36
  31  0.850  0.004  0.008-   4 2.00   4 2.03   7 2.35
  32  0.649  0.504  0.990-   3 2.00   3 2.03   8 2.36
  33  0.351  0.504  0.009-   2 2.00   2 2.03   9 2.35
  34  0.303  0.003  0.082-   2 1.89   6 1.99
  35  0.696  0.004  0.917-   3 1.87   7 2.02
  36  0.803  0.503  0.081-   4 1.87   8 2.01
  37  0.196  0.502  0.920-   5 1.91   9 1.95
  38  0.034  0.999  0.099-  26 1.80  10 2.17
  39  0.966  1.000  0.902-  26 1.79  11 2.21
  40  0.534  0.502  0.099-  27 1.78  12 2.21
  41  0.467  0.500  0.901-  27 1.81  13 2.12
  42  0.450  0.004  0.156-   2 1.84  23 2.10
  43  0.550  0.003  0.844-   3 1.86  22 2.05
  44  0.949  0.503  0.155-   4 1.86  25 2.05
  45  0.050  0.505  0.845-   5 1.83  24 2.10
  46  0.180  0.002  0.178-  10 1.85   6 2.06
  47  0.820  0.003  0.823-  11 1.87   7 2.02
  48  0.680  0.503  0.177-  12 1.86   8 2.03
  49  0.320  0.500  0.824-  13 1.83   9 2.09
  50  0.049  0.001  0.270-  25 2.01  25 2.01  10 2.32
  51  0.951  0.002  0.730-  24 2.01  24 2.02  11 2.30
  52  0.550  0.502  0.270-  23 2.01  23 2.01  12 2.29
  53  0.451  0.501  0.728-  22 2.02  22 2.02  13 2.39
  54  0.325  1.000  0.250-   6 1.81  14 2.14
  55  0.674  0.999  0.750-   7 1.81  15 2.14
  56  0.825  0.499  0.250-   8 1.81  16 2.15
  57  0.174  0.500  0.751-   9 1.81  17 2.14
  58  0.476  0.999  0.326-  23 1.86  14 2.01
  59  0.523  0.999  0.671-  22 1.82  15 2.09
  60  0.976  0.499  0.327-  25 1.84  16 2.06
  61  0.024  0.498  0.674-  24 1.86  17 2.03
  62  0.207  0.002  0.349-  10 1.89  18 1.99
  63  0.793  0.002  0.651-  11 1.85  19 2.06
  64  0.708  0.502  0.349-  12 1.85  20 2.05
  65  0.296  0.502  0.653-   1 1.62  13 1.91  21 2.18
  66  0.354  0.001  0.426-  18 1.83  14 2.07
  67  0.648  0.999  0.574-  19 1.86  15 2.01
  68  0.853  0.500  0.425-  20 1.85  16 2.03
  69  0.148  0.500  0.576-  21 1.84  17 2.06
  70  0.223  0.002  0.523-  21 2.02  21 2.02   1 2.22  18 2.39
  71  0.779  0.003  0.481-  20 2.01  20 2.02  19 2.29
  72  0.722  0.503  0.519-  19 2.01  19 2.01  20 2.31
  73  0.280  0.503  0.481-  18 2.02  18 2.02  21 2.36
  74  0.376  0.002  0.597-   1 1.61  22 1.99  18 2.03
  75  0.622  0.003  0.404-  23 1.93  19 1.95
  76  0.878  0.503  0.596-  24 1.93  20 1.95
  77  0.122  0.502  0.404-  21 1.89  25 1.99
  78  0.091  0.993  0.631-  17 1.85  17 2.05
  79  0.910  0.993  0.369-  16 1.85  16 2.05
  80  0.590  0.493  0.631-  15 1.85  15 2.05
  81  0.409  0.493  0.369-  14 1.85  14 2.05
  82  0.392  1.000  0.768-  13 2.00  13 2.03   1 2.25  22 2.39
  83  0.606  0.001  0.232-  12 2.01  12 2.03  23 2.28
  84  0.895  0.501  0.768-  11 2.01  11 2.03  24 2.30
  85  0.106  0.500  0.232-  10 2.01  10 2.03  25 2.31
  86  0.275  0.003  0.897-   9 2.02   9 2.02   2 2.33
  87  0.724  0.004  0.103-   8 2.02   8 2.02   3 2.31
  88  0.775  0.504  0.896-   7 2.02   7 2.02   4 2.31
  89  0.224  0.504  0.104-   6 2.02   6 2.02   5 2.34
  90  0.429  0.004  0.987-  27 1.79   2 2.19
  91  0.571  0.005  0.014-  27 1.79   3 2.21
  92  0.928  0.503  0.987-  26 1.79   4 2.19
  93  0.071  0.504  0.014-  26 1.80   5 2.15
 

IMPORTANT INFORMATION: All symmetrisations will be switched off!
NOSYMM: (Re-)initialisation of all symmetry stuff for point group C_1.


----------------------------------------------------------------------------------------

                                     Primitive cell                                     

  volume of cell :    1336.3476

  direct lattice vectors                    reciprocal lattice vectors
    22.785142899  0.000000000  0.000000000     0.043888248  0.000000000  0.028932614
     0.000000000  3.876850367  0.000000000     0.000000000  0.257941346 -0.000000041
    -9.973051630  0.000002413 15.128248185     0.000000000  0.000000000  0.066101507

  length of vectors
    22.785142899  3.876850367 18.119758606     0.052566857  0.257941346  0.066101507

  position of ions in fractional coordinates (direct lattice)
     0.329026044  0.813773374  0.627253136
     0.367065480  0.007572609  0.046055983
     0.634130990  0.007819753  0.954354648
     0.865124114  0.507824863  0.044525050
     0.131421759  0.509441876  0.955159692
     0.248676091  0.003604033  0.137401725
     0.752115688  0.003208072  0.861462601
     0.747771005  0.503134739  0.137941868
     0.249690016  0.503381307  0.864761135
     0.129678508  0.997335645  0.230223719
     0.869015077  0.998592785  0.767204803
     0.631502352  0.498492829  0.233055598
     0.371220858  0.495997078  0.775213317
     0.418927036  0.966606834  0.379509286
     0.583967469  0.967198149  0.617419777
     0.917489520  0.467170867  0.381588505
     0.082234523  0.467192726  0.620120554
     0.296720023  0.003302302  0.467430526
     0.702418248  0.003506537  0.526189242
     0.798656385  0.503671448  0.473086072
     0.198187766  0.502832143  0.523564361
     0.467143540  0.001159582  0.713845812
     0.536676720  0.001770702  0.287009823
     0.963666896  0.501651723  0.712322843
     0.032922947  0.501393758  0.283894935
     0.999308134  0.251923625  0.000160185
     0.500823749  0.752944076  0.001038508
     0.000286393  0.490921014  0.500351313
     0.500770234  0.991198647  0.499103796
     0.148672378  0.004470378  0.991355577
     0.849866101  0.003964182  0.008482320
     0.649081618  0.504356925  0.990448974
     0.350880586  0.504023302  0.009403658
     0.303310665  0.003078722  0.081798873
     0.696220890  0.003808895  0.917499243
     0.802839558  0.503303335  0.081322149
     0.196301574  0.502017743  0.919933223
     0.033785284  0.999173866  0.098826309
     0.965567894  0.999941901  0.902292484
     0.534404740  0.501644321  0.098791009
     0.466590115  0.500221612  0.901401857
     0.449748306  0.003845093  0.155734099
     0.549941259  0.003095243  0.843829478
     0.948970844  0.503370635  0.155227852
     0.050123586  0.505148090  0.844607643
     0.179837552  0.001937580  0.177750735
     0.819977720  0.003116910  0.822546713
     0.679829039  0.502942593  0.177101082
     0.319634970  0.500330899  0.824448270
     0.048783528  0.001245213  0.270273737
     0.950500714  0.001838327  0.730185923
     0.549908538  0.501689898  0.269760462
     0.450708181  0.501076552  0.728244228
     0.325387439  0.999659010  0.249927004
     0.674474355  0.999458297  0.749747595
     0.825319511  0.499211757  0.249613106
     0.174398589  0.499793242  0.751189793
     0.476258326  0.998507970  0.325968206
     0.522997452  0.999462092  0.670705940
     0.976142072  0.499439169  0.326781890
     0.024066639  0.498461643  0.673627120
     0.206622217  0.001731807  0.349052600
     0.792946812  0.001915815  0.651104573
     0.707635616  0.502115854  0.349075000
     0.296455586  0.501604675  0.653095174
     0.353936876  0.000708740  0.426072979
     0.648194280  0.999273686  0.574341066
     0.852777421  0.500238781  0.425471242
     0.148045549  0.499953390  0.575630649
     0.222813969  0.002473136  0.522716299
     0.778784433  0.003066564  0.481190181
     0.721946312  0.502928590  0.518519552
     0.279560225  0.502676014  0.481243072
     0.375535199  0.002048546  0.597468969
     0.621829670  0.002585709  0.403954211
     0.878499279  0.502763287  0.595981844
     0.121646979  0.502187865  0.403942428
     0.091089956  0.992757675  0.631181631
     0.910011879  0.992949264  0.368733912
     0.589937332  0.492830031  0.631028486
     0.409471691  0.492513454  0.369008280
     0.392265434  0.999788071  0.768242558
     0.605907677  0.001111059  0.231927805
     0.894508655  0.501003770  0.768274470
     0.105724194  0.500335501  0.231991629
     0.275408162  0.003037016  0.897189454
     0.723971030  0.003604575  0.102671906
     0.775385651  0.503622338  0.896495178
     0.224231054  0.503671546  0.104141635
     0.429407660  0.004353902  0.987408985
     0.571499852  0.004913825  0.013536979
     0.928059592  0.502559928  0.986966308
     0.070972083  0.503792150  0.013515426

  ion indices of the primitive-cell ions
   primitive index   ion index
                 1           1
                 2           2
                 3           3
                 4           4
                 5           5
                 6           6
                 7           7
                 8           8
                 9           9
                10          10
                11          11
                12          12
                13          13
                14          14
                15          15
                16          16
                17          17
                18          18
                19          19
                20          20
                21          21
                22          22
                23          23
                24          24
                25          25
                26          26
                27          27
                28          28
                29          29
                30          30
                31          31
                32          32
                33          33
                34          34
                35          35
                36          36
                37          37
                38          38
                39          39
                40          40
                41          41
                42          42
                43          43
                44          44
                45          45
                46          46
                47          47
                48          48
                49          49
                50          50
                51          51
                52          52
                53          53
                54          54
                55          55
                56          56
                57          57
                58          58
                59          59
                60          60
                61          61
                62          62
                63          63
                64          64
                65          65
                66          66
                67          67
                68          68
                69          69
                70          70
                71          71
                72          72
                73          73
                74          74
                75          75
                76          76
                77          77
                78          78
                79          79
                80          80
                81          81
                82          82
                83          83
                84          84
                85          85
                86          86
                87          87
                88          88
                89          89
                90          90
                91          91
                92          92
                93          93

----------------------------------------------------------------------------------------

 
 
 KPOINTS: pymatgen with grid density = 1000 / numb

Automatic generation of k-mesh.
 Grid dimensions read from file:
 generate k-points for:    1    6    1

 Generating k-lattice:

  Cartesian coordinates                     Fractional coordinates (reciprocal lattice)
     0.043888248  0.000000000  0.028932614     1.000000000  0.000000000 -0.000000000
     0.000000000  0.042990224 -0.000000007     0.000000000  0.166666667  0.000000000
     0.000000000  0.000000000  0.066101507     0.000000000  0.000000000  1.000000000

  Length of vectors
     0.052566857  0.042990224  0.066101507

  Shift w.r.t. Gamma in fractional coordinates (k-lattice)
     0.000000000  0.000000000  0.000000000

 
 Subroutine IBZKPT returns following result:
 ===========================================
 
 Found      4 irreducible k-points:
 
 Following reciprocal coordinates:
            Coordinates               Weight
  0.000000  0.000000  0.000000      1.000000
  0.000000  0.166667  0.000000      2.000000
  0.000000  0.333333  0.000000      2.000000
  0.000000  0.500000  0.000000      1.000000
 
 Following cartesian coordinates:
            Coordinates               Weight
  0.000000  0.000000  0.000000      1.000000
  0.000000  0.042990 -0.000000      2.000000
  0.000000  0.085980 -0.000000      2.000000
  0.000000  0.128971 -0.000000      1.000000
 


--------------------------------------------------------------------------------------------------------




 Dimension of arrays:
   k-points           NKPTS =      4   k-points in BZ     NKDIM =      4   number of bands    NBANDS=    462
   number of dos      NEDOS =    301   number of ions     NIONS =     93
   non local maximal  LDIM  =      6   non local SUM 2l+1 LMDIM =     18
   total plane-waves  NPLWV = 756000
   max r-space proj   IRMAX =      1   max aug-charges    IRDMAX= 278808
   dimension x,y,z NGX =   180 NGY =   30 NGZ =  140
   dimension x,y,z NGXF=   360 NGYF=   60 NGZF=  280
   support grid    NGXF=   720 NGYF=  120 NGZF=  560
   ions per type =               1  24   2  66
   NGX,Y,Z   is equivalent  to a cutoff of  13.13, 12.86, 12.84 a.u.
   NGXF,Y,Z  is equivalent  to a cutoff of  26.27, 25.73, 25.69 a.u.

 SYSTEM =  unknown system                          
 POSCAR =  Li   Nb   Mo   O                        

 Startparameter for this run:
   NWRITE =      2    write-flag & timer
   PREC   = accura    normal or accurate (medium, high low for compatibility)
   ISTART =      0    job   : 0-new  1-cont  2-samecut
   ICHARG =      2    charge: 1-file 2-atom 10-const
   ISPIN  =      2    spin polarized calculation?
   LNONCOLLINEAR =      F non collinear calculations
   LSORBIT =      F    spin-orbit coupling
   INIWAV =      1    electr: 0-lowe 1-rand  2-diag
   LASPH  =      T    aspherical Exc in radial PAW
 Electronic Relaxation 1
   ENCUT  =  520.0 eV  38.22 Ry    6.18 a.u.  42.37  7.21 33.69*2*pi/ulx,y,z
   ENINI  =  520.0     initial cutoff
   ENAUG  =  605.4 eV  augmentation charge cutoff
   NELM   =    100;   NELMIN=  3; NELMDL= -5     # of ELM steps 
   EDIFF  = 0.1E-05   stopping-criterion for ELM
   LREAL  =      F    real-space projection
   NLSPLINE    = F    spline interpolate recip. space projectors
   LCOMPAT=      F    compatible to vasp.4.4
   GGA_COMPAT  = T    GGA compatible to vasp.4.4-vasp.4.6
   LMAXPAW     = -100 max onsite density
   LMAXMIX     =    4 max onsite mixed and CHGCAR
   VOSKOWN=      0    Vosko Wilk Nusair interpolation
   ROPT   =    0.00000   0.00000   0.00000   0.00000
 Ionic relaxation
   EDIFFG = -.5E-01   stopping-criterion for IOM
   NSW    =    450    number of steps for IOM
   NBLOCK =      1;   KBLOCK =    450    inner block; outer block 
   IBRION =      1    ionic relax: 0-MD 1-quasi-New 2-CG
   NFREE  =      0    steps in history (QN), initial steepest desc. (CG)
   ISIF   =      2    stress and relaxation
   IWAVPR =     11    prediction:  0-non 1-charg 2-wave 3-comb
   ISYM   =      0    0-nonsym 1-usesym 2-fastsym
   LCORR  =      T    Harris-Foulkes like correction to forces

   POTIM  = 0.2000    time-step for ionic-motion
   TEIN   =    0.0    initial temperature
   TEBEG  =    0.0;   TEEND  =   0.0 temperature during run
   SMASS  =  -3.00    Nose mass-parameter (am)
   estimated Nose-frequenzy (Omega)   =  0.10E-29 period in steps = 0.31E+47 mass=  -0.119E-25a.u.
   SCALEE = 1.0000    scale energy and forces
   NPACO  =    256;   APACO  = 10.0  distance and # of slots for P.C.
   PSTRESS=    0.0 pullay stress

  Mass of Ions in am
   POMASS =   7.01 92.00 95.94 16.00
  Ionic Valenz
   ZVAL   =   3.00 11.00 12.00  6.00
  Atomic Wigner-Seitz radii
   RWIGS  =  -1.00 -1.00 -1.00 -1.00
  virtual crystal weights 
   VCA    =   1.00  1.00  1.00  1.00
   NELECT =     687.0000    total number of electrons
   NUPDOWN=      -1.0000    fix difference up-down

 DOS related values:
   EMIN   =  10.00;   EMAX   =-10.00  energy-range for DOS
   EFERMI =   0.00
   ISMEAR =     0;   SIGMA  =   0.05  broadening in eV -4-tet -1-fermi 0-gaus

 Electronic relaxation 2 (details)
   IALGO  =     68    algorithm
   LDIAG  =      T    sub-space diagonalisation (order eigenvalues)
   LSUBROT=      F    optimize rotation matrix (better conditioning)
   TURBO    =      0    0=normal 1=particle mesh
   IRESTART =      0    0=no restart 2=restart with 2 vectors
   NREBOOT  =      0    no. of reboots
   NMIN     =      0    reboot dimension
   EREF     =   0.00    reference energy to select bands
   IMIX   =      4    mixing-type and parameters
     AMIX     =   0.40;   BMIX     =  1.00
     AMIX_MAG =   1.60;   BMIX_MAG =  1.00
     AMIN     =   0.10
     WC   =   100.;   INIMIX=   1;  MIXPRE=   1;  MAXMIX= -45

 Intra band minimization:
   WEIMIN = 0.0010     energy-eigenvalue tresh-hold
   EBREAK =  0.54E-09  absolut break condition
   DEPER  =   0.30     relativ break condition  

   TIME   =   0.40     timestep for ELM

  volume/ion in A,a.u.               =      14.37        96.97
  Fermi-wavevector in a.u.,A,eV,Ry     =   1.311457  2.478294 23.400912  1.719918
  Thomas-Fermi vector in A             =   2.441917
 
 Write flags
   LWAVE        =      F    write WAVECAR
   LDOWNSAMPLE  =      F    k-point downsampling of WAVECAR
   LCHARG       =      T    write CHGCAR
   LVTOT        =      F    write LOCPOT, total local potential
   LVHAR        =      F    write LOCPOT, Hartree potential only
   LELF         =      F    write electronic localiz. function (ELF)
   LORBIT       =     11    0 simple, 1 ext, 2 COOP (PROOUT), +10 PAW based schemes


 Dipole corrections
   LMONO  =      F    monopole corrections only (constant potential shift)
   LDIPOL =      F    correct potential (dipole corrections)
   IDIPOL =      0    1-x, 2-y, 3-z, 4-all directions 
   EPSILON=  1.0000000 bulk dielectric constant

 LDA+U is selected, type is set to LDAUTYPE =  2
   angular momentum for each species LDAUL =     0    0    2    0
   U (eV)           for each species LDAUU =   0.0  0.0  4.4  0.0
   J (eV)           for each species LDAUJ =   0.0  0.0  0.0  0.0
 Exchange correlation treatment:
   GGA     =    --    GGA type
   LEXCH   =     8    internal setting for exchange type
   LIBXC   =     F    Libxc                    
   VOSKOWN =     0    Vosko Wilk Nusair interpolation
   LHFCALC =     F    Hartree Fock is set to
   LHFONE  =     F    Hartree Fock one center treatment
   AEXX    =    0.0000 exact exchange contribution

 Linear response parameters
   LEPSILON=     F    determine dielectric tensor
   LRPA    =     F    only Hartree local field effects (RPA)
   LNABLA  =     F    use nabla operator in PAW spheres
   LVEL    =     F    velocity operator in full k-point grid
   CSHIFT  =0.1000    complex shift for real part using Kramers Kronig
   OMEGAMAX=  -1.0    maximum frequency
   DEG_THRESHOLD= 0.2000000E-02 threshold for treating states as degnerate
   RTIME   =   -0.100 relaxation time in fs
  (WPLASMAI=    0.000 imaginary part of plasma frequency in eV, 0.658/RTIME)
   DFIELD  = 0.0000000 0.0000000 0.0000000 field for delta impulse in time
 
  Optional k-point grid parameters
   LKPOINTS_OPT  =     F    use optional k-point grid
   KPOINTS_OPT_MODE=     1    mode for optional k-point grid
 
 Orbital magnetization related:
   ORBITALMAG=     F  switch on orbital magnetization
   LCHIMAG   =     F  perturbation theory with respect to B field
   DQ        =  0.001000  dq finite difference perturbation B field
   LLRAUG    =     F  two centre corrections for induced B field



--------------------------------------------------------------------------------------------------------


 quasi-Newton-method for relaxation of ions
 charge density and potential will be updated during run
 spin polarized calculation
 RMM-DIIS sequential band-by-band and
  variant of blocked Davidson during initial phase
 perform sub-space diagonalisation
    before iterative eigenvector-optimisation
 modified Broyden-mixing scheme, WC =      100.0
 initial mixing is a Kerker type mixing with AMIX =  0.4000 and BMIX =      1.0000
 Hartree-type preconditioning will be used
 using additional bands          118
 reciprocal scheme for non local part
 use partial core corrections
 calculate Harris-corrections to forces 
   (improved forces if not selfconsistent)
 use gradient corrections 
 use of overlap-Matrix (Vanderbilt PP)
 Gauss-broadening in eV      SIGMA  =   0.05


--------------------------------------------------------------------------------------------------------


  energy-cutoff  :      520.00
  volume of cell :     1336.35
      direct lattice vectors                 reciprocal lattice vectors
    22.785142899  0.000000000  0.000000000     0.043888248  0.000000000  0.028932614
     0.000000000  3.876850367  0.000000000     0.000000000  0.257941346 -0.000000041
    -9.973051630  0.000002413 15.128248185     0.000000000  0.000000000  0.066101507

  length of vectors
    22.785142899  3.876850367 18.119758606     0.052566857  0.257941346  0.066101507


 
 k-points in units of 2pi/SCALE and weight: pymatgen with grid density = 1000 / numb
   0.00000000  0.00000000  0.00000000       0.167
   0.00000000  0.04299022 -0.00000001       0.333
   0.00000000  0.08598045 -0.00000001       0.333
   0.00000000  0.12897067 -0.00000002       0.167
 
 k-points in reciprocal lattice and weights: pymatgen with grid density = 1000 / numb
   0.00000000  0.00000000  0.00000000       0.167
   0.00000000  0.16666667  0.00000000       0.333
   0.00000000  0.33333333  0.00000000       0.333
   0.00000000  0.50000000  0.00000000       0.167
 
 position of ions in fractional coordinates (direct lattice) 
   0.32902604  0.81377337  0.62725314
   0.36706548  0.00757261  0.04605598
   0.63413099  0.00781975  0.95435465
   0.86512411  0.50782486  0.04452505
   0.13142176  0.50944188  0.95515969
   0.24867609  0.00360403  0.13740172
   0.75211569  0.00320807  0.86146260
   0.74777101  0.50313474  0.13794187
   0.24969002  0.50338131  0.86476113
   0.12967851  0.99733564  0.23022372
   0.86901508  0.99859278  0.76720480
   0.63150235  0.49849283  0.23305560
   0.37122086  0.49599708  0.77521332
   0.41892704  0.96660683  0.37950929
   0.58396747  0.96719815  0.61741978
   0.91748952  0.46717087  0.38158851
   0.08223452  0.46719273  0.62012055
   0.29672002  0.00330230  0.46743053
   0.70241825  0.00350654  0.52618924
   0.79865639  0.50367145  0.47308607
   0.19818777  0.50283214  0.52356436
   0.46714354  0.00115958  0.71384581
   0.53667672  0.00177070  0.28700982
   0.96366690  0.50165172  0.71232284
   0.03292295  0.50139376  0.28389494
   0.99930813  0.25192362  0.00016018
   0.50082375  0.75294408  0.00103851
   0.00028639  0.49092101  0.50035131
   0.50077023  0.99119865  0.49910380
   0.14867238  0.00447038  0.99135558
   0.84986610  0.00396418  0.00848232
   0.64908162  0.50435692  0.99044897
   0.35088059  0.50402330  0.00940366
   0.30331066  0.00307872  0.08179887
   0.69622089  0.00380889  0.91749924
   0.80283956  0.50330333  0.08132215
   0.19630157  0.50201774  0.91993322
   0.03378528  0.99917387  0.09882631
   0.96556789  0.99994190  0.90229248
   0.53440474  0.50164432  0.09879101
   0.46659011  0.50022161  0.90140186
   0.44974831  0.00384509  0.15573410
   0.54994126  0.00309524  0.84382948
   0.94897084  0.50337064  0.15522785
   0.05012359  0.50514809  0.84460764
   0.17983755  0.00193758  0.17775073
   0.81997772  0.00311691  0.82254671
   0.67982904  0.50294259  0.17710108
   0.31963497  0.50033090  0.82444827
   0.04878353  0.00124521  0.27027374
   0.95050071  0.00183833  0.73018592
   0.54990854  0.50168990  0.26976046
   0.45070818  0.50107655  0.72824423
   0.32538744  0.99965901  0.24992700
   0.67447435  0.99945830  0.74974759
   0.82531951  0.49921176  0.24961311
   0.17439859  0.49979324  0.75118979
   0.47625833  0.99850797  0.32596821
   0.52299745  0.99946209  0.67070594
   0.97614207  0.49943917  0.32678189
   0.02406664  0.49846164  0.67362712
   0.20662222  0.00173181  0.34905260
   0.79294681  0.00191582  0.65110457
   0.70763562  0.50211585  0.34907500
   0.29645559  0.50160468  0.65309517
   0.35393688  0.00070874  0.42607298
   0.64819428  0.99927369  0.57434107
   0.85277742  0.50023878  0.42547124
   0.14804555  0.49995339  0.57563065
   0.22281397  0.00247314  0.52271630
   0.77878443  0.00306656  0.48119018
   0.72194631  0.50292859  0.51851955
   0.27956023  0.50267601  0.48124307
   0.37553520  0.00204855  0.59746897
   0.62182967  0.00258571  0.40395421
   0.87849928  0.50276329  0.59598184
   0.12164698  0.50218786  0.40394243
   0.09108996  0.99275767  0.63118163
   0.91001188  0.99294926  0.36873391
   0.58993733  0.49283003  0.63102849
   0.40947169  0.49251345  0.36900828
   0.39226543  0.99978807  0.76824256
   0.60590768  0.00111106  0.23192781
   0.89450866  0.50100377  0.76827447
   0.10572419  0.50033550  0.23199163
   0.27540816  0.00303702  0.89718945
   0.72397103  0.00360458  0.10267191
   0.77538565  0.50362234  0.89649518
   0.22423105  0.50367155  0.10414164
   0.42940766  0.00435390  0.98740898
   0.57149985  0.00491383  0.01353698
   0.92805959  0.50255993  0.98696631
   0.07097208  0.50379215  0.01351543
 
 position of ions in cartesian coordinates  (Angst):
   1.24127753  3.15487912  9.48924112
   7.90432071  0.02935798  0.69674635
   4.93093705  0.03031831 14.43771397
  19.26792593  1.96876111  0.67358601
  -6.53139336  1.97503223 14.44989288
   4.29580577  0.01397263  2.07864740
   8.54565244  0.01243929 13.03242002
  15.66236783  1.95057843  2.08681882
  -2.93508476  1.95153609 13.08232106
   0.65871031  3.86652162  3.48288155
  12.14925960  3.87139666 11.60646467
  12.06459581  1.93258267  3.52572293
   0.72707786  1.92290832 11.72761946
   5.76044668  3.74739097  5.74131066
   7.14822291  3.74968399  9.34047962
  17.09952796  1.81115247  5.77276561
  -4.31076894  1.81123779  9.38133764
   2.09909935  0.01280366  7.07140501
  10.75698769  0.01359559  7.96032144
  13.47938805  1.95265998  7.15696351
  -0.70579784  1.94940624  7.92061160
   3.52471117  0.00449725 10.79923661
   9.36589197  0.00686544  4.34195583
  14.85325545  1.94483038 10.77619676
  -2.08114480  1.94382926  4.29483304
  22.76778111  0.97667020  0.00242331
  11.40098359  2.91905152  0.01571081
  -4.98350399  1.90322852  7.56943885
   6.43253342  3.84273004  7.55056610
  -6.49931896  0.01733338 14.99747320
  19.27972593  0.01536856  0.12832264
   4.91161866  1.95531872 14.98375789
   7.90108112  1.95402295  0.14226087
   6.09519245  0.01193594  1.23747365
   6.71322514  0.01476873 13.88015626
  17.48178406  1.95123191  1.23026165
  -4.70178212  1.94624989 13.91697811
  -0.21579735  3.87364781  1.49506892
  13.00199293  3.87662730 13.65010463
  11.19124053  1.94480021  1.49453490
   1.64159518  1.93928652 13.63663101
   8.69443522  0.01490723  2.35598410
   4.11493523  0.01200183 12.76566177
  20.07434089  1.95149301  2.34832548
  -7.28124256  1.95838560 12.77743405
   2.32490707  0.00751213  2.68905723
  10.48000870  0.01208578 12.44369081
  13.72376357  1.94983360  2.67922912
  -0.93933670  1.93971002 12.47245805
  -1.58391428  0.00482816  4.08876816
  14.37511270  0.00712868 11.04643386
   9.83940959  1.94497732  4.08100323
   3.00663302  1.94260057 11.01705942
   4.92146438  3.87552900  3.78095774
   7.89072309  3.87475207 11.34236769
  16.31561859  1.93536989  3.77620902
  -3.51795782  1.93762543 11.36418562
   7.60071626  3.87106678  4.93132792
   5.22758671  3.87476660 10.14660592
  18.98252394  1.93625171  4.94363754
  -6.16975623  1.93246283 10.19079826
   1.22679713  0.00671480  5.28055437
  11.57390689  0.00742890  9.85007158
  12.64223563  1.94662887  5.28089324
   0.24143099  1.94464785  9.88018588
   3.81525448  0.00274871  6.44573777
   9.04126619  3.87403594  8.68877418
  15.18740874  1.93935193  6.43663455
  -2.36755519  1.93824587  8.70828332
  -0.13622851  0.00958924  7.90778189
  12.94578008  0.01188977  7.27956449
  11.27842762  1.94978014  7.84429247
   1.57035767  1.94880085  7.28036464
   2.59803430  0.00794335  9.03865885
  10.13982168  0.01002538  6.11111956
  14.07297392  1.94913947  9.01616125
  -1.25679488  1.94690818  6.11094130
  -4.21930934  3.84877448  9.54867236
  17.05734835  3.84951661  5.57829814
   7.14852675  1.91062981  9.54635555
   5.64973235  1.90940186  5.58244885
   1.27610126  3.87603060 11.62216408
  11.49266503  0.00430797  3.50866140
  12.71946658  1.94231850 11.62264685
   0.09527638  1.93972643  3.50962694
  -2.67250242  0.01177622 13.57290473
  15.47183115  0.01397465  1.55324607
   8.72648016  1.95247061 13.56240155
   4.07052670  1.95265947  1.57548050
  -0.06336589  0.01688181 14.93776818
  12.88670080  0.01905020  0.20479078
  11.30290447  1.94835202 14.93107126
   1.48231902  1.95312681  0.20446472
 


--------------------------------------------------------------------------------------------------------


 k-point   1 :   0.0000 0.0000 0.0000  plane waves:   36029
 k-point   2 :   0.0000 0.1667 0.0000  plane waves:   35947
 k-point   3 :   0.0000 0.3333 0.0000  plane waves:   35982
 k-point   4 :   0.0000 0.5000 0.0000  plane waves:   36018

 maximum and minimum number of plane-waves per node :     36029    35947

 maximum number of plane-waves:     36029
 maximum index in each direction: 
   IXMAX=   42   IYMAX=    7   IZMAX=   33
   IXMIN=  -42   IYMIN=   -7   IZMIN=  -33


 serial   3D FFT for wavefunctions
 parallel 3D FFT for charge:
    minimum data exchange during FFTs selected (reduces bandwidth)


 total amount of memory used by VASP MPI-rank0   321868. kBytes
=======================================================================

   base      :      30000. kBytes
   nonl-proj :     136648. kBytes
   fftplans  :      24917. kBytes
   grid      :      75254. kBytes
   one-center:       2892. kBytes
   wavefun   :      52157. kBytes
 
     INWAV:  cpu time      0.0000: real time      0.0000
 Broyden mixing: mesh for mixing (old mesh)
   NGX = 85   NGY = 15   NGZ = 67
  (NGX  =360   NGY  = 60   NGZ  =280)
  gives a total of  85425 points

 initial charge density was supplied:
 charge density of overlapping atoms calculated
 number of electron     687.0000000 magnetization      55.8000000
 keeping initial charge density in first step


--------------------------------------------------------------------------------------------------------


 Maximum index for augmentation-charges         9955 (set IRDMAX)


--------------------------------------------------------------------------------------------------------


 First call to EWALD:  gamma=   0.161
 Maximum number of real-space cells 2x 7x 2
 Maximum number of reciprocal cells 5x 1x 4

    FEWALD:  cpu time      0.0049: real time      0.0049


--------------------------------------- Iteration      1(   1)  ---------------------------------------


    POTLOK:  cpu time      0.2108: real time      0.2132
    SETDIJ:  cpu time      0.9157: real time      0.9205
atom =   1  type =  1  l = 0
 
 onsite density matrix
 
spin component  1
 
  1.2642
 
spin component  2
 
  0.8428
 
 occupancies and eigenvectors
 
  o =  0.8428  v =  0.0000  1.0000      0.0000  0.0000
  o =  1.2642  v =  1.0000  0.0000      0.0000  0.0000
 
atom =   2  type =  2  l = 0
 
 onsite density matrix
 
spin component  1
 
  0.1347
 
spin component  2
 
  0.1207
 
 occupancies and eigenvectors
 
  o =  0.1207  v =  0.0000  1.0000      0.0000  0.0000
  o =  0.1347  v =  1.0000  0.0000      0.0000  0.0000
 
atom =   3  type =  2  l = 0
 
 onsite density matrix
 
spin component  1
 
  0.1347
 
spin component  2
 
  0.1207
 
 occupancies and eigenvectors
 
  o =  0.1207  v =  0.0000  1.0000      0.0000  0.0000
  o =  0.1347  v =  1.0000  0.0000      0.0000  0.0000
 
atom =   4  type =  2  l = 0
 
 onsite density matrix
 
spin component  1
 
  0.1347
 
spin component  2
 
  0.1207
 
 occupancies and eigenvectors
 
  o =  0.1207  v =  0.0000  1.0000      0.0000  0.0000
  o =  0.1347  v =  1.0000  0.0000      0.0000  0.0000
 
atom =   5  type =  2  l = 0
 
 onsite density matrix
 
spin component  1
 
  0.1347
 
spin component  2
 
  0.1207
 
 occupancies and eigenvectors
 
  o =  0.1207  v =  0.0000  1.0000      0.0000  0.0000
  o =  0.1347  v =  1.0000  0.0000      0.0000  0.0000
 
atom =   6  type =  2  l = 0
 
 onsite density matrix
 
spin component  1
 
  0.1347
 
spin component  2
 
  0.1207
 
 occupancies and eigenvectors
 
  o =  0.1207  v =  0.0000  1.0000      0.0000  0.0000
  o =  0.1347  v =  1.0000  0.0000      0.0000  0.0000
 
atom =   7  type =  2  l = 0
 
 onsite density matrix
 
spin component  1
 
  0.1347
 
spin component  2
 
  0.1207
 
 occupancies and eigenvectors
 
  o =  0.1207  v =  0.0000  1.0000      0.0000  0.0000
  o =  0.1347  v =  1.0000  0.0000      0.0000  0.0000
 
atom =   8  type =  2  l = 0
 
 onsite density matrix
 
spin component  1
 
  0.1347
 
spin component  2
 
  0.1207
 
 occupancies and eigenvectors
 
  o =  0.1207  v =  0.0000  1.0000      0.0000  0.0000
  o =  0.1347  v =  1.0000  0.0000      0.0000  0.0000
 
atom =   9  type =  2  l = 0
 
 onsite density matrix
 
spin component  1
 
  0.1347
 
spin component  2
 
  0.1207
 
 occupancies and eigenvectors
 
  o =  0.1207  v =  0.0000  1.0000      0.0000  0.0000
  o =  0.1347  v =  1.0000  0.0000      0.0000  0.0000
 
atom =  10  type =  2  l = 0
 
 onsite density matrix
 
spin component  1
 
  0.1347
 
spin component  2
 
  0.1207
 
 occupancies and eigenvectors
 
  o =  0.1207  v =  0.0000  1.0000      0.0000  0.0000
  o =  0.1347  v =  1.0000  0.0000      0.0000  0.0000
 
atom =  11  type =  2  l = 0
 
 onsite density matrix
 
spin component  1
 
  0.1347
 
spin component  2
 
  0.1207
 
 occupancies and eigenvectors
 
  o =  0.1207  v =  0.0000  1.0000      0.0000  0.0000
  o =  0.1347  v =  1.0000  0.0000      0.0000  0.0000
 
atom =  12  type =  2  l = 0
 
 onsite density matrix
 
spin component  1
 
  0.1347
 
spin component  2
 
  0.1207
 
 occupancies and eigenvectors
 
  o =  0.1207  v =  0.0000  1.0000      0.0000  0.0000
  o =  0.1347  v =  1.0000  0.0000      0.0000  0.0000
 
atom =  13  type =  2  l = 0
 
 onsite density matrix
 
spin component  1
 
  0.1347
 
spin component  2
 
  0.1207
 
 occupancies and eigenvectors
 
  o =  0.1207  v =  0.0000  1.0000      0.0000  0.0000
  o =  0.1347  v =  1.0000  0.0000      0.0000  0.0000
 
atom =  14  type =  2  l = 0
 
 onsite density matrix
 
spin component  1
 
  0.1347
 
spin component  2
 
  0.1207
 
 occupancies and eigenvectors
 
  o =  0.1207  v =  0.0000  1.0000      0.0000  0.0000
  o =  0.1347  v =  1.0000  0.0000      0.0000  0.0000
 
atom =  15  type =  2  l = 0
 
 onsite density matrix
 
spin component  1
 
  0.1347
 
spin component  2
 
  0.1207
 
 occupancies and eigenvectors
 
  o =  0.1207  v =  0.0000  1.0000      0.0000  0.0000
  o =  0.1347  v =  1.0000  0.0000      0.0000  0.0000
 
atom =  16  type =  2  l = 0
 
 onsite density matrix
 
spin component  1
 
  0.1347
 
spin component  2
 
  0.1207
 
 occupancies and eigenvectors
 
  o =  0.1207  v =  0.0000  1.0000      0.0000  0.0000
  o =  0.1347  v =  1.0000  0.0000      0.0000  0.0000
 
atom =  17  type =  2  l = 0
 
 onsite density matrix
 
spin component  1
 
  0.1347
 
spin component  2
 
  0.1207
 
 occupancies and eigenvectors
 
  o =  0.1207  v =  0.0000  1.0000      0.0000  0.0000
  o =  0.1347  v =  1.0000  0.0000      0.0000  0.0000
 
atom =  18  type =  2  l = 0
 
 onsite density matrix
 
spin component  1
 
  0.1347
 
spin component  2
 
  0.1207
 
 occupancies and eigenvectors
 
  o =  0.1207  v =  0.0000  1.0000      0.0000  0.0000
  o =  0.1347  v =  1.0000  0.0000      0.0000  0.0000
 
atom =  19  type =  2  l = 0
 
 onsite density matrix
 
spin component  1
 
  0.1347
 
spin component  2
 
  0.1207
 
 occupancies and eigenvectors
 
  o =  0.1207  v =  0.0000  1.0000      0.0000  0.0000
  o =  0.1347  v =  1.0000  0.0000      0.0000  0.0000
 
atom =  20  type =  2  l = 0
 
 onsite density matrix
 
spin component  1
 
  0.1347
 
spin component  2
 
  0.1207
 
 occupancies and eigenvectors
 
  o =  0.1207  v =  0.0000  1.0000      0.0000  0.0000
  o =  0.1347  v =  1.0000  0.0000      0.0000  0.0000
 
atom =  21  type =  2  l = 0
 
 onsite density matrix
 
spin component  1
 
  0.1347
 
spin component  2
 
  0.1207
 
 occupancies and eigenvectors
 
  o =  0.1207  v =  0.0000  1.0000      0.0000  0.0000
  o =  0.1347  v =  1.0000  0.0000      0.0000  0.0000
 
atom =  22  type =  2  l = 0
 
 onsite density matrix
 
spin component  1
 
  0.1347
 
spin component  2
 
  0.1207
 
 occupancies and eigenvectors
 
  o =  0.1207  v =  0.0000  1.0000      0.0000  0.0000
  o =  0.1347  v =  1.0000  0.0000      0.0000  0.0000
 
atom =  23  type =  2  l = 0
 
 onsite density matrix
 
spin component  1
 
  0.1347
 
spin component  2
 
  0.1207
 
 occupancies and eigenvectors
 
  o =  0.1207  v =  0.0000  1.0000      0.0000  0.0000
  o =  0.1347  v =  1.0000  0.0000      0.0000  0.0000
 
atom =  24  type =  2  l = 0
 
 onsite density matrix
 
spin component  1
 
  0.1347
 
spin component  2
 
  0.1207
 
 occupancies and eigenvectors
 
  o =  0.1207  v =  0.0000  1.0000      0.0000  0.0000
  o =  0.1347  v =  1.0000  0.0000      0.0000  0.0000
 
atom =  25  type =  2  l = 0
 
 onsite density matrix
 
spin component  1
 
  0.1347
 
spin component  2
 
  0.1207
 
 occupancies and eigenvectors
 
  o =  0.1207  v =  0.0000  1.0000      0.0000  0.0000
  o =  0.1347  v =  1.0000  0.0000      0.0000  0.0000
 
atom =  26  type =  3  l = 2
 
 onsite density matrix
 
spin component  1
 
  0.4151  0.0000  0.0000  0.0000  0.0000
  0.0000  0.4151  0.0000  0.0000  0.0000
  0.0000  0.0000  0.4151  0.0000 -0.0000
  0.0000  0.0000  0.0000  0.4151  0.0000
  0.0000  0.0000 -0.0000  0.0000  0.4151
 
spin component  2
 
  0.3756  0.0000  0.0000  0.0000  0.0000
  0.0000  0.3756  0.0000  0.0000  0.0000
  0.0000  0.0000  0.3756  0.0000 -0.0000
  0.0000  0.0000  0.0000  0.3756  0.0000
  0.0000  0.0000 -0.0000  0.0000  0.3756
 
 occupancies and eigenvectors
 
  o =  0.3756  v =  0.0000  0.0000  0.0000  0.0000  0.0000  0.0000  0.0000  1.0000  0.0000  0.0000      0.0000  0.0000  0.0000  0.0000  0.0000  0.0000  0.0000  0.0000  0.0000  0.0000
  o =  0.3756  v =  0.0000  0.0000  0.0000  0.0000  0.0000  1.0000  0.0000  0.0000  0.0000  0.0000      0.0000  0.0000  0.0000  0.0000  0.0000  0.0000  0.0000  0.0000  0.0000  0.0000
  o =  0.3756  v =  0.0000  0.0000  0.0000  0.0000  0.0000  0.0000  1.0000  0.0000  0.0000  0.0000      0.0000  0.0000  0.0000  0.0000  0.0000  0.0000  0.0000  0.0000  0.0000  0.0000
  o =  0.3756  v =  0.0000  0.0000  0.0000  0.0000  0.0000  0.0000  0.0000  0.0000  1.0000  0.0000      0.0000  0.0000  0.0000  0.0000  0.0000  0.0000  0.0000  0.0000  0.0000  0.0000
  o =  0.3756  v =  0.0000  0.0000  0.0000  0.0000  0.0000  0.0000  0.0000  0.0000  0.0000  1.0000      0.0000  0.0000  0.0000  0.0000  0.0000  0.0000  0.0000  0.0000  0.0000  0.0000
  o =  0.4151  v =  0.0000  0.0000  1.0000  0.0000  0.0000  0.0000  0.0000  0.0000  0.0000  0.0000      0.0000  0.0000  0.0000  0.0000  0.0000  0.0000  0.0000  0.0000  0.0000  0.0000
  o =  0.4151  v =  0.0000  1.0000  0.0000  0.0000  0.0000  0.0000  0.0000  0.0000  0.0000  0.0000      0.0000  0.0000  0.0000  0.0000  0.0000  0.0000  0.0000  0.0000  0.0000  0.0000
  o =  0.4151  v =  1.0000  0.0000  0.0000  0.0000  0.0000  0.0000  0.0000  0.0000  0.0000  0.0000      0.0000  0.0000  0.0000  0.0000  0.0000  0.0000  0.0000  0.0000  0.0000  0.0000
  o =  0.4151  v =  0.0000  0.0000  0.0000  1.0000  0.0000  0.0000  0.0000  0.0000  0.0000  0.0000      0.0000  0.0000  0.0000  0.0000  0.0000  0.0000  0.0000  0.0000  0.0000  0.0000
  o =  0.4151  v =  0.0000  0.0000  0.0000  0.0000  1.0000  0.0000  0.0000  0.0000  0.0000  0.0000      0.0000  0.0000  0.0000  0.0000  0.0000  0.0000  0.0000  0.0000  0.0000  0.0000
 
atom =  27  type =  3  l = 2
 
 onsite density matrix
 
spin component  1
 
  0.4151  0.0000  0.0000  0.0000  0.0000
  0.0000  0.4151  0.0000  0.0000  0.0000
  0.0000  0.0000  0.4151  0.0000 -0.0000
  0.0000  0.0000  0.0000  0.4151  0.0000
  0.0000  0.0000 -0.0000  0.0000  0.4151
 
spin component  2
 
  0.3756  0.0000  0.0000  0.0000  0.0000
  0.0000  0.3756  0.0000  0.0000  0.0000
  0.0000  0.0000  0.3756  0.0000 -0.0000
  0.0000  0.0000  0.0000  0.3756  0.0000
  0.0000  0.0000 -0.0000  0.0000  0.3756
 
 occupancies and eigenvectors
 
  o =  0.3756  v =  0.0000  0.0000  0.0000  0.0000  0.0000  0.0000  0.0000  1.0000  0.0000  0.0000      0.0000  0.0000  0.0000  0.0000  0.0000  0.0000  0.0000  0.0000  0.0000  0.0000
  o =  0.3756  v =  0.0000  0.0000  0.0000  0.0000  0.0000  1.0000  0.0000  0.0000  0.0000  0.0000      0.0000  0.0000  0.0000  0.0000  0.0000  0.0000  0.0000  0.0000  0.0000  0.0000
  o =  0.3756  v =  0.0000  0.0000  0.0000  0.0000  0.0000  0.0000  1.0000  0.0000  0.0000  0.0000      0.0000  0.0000  0.0000  0.0000  0.0000  0.0000  0.0000  0.0000  0.0000  0.0000
  o =  0.3756  v =  0.0000  0.0000  0.0000  0.0000  0.0000  0.0000  0.0000  0.0000  1.0000  0.0000      0.0000  0.0000  0.0000  0.0000  0.0000  0.0000  0.0000  0.0000  0.0000  0.0000
  o =  0.3756  v =  0.0000  0.0000  0.0000  0.0000  0.0000  0.0000  0.0000  0.0000  0.0000  1.0000      0.0000  0.0000  0.0000  0.0000  0.0000  0.0000  0.0000  0.0000  0.0000  0.0000
  o =  0.4151  v =  0.0000  0.0000  1.0000  0.0000  0.0000  0.0000  0.0000  0.0000  0.0000  0.0000      0.0000  0.0000  0.0000  0.0000  0.0000  0.0000  0.0000  0.0000  0.0000  0.0000
  o =  0.4151  v =  0.0000  1.0000  0.0000  0.0000  0.0000  0.0000  0.0000  0.0000  0.0000  0.0000      0.0000  0.0000  0.0000  0.0000  0.0000  0.0000  0.0000  0.0000  0.0000  0.0000
  o =  0.4151  v =  1.0000  0.0000  0.0000  0.0000  0.0000  0.0000  0.0000  0.0000  0.0000  0.0000      0.0000  0.0000  0.0000  0.0000  0.0000  0.0000  0.0000  0.0000  0.0000  0.0000
  o =  0.4151  v =  0.0000  0.0000  0.0000  1.0000  0.0000  0.0000  0.0000  0.0000  0.0000  0.0000      0.0000  0.0000  0.0000  0.0000  0.0000  0.0000  0.0000  0.0000  0.0000  0.0000
  o =  0.4151  v =  0.0000  0.0000  0.0000  0.0000  1.0000  0.0000  0.0000  0.0000  0.0000  0.0000      0.0000  0.0000  0.0000  0.0000  0.0000  0.0000  0.0000  0.0000  0.0000  0.0000
 
atom =  28  type =  4  l = 0
 
 onsite density matrix
 
spin component  1
 
  0.8936
 
spin component  2
 
  0.7311
 
 occupancies and eigenvectors
 
  o =  0.7311  v =  0.0000  1.0000      0.0000  0.0000
  o =  0.8936  v =  1.0000  0.0000      0.0000  0.0000
 
atom =  29  type =  4  l = 0
 
 onsite density matrix
 
spin component  1
 
  0.8936
 
spin component  2
 
  0.7311
 
 occupancies and eigenvectors
 
  o =  0.7311  v =  0.0000  1.0000      0.0000  0.0000
  o =  0.8936  v =  1.0000  0.0000      0.0000  0.0000
 
atom =  30  type =  4  l = 0
 
 onsite density matrix
 
spin component  1
 
  0.8936
 
spin component  2
 
  0.7311
 
 occupancies and eigenvectors
 
  o =  0.7311  v =  0.0000  1.0000      0.0000  0.0000
  o =  0.8936  v =  1.0000  0.0000      0.0000  0.0000
 
atom =  31  type =  4  l = 0
 
 onsite density matrix
 
spin component  1
 
  0.8936
 
spin component  2
 
  0.7311
 
 occupancies and eigenvectors
 
  o =  0.7311  v =  0.0000  1.0000      0.0000  0.0000
  o =  0.8936  v =  1.0000  0.0000      0.0000  0.0000
 
atom =  32  type =  4  l = 0
 
 onsite density matrix
 
spin component  1
 
  0.8936
 
spin component  2
 
  0.7311
 
 occupancies and eigenvectors
 
  o =  0.7311  v =  0.0000  1.0000      0.0000  0.0000
  o =  0.8936  v =  1.0000  0.0000      0.0000  0.0000
 
atom =  33  type =  4  l = 0
 
 onsite density matrix
 
spin component  1
 
  0.8936
 
spin component  2
 
  0.7311
 
 occupancies and eigenvectors
 
  o =  0.7311  v =  0.0000  1.0000      0.0000  0.0000
  o =  0.8936  v =  1.0000  0.0000      0.0000  0.0000
 
atom =  34  type =  4  l = 0
 
 onsite density matrix
 
spin component  1
 
  0.8936
 
spin component  2
 
  0.7311
 
 occupancies and eigenvectors
 
  o =  0.7311  v =  0.0000  1.0000      0.0000  0.0000
  o =  0.8936  v =  1.0000  0.0000      0.0000  0.0000
 
atom =  35  type =  4  l = 0
 
 onsite density matrix
 
spin component  1
 
  0.8936
 
spin component  2
 
  0.7311
 
 occupancies and eigenvectors
 
  o =  0.7311  v =  0.0000  1.0000      0.0000  0.0000
  o =  0.8936  v =  1.0000  0.0000      0.0000  0.0000
 
atom =  36  type =  4  l = 0
 
 onsite density matrix
 
spin component  1
 
  0.8936
 
spin component  2
 
  0.7311
 
 occupancies and eigenvectors
 
  o =  0.7311  v =  0.0000  1.0000      0.0000  0.0000
  o =  0.8936  v =  1.0000  0.0000      0.0000  0.0000
 
atom =  37  type =  4  l = 0
 
 onsite density matrix
 
spin component  1
 
  0.8936
 
spin component  2
 
  0.7311
 
 occupancies and eigenvectors
 
  o =  0.7311  v =  0.0000  1.0000      0.0000  0.0000
  o =  0.8936  v =  1.0000  0.0000      0.0000  0.0000
 
atom =  38  type =  4  l = 0
 
 onsite density matrix
 
spin component  1
 
  0.8936
 
spin component  2
 
  0.7311
 
 occupancies and eigenvectors
 
  o =  0.7311  v =  0.0000  1.0000      0.0000  0.0000
  o =  0.8936  v =  1.0000  0.0000      0.0000  0.0000
 
atom =  39  type =  4  l = 0
 
 onsite density matrix
 
spin component  1
 
  0.8936
 
spin component  2
 
  0.7311
 
 occupancies and eigenvectors
 
  o =  0.7311  v =  0.0000  1.0000      0.0000  0.0000
  o =  0.8936  v =  1.0000  0.0000      0.0000  0.0000
 
atom =  40  type =  4  l = 0
 
 onsite density matrix
 
spin component  1
 
  0.8936
 
spin component  2
 
  0.7311
 
 occupancies and eigenvectors
 
  o =  0.7311  v =  0.0000  1.0000      0.0000  0.0000
  o =  0.8936  v =  1.0000  0.0000      0.0000  0.0000
 
atom =  41  type =  4  l = 0
 
 onsite density matrix
 
spin component  1
 
  0.8936
 
spin component  2
 
  0.7311
 
 occupancies and eigenvectors
 
  o =  0.7311  v =  0.0000  1.0000      0.0000  0.0000
  o =  0.8936  v =  1.0000  0.0000      0.0000  0.0000
 
atom =  42  type =  4  l = 0
 
 onsite density matrix
 
spin component  1
 
  0.8936
 
spin component  2
 
  0.7311
 
 occupancies and eigenvectors
 
  o =  0.7311  v =  0.0000  1.0000      0.0000  0.0000
  o =  0.8936  v =  1.0000  0.0000      0.0000  0.0000
 
atom =  43  type =  4  l = 0
 
 onsite density matrix
 
spin component  1
 
  0.8936
 
spin component  2
 
  0.7311
 
 occupancies and eigenvectors
 
  o =  0.7311  v =  0.0000  1.0000      0.0000  0.0000
  o =  0.8936  v =  1.0000  0.0000      0.0000  0.0000
 
atom =  44  type =  4  l = 0
 
 onsite density matrix
 
spin component  1
 
  0.8936
 
spin component  2
 
  0.7311
 
 occupancies and eigenvectors
 
  o =  0.7311  v =  0.0000  1.0000      0.0000  0.0000
  o =  0.8936  v =  1.0000  0.0000      0.0000  0.0000
 
atom =  45  type =  4  l = 0
 
 onsite density matrix
 
spin component  1
 
  0.8936
 
spin component  2
 
  0.7311
 
 occupancies and eigenvectors
 
  o =  0.7311  v =  0.0000  1.0000      0.0000  0.0000
  o =  0.8936  v =  1.0000  0.0000      0.0000  0.0000
 
atom =  46  type =  4  l = 0
 
 onsite density matrix
 
spin component  1
 
  0.8936
 
spin component  2
 
  0.7311
 
 occupancies and eigenvectors
 
  o =  0.7311  v =  0.0000  1.0000      0.0000  0.0000
  o =  0.8936  v =  1.0000  0.0000      0.0000  0.0000
 
atom =  47  type =  4  l = 0
 
 onsite density matrix
 
spin component  1
 
  0.8936
 
spin component  2
 
  0.7311
 
 occupancies and eigenvectors
 
  o =  0.7311  v =  0.0000  1.0000      0.0000  0.0000
  o =  0.8936  v =  1.0000  0.0000      0.0000  0.0000
 
atom =  48  type =  4  l = 0
 
 onsite density matrix
 
spin component  1
 
  0.8936
 
spin component  2
 
  0.7311
 
 occupancies and eigenvectors
 
  o =  0.7311  v =  0.0000  1.0000      0.0000  0.0000
  o =  0.8936  v =  1.0000  0.0000      0.0000  0.0000
 
atom =  49  type =  4  l = 0
 
 onsite density matrix
 
spin component  1
 
  0.8936
 
spin component  2
 
  0.7311
 
 occupancies and eigenvectors
 
  o =  0.7311  v =  0.0000  1.0000      0.0000  0.0000
  o =  0.8936  v =  1.0000  0.0000      0.0000  0.0000
 
atom =  50  type =  4  l = 0
 
 onsite density matrix
 
spin component  1
 
  0.8936
 
spin component  2
 
  0.7311
 
 occupancies and eigenvectors
 
  o =  0.7311  v =  0.0000  1.0000      0.0000  0.0000
  o =  0.8936  v =  1.0000  0.0000      0.0000  0.0000
 
atom =  51  type =  4  l = 0
 
 onsite density matrix
 
spin component  1
 
  0.8936
 
spin component  2
 
  0.7311
 
 occupancies and eigenvectors
 
  o =  0.7311  v =  0.0000  1.0000      0.0000  0.0000
  o =  0.8936  v =  1.0000  0.0000      0.0000  0.0000
 
atom =  52  type =  4  l = 0
 
 onsite density matrix
 
spin component  1
 
  0.8936
 
spin component  2
 
  0.7311
 
 occupancies and eigenvectors
 
  o =  0.7311  v =  0.0000  1.0000      0.0000  0.0000
  o =  0.8936  v =  1.0000  0.0000      0.0000  0.0000
 
atom =  53  type =  4  l = 0
 
 onsite density matrix
 
spin component  1
 
  0.8936
 
spin component  2
 
  0.7311
 
 occupancies and eigenvectors
 
  o =  0.7311  v =  0.0000  1.0000      0.0000  0.0000
  o =  0.8936  v =  1.0000  0.0000      0.0000  0.0000
 
atom =  54  type =  4  l = 0
 
 onsite density matrix
 
spin component  1
 
  0.8936
 
spin component  2
 
  0.7311
 
 occupancies and eigenvectors
 
  o =  0.7311  v =  0.0000  1.0000      0.0000  0.0000
  o =  0.8936  v =  1.0000  0.0000      0.0000  0.0000
 
atom =  55  type =  4  l = 0
 
 onsite density matrix
 
spin component  1
 
  0.8936
 
spin component  2
 
  0.7311
 
 occupancies and eigenvectors
 
  o =  0.7311  v =  0.0000  1.0000      0.0000  0.0000
  o =  0.8936  v =  1.0000  0.0000      0.0000  0.0000
 
atom =  56  type =  4  l = 0
 
 onsite density matrix
 
spin component  1
 
  0.8936
 
spin component  2
 
  0.7311
 
 occupancies and eigenvectors
 
  o =  0.7311  v =  0.0000  1.0000      0.0000  0.0000
  o =  0.8936  v =  1.0000  0.0000      0.0000  0.0000
 
atom =  57  type =  4  l = 0
 
 onsite density matrix
 
spin component  1
 
  0.8936
 
spin component  2
 
  0.7311
 
 occupancies and eigenvectors
 
  o =  0.7311  v =  0.0000  1.0000      0.0000  0.0000
  o =  0.8936  v =  1.0000  0.0000      0.0000  0.0000
 
atom =  58  type =  4  l = 0
 
 onsite density matrix
 
spin component  1
 
  0.8936
 
spin component  2
 
  0.7311
 
 occupancies and eigenvectors
 
  o =  0.7311  v =  0.0000  1.0000      0.0000  0.0000
  o =  0.8936  v =  1.0000  0.0000      0.0000  0.0000
 
atom =  59  type =  4  l = 0
 
 onsite density matrix
 
spin component  1
 
  0.8936
 
spin component  2
 
  0.7311
 
 occupancies and eigenvectors
 
  o =  0.7311  v =  0.0000  1.0000      0.0000  0.0000
  o =  0.8936  v =  1.0000  0.0000      0.0000  0.0000
 
atom =  60  type =  4  l = 0
 
 onsite density matrix
 
spin component  1
 
  0.8936
 
spin component  2
 
  0.7311
 
 occupancies and eigenvectors
 
  o =  0.7311  v =  0.0000  1.0000      0.0000  0.0000
  o =  0.8936  v =  1.0000  0.0000      0.0000  0.0000
 
atom =  61  type =  4  l = 0
 
 onsite density matrix
 
spin component  1
 
  0.8936
 
spin component  2
 
  0.7311
 
 occupancies and eigenvectors
 
  o =  0.7311  v =  0.0000  1.0000      0.0000  0.0000
  o =  0.8936  v =  1.0000  0.0000      0.0000  0.0000
 
atom =  62  type =  4  l = 0
 
 onsite density matrix
 
spin component  1
 
  0.8936
 
spin component  2
 
  0.7311
 
 occupancies and eigenvectors
 
  o =  0.7311  v =  0.0000  1.0000      0.0000  0.0000
  o =  0.8936  v =  1.0000  0.0000      0.0000  0.0000
 
atom =  63  type =  4  l = 0
 
 onsite density matrix
 
spin component  1
 
  0.8936
 
spin component  2
 
  0.7311
 
 occupancies and eigenvectors
 
  o =  0.7311  v =  0.0000  1.0000      0.0000  0.0000
  o =  0.8936  v =  1.0000  0.0000      0.0000  0.0000
 
atom =  64  type =  4  l = 0
 
 onsite density matrix
 
spin component  1
 
  0.8936
 
spin component  2
 
  0.7311
 
 occupancies and eigenvectors
 
  o =  0.7311  v =  0.0000  1.0000      0.0000  0.0000
  o =  0.8936  v =  1.0000  0.0000      0.0000  0.0000
 
atom =  65  type =  4  l = 0
 
 onsite density matrix
 
spin component  1
 
  0.8936
 
spin component  2
 
  0.7311
 
 occupancies and eigenvectors
 
  o =  0.7311  v =  0.0000  1.0000      0.0000  0.0000
  o =  0.8936  v =  1.0000  0.0000      0.0000  0.0000
 
atom =  66  type =  4  l = 0
 
 onsite density matrix
 
spin component  1
 
  0.8936
 
spin component  2
 
  0.7311
 
 occupancies and eigenvectors
 
  o =  0.7311  v =  0.0000  1.0000      0.0000  0.0000
  o =  0.8936  v =  1.0000  0.0000      0.0000  0.0000
 
atom =  67  type =  4  l = 0
 
 onsite density matrix
 
spin component  1
 
  0.8936
 
spin component  2
 
  0.7311
 
 occupancies and eigenvectors
 
  o =  0.7311  v =  0.0000  1.0000      0.0000  0.0000
  o =  0.8936  v =  1.0000  0.0000      0.0000  0.0000
 
atom =  68  type =  4  l = 0
 
 onsite density matrix
 
spin component  1
 
  0.8936
 
spin component  2
 
  0.7311
 
 occupancies and eigenvectors
 
  o =  0.7311  v =  0.0000  1.0000      0.0000  0.0000
  o =  0.8936  v =  1.0000  0.0000      0.0000  0.0000
 
atom =  69  type =  4  l = 0
 
 onsite density matrix
 
spin component  1
 
  0.8936
 
spin component  2
 
  0.7311
 
 occupancies and eigenvectors
 
  o =  0.7311  v =  0.0000  1.0000      0.0000  0.0000
  o =  0.8936  v =  1.0000  0.0000      0.0000  0.0000
 
atom =  70  type =  4  l = 0
 
 onsite density matrix
 
spin component  1
 
  0.8936
 
spin component  2
 
  0.7311
 
 occupancies and eigenvectors
 
  o =  0.7311  v =  0.0000  1.0000      0.0000  0.0000
  o =  0.8936  v =  1.0000  0.0000      0.0000  0.0000
 
atom =  71  type =  4  l = 0
 
 onsite density matrix
 
spin component  1
 
  0.8936
 
spin component  2
 
  0.7311
 
 occupancies and eigenvectors
 
  o =  0.7311  v =  0.0000  1.0000      0.0000  0.0000
  o =  0.8936  v =  1.0000  0.0000      0.0000  0.0000
 
atom =  72  type =  4  l = 0
 
 onsite density matrix
 
spin component  1
 
  0.8936
 
spin component  2
 
  0.7311
 
 occupancies and eigenvectors
 
  o =  0.7311  v =  0.0000  1.0000      0.0000  0.0000
  o =  0.8936  v =  1.0000  0.0000      0.0000  0.0000
 
atom =  73  type =  4  l = 0
 
 onsite density matrix
 
spin component  1
 
  0.8936
 
spin component  2
 
  0.7311
 
 occupancies and eigenvectors
 
  o =  0.7311  v =  0.0000  1.0000      0.0000  0.0000
  o =  0.8936  v =  1.0000  0.0000      0.0000  0.0000
 
atom =  74  type =  4  l = 0
 
 onsite density matrix
 
spin component  1
 
  0.8936
 
spin component  2
 
  0.7311
 
 occupancies and eigenvectors
 
  o =  0.7311  v =  0.0000  1.0000      0.0000  0.0000
  o =  0.8936  v =  1.0000  0.0000      0.0000  0.0000
 
atom =  75  type =  4  l = 0
 
 onsite density matrix
 
spin component  1
 
  0.8936
 
spin component  2
 
  0.7311
 
 occupancies and eigenvectors
 
  o =  0.7311  v =  0.0000  1.0000      0.0000  0.0000
  o =  0.8936  v =  1.0000  0.0000      0.0000  0.0000
 
atom =  76  type =  4  l = 0
 
 onsite density matrix
 
spin component  1
 
  0.8936
 
spin component  2
 
  0.7311
 
 occupancies and eigenvectors
 
  o =  0.7311  v =  0.0000  1.0000      0.0000  0.0000
  o =  0.8936  v =  1.0000  0.0000      0.0000  0.0000
 
atom =  77  type =  4  l = 0
 
 onsite density matrix
 
spin component  1
 
  0.8936
 
spin component  2
 
  0.7311
 
 occupancies and eigenvectors
 
  o =  0.7311  v =  0.0000  1.0000      0.0000  0.0000
  o =  0.8936  v =  1.0000  0.0000      0.0000  0.0000
 
atom =  78  type =  4  l = 0
 
 onsite density matrix
 
spin component  1
 
  0.8936
 
spin component  2
 
  0.7311
 
 occupancies and eigenvectors
 
  o =  0.7311  v =  0.0000  1.0000      0.0000  0.0000
  o =  0.8936  v =  1.0000  0.0000      0.0000  0.0000
 
atom =  79  type =  4  l = 0
 
 onsite density matrix
 
spin component  1
 
  0.8936
 
spin component  2
 
  0.7311
 
 occupancies and eigenvectors
 
  o =  0.7311  v =  0.0000  1.0000      0.0000  0.0000
  o =  0.8936  v =  1.0000  0.0000      0.0000  0.0000
 
atom =  80  type =  4  l = 0
 
 onsite density matrix
 
spin component  1
 
  0.8936
 
spin component  2
 
  0.7311
 
 occupancies and eigenvectors
 
  o =  0.7311  v =  0.0000  1.0000      0.0000  0.0000
  o =  0.8936  v =  1.0000  0.0000      0.0000  0.0000
 
atom =  81  type =  4  l = 0
 
 onsite density matrix
 
spin component  1
 
  0.8936
 
spin component  2
 
  0.7311
 
 occupancies and eigenvectors
 
  o =  0.7311  v =  0.0000  1.0000      0.0000  0.0000
  o =  0.8936  v =  1.0000  0.0000      0.0000  0.0000
 
atom =  82  type =  4  l = 0
 
 onsite density matrix
 
spin component  1
 
  0.8936
 
spin component  2
 
  0.7311
 
 occupancies and eigenvectors
 
  o =  0.7311  v =  0.0000  1.0000      0.0000  0.0000
  o =  0.8936  v =  1.0000  0.0000      0.0000  0.0000
 
atom =  83  type =  4  l = 0
 
 onsite density matrix
 
spin component  1
 
  0.8936
 
spin component  2
 
  0.7311
 
 occupancies and eigenvectors
 
  o =  0.7311  v =  0.0000  1.0000      0.0000  0.0000
  o =  0.8936  v =  1.0000  0.0000      0.0000  0.0000
 
atom =  84  type =  4  l = 0
 
 onsite density matrix
 
spin component  1
 
  0.8936
 
spin component  2
 
  0.7311
 
 occupancies and eigenvectors
 
  o =  0.7311  v =  0.0000  1.0000      0.0000  0.0000
  o =  0.8936  v =  1.0000  0.0000      0.0000  0.0000
 
atom =  85  type =  4  l = 0
 
 onsite density matrix
 
spin component  1
 
  0.8936
 
spin component  2
 
  0.7311
 
 occupancies and eigenvectors
 
  o =  0.7311  v =  0.0000  1.0000      0.0000  0.0000
  o =  0.8936  v =  1.0000  0.0000      0.0000  0.0000
 
atom =  86  type =  4  l = 0
 
 onsite density matrix
 
spin component  1
 
  0.8936
 
spin component  2
 
  0.7311
 
 occupancies and eigenvectors
 
  o =  0.7311  v =  0.0000  1.0000      0.0000  0.0000
  o =  0.8936  v =  1.0000  0.0000      0.0000  0.0000
 
atom =  87  type =  4  l = 0
 
 onsite density matrix
 
spin component  1
 
  0.8936
 
spin component  2
 
  0.7311
 
 occupancies and eigenvectors
 
  o =  0.7311  v =  0.0000  1.0000      0.0000  0.0000
  o =  0.8936  v =  1.0000  0.0000      0.0000  0.0000
 
atom =  88  type =  4  l = 0
 
 onsite density matrix
 
spin component  1
 
  0.8936
 
spin component  2
 
  0.7311
 
 occupancies and eigenvectors
 
  o =  0.7311  v =  0.0000  1.0000      0.0000  0.0000
  o =  0.8936  v =  1.0000  0.0000      0.0000  0.0000
 
atom =  89  type =  4  l = 0
 
 onsite density matrix
 
spin component  1
 
  0.8936
 
spin component  2
 
  0.7311
 
 occupancies and eigenvectors
 
  o =  0.7311  v =  0.0000  1.0000      0.0000  0.0000
  o =  0.8936  v =  1.0000  0.0000      0.0000  0.0000
 
atom =  90  type =  4  l = 0
 
 onsite density matrix
 
[...]
      0.00286     -0.00097     -0.00103         0.002096     -0.000707     -0.000757
     -0.00575     -0.00044      0.00105        -0.004209     -0.000323      0.000768
      0.00522     -0.00157      0.01450         0.003821     -0.001147      0.010619
      0.00147     -0.00231     -0.00268         0.001074     -0.001693     -0.001965
      0.00239      0.00725     -0.00012         0.001747      0.005308     -0.000084
     -0.00048     -0.00348     -0.00124        -0.000349     -0.002546     -0.000905
     -0.00044     -0.00531      0.00036        -0.000320     -0.003888      0.000266
     -0.00288     -0.00114      0.00224        -0.002111     -0.000834      0.001642
      0.00235     -0.00125      0.00151         0.001723     -0.000917      0.001104
      0.00416      0.00055     -0.00531         0.003050      0.000406     -0.003892
     -0.00463     -0.00078      0.00450        -0.003393     -0.000568      0.003298
      0.00228     -0.00227      0.00110         0.001671     -0.001662      0.000805
      0.00120     -0.00270      0.00025         0.000876     -0.001979      0.000186
      0.00397     -0.00135      0.00024         0.002910     -0.000991      0.000173
     -0.00332     -0.00132      0.00619        -0.002435     -0.000969      0.004534
      0.00009     -0.00067      0.00381         0.000066     -0.000494      0.002790
      0.00343     -0.00048     -0.00199         0.002510     -0.000355     -0.001459
      0.00586     -0.00078     -0.00182         0.004291     -0.000572     -0.001334
     -0.00033      0.00537      0.01249        -0.000239      0.003931      0.009148
      0.00169      0.00013      0.00015         0.001241      0.000098      0.000110
      0.00308      0.02913     -0.00745         0.002254      0.021334     -0.005457
      0.00662     -0.00112      0.00238         0.004849     -0.000823      0.001746
      0.00039     -0.00046     -0.00115         0.000286     -0.000336     -0.000840
     -0.00049     -0.00433      0.00042        -0.000361     -0.003174      0.000307
      0.00226     -0.00056     -0.00121         0.001654     -0.000408     -0.000889
      0.00411     -0.00103     -0.00230         0.003009     -0.000753     -0.001681
     -0.01881      0.00180      0.03723        -0.013775      0.001316      0.027270
      0.00364     -0.00033     -0.00119         0.002663     -0.000239     -0.000872
     -0.00042     -0.00038      0.00058        -0.000308     -0.000277      0.000425
      0.00196     -0.00076     -0.00151         0.001439     -0.000554     -0.001108
     -0.05244      0.06140     -0.06417        -0.038407      0.044970     -0.047001
     -0.00099     -0.00369     -0.00033        -0.000724     -0.002704     -0.000238
      0.00212     -0.00404      0.00114         0.001556     -0.002960      0.000833
      0.00173     -0.00316     -0.00060         0.001265     -0.002315     -0.000442
     -0.00767     -0.00299     -0.00048        -0.005619     -0.002193     -0.000350
      0.00149     -0.00475     -0.00164         0.001093     -0.003479     -0.001201
      0.00225      0.00100      0.01534         0.001648      0.000735      0.011236
      0.00118     -0.00348     -0.00198         0.000864     -0.002549     -0.001454
     -0.00425     -0.00228     -0.00009        -0.003109     -0.001670     -0.000065
      0.00554      0.03160      0.00544         0.004056      0.023143      0.003987
      0.00301     -0.00017     -0.00206         0.002207     -0.000124     -0.001507
      0.00346     -0.00031     -0.00281         0.002533     -0.000227     -0.002059
     -0.11870      0.01460      0.04659        -0.086931      0.010693      0.034122
     -0.00292      0.00189     -0.01471        -0.002136      0.001383     -0.010774
     -0.00102     -0.00474      0.00060        -0.000744     -0.003473      0.000441
      0.00164     -0.00203      0.00042         0.001205     -0.001487      0.000308
     -0.02705     -0.00338     -0.00617        -0.019815     -0.002473     -0.004522
      0.01016      0.01241      0.00400         0.007444      0.009087      0.002932
      0.00209     -0.00093     -0.00087         0.001531     -0.000685     -0.000634
      0.00013     -0.00117     -0.00079         0.000092     -0.000854     -0.000581
      0.01162      0.06890      0.09607         0.008512      0.050459      0.070361
      0.07757      0.10921     -0.02624         0.056813      0.079985     -0.019220
      0.00197     -0.00005     -0.00162         0.001446     -0.000035     -0.001188
     -0.00006     -0.00034      0.00018        -0.000044     -0.000249      0.000133
      0.00012      0.00553      0.00394         0.000085      0.004052      0.002886
     -0.00340     -0.00567     -0.00048        -0.002492     -0.004152     -0.000351
      0.00302     -0.00302     -0.00071         0.002215     -0.002210     -0.000518
     -0.00019     -0.00460      0.00031        -0.000141     -0.003368      0.000229
      0.00015     -0.00489      0.00083         0.000110     -0.003584      0.000611
      0.01247      0.02479      0.02831         0.009131      0.018155      0.020737
      0.00214     -0.00059     -0.00037         0.001565     -0.000432     -0.000274
      0.00138     -0.00028     -0.00002         0.001013     -0.000202     -0.000016
      0.01144      0.00172      0.00613         0.008380      0.001263      0.004491
     -0.01211     -0.00102      0.00402        -0.008872     -0.000745      0.002942
      0.00464     -0.00099     -0.00227         0.003395     -0.000724     -0.001663
      0.00340     -0.00174     -0.00006         0.002487     -0.001273     -0.000041
     -0.00120     -0.00188      0.00033        -0.000877     -0.001376      0.000243
     -0.00660      0.00018      0.00156        -0.004832      0.000131      0.001141
      0.01133     -0.00071     -0.00127         0.008300     -0.000517     -0.000931
      0.00391      0.00001     -0.00239         0.002866      0.000004     -0.001751
     -0.00437     -0.00022      0.00046        -0.003201     -0.000160      0.000337
 -----------------------------------------------------------------------------------
 CHAIN + TOTAL  (eV/Angst)
 ----------------------------------------------
     -0.00300      0.00457      0.00368
      0.00164     -0.00405      0.00049
      0.00114     -0.00261     -0.00026
      0.00397     -0.00226     -0.00079
      0.00347     -0.00156      0.00007
      0.00239     -0.00164      0.00034
      0.00127     -0.00210     -0.00132
      0.00298     -0.00266     -0.00265
      0.00207     -0.00434     -0.00075
      0.00324     -0.00309     -0.00182
      0.00104     -0.00099     -0.00227
      0.00344     -0.00105     -0.00145
      0.00441     -0.00485     -0.00042
      0.00281      0.00115      0.00032
      0.00260     -0.00224     -0.00112
      0.00218     -0.00260     -0.00204
      0.00320     -0.00539     -0.00059
      0.00548     -0.00294     -0.00109
      0.00247     -0.00105     -0.00191
      0.00209     -0.00062     -0.00114
      0.00363     -0.00338      0.00136
      0.00536     -0.00551     -0.00108
      0.00492     -0.00083     -0.00104
      0.00268     -0.00084     -0.00145
      0.00532     -0.00270     -0.00035
      0.00146     -0.00139      0.00525
      0.00720     -0.00505     -0.00290
     -0.00079     -0.00564      0.00209
      0.00060      0.00222      0.00031
      0.00178     -0.00346     -0.00046
      0.00291     -0.00003      0.00102
      0.00143     -0.00237     -0.00273
      0.00250     -0.00990     -0.00263
      0.00320     -0.00611     -0.00272
      0.00115     -0.00137     -0.00337
      0.00337     -0.00048     -0.00226
      0.00250     -0.00622     -0.00441
      0.00257     -0.00195     -0.00185
      0.00284     -0.00213     -0.00151
      0.00274     -0.00434     -0.00246
      0.00309     -0.00590     -0.00396
      0.00243     -0.00443     -0.00200
      0.00071     -0.00622     -0.00072
      0.00053     -0.00257      0.00069
     -0.00119     -0.00101      0.00042
      0.00470     -0.00473      0.00065
      0.00368     -0.00047      0.00187
      0.00411      0.00079     -0.00318
      0.00201     -0.01144     -0.00349
      0.00290     -0.00463      0.00051
      0.00104     -0.00124      0.00025
      0.00763      0.00061     -0.00353
      0.00571     -0.01229     -0.00249
      0.00598      0.00276     -0.00255
      0.00601     -0.00066     -0.00079
      0.00429     -0.00270     -0.00012
      0.00405     -0.00801     -0.00153
      0.00904      0.00537      0.00122
      0.00614     -0.00639      0.00179
      0.00518     -0.00281      0.00383
      0.00413     -0.00637      0.00234
      0.00120     -0.00661     -0.00029
      0.00066     -0.00009      0.00169
      0.00475     -0.00021     -0.00191
      0.00559     -0.00648     -0.00432
      0.00392      0.00212     -0.00582
      0.00447     -0.00074     -0.00631
      0.00492     -0.00132     -0.00203
      0.00095     -0.00917     -0.00342
      0.00298     -0.00789     -0.00070
      0.00512      0.00019     -0.00096
      0.00605     -0.00004     -0.00120
      0.00756     -0.01014     -0.00478
      0.00457     -0.01007     -0.00223
      0.00949     -0.00010     -0.00275
      0.00450     -0.00026     -0.00103
      0.00589     -0.00496     -0.00205
      0.00167     -0.00430     -0.00085
      0.00342     -0.00212     -0.00146
      0.00700     -0.00210     -0.00227
      0.01035      0.00023     -0.00372
      0.00225     -0.01147     -0.00718
      0.00613      0.00086     -0.00350
      0.00136     -0.00104      0.00026
      0.00205     -0.00521     -0.00045
      0.00235     -0.00996     -0.00211
      0.00303     -0.00143     -0.00243
      0.00179     -0.00012     -0.00027
      0.00279     -0.00358     -0.00029
      0.00042     -0.00568     -0.00330
     -0.00080     -0.00509     -0.00323
      0.00276     -0.00106      0.00124
      0.00289     -0.00261      0.00222
 ----------------------------------------------
 Quasi-Newton relaxation of ions (Broydens 2nd method)
  g(Force)  = 0.733E-03   g(Stress)= 0.000E+00

 retain information from N=  4 steps
 eigenvalues of (default step * inverse Hessian matrix)
  average eigenvalue of G=   5.2160
 eigenvalue spectrum of G is  6.2957  6.2957  6.2562  2.0167


--------------------------------------------------------------------------------------------------------


  
 reached required accuracy - stopping structural energy minimisation
     LOOP+:  cpu time    432.6530: real time    435.5471
    4ORBIT:  cpu time      0.0000: real time      0.0000



 total charge

# of ion       s       p       d       tot
------------------------------------------
    1        2.116   0.333   0.000   2.449
    2        0.424   6.572   2.836   9.831
    3        0.423   6.569   2.829   9.821
    4        0.424   6.574   2.826   9.824
    5        0.425   6.577   2.829   9.831
    6        0.422   6.576   2.812   9.811
    7        0.422   6.577   2.811   9.810
    8        0.422   6.577   2.811   9.810
    9        0.424   6.580   2.821   9.826
   10        0.423   6.571   2.832   9.826
   11        0.425   6.572   2.850   9.846
   12        0.426   6.574   2.859   9.860
   13        0.427   6.575   2.869   9.871
   14        0.423   6.615   2.758   9.797
   15        0.422   6.613   2.753   9.789
   16        0.419   6.607   2.744   9.770
   17        0.419   6.608   2.739   9.766
   18        0.420   6.566   2.833   9.819
   19        0.419   6.581   2.780   9.780
   20        0.419   6.580   2.788   9.787
   21        0.420   6.560   2.847   9.827
   22        0.418   6.563   2.811   9.792
   23        0.420   6.580   2.785   9.784
   24        0.419   6.576   2.788   9.783
   25        0.417   6.573   2.783   9.772
   26        0.489   6.631   3.926  11.046
   27        0.488   6.630   3.924  11.042
   28        1.574   3.476   0.000   5.050
   29        1.574   3.477   0.000   5.050
   30        1.565   3.490   0.000   5.055
   31        1.565   3.492   0.000   5.056
   32        1.565   3.490   0.000   5.054
   33        1.565   3.491   0.000   5.055
   34        1.574   3.478   0.000   5.053
   35        1.575   3.474   0.000   5.049
   36        1.575   3.476   0.000   5.051
   37        1.574   3.482   0.000   5.056
   38        1.581   3.454   0.000   5.035
   39        1.584   3.446   0.000   5.029
   40        1.584   3.445   0.000   5.030
   41        1.580   3.460   0.000   5.040
   42        1.577   3.461   0.000   5.038
   43        1.575   3.465   0.000   5.040
   44        1.575   3.469   0.000   5.043
   45        1.577   3.461   0.000   5.038
   46        1.576   3.466   0.000   5.042
   47        1.575   3.473   0.000   5.048
   48        1.575   3.475   0.000   5.050
   49        1.578   3.469   0.000   5.047
   50        1.566   3.489   0.000   5.055
   51        1.565   3.494   0.000   5.059
   52        1.565   3.496   0.000   5.061
   53        1.564   3.475   0.000   5.039
   54        1.580   3.455   0.000   5.034
   55        1.580   3.454   0.000   5.034
   56        1.580   3.451   0.000   5.031
   57        1.579   3.452   0.000   5.032
   58        1.576   3.475   0.000   5.050
   59        1.578   3.469   0.000   5.047
   60        1.577   3.464   0.000   5.041
   61        1.576   3.469   0.000   5.045
   62        1.575   3.476   0.000   5.050
   63        1.577   3.468   0.000   5.045
   64        1.577   3.469   0.000   5.045
   65        1.570   3.490   0.000   5.060
   66        1.578   3.470   0.000   5.048
   67        1.576   3.475   0.000   5.050
   68        1.576   3.472   0.000   5.048
   69        1.576   3.467   0.000   5.043
   70        1.561   3.494   0.000   5.055
   71        1.565   3.495   0.000   5.060
   72        1.566   3.495   0.000   5.060
   73        1.564   3.478   0.000   5.041
   74        1.568   3.493   0.000   5.060
   75        1.575   3.472   0.000   5.047
   76        1.575   3.473   0.000   5.048
   77        1.575   3.470   0.000   5.045
   78        1.580   3.469   0.000   5.049
   79        1.580   3.468   0.000   5.049
   80        1.581   3.470   0.000   5.050
   81        1.581   3.470   0.000   5.051
   82        1.562   3.496   0.000   5.059
   83        1.564   3.498   0.000   5.062
   84        1.564   3.496   0.000   5.060
   85        1.565   3.492   0.000   5.057
   86        1.565   3.489   0.000   5.055
   87        1.565   3.488   0.000   5.053
   88        1.565   3.490   0.000   5.055
   89        1.565   3.488   0.000   5.054
   90        1.582   3.448   0.000   5.030
   91        1.583   3.446   0.000   5.029
   92        1.583   3.450   0.000   5.032
   93        1.582   3.455   0.000   5.036
--------------------------------------------------
tot        117.063 400.790  75.242 593.095



 magnetization (x)

# of ion       s       p       d       tot
------------------------------------------
    1       -0.000  -0.000   0.000  -0.000
    2        0.000   0.000  -0.000  -0.000
    3       -0.000   0.000   0.000   0.000
    4       -0.000   0.000   0.000   0.000
    5        0.000   0.000   0.000   0.000
    6        0.000  -0.000  -0.000  -0.000
    7        0.000  -0.000  -0.000  -0.000
    8        0.000   0.000   0.000   0.000
    9       -0.000  -0.000  -0.000  -0.000
   10        0.000  -0.000   0.000   0.000
   11        0.000  -0.000   0.000   0.000
   12       -0.000   0.000  -0.000  -0.000
   13        0.000   0.000   0.000   0.000
   14        0.000   0.000  -0.000   0.000
   15       -0.000   0.000  -0.000  -0.000
   16        0.000  -0.000   0.000   0.000
   17        0.000   0.000   0.000   0.000
   18        0.000  -0.000   0.000   0.000
   19        0.000  -0.000   0.000   0.000
   20       -0.000   0.000  -0.000  -0.000
   21       -0.000   0.000  -0.000  -0.000
   22       -0.000  -0.000  -0.000  -0.000
   23        0.000   0.000   0.000   0.000
   24       -0.000  -0.000  -0.000  -0.000
   25        0.000   0.000   0.000   0.000
   26        0.000  -0.000   0.000  -0.000
   27       -0.000  -0.000  -0.000  -0.000
   28       -0.000  -0.000   0.000  -0.000
   29       -0.000  -0.000   0.000  -0.000
   30        0.000  -0.000   0.000  -0.000
   31       -0.000  -0.000   0.000  -0.000
   32       -0.000  -0.000   0.000  -0.000
   33       -0.000   0.000   0.000   0.000
   34       -0.000   0.000   0.000   0.000
   35       -0.000   0.000   0.000   0.000
   36        0.000  -0.000   0.000  -0.000
   37       -0.000   0.000   0.000   0.000
   38        0.000   0.000   0.000   0.000
   39       -0.000  -0.000   0.000  -0.000
   40        0.000   0.000   0.000   0.000
   41        0.000   0.000   0.000   0.000
   42       -0.000  -0.000   0.000  -0.000
   43        0.000  -0.000   0.000  -0.000
   44       -0.000   0.000   0.000   0.000
   45       -0.000  -0.000   0.000  -0.000
   46       -0.000  -0.000   0.000  -0.000
   47        0.000   0.000   0.000   0.000
   48        0.000   0.000   0.000   0.000
   49       -0.000  -0.000   0.000  -0.000
   50       -0.000  -0.000   0.000  -0.000
   51        0.000   0.000   0.000   0.000
   52       -0.000  -0.000   0.000  -0.000
   53       -0.000  -0.000   0.000  -0.000
   54        0.000   0.000   0.000   0.000
   55       -0.000   0.000   0.000   0.000
   56        0.000   0.000   0.000   0.000
   57        0.000  -0.000   0.000  -0.000
   58       -0.000  -0.000   0.000  -0.000
   59        0.000   0.000   0.000   0.000
   60       -0.000  -0.000   0.000  -0.000
   61        0.000   0.000   0.000   0.000
   62        0.000   0.000   0.000   0.000
   63       -0.000  -0.000   0.000  -0.000
   64       -0.000   0.000   0.000   0.000
   65       -0.000   0.000   0.000   0.000
   66       -0.000  -0.000   0.000  -0.000
   67        0.000   0.000   0.000   0.000
   68        0.000  -0.000   0.000  -0.000
   69       -0.000   0.000   0.000   0.000
   70        0.000   0.000   0.000   0.000
   71        0.000   0.000   0.000   0.000
   72       -0.000  -0.000   0.000  -0.000
   73       -0.000  -0.000   0.000  -0.000
   74        0.000   0.000   0.000   0.000
   75       -0.000   0.000   0.000   0.000
   76        0.000  -0.000   0.000  -0.000
   77       -0.000  -0.000   0.000  -0.000
   78        0.000   0.000   0.000   0.000
   79        0.000  -0.000   0.000  -0.000
   80       -0.000   0.000   0.000   0.000
   81       -0.000  -0.000   0.000  -0.000
   82       -0.000  -0.000   0.000  -0.000
   83        0.000   0.000   0.000   0.000
   84       -0.000  -0.000   0.000  -0.000
   85        0.000  -0.000   0.000  -0.000
   86        0.000  -0.000   0.000   0.000
   87        0.000   0.000   0.000   0.000
   88        0.000  -0.000   0.000  -0.000
   89        0.000   0.000   0.000   0.000
   90       -0.000  -0.000   0.000  -0.000
   91       -0.000   0.000   0.000   0.000
   92       -0.000  -0.000   0.000  -0.000
   93        0.000   0.000   0.000   0.000
--------------------------------------------------
tot         -0.000  -0.000   0.000   0.000
 

 total amount of memory used by VASP MPI-rank0   321868. kBytes
=======================================================================

   base      :      30000. kBytes
   nonl-proj :     136648. kBytes
   fftplans  :      24917. kBytes
   grid      :      75254. kBytes
   one-center:       2892. kBytes
   wavefun   :      52157. kBytes
 
  
  
 General timing and accounting informations for this job:
 ========================================================
  
                  Total CPU time used (sec):    25654.578
                            User time (sec):    25548.789
                          System time (sec):      105.790
                         Elapsed time (sec):    25833.106
  
                   Maximum memory used (kb):      697344.
                   Average memory used (kb):          N/A
  
                          Minor page faults:       752893
                          Major page faults:         1978
                 Voluntary context switches:         7961
