<?xml version="1.0" encoding="ISO-8859-1"?>
<modeling>
 <generator>
  <i name="program" type="string">vasp </i>
  <i name="version" type="string">6.3.2  </i>
  <i name="subversion" type="string">27Jun22 (build Aug 05 2024 15:42:26) complex                          parallel </i>
  <i name="platform" type="string">LinuxIFC </i>
  <i name="date" type="string">2025 06 04 </i>
  <i name="time" type="string">20:33:56 </i>
 </generator>
 <incar>
  <i type="string" name="PREC">Accurate</i>
  <i type="string" name="ALGO">Fast</i>
  <i type="logical" name="ADDGRID"> T  </i>
  <i type="int" name="ISPIN">     2</i>
  <i type="int" name="NELM">   100</i>
  <i type="int" name="NELMIN">     3</i>
  <i type="int" name="IBRION">     1</i>
  <i name="EDIFF">      0.00000100</i>
  <i name="EDIFFG">     -0.05000000</i>
  <i type="int" name="NSW">   450</i>
  <i type="int" name="ISIF">     2</i>
  <i type="int" name="ISYM">     0</i>
  <i name="ENCUT">    520.00000000</i>
  <i name="POTIM">      0.20000000</i>
  <v name="MAGMOM">      0.60000000      0.60000000      0.60000000      0.60000000      0.60000000      0.60000000      0.60000000      0.60000000      0.60000000      0.60000000      0.60000000      0.60000000      0.60000000      0.60000000      0.60000000      0.60000000      0.60000000      0.60000000      0.60000000      0.60000000
      0.60000000      0.60000000      0.60000000      0.60000000      0.60000000      0.60000000      0.60000000      0.60000000      0.60000000      0.60000000      0.60000000      0.60000000      0.60000000      0.60000000      0.60000000      0.60000000      0.60000000      0.60000000      0.60000000      0.60000000
      0.60000000      0.60000000      0.60000000      0.60000000      0.60000000      0.60000000      0.60000000      0.60000000      0.60000000      0.60000000      0.60000000      0.60000000      0.60000000      0.60000000      0.60000000      0.60000000      0.60000000      0.60000000      0.60000000      0.60000000
      0.60000000      0.60000000      0.60000000      0.60000000      0.60000000      0.60000000      0.60000000      0.60000000      0.60000000      0.60000000      0.60000000      0.60000000      0.60000000      0.60000000      0.60000000      0.60000000      0.60000000      0.60000000      0.60000000      0.60000000
      0.60000000      0.60000000      0.60000000      0.60000000      0.60000000      0.60000000      0.60000000      0.60000000      0.60000000      0.60000000      0.60000000      0.60000000      0.60000000</v>
  <i type="logical" name="LREAL"> F  </i>
  <i type="int" name="ISMEAR">     0</i>
  <i name="SIGMA">      0.05000000</i>
  <i type="int" name="LMAXMIX">     4</i>
  <i type="logical" name="LWAVE"> F  </i>
  <i type="int" name="LORBIT">    11</i>
  <i type="logical" name="LASPH"> T  </i>
  <i type="logical" name="LDAU"> T  </i>
  <i type="int" name="LDAUTYPE">     2</i>
  <v type="int" name="LDAUL">     0     0     2     0</v>
  <v name="LDAUU">      0.00000000      0.00000000      4.38000000      0.00000000</v>
  <v name="LDAUJ">      0.00000000      0.00000000      0.00000000      0.00000000</v>
  <i type="int" name="LDAUPRINT">     1</i>
  <i name="SPRING">     -5.00000000</i>
 </incar>
 <primitive_cell>
  <structure name="primitive_cell" >
   <crystal>
    <varray name="basis" >
     <v>      22.78514290       0.00000000       0.00000000 </v>
     <v>       0.00000000       3.87685037       0.00000000 </v>
     <v>      -9.97305163       0.00000241      15.12824818 </v>
    </varray>
    <i name="volume">   1336.34759474 </i>
    <varray name="rec_basis" >
     <v>       0.04388825       0.00000000       0.02893261 </v>
     <v>       0.00000000       0.25794135      -0.00000004 </v>
     <v>       0.00000000       0.00000000       0.06610151 </v>
    </varray>
   </crystal>
   <varray name="positions" >
    <v>       0.32902604       0.81377337       0.62725314 </v>
    <v>       0.36706548       0.00757261       0.04605598 </v>
    <v>       0.63413099       0.00781975       0.95435465 </v>
    <v>       0.86512411       0.50782486       0.04452505 </v>
    <v>       0.13142176       0.50944188       0.95515969 </v>
    <v>       0.24867609       0.00360403       0.13740172 </v>
    <v>       0.75211569       0.00320807       0.86146260 </v>
    <v>       0.74777101       0.50313474       0.13794187 </v>
    <v>       0.24969002       0.50338131       0.86476113 </v>
    <v>       0.12967851       0.99733564       0.23022372 </v>
    <v>       0.86901508       0.99859278       0.76720480 </v>
    <v>       0.63150235       0.49849283       0.23305560 </v>
    <v>       0.37122086       0.49599708       0.77521332 </v>
    <v>       0.41892704       0.96660683       0.37950929 </v>
    <v>       0.58396747       0.96719815       0.61741978 </v>
    <v>       0.91748952       0.46717087       0.38158851 </v>
    <v>       0.08223452       0.46719273       0.62012055 </v>
    <v>       0.29672002       0.00330230       0.46743053 </v>
    <v>       0.70241825       0.00350654       0.52618924 </v>
    <v>       0.79865639       0.50367145       0.47308607 </v>
    <v>       0.19818777       0.50283214       0.52356436 </v>
    <v>       0.46714354       0.00115958       0.71384581 </v>
    <v>       0.53667672       0.00177070       0.28700982 </v>
    <v>       0.96366690       0.50165172       0.71232284 </v>
    <v>       0.03292295       0.50139376       0.28389494 </v>
    <v>       0.99930813       0.25192362       0.00016018 </v>
    <v>       0.50082375       0.75294408       0.00103851 </v>
    <v>       0.00028639       0.49092101       0.50035131 </v>
    <v>       0.50077023       0.99119865       0.49910380 </v>
    <v>       0.14867238       0.00447038       0.99135558 </v>
    <v>       0.84986610       0.00396418       0.00848232 </v>
    <v>       0.64908162       0.50435692       0.99044897 </v>
    <v>       0.35088059       0.50402330       0.00940366 </v>
    <v>       0.30331066       0.00307872       0.08179887 </v>
    <v>       0.69622089       0.00380889       0.91749924 </v>
    <v>       0.80283956       0.50330333       0.08132215 </v>
    <v>       0.19630157       0.50201774       0.91993322 </v>
    <v>       0.03378528       0.99917387       0.09882631 </v>
    <v>       0.96556789       0.99994190       0.90229248 </v>
    <v>       0.53440474       0.50164432       0.09879101 </v>
    <v>       0.46659011       0.50022161       0.90140186 </v>
    <v>       0.44974831       0.00384509       0.15573410 </v>
    <v>       0.54994126       0.00309524       0.84382948 </v>
    <v>       0.94897084       0.50337064       0.15522785 </v>
    <v>       0.05012359       0.50514809       0.84460764 </v>
    <v>       0.17983755       0.00193758       0.17775073 </v>
    <v>       0.81997772       0.00311691       0.82254671 </v>
    <v>       0.67982904       0.50294259       0.17710108 </v>
    <v>       0.31963497       0.50033090       0.82444827 </v>
    <v>       0.04878353       0.00124521       0.27027374 </v>
    <v>       0.95050071       0.00183833       0.73018592 </v>
    <v>       0.54990854       0.50168990       0.26976046 </v>
    <v>       0.45070818       0.50107655       0.72824423 </v>
    <v>       0.32538744       0.99965901       0.24992700 </v>
    <v>       0.67447435       0.99945830       0.74974759 </v>
    <v>       0.82531951       0.49921176       0.24961311 </v>
    <v>       0.17439859       0.49979324       0.75118979 </v>
    <v>       0.47625833       0.99850797       0.32596821 </v>
    <v>       0.52299745       0.99946209       0.67070594 </v>
    <v>       0.97614207       0.49943917       0.32678189 </v>
    <v>       0.02406664       0.49846164       0.67362712 </v>
    <v>       0.20662222       0.00173181       0.34905260 </v>
    <v>       0.79294681       0.00191582       0.65110457 </v>
    <v>       0.70763562       0.50211585       0.34907500 </v>
    <v>       0.29645559       0.50160468       0.65309517 </v>
    <v>       0.35393688       0.00070874       0.42607298 </v>
    <v>       0.64819428       0.99927369       0.57434107 </v>
    <v>       0.85277742       0.50023878       0.42547124 </v>
    <v>       0.14804555       0.49995339       0.57563065 </v>
    <v>       0.22281397       0.00247314       0.52271630 </v>
    <v>       0.77878443       0.00306656       0.48119018 </v>
    <v>       0.72194631       0.50292859       0.51851955 </v>
    <v>       0.27956023       0.50267601       0.48124307 </v>
    <v>       0.37553520       0.00204855       0.59746897 </v>
    <v>       0.62182967       0.00258571       0.40395421 </v>
    <v>       0.87849928       0.50276329       0.59598184 </v>
    <v>       0.12164698       0.50218786       0.40394243 </v>
    <v>       0.09108996       0.99275767       0.63118163 </v>
    <v>       0.91001188       0.99294926       0.36873391 </v>
    <v>       0.58993733       0.49283003       0.63102849 </v>
    <v>       0.40947169       0.49251345       0.36900828 </v>
    <v>       0.39226543       0.99978807       0.76824256 </v>
    <v>       0.60590768       0.00111106       0.23192781 </v>
    <v>       0.89450866       0.50100377       0.76827447 </v>
    <v>       0.10572419       0.50033550       0.23199163 </v>
    <v>       0.27540816       0.00303702       0.89718945 </v>
    <v>       0.72397103       0.00360458       0.10267191 </v>
    <v>       0.77538565       0.50362234       0.89649518 </v>
    <v>       0.22423105       0.50367155       0.10414164 </v>
    <v>       0.42940766       0.00435390       0.98740898 </v>
    <v>       0.57149985       0.00491383       0.01353698 </v>
    <v>       0.92805959       0.50255993       0.98696631 </v>
    <v>       0.07097208       0.50379215       0.01351543 </v>
   </varray>
  </structure>
  <varray name="primitive_index" >
   <v type="int" >        1 </v>
   <v type="int" >        2 </v>
   <v type="int" >        3 </v>
   <v type="int" >        4 </v>
   <v type="int" >        5 </v>
   <v type="int" >        6 </v>
   <v type="int" >        7 </v>
   <v type="int" >        8 </v>
   <v type="int" >        9 </v>
   <v type="int" >       10 </v>
   <v type="int" >       11 </v>
   <v type="int" >       12 </v>
   <v type="int" >       13 </v>
   <v type="int" >       14 </v>
   <v type="int" >       15 </v>
   <v type="int" >       16 </v>
   <v type="int" >       17 </v>
   <v type="int" >       18 </v>
   <v type="int" >       19 </v>
   <v type="int" >       20 </v>
   <v type="int" >       21 </v>
   <v type="int" >       22 </v>
   <v type="int" >       23 </v>
   <v type="int" >       24 </v>
   <v type="int" >       25 </v>
   <v type="int" >       26 </v>
   <v type="int" >       27 </v>
   <v type="int" >       28 </v>
   <v type="int" >       29 </v>
   <v type="int" >       30 </v>
   <v type="int" >       31 </v>
   <v type="int" >       32 </v>
   <v type="int" >       33 </v>
   <v type="int" >       34 </v>
   <v type="int" >       35 </v>
   <v type="int" >       36 </v>
   <v type="int" >       37 </v>
   <v type="int" >       38 </v>
   <v type="int" >       39 </v>
   <v type="int" >       40 </v>
   <v type="int" >       41 </v>
   <v type="int" >       42 </v>
   <v type="int" >       43 </v>
   <v type="int" >       44 </v>
   <v type="int" >       45 </v>
   <v type="int" >       46 </v>
   <v type="int" >       47 </v>
   <v type="int" >       48 </v>
   <v type="int" >       49 </v>
   <v type="int" >       50 </v>
   <v type="int" >       51 </v>
   <v type="int" >       52 </v>
   <v type="int" >       53 </v>
   <v type="int" >       54 </v>
   <v type="int" >       55 </v>
   <v type="int" >       56 </v>
   <v type="int" >       57 </v>
   <v type="int" >       58 </v>
   <v type="int" >       59 </v>
   <v type="int" >       60 </v>
   <v type="int" >       61 </v>
   <v type="int" >       62 </v>
   <v type="int" >       63 </v>
   <v type="int" >       64 </v>
   <v type="int" >       65 </v>
   <v type="int" >       66 </v>
   <v type="int" >       67 </v>
   <v type="int" >       68 </v>
   <v type="int" >       69 </v>
   <v type="int" >       70 </v>
   <v type="int" >       71 </v>
   <v type="int" >       72 </v>
   <v type="int" >       73 </v>
   <v type="int" >       74 </v>
   <v type="int" >       75 </v>
   <v type="int" >       76 </v>
   <v type="int" >       77 </v>
   <v type="int" >       78 </v>
   <v type="int" >       79 </v>
   <v type="int" >       80 </v>
   <v type="int" >       81 </v>
   <v type="int" >       82 </v>
   <v type="int" >       83 </v>
   <v type="int" >       84 </v>
   <v type="int" >       85 </v>
   <v type="int" >       86 </v>
   <v type="int" >       87 </v>
   <v type="int" >       88 </v>
   <v type="int" >       89 </v>
   <v type="int" >       90 </v>
   <v type="int" >       91 </v>
   <v type="int" >       92 </v>
   <v type="int" >       93 </v>
  </varray>
 </primitive_cell>
 <kpoints>
  <generation param="Gamma">
   <v type="int" name="divisions">       1        6        1 </v>
   <v name="usershift">      0.00000000       0.00000000       0.00000000 </v>
   <v name="genvec1">      1.00000000       0.00000000      -0.00000000 </v>
   <v name="genvec2">      0.00000000       0.16666667       0.00000000 </v>
   <v name="genvec3">      0.00000000       0.00000000       1.00000000 </v>
   <v name="shift">      0.00000000       0.00000000       0.00000000 </v>
  </generation>
  <varray name="kpointlist" >
   <v>       0.00000000       0.00000000       0.00000000 </v>
   <v>       0.00000000       0.16666667       0.00000000 </v>
   <v>       0.00000000       0.33333333       0.00000000 </v>
   <v>       0.00000000       0.50000000       0.00000000 </v>
  </varray>
  <varray name="weights" >
   <v>       0.16666667 </v>
   <v>       0.33333333 </v>
   <v>       0.33333333 </v>
   <v>       0.16666667 </v>
  </varray>
 </kpoints>
 <parameters>
  <separator name="general" >
   <i type="string" name="SYSTEM">unknown system</i>
   <i type="logical" name="LCOMPAT"> F  </i>
  </separator>
  <separator name="electronic" >
   <i type="string" name="PREC">accura</i>
   <i name="ENMAX">    520.00000000</i>
   <i name="ENAUG">    605.39200000</i>
   <i name="EDIFF">      0.00000100</i>
   <i type="int" name="IALGO">    68</i>
   <i type="int" name="IWAVPR">    11</i>
   <i type="int" name="NBANDS">   462</i>
   <i type="int" name="NBANDSLOW">    -1</i>
   <i type="int" name="NBANDSHIGH">    -1</i>
   <i name="NELECT">    687.00000000</i>
   <i type="int" name="TURBO">     0</i>
   <i type="int" name="IRESTART">     0</i>
   <i type="int" name="NREBOOT">     0</i>
   <i type="int" name="NMIN">     0</i>
   <i name="EREF">      0.00000000</i>
   <separator name="electronic smearing" >
    <i type="int" name="ISMEAR">     0</i>
    <i name="SIGMA">      0.05000000</i>
    <i name="KSPACING">      0.50000000</i>
    <i type="logical" name="KGAMMA"> T  </i>
    <i type="logical" name="KBLOWUP"> T  </i>
   </separator>
   <separator name="electronic projectors" >
    <i type="logical" name="LREAL"> F  </i>
    <v name="ROPT">      0.00000000      0.00000000      0.00000000      0.00000000</v>
    <i type="int" name="LMAXPAW">  -100</i>
    <i type="int" name="LMAXMIX">     4</i>
    <i type="logical" name="NLSPLINE"> F  </i>
   </separator>
   <separator name="electronic startup" >
    <i type="int" name="ISTART">     0</i>
    <i type="int" name="ICHARG">     2</i>
    <i type="int" name="INIWAV">     1</i>
   </separator>
   <separator name="electronic spin" >
    <i type="int" name="ISPIN">     2</i>
    <i type="logical" name="LNONCOLLINEAR"> F  </i>
    <v name="MAGMOM">      0.60000000      0.60000000      0.60000000      0.60000000      0.60000000      0.60000000      0.60000000      0.60000000      0.60000000      0.60000000      0.60000000      0.60000000      0.60000000      0.60000000      0.60000000      0.60000000      0.60000000      0.60000000      0.60000000      0.60000000
      0.60000000      0.60000000      0.60000000      0.60000000      0.60000000      0.60000000      0.60000000      0.60000000      0.60000000      0.60000000      0.60000000      0.60000000      0.60000000      0.60000000      0.60000000      0.60000000      0.60000000      0.60000000      0.60000000      0.60000000
      0.60000000      0.60000000      0.60000000      0.60000000      0.60000000      0.60000000      0.60000000      0.60000000      0.60000000      0.60000000      0.60000000      0.60000000      0.60000000      0.60000000      0.60000000      0.60000000      0.60000000      0.60000000      0.60000000      0.60000000
      0.60000000      0.60000000      0.60000000      0.60000000      0.60000000      0.60000000      0.60000000      0.60000000      0.60000000      0.60000000      0.60000000      0.60000000      0.60000000      0.60000000      0.60000000      0.60000000      0.60000000      0.60000000      0.60000000      0.60000000
      0.60000000      0.60000000      0.60000000      0.60000000      0.60000000      0.60000000      0.60000000      0.60000000      0.60000000      0.60000000      0.60000000      0.60000000      0.60000000</v>
    <i name="NUPDOWN">     -1.00000000</i>
    <i type="logical" name="LSORBIT"> F  </i>
    <v name="SAXIS">      0.00000000      0.00000000      1.00000000</v>
    <i type="logical" name="LSPIRAL"> F  </i>
    <v name="QSPIRAL">      0.00000000      0.00000000      0.00000000</v>
    <i type="logical" name="LZEROZ"> F  </i>
   </separator>
   <separator name="electronic exchange-correlation" >
    <i type="logical" name="LASPH"> T  </i>
    <i type="logical" name="LMETAGGA"> F  </i>
   </separator>
   <separator name="electronic convergence" >
    <i type="int" name="NELM">   100</i>
    <i type="int" name="NELMDL">    -5</i>
    <i type="int" name="NELMIN">     3</i>
    <i name="ENINI">    520.00000000</i>
    <separator name="electronic convergence detail" >
     <i type="logical" name="LDIAG"> T  </i>
     <i type="logical" name="LSUBROT"> F  </i>
     <i name="WEIMIN">      0.00100000</i>
     <i name="EBREAK">      0.00000000</i>
     <i name="DEPER">      0.30000000</i>
     <i type="int" name="NRMM">     4</i>
     <i name="TIME">      0.40000000</i>
    </separator>
   </separator>
   <separator name="electronic mixer" >
    <i name="AMIX">      0.40000000</i>
    <i name="BMIX">      1.00000000</i>
    <i name="AMIN">      0.10000000</i>
    <i name="AMIX_MAG">      1.60000000</i>
    <i name="BMIX_MAG">      1.00000000</i>
    <separator name="electronic mixer details" >
     <i type="int" name="IMIX">     4</i>
     <i type="logical" name="MIXFIRST"> F  </i>
     <i type="int" name="MAXMIX">   -45</i>
     <i name="WC">    100.00000000</i>
     <i type="int" name="INIMIX">     1</i>
     <i type="int" name="MIXPRE">     1</i>
     <i type="int" name="MREMOVE">     5</i>
    </separator>
   </separator>
   <separator name="electronic dipolcorrection" >
    <i type="logical" name="LDIPOL"> F  </i>
    <i type="logical" name="LMONO"> F  </i>
    <i type="int" name="IDIPOL">     0</i>
    <i name="EPSILON">      1.00000000</i>
    <v name="DIPOL">   -100.00000000   -100.00000000   -100.00000000</v>
    <i name="EFIELD">      0.00000000</i>
   </separator>
  </separator>
  <separator name="grids" >
   <i type="int" name="NGX">   180</i>
   <i type="int" name="NGY">    30</i>
   <i type="int" name="NGZ">   140</i>
   <i type="int" name="NGXF">   360</i>
   <i type="int" name="NGYF">    60</i>
   <i type="int" name="NGZF">   280</i>
   <i type="logical" name="ADDGRID"> T  </i>
  </separator>
  <separator name="ionic" >
   <i type="int" name="NSW">   450</i>
   <i type="int" name="IBRION">     1</i>
   <i type="int" name="MDALGO">     0</i>
   <i type="int" name="ISIF">     2</i>
   <i name="PSTRESS">      0.00000000</i>
   <i name="EDIFFG">     -0.05000000</i>
   <i type="int" name="NFREE">     0</i>
   <i name="POTIM">      0.20000000</i>
   <i name="SMASS">     -3.00000000</i>
   <i name="SCALEE">      1.00000000</i>
  </separator>
  <separator name="ionic md" >
   <i name="TEBEG">      0.00010000</i>
   <i name="TEEND">      0.00010000</i>
   <i type="int" name="NBLOCK">     1</i>
   <i type="int" name="KBLOCK">   450</i>
   <i type="int" name="NPACO">   256</i>
   <i name="APACO">     10.00000000</i>
  </separator>
  <separator name="symmetry" >
   <i type="int" name="ISYM">     0</i>
   <i name="SYMPREC">      0.00001000</i>
  </separator>
  <separator name="dos" >
   <i type="int" name="LORBIT">    11</i>
   <v name="RWIGS">     -1.00000000     -1.00000000     -1.00000000     -1.00000000</v>
   <i type="int" name="NEDOS">   301</i>
   <i name="EMIN">     10.00000000</i>
   <i name="EMAX">    -10.00000000</i>
   <i name="EFERMI">      0.00000000</i>
  </separator>
  <separator name="writing" >
   <i type="int" name="NWRITE">     2</i>
   <i type="logical" name="LWAVE"> F  </i>
   <i type="logical" name="LDOWNSAMPLE"> F  </i>
   <i type="logical" name="LCHARG"> T  </i>
   <i type="logical" name="LPARD"> F  </i>
   <i type="logical" name="LVTOT"> F  </i>
   <i type="logical" name="LVHAR"> F  </i>
   <i type="logical" name="LELF"> F  </i>
   <i type="logical" name="LOPTICS"> F  </i>
   <v name="STM">      0.00000000      0.00000000      0.00000000      0.00000000      0.00000000      0.00000000      0.00000000</v>
  </separator>
  <separator name="performance" >
   <i type="int" name="NPAR">    42</i>
   <i type="int" name="NSIM">     4</i>
   <i type="int" name="NBLK">    -1</i>
   <i type="logical" name="LPLANE"> T  </i>
   <i type="logical" name="LSCALAPACK"> T  </i>
   <i type="logical" name="LSCAAWARE"> F  </i>
   <i type="logical" name="LSCALU"> F  </i>
   <i type="logical" name="LASYNC"> F  </i>
   <i type="logical" name="LORBITALREAL"> F  </i>
  </separator>
  <separator name="miscellaneous" >
   <i type="int" name="IDIOT">     3</i>
   <i type="int" name="PHON_NSTRUCT">    -1</i>
   <i type="logical" name="LMUSIC"> F  </i>
   <v name="POMASS">      7.01000000     92.00000000     95.94000000     16.00000000</v>
   <v name="DARWINR">      0.00000000      0.00000000      0.00000000      0.00000000</v>
   <v name="DARWINV">      1.00000000      1.00000000      1.00000000      1.00000000</v>
   <i type="logical" name="LCORR"> T  </i>
  </separator>
  <i type="logical" name="GGA_COMPAT"> T  </i>
  <i type="logical" name="LBERRY"> F  </i>
  <i type="int" name="ICORELEVEL">     0</i>
  <i type="logical" name="LDAU"> T  </i>
  <v type="int" name="LDAUTYPE">     2</v>
  <v type="int" name="LDAUL">     0</v>
  <v name="LDAUU">      0.00000000</v>
  <v name="LDAUJ">      0.00000000</v>
  <i type="int" name="LDAUPRINT">     1</i>
  <i type="int" name="I_CONSTRAINED_M">     0</i>
  <separator name="electronic exchange-correlation" >
   <i type="string" name="GGA">--</i>
   <i type="int" name="VOSKOWN">     0</i>
   <i type="logical" name="LHFCALC"> F  </i>
   <i type="string" name="PRECFOCK"></i>
   <i type="logical" name="LSYMGRAD"> F  </i>
   <i type="logical" name="LHFONE"> F  </i>
   <i type="logical" name="LRHFCALC"> F  </i>
   <i type="logical" name="LTHOMAS"> F  </i>
   <i type="logical" name="LMODELHF"> F  </i>
   <i type="logical" name="LFOCKACE"> F  </i>
   <i name="ENCUT4O">     -1.00000000</i>
   <i type="int" name="EXXOEP">     0</i>
   <i type="int" name="FOURORBIT">     0</i>
   <i name="AEXX">      0.00000000</i>
   <i name="HFALPHA">      0.00000000</i>
   <i name="MCALPHA">      0.00000000</i>
   <i name="ALDAX">      1.00000000</i>
   <i name="AGGAX">      1.00000000</i>
   <i name="ALDAC">      1.00000000</i>
   <i name="AGGAC">      1.00000000</i>
   <i type="int" name="NKREDX">     1</i>
   <i type="int" name="NKREDY">     1</i>
   <i type="int" name="NKREDZ">     1</i>
   <i type="logical" name="SHIFTRED"> F  </i>
   <i type="logical" name="ODDONLY"> F  </i>
   <i type="logical" name="EVENONLY"> F  </i>
   <i type="int" name="LMAXFOCK">     0</i>
   <i type="int" name="NMAXFOCKAE">     0</i>
   <i type="logical" name="LFOCKAEDFT"> F  </i>
   <i name="HFSCREEN">      0.00000000</i>
   <i name="HFSCREENC">      0.00000000</i>
   <i type="int" name="NBANDSGWLOW">     0</i>
  </separator>
  <separator name="vdW DFT" >
   <i type="logical" name="LUSE_VDW"> F  </i>
   <i name="Zab_VDW">     -0.84910000</i>
   <i name="PARAM1">      0.12340000</i>
   <i name="PARAM2">      1.00000000</i>
   <i name="PARAM3">      0.00000000</i>
  </separator>
  <separator name="model GW" >
   <i type="int" name="MODEL_GW">     0</i>
   <i name="MODEL_EPS0">      8.62159739</i>
   <i name="MODEL_ALPHA">      1.00000000</i>
  </separator>
  <separator name="linear response parameters" >
   <i type="logical" name="LEPSILON"> F  </i>
   <i type="logical" name="LRPA"> F  </i>
   <i type="logical" name="LNABLA"> F  </i>
   <i type="logical" name="LVEL"> F  </i>
   <i name="CSHIFT">      0.10000000</i>
   <i name="OMEGAMAX">     -1.00000000</i>
   <i name="DEG_THRESHOLD">      0.00200000</i>
   <i name="RTIME">     -0.10000000</i>
   <i name="WPLASMAI">      0.00000000</i>
   <v name="DFIELD">      0.00000000      0.00000000      0.00000000</v>
   <v name="WPLASMA">      0.00000000      0.00000000      0.00000000      0.00000000      0.00000000      0.00000000      0.00000000      0.00000000      0.00000000</v>
  </separator>
  <separator name="orbital magnetization" >
   <i type="logical" name="NUCIND"> F  </i>
   <v name="MAGPOS">      0.00000000      0.00000000      0.00000000</v>
   <i type="logical" name="LNICSALL"> T  </i>
   <i type="logical" name="ORBITALMAG"> F  </i>
   <i type="logical" name="LMAGBLOCH"> F  </i>
   <i type="logical" name="LCHIMAG"> F  </i>
   <i type="logical" name="LGAUGE"> T  </i>
   <i type="int" name="MAGATOM">     0</i>
   <v name="MAGDIPOL">      0.00000000      0.00000000      0.00000000</v>
   <v name="AVECCONST">      0.00000000      0.00000000      0.00000000</v>
  </separator>
  <separator name="response functions" >
   <i type="logical" name="LFINITE_TEMPERATURE"> F  </i>
   <i type="logical" name="LADDER"> F  </i>
   <i type="logical" name="LRPAFORCE"> F  </i>
   <i type="logical" name="LFXC"> F  </i>
   <i type="logical" name="LHARTREE"> T  </i>
   <i type="int" name="IBSE">     0</i>
   <v type="int" name="KPOINT">    -1     0     0     0</v>
   <i type="logical" name="LTCTC"> F  </i>
   <i type="logical" name="LTCTE"> F  </i>
   <i type="logical" name="LTETE"> F  </i>
   <i type="logical" name="LTRIPLET"> F  </i>
   <i type="logical" name="LFXCEPS"> F  </i>
   <i type="logical" name="LFXHEG"> F  </i>
   <i type="int" name="NATURALO">     2</i>
   <i type="logical" name="LHOLEGF"> F  </i>
   <i type="logical" name="L2ORDER"> F  </i>
   <i type="logical" name="LDMP1"> F  </i>
   <i type="logical" name="LMP2LT"> F  </i>
   <i type="logical" name="LSMP2LT"> F  </i>
   <i type="logical" name="LGWLF"> F  </i>
   <i name="ENCUTGW">     -2.00000000</i>
   <i name="ENCUTGWSOFT">     -2.00000000</i>
   <i name="ENCUTLF">     -1.00000000</i>
   <i type="logical" name="LESF_SPLINES"> F  </i>
   <i type="int" name="LMAXMP2">    -1</i>
   <i name="SCISSOR">      0.00000000</i>
   <i type="int" name="NOMEGA">     0</i>
   <i type="int" name="NOMEGAR">     0</i>
   <i type="int" name="NBANDSGW">    -1</i>
   <i type="int" name="NBANDSO">    -1</i>
   <i type="int" name="NBANDSV">    -1</i>
   <i type="int" name="NELMGW">     1</i>
   <i type="int" name="NELMHF">     1</i>
   <i type="int" name="DIM">     3</i>
   <i type="int" name="IESPILON">     4</i>
   <i type="int" name="ANTIRES">     0</i>
   <i name="OMEGAMAX">    -30.00000000</i>
   <i name="OMEGAMIN">    -30.00000000</i>
   <i name="OMEGATL">   -200.00000000</i>
   <i type="int" name="OMEGAGRID">     0</i>
   <i name="CSHIFT">     -0.10000000</i>
   <i type="logical" name="LSELFENERGY"> F  </i>
   <i type="logical" name="LSPECTRAL"> F  </i>
   <i type="logical" name="LSPECTRALGW"> F  </i>
   <i type="logical" name="LSINGLES"> F  </i>
   <i type="logical" name="LFERMIGW"> F  </i>
   <i type="logical" name="ODDONLYGW"> F  </i>
   <i type="logical" name="EVENONLYGW"> F  </i>
   <i type="int" name="NKREDLFX">     1</i>
   <i type="int" name="NKREDLFY">     1</i>
   <i type="int" name="NKREDLFZ">     1</i>
   <i type="int" name="MAXMEM">  2800</i>
   <i type="int" name="TELESCOPE">     0</i>
   <i type="int" name="NTAUPAR">    -1</i>
   <i type="int" name="NOMEGAPAR">    -1</i>
   <i name="DAMP_NEWTON">      0.80000001</i>
   <i name="LAMBDA">      1.00000000</i>
  </separator>
  <separator name="External order field" >
   <i name="OFIELD_KAPPA">      0.00000000</i>
   <v name="OFIELD_K">      0.00000000      0.00000000      0.00000000</v>
   <i name="OFIELD_Q6_NEAR">      0.00000000</i>
   <i name="OFIELD_Q6_FAR">      0.00000000</i>
   <i name="OFIELD_A">      0.00000000</i>
  </separator>
  <separator name="optional k-points parameters" >
   <i type="int" name="KPOINTS_OPT_MODE">     1</i>
   <i type="logical" name="LKPOINTS_OPT"> F  </i>
  </separator>
 </parameters>
 <atominfo>
  <atoms>      93 </atoms>
  <types>       4 </types>
  <array name="atoms" >
   <dimension dim="1">ion</dimension>
   <field type="string">element</field>
   <field type="int">atomtype</field>
   <set>
    <rc><c>Li</c><c>   1</c></rc>
    <rc><c>Nb</c><c>   2</c></rc>
    <rc><c>Nb</c><c>   2</c></rc>
    <rc><c>Nb</c><c>   2</c></rc>
    <rc><c>Nb</c><c>   2</c></rc>
    <rc><c>Nb</c><c>   2</c></rc>
    <rc><c>Nb</c><c>   2</c></rc>
    <rc><c>Nb</c><c>   2</c></rc>
    <rc><c>Nb</c><c>   2</c></rc>
    <rc><c>Nb</c><c>   2</c></rc>
    <rc><c>Nb</c><c>   2</c></rc>
    <rc><c>Nb</c><c>   2</c></rc>
    <rc><c>Nb</c><c>   2</c></rc>
    <rc><c>Nb</c><c>   2</c></rc>
    <rc><c>Nb</c><c>   2</c></rc>
    <rc><c>Nb</c><c>   2</c></rc>
    <rc><c>Nb</c><c>   2</c></rc>
    <rc><c>Nb</c><c>   2</c></rc>
    <rc><c>Nb</c><c>   2</c></rc>
    <rc><c>Nb</c><c>   2</c></rc>
    <rc><c>Nb</c><c>   2</c></rc>
    <rc><c>Nb</c><c>   2</c></rc>
    <rc><c>Nb</c><c>   2</c></rc>
    <rc><c>Nb</c><c>   2</c></rc>
    <rc><c>Nb</c><c>   2</c></rc>
    <rc><c>Mo</c><c>   3</c></rc>
    <rc><c>Mo</c><c>   3</c></rc>
    <rc><c>O </c><c>   4</c></rc>
    <rc><c>O </c><c>   4</c></rc>
    <rc><c>O </c><c>   4</c></rc>
    <rc><c>O </c><c>   4</c></rc>
    <rc><c>O </c><c>   4</c></rc>
    <rc><c>O </c><c>   4</c></rc>
    <rc><c>O </c><c>   4</c></rc>
    <rc><c>O </c><c>   4</c></rc>
    <rc><c>O </c><c>   4</c></rc>
    <rc><c>O </c><c>   4</c></rc>
    <rc><c>O </c><c>   4</c></rc>
    <rc><c>O </c><c>   4</c></rc>
    <rc><c>O </c><c>   4</c></rc>
    <rc><c>O </c><c>   4</c></rc>
    <rc><c>O </c><c>   4</c></rc>
    <rc><c>O </c><c>   4</c></rc>
    <rc><c>O </c><c>   4</c></rc>
    <rc><c>O </c><c>   4</c></rc>
    <rc><c>O </c><c>   4</c></rc>
    <rc><c>O </c><c>   4</c></rc>
    <rc><c>O </c><c>   4</c></rc>
    <rc><c>O </c><c>   4</c></rc>
    <rc><c>O </c><c>   4</c></rc>
    <rc><c>O </c><c>   4</c></rc>
    <rc><c>O </c><c>   4</c></rc>
    <rc><c>O </c><c>   4</c></rc>
    <rc><c>O </c><c>   4</c></rc>
    <rc><c>O </c><c>   4</c></rc>
    <rc><c>O </c><c>   4</c></rc>
    <rc><c>O </c><c>   4</c></rc>
    <rc><c>O </c><c>   4</c></rc>
    <rc><c>O </c><c>   4</c></rc>
    <rc><c>O </c><c>   4</c></rc>
    <rc><c>O </c><c>   4</c></rc>
    <rc><c>O </c><c>   4</c></rc>
    <rc><c>O </c><c>   4</c></rc>
    <rc><c>O </c><c>   4</c></rc>
    <rc><c>O </c><c>   4</c></rc>
    <rc><c>O </c><c>   4</c></rc>
    <rc><c>O </c><c>   4</c></rc>
    <rc><c>O </c><c>   4</c></rc>
    <rc><c>O </c><c>   4</c></rc>
    <rc><c>O </c><c>   4</c></rc>
    <rc><c>O </c><c>   4</c></rc>
    <rc><c>O </c><c>   4</c></rc>
    <rc><c>O </c><c>   4</c></rc>
    <rc><c>O </c><c>   4</c></rc>
    <rc><c>O </c><c>   4</c></rc>
    <rc><c>O </c><c>   4</c></rc>
    <rc><c>O </c><c>   4</c></rc>
    <rc><c>O </c><c>   4</c></rc>
    <rc><c>O </c><c>   4</c></rc>
    <rc><c>O </c><c>   4</c></rc>
    <rc><c>O </c><c>   4</c></rc>
    <rc><c>O </c><c>   4</c></rc>
    <rc><c>O </c><c>   4</c></rc>
    <rc><c>O </c><c>   4</c></rc>
    <rc><c>O </c><c>   4</c></rc>
    <rc><c>O </c><c>   4</c></rc>
    <rc><c>O </c><c>   4</c></rc>
    <rc><c>O </c><c>   4</c></rc>
    <rc><c>O </c><c>   4</c></rc>
    <rc><c>O </c><c>   4</c></rc>
    <rc><c>O </c><c>   4</c></rc>
    <rc><c>O </c><c>   4</c></rc>
    <rc><c>O </c><c>   4</c></rc>
   </set>
  </array>
  <array name="atomtypes" >
   <dimension dim="1">type</dimension>
   <field type="int">atomspertype</field>
   <field type="string">element</field>
   <field>mass</field>
   <field>valence</field>
   <field type="string">pseudopotential</field>
   <set>
    <rc><c>   1</c><c>Li</c><c>      7.01000000</c><c>      3.00000000</c><c> PAW_PBE Li_sv 23Jan2001                </c></rc>
    <rc><c>  24</c><c>Nb</c><c>     92.00000000</c><c>     11.00000000</c><c> PAW_PBE Nb_pv 08Apr2002                </c></rc>
    <rc><c>   2</c><c>Mo</c><c>     95.94000000</c><c>     12.00000000</c><c> PAW_PBE Mo_pv 08Apr2002                </c></rc>
    <rc><c>  66</c><c>O </c><c>     16.00000000</c><c>      6.00000000</c><c> PAW_PBE O 08Apr2002                    </c></rc>
   </set>
  </array>
 </atominfo>
 <structure name="initialpos" >
  <crystal>
   <varray name="basis" >
    <v>      22.78514290       0.00000000       0.00000000 </v>
    <v>       0.00000000       3.87685037       0.00000000 </v>
    <v>      -9.97305163       0.00000241      15.12824818 </v>
   </varray>
   <i name="volume">   1336.34759474 </i>
   <varray name="rec_basis" >
    <v>       0.04388825       0.00000000       0.02893261 </v>
    <v>       0.00000000       0.25794135      -0.00000004 </v>
    <v>       0.00000000       0.00000000       0.06610151 </v>
   </varray>
  </crystal>
  <varray name="positions" >
   <v>       0.32902604       0.81377337       0.62725314 </v>
   <v>       0.36706548       0.00757261       0.04605598 </v>
   <v>       0.63413099       0.00781975       0.95435465 </v>
   <v>       0.86512411       0.50782486       0.04452505 </v>
   <v>       0.13142176       0.50944188       0.95515969 </v>
   <v>       0.24867609       0.00360403       0.13740172 </v>
   <v>       0.75211569       0.00320807       0.86146260 </v>
   <v>       0.74777101       0.50313474       0.13794187 </v>
   <v>       0.24969002       0.50338131       0.86476113 </v>
   <v>       0.12967851       0.99733564       0.23022372 </v>
   <v>       0.86901508       0.99859278       0.76720480 </v>
   <v>       0.63150235       0.49849283       0.23305560 </v>
   <v>       0.37122086       0.49599708       0.77521332 </v>
   <v>       0.41892704       0.96660683       0.37950929 </v>
   <v>       0.58396747       0.96719815       0.61741978 </v>
   <v>       0.91748952       0.46717087       0.38158851 </v>
   <v>       0.08223452       0.46719273       0.62012055 </v>
   <v>       0.29672002       0.00330230       0.46743053 </v>
   <v>       0.70241825       0.00350654       0.52618924 </v>
   <v>       0.79865639       0.50367145       0.47308607 </v>
   <v>       0.19818777       0.50283214       0.52356436 </v>
   <v>       0.46714354       0.00115958       0.71384581 </v>
   <v>       0.53667672       0.00177070       0.28700982 </v>
   <v>       0.96366690       0.50165172       0.71232284 </v>
   <v>       0.03292295       0.50139376       0.28389494 </v>
   <v>       0.99930813       0.25192362       0.00016018 </v>
   <v>       0.50082375       0.75294408       0.00103851 </v>
   <v>       0.00028639       0.49092101       0.50035131 </v>
   <v>       0.50077023       0.99119865       0.49910380 </v>
   <v>       0.14867238       0.00447038       0.99135558 </v>
   <v>       0.84986610       0.00396418       0.00848232 </v>
   <v>       0.64908162       0.50435692       0.99044897 </v>
   <v>       0.35088059       0.50402330       0.00940366 </v>
   <v>       0.30331066       0.00307872       0.08179887 </v>
   <v>       0.69622089       0.00380889       0.91749924 </v>
   <v>       0.80283956       0.50330333       0.08132215 </v>
   <v>       0.19630157       0.50201774       0.91993322 </v>
   <v>       0.03378528       0.99917387       0.09882631 </v>
   <v>       0.96556789       0.99994190       0.90229248 </v>
   <v>       0.53440474       0.50164432       0.09879101 </v>
   <v>       0.46659011       0.50022161       0.90140186 </v>
   <v>       0.44974831       0.00384509       0.15573410 </v>
   <v>       0.54994126       0.00309524       0.84382948 </v>
   <v>       0.94897084       0.50337064       0.15522785 </v>
   <v>       0.05012359       0.50514809       0.84460764 </v>
   <v>       0.17983755       0.00193758       0.17775073 </v>
   <v>       0.81997772       0.00311691       0.82254671 </v>
   <v>       0.67982904       0.50294259       0.17710108 </v>
   <v>       0.31963497       0.50033090       0.82444827 </v>
   <v>       0.04878353       0.00124521       0.27027374 </v>
   <v>       0.95050071       0.00183833       0.73018592 </v>
   <v>       0.54990854       0.50168990       0.26976046 </v>
   <v>       0.45070818       0.50107655       0.72824423 </v>
   <v>       0.32538744       0.99965901       0.24992700 </v>
   <v>       0.67447435       0.99945830       0.74974759 </v>
   <v>       0.82531951       0.49921176       0.24961311 </v>
   <v>       0.17439859       0.49979324       0.75118979 </v>
   <v>       0.47625833       0.99850797       0.32596821 </v>
   <v>       0.52299745       0.99946209       0.67070594 </v>
   <v>       0.97614207       0.49943917       0.32678189 </v>
   <v>       0.02406664       0.49846164       0.67362712 </v>
   <v>       0.20662222       0.00173181       0.34905260 </v>
   <v>       0.79294681       0.00191582       0.65110457 </v>
   <v>       0.70763562       0.50211585       0.34907500 </v>
   <v>       0.29645559       0.50160468       0.65309517 </v>
   <v>       0.35393688       0.00070874       0.42607298 </v>
   <v>       0.64819428       0.99927369       0.57434107 </v>
   <v>       0.85277742       0.50023878       0.42547124 </v>
   <v>       0.14804555       0.49995339       0.57563065 </v>
   <v>       0.22281397       0.00247314       0.52271630 </v>
   <v>       0.77878443       0.00306656       0.48119018 </v>
   <v>       0.72194631       0.50292859       0.51851955 </v>
   <v>       0.27956023       0.50267601       0.48124307 </v>
   <v>       0.37553520       0.00204855       0.59746897 </v>
   <v>       0.62182967       0.00258571       0.40395421 </v>
   <v>       0.87849928       0.50276329       0.59598184 </v>
   <v>       0.12164698       0.50218786       0.40394243 </v>
   <v>       0.09108996       0.99275767       0.63118163 </v>
   <v>       0.91001188       0.99294926       0.36873391 </v>
   <v>       0.58993733       0.49283003       0.63102849 </v>
   <v>       0.40947169       0.49251345       0.36900828 </v>
   <v>       0.39226543       0.99978807       0.76824256 </v>
   <v>       0.60590768       0.00111106       0.23192781 </v>
   <v>       0.89450866       0.50100377       0.76827447 </v>
   <v>       0.10572419       0.50033550       0.23199163 </v>
   <v>       0.27540816       0.00303702       0.89718945 </v>
   <v>       0.72397103       0.00360458       0.10267191 </v>
   <v>       0.77538565       0.50362234       0.89649518 </v>
   <v>       0.22423105       0.50367155       0.10414164 </v>
   <v>       0.42940766       0.00435390       0.98740898 </v>
   <v>       0.57149985       0.00491383       0.01353698 </v>
   <v>       0.92805959       0.50255993       0.98696631 </v>
   <v>       0.07097208       0.50379215       0.01351543 </v>
  </varray>
 </structure>
 <calculation>
  <scstep>
   <time name="dav">   43.28   43.58</time>
   <time name="total">   44.42   44.72</time>
   <energy>
    <i name="alphaZ">   3514.54571391 </i>
    <i name="ewald"> -36984.38218145 </i>
    <i name="hartreedc"> -17991.27686034 </i>
    <i name="XCdc">   2527.00961295 </i>
    <i name="pawpsdc">  35089.64318688 </i>
    <i name="pawaedc"> -34806.48135010 </i>
    <i name="eentropy">     -0.02345229 </i>
    <i name="bandstr">   2054.07436177 </i>
    <i name="atom">  56348.38862387 </i>
    <i name="e_fr_energy">   9751.49765520 </i>
    <i name="e_wo_entrp">   9751.52110749 </i>
    <i name="e_0_energy">   9751.50938135 </i>
   </energy>
  </scstep>
  <scstep>
   <time name="dav">   43.26   43.56</time>
   <time name="total">   43.26   43.56</time>
   <energy>
    <i name="e_fr_energy">    830.23832061 </i>
    <i name="e_wo_entrp">    830.27784898 </i>
    <i name="e_0_energy">    830.25808479 </i>
   </energy>
  </scstep>
  <scstep>
   <time name="dav">   64.91   65.37</time>
   <time name="total">   64.91   65.37</time>
   <energy>
    <i name="e_fr_energy">   -921.04627652 </i>
    <i name="e_wo_entrp">   -921.03498805 </i>
    <i name="e_0_energy">   -921.04063228 </i>
   </energy>
  </scstep>
  <scstep>
   <time name="dav">   62.50   62.93</time>
   <time name="total">   62.50   62.94</time>
   <energy>
    <i name="e_fr_energy">  -1017.00154633 </i>
    <i name="e_wo_entrp">  -1016.98869295 </i>
    <i name="e_0_energy">  -1016.99511964 </i>
   </energy>
  </scstep>
  <scstep>
   <time name="dav">   64.33   64.77</time>
   <time name="total">   66.33   66.79</time>
   <energy>
    <i name="e_fr_energy">  -1018.47288588 </i>
    <i name="e_wo_entrp">  -1018.46030309 </i>
    <i name="e_0_energy">  -1018.46659449 </i>
   </energy>
  </scstep>
  <scstep>
   <time name="diag">    4.70    4.72</time>
   <time name="diis">   46.72   47.04</time>
   <time name="orth">    0.54    0.55</time>
   <time name="total">   55.46   55.83</time>
   <energy>
    <i name="e_fr_energy">   -753.51513282 </i>
    <i name="e_wo_entrp">   -753.50372131 </i>
    <i name="e_0_energy">   -753.50942706 </i>
   </energy>
  </scstep>
  <scstep>
   <time name="diag">    4.59    4.62</time>
   <time name="diis">   41.81   42.09</time>
   <time name="orth">    0.54    0.54</time>
   <time name="total">   50.46   50.80</time>
   <energy>
    <i name="e_fr_energy">   -749.52617562 </i>
    <i name="e_wo_entrp">   -749.51703337 </i>
    <i name="e_0_energy">   -749.52160449 </i>
   </energy>
  </scstep>
  <scstep>
   <time name="diag">    4.63    4.66</time>
   <time name="diis">   42.58   42.87</time>
   <time name="orth">    0.54    0.55</time>
   <time name="total">   51.24   51.59</time>
   <energy>
    <i name="e_fr_energy">   -761.03464606 </i>
    <i name="e_wo_entrp">   -761.02426841 </i>
    <i name="e_0_energy">   -761.02945724 </i>
   </energy>
  </scstep>
  <scstep>
   <time name="diag">    4.75    4.78</time>
   <time name="diis">   39.64   39.91</time>
   <time name="orth">    0.54    0.54</time>
   <time name="total">   48.45   48.77</time>
   <energy>
    <i name="e_fr_energy">   -781.77615351 </i>
    <i name="e_wo_entrp">   -781.76409479 </i>
    <i name="e_0_energy">   -781.77012415 </i>
   </energy>
  </scstep>
  <scstep>
   <time name="diag">    4.67    4.70</time>
   <time name="diis">   40.51   40.78</time>
   <time name="orth">    0.54    0.54</time>
   <time name="total">   49.21   49.53</time>
   <energy>
    <i name="e_fr_energy">   -794.14714293 </i>
    <i name="e_wo_entrp">   -794.13262970 </i>
    <i name="e_0_energy">   -794.13988631 </i>
   </energy>
  </scstep>
  <scstep>
   <time name="diag">    4.73    4.76</time>
   <time name="diis">   41.22   41.50</time>
   <time name="orth">    0.53    0.54</time>
   <time name="total">   49.98   50.31</time>
   <energy>
    <i name="e_fr_energy">   -804.22810765 </i>
    <i name="e_wo_entrp">   -804.21265746 </i>
    <i name="e_0_energy">   -804.22038255 </i>
   </energy>
  </scstep>
  <scstep>
   <time name="diag">    4.71    4.74</time>
   <time name="diis">   42.47   42.76</time>
   <time name="orth">    0.54    0.54</time>
   <time name="total">   51.25   51.61</time>
   <energy>
    <i name="e_fr_energy">   -812.15735088 </i>
    <i name="e_wo_entrp">   -812.14255703 </i>
    <i name="e_0_energy">   -812.14995395 </i>
   </energy>
  </scstep>
  <scstep>
   <time name="diag">    4.68    4.70</time>
   <time name="diis">   41.61   41.89</time>
   <time name="orth">    0.54    0.55</time>
   <time name="total">   50.37   50.69</time>
   <energy>
    <i name="e_fr_energy">   -812.76866779 </i>
    <i name="e_wo_entrp">   -812.75313292 </i>
    <i name="e_0_energy">   -812.76090036 </i>
   </energy>
  </scstep>
  <scstep>
   <time name="diag">    4.68    4.72</time>
   <time name="diis">   41.49   41.79</time>
   <time name="orth">    0.54    0.54</time>
   <time name="total">   50.23   50.59</time>
   <energy>
    <i name="e_fr_energy">   -812.86163658 </i>
    <i name="e_wo_entrp">   -812.84524834 </i>
    <i name="e_0_energy">   -812.85344246 </i>
   </energy>
  </scstep>
  <scstep>
   <time name="diag">    4.73    4.76</time>
   <time name="diis">   44.14   44.44</time>
   <time name="orth">    0.53    0.54</time>
   <time name="total">   52.96   53.32</time>
   <energy>
    <i name="e_fr_energy">   -812.87411338 </i>
    <i name="e_wo_entrp">   -812.85626606 </i>
    <i name="e_0_energy">   -812.86518972 </i>
   </energy>
  </scstep>
  <scstep>
   <time name="diag">    4.50    4.52</time>
   <time name="diis">   42.93   43.22</time>
   <time name="orth">    0.54    0.54</time>
   <time name="total">   51.50   51.84</time>
   <energy>
    <i name="e_fr_energy">   -812.87056088 </i>
    <i name="e_wo_entrp">   -812.85215570 </i>
    <i name="e_0_energy">   -812.86135829 </i>
   </energy>
  </scstep>
  <scstep>
   <time name="diag">    4.70    4.73</time>
   <time name="diis">   46.12   46.43</time>
   <time name="orth">    0.54    0.54</time>
   <time name="total">   54.90   55.26</time>
   <energy>
    <i name="e_fr_energy">   -812.86970481 </i>
    <i name="e_wo_entrp">   -812.85111539 </i>
    <i name="e_0_energy">   -812.86041010 </i>
   </energy>
  </scstep>
  <scstep>
   <time name="diag">    4.76    4.79</time>
   <time name="diis">   43.51   43.82</time>
   <time name="orth">    0.54    0.54</time>
   <time name="total">   52.35   52.71</time>
   <energy>
    <i name="e_fr_energy">   -812.86979584 </i>
    <i name="e_wo_entrp">   -812.85096914 </i>
    <i name="e_0_energy">   -812.86038249 </i>
   </energy>
  </scstep>
  <scstep>
   <time name="diag">    4.78    4.81</time>
   <time name="diis">   44.70   45.01</time>
   <time name="orth">    0.54    0.54</time>
   <time name="total">   53.56   53.92</time>
   <energy>
    <i name="e_fr_energy">   -812.86997283 </i>
    <i name="e_wo_entrp">   -812.85100390 </i>
    <i name="e_0_energy">   -812.86048836 </i>
   </energy>
  </scstep>
  <scstep>
   <time name="diag">    4.65    4.68</time>
   <time name="diis">   44.36   44.65</time>
   <time name="orth">    0.53    0.53</time>
   <time name="total">   53.03   53.36</time>
   <energy>
    <i name="e_fr_energy">   -812.87005514 </i>
    <i name="e_wo_entrp">   -812.85101191 </i>
    <i name="e_0_energy">   -812.86053352 </i>
   </energy>
  </scstep>
  <scstep>
   <time name="diag">    4.55    4.57</time>
   <time name="diis">   41.34   41.60</time>
   <time name="orth">    0.54    0.54</time>
   <time name="total">   49.90   50.21</time>
   <energy>
    <i name="e_fr_energy">   -812.87008987 </i>
    <i name="e_wo_entrp">   -812.85097709 </i>
    <i name="e_0_energy">   -812.86053348 </i>
   </energy>
  </scstep>
  <scstep>
   <time name="diag">    4.56    4.58</time>
   <time name="diis">   41.23   41.48</time>
   <time name="orth">    0.52    0.52</time>
   <time name="total">   49.57   49.86</time>
   <energy>
    <i name="e_fr_energy">   -812.87010000 </i>
    <i name="e_wo_entrp">   -812.85097966 </i>
    <i name="e_0_energy">   -812.86053983 </i>
   </energy>
  </scstep>
  <scstep>
   <time name="diag">    4.70    4.72</time>
   <time name="diis">   41.90   42.16</time>
   <time name="orth">    0.50    0.50</time>
   <time name="total">   50.09   50.39</time>
   <energy>
    <i name="e_fr_energy">   -812.87010325 </i>
    <i name="e_wo_entrp">   -812.85096950 </i>
    <i name="e_0_energy">   -812.86053637 </i>
   </energy>
  </scstep>
  <scstep>
   <time name="diag">    4.59    4.61</time>
   <time name="diis">   40.52   40.77</time>
   <time name="orth">    0.51    0.51</time>
   <time name="total">   48.50   48.79</time>
   <energy>
    <i name="e_fr_energy">   -812.87010822 </i>
    <i name="e_wo_entrp">   -812.85096944 </i>
    <i name="e_0_energy">   -812.86053883 </i>
   </energy>
  </scstep>
  <scstep>
   <time name="diag">    4.60    4.62</time>
   <time name="diis">   34.94   35.16</time>
   <time name="orth">    0.51    0.51</time>
   <time name="total">   42.97   43.22</time>
   <energy>
    <i name="e_fr_energy">   -812.87011020 </i>
    <i name="e_wo_entrp">   -812.85096978 </i>
    <i name="e_0_energy">   -812.86053999 </i>
   </energy>
  </scstep>
  <scstep>
   <time name="diag">    4.66    4.68</time>
   <time name="diis">   27.80   27.97</time>
   <time name="orth">    0.53    0.53</time>
   <time name="total">   34.07   34.27</time>
   <energy>
    <i name="alphaZ">   3514.54571391 </i>
    <i name="ewald"> -36984.38218145 </i>
    <i name="hartreedc"> -18354.78803478 </i>
    <i name="XCdc">   2568.75979541 </i>
    <i name="pawpsdc">  39654.89163490 </i>
    <i name="pawaedc"> -39536.95478847 </i>
    <i name="eentropy">     -0.01914067 </i>
    <i name="bandstr">  -8023.31173339 </i>
    <i name="atom">  56348.38862387 </i>
    <i name="e_fr_energy">   -812.87011068 </i>
    <i name="e_wo_entrp">   -812.85097001 </i>
    <i name="e_0_energy">   -812.86054035 </i>
   </energy>
  </scstep>
  <structure>
   <crystal>
    <varray name="basis" >
     <v>      22.78514290       0.00000000       0.00000000 </v>
     <v>       0.00000000       3.87685037       0.00000000 </v>
     <v>      -9.97305163       0.00000241      15.12824818 </v>
    </varray>
    <i name="volume">   1336.34759474 </i>
    <varray name="rec_basis" >
     <v>       0.04388825       0.00000000       0.02893261 </v>
     <v>       0.00000000       0.25794135      -0.00000004 </v>
     <v>       0.00000000       0.00000000       0.06610151 </v>
    </varray>
   </crystal>
   <varray name="positions" >
    <v>       0.32902604       0.81377337       0.62725314 </v>
    <v>       0.36706548       0.00757261       0.04605598 </v>
    <v>       0.63413099       0.00781975       0.95435465 </v>
    <v>       0.86512411       0.50782486       0.04452505 </v>
    <v>       0.13142176       0.50944188       0.95515969 </v>
    <v>       0.24867609       0.00360403       0.13740172 </v>
    <v>       0.75211569       0.00320807       0.86146260 </v>
    <v>       0.74777101       0.50313474       0.13794187 </v>
    <v>       0.24969002       0.50338131       0.86476113 </v>
    <v>       0.12967851       0.99733564       0.23022372 </v>
    <v>       0.86901508       0.99859278       0.76720480 </v>
    <v>       0.63150235       0.49849283       0.23305560 </v>
    <v>       0.37122086       0.49599708       0.77521332 </v>
    <v>       0.41892704       0.96660683       0.37950929 </v>
    <v>       0.58396747       0.96719815       0.61741978 </v>
    <v>       0.91748952       0.46717087       0.38158851 </v>
    <v>       0.08223452       0.46719273       0.62012055 </v>
    <v>       0.29672002       0.00330230       0.46743053 </v>
    <v>       0.70241825       0.00350654       0.52618924 </v>
    <v>       0.79865639       0.50367145       0.47308607 </v>
    <v>       0.19818777       0.50283214       0.52356436 </v>
    <v>       0.46714354       0.00115958       0.71384581 </v>
    <v>       0.53667672       0.00177070       0.28700982 </v>
    <v>       0.96366690       0.50165172       0.71232284 </v>
    <v>       0.03292295       0.50139376       0.28389494 </v>
    <v>       0.99930813       0.25192362       0.00016018 </v>
    <v>       0.50082375       0.75294408       0.00103851 </v>
    <v>       0.00028639       0.49092101       0.50035131 </v>
    <v>       0.50077023       0.99119865       0.49910380 </v>
    <v>       0.14867238       0.00447038       0.99135558 </v>
    <v>       0.84986610       0.00396418       0.00848232 </v>
    <v>       0.64908162       0.50435692       0.99044897 </v>
    <v>       0.35088059       0.50402330       0.00940366 </v>
    <v>       0.30331066       0.00307872       0.08179887 </v>
    <v>       0.69622089       0.00380889       0.91749924 </v>
    <v>       0.80283956       0.50330333       0.08132215 </v>
    <v>       0.19630157       0.50201774       0.91993322 </v>
    <v>       0.03378528       0.99917387       0.09882631 </v>
    <v>       0.96556789       0.99994190       0.90229248 </v>
    <v>       0.53440474       0.50164432       0.09879101 </v>
    <v>       0.46659011       0.50022161       0.90140186 </v>
    <v>       0.44974831       0.00384509       0.15573410 </v>
    <v>       0.54994126       0.00309524       0.84382948 </v>
    <v>       0.94897084       0.50337064       0.15522785 </v>
    <v>       0.05012359       0.50514809       0.84460764 </v>
    <v>       0.17983755       0.00193758       0.17775073 </v>
    <v>       0.81997772       0.00311691       0.82254671 </v>
    <v>       0.67982904       0.50294259       0.17710108 </v>
    <v>       0.31963497       0.50033090       0.82444827 </v>
    <v>       0.04878353       0.00124521       0.27027374 </v>
    <v>       0.95050071       0.00183833       0.73018592 </v>
    <v>       0.54990854       0.50168990       0.26976046 </v>
    <v>       0.45070818       0.50107655       0.72824423 </v>
    <v>       0.32538744       0.99965901       0.24992700 </v>
    <v>       0.67447435       0.99945830       0.74974759 </v>
    <v>       0.82531951       0.49921176       0.24961311 </v>
    <v>       0.17439859       0.49979324       0.75118979 </v>
    <v>       0.47625833       0.99850797       0.32596821 </v>
    <v>       0.52299745       0.99946209       0.67070594 </v>
    <v>       0.97614207       0.49943917       0.32678189 </v>
    <v>       0.02406664       0.49846164       0.67362712 </v>
    <v>       0.20662222       0.00173181       0.34905260 </v>
    <v>       0.79294681       0.00191582       0.65110457 </v>
    <v>       0.70763562       0.50211585       0.34907500 </v>
    <v>       0.29645559       0.50160468       0.65309517 </v>
    <v>       0.35393688       0.00070874       0.42607298 </v>
    <v>       0.64819428       0.99927369       0.57434107 </v>
    <v>       0.85277742       0.50023878       0.42547124 </v>
    <v>       0.14804555       0.49995339       0.57563065 </v>
    <v>       0.22281397       0.00247314       0.52271630 </v>
    <v>       0.77878443       0.00306656       0.48119018 </v>
    <v>       0.72194631       0.50292859       0.51851955 </v>
    <v>       0.27956023       0.50267601       0.48124307 </v>
    <v>       0.37553520       0.00204855       0.59746897 </v>
    <v>       0.62182967       0.00258571       0.40395421 </v>
    <v>       0.87849928       0.50276329       0.59598184 </v>
    <v>       0.12164698       0.50218786       0.40394243 </v>
    <v>       0.09108996       0.99275767       0.63118163 </v>
    <v>       0.91001188       0.99294926       0.36873391 </v>
    <v>       0.58993733       0.49283003       0.63102849 </v>
    <v>       0.40947169       0.49251345       0.36900828 </v>
    <v>       0.39226543       0.99978807       0.76824256 </v>
    <v>       0.60590768       0.00111106       0.23192781 </v>
    <v>       0.89450866       0.50100377       0.76827447 </v>
    <v>       0.10572419       0.50033550       0.23199163 </v>
    <v>       0.27540816       0.00303702       0.89718945 </v>
    <v>       0.72397103       0.00360458       0.10267191 </v>
    <v>       0.77538565       0.50362234       0.89649518 </v>
    <v>       0.22423105       0.50367155       0.10414164 </v>
    <v>       0.42940766       0.00435390       0.98740898 </v>
    <v>       0.57149985       0.00491383       0.01353698 </v>
    <v>       0.92805959       0.50255993       0.98696631 </v>
    <v>       0.07097208       0.50379215       0.01351543 </v>
   </varray>
  </structure>
  <varray name="forces" >
   <v>      -1.13509602       1.08430563       0.08222631 </v>
   <v>      -0.00453950       0.00112251      -0.00290445 </v>
   <v>      -0.01413165      -0.00030231      -0.03233108 </v>
   <v>       0.01255252       0.00165270       0.02662252 </v>
   <v>       0.00193249       0.00152689      -0.00168626 </v>
   <v>      -0.00604776       0.00109260       0.00680702 </v>
   <v>      -0.00432595       0.00062448      -0.00607842 </v>
   <v>      -0.00182457      -0.00020755      -0.00393055 </v>
   <v>       0.00249424      -0.00146279      -0.02125748 </v>
   <v>       0.01184197       0.00208258       0.03546504 </v>
   <v>       0.00155576       0.00162179      -0.00216428 </v>
   <v>       0.00031369       0.00207053       0.00457720 </v>
   <v>      -0.29987969      -0.40953089       0.29390001 </v>
   <v>      -0.00642176      -0.00682777       0.01594863 </v>
   <v>      -0.02613314      -0.00607287      -0.00548750 </v>
   <v>      -0.00042730      -0.00358206       0.01197568 </v>
   <v>       0.03333713      -0.00949756       0.01027005 </v>
   <v>       0.29968425       0.26202687      -0.42627447 </v>
   <v>      -0.00130958      -0.00137164       0.00402952 </v>
   <v>       0.00173634      -0.00037117       0.00637523 </v>
   <v>      -0.30832973      -0.24358502      -0.09947244 </v>
   <v>       0.40975984       0.20663425       0.06802968 </v>
   <v>      -0.00008864       0.00079687       0.00379230 </v>
   <v>       0.00682546       0.00101581      -0.00091622 </v>
   <v>       0.00951840       0.00157793       0.01014417 </v>
   <v>      -0.00190088      -0.00125530       0.00764980 </v>
   <v>       0.00008386       0.00220813      -0.00531536 </v>
   <v>      -0.00470989      -0.00308360      -0.01384827 </v>
   <v>       0.00665472      -0.00246678      -0.00631963 </v>
   <v>      -0.00422815       0.00096650       0.00320312 </v>
   <v>      -0.00324454       0.00054034      -0.00487142 </v>
   <v>       0.00180308       0.00177481       0.00677404 </v>
   <v>       0.00015856       0.00112158       0.00484882 </v>
   <v>      -0.00001421       0.00135020       0.00369613 </v>
   <v>       0.00207270       0.00160886       0.00177481 </v>
   <v>      -0.00174376       0.00144556      -0.00364555 </v>
   <v>      -0.01463838       0.00177900       0.00844666 </v>
   <v>      -0.00470436       0.00178298       0.00150406 </v>
   <v>      -0.00236505       0.00014385       0.00211594 </v>
   <v>       0.00059530       0.00189928      -0.00189085 </v>
   <v>      -0.00857639      -0.01457942      -0.01174186 </v>
   <v>       0.00390259       0.00081056      -0.00022186 </v>
   <v>       0.00701212       0.00674981       0.01354588 </v>
   <v>      -0.00277686       0.00104778      -0.00174786 </v>
   <v>      -0.00446476       0.00152879       0.00440753 </v>
   <v>       0.00356076       0.00072589      -0.00859173 </v>
   <v>      -0.00241249       0.00133922      -0.00016552 </v>
   <v>       0.00651550       0.00162250      -0.00521614 </v>
   <v>       0.03606909      -0.00402205      -0.00862019 </v>
   <v>      -0.00583056       0.00103013      -0.00501668 </v>
   <v>       0.00076471       0.00027139       0.00109797 </v>
   <v>       0.00390197       0.00105756      -0.00016507 </v>
   <v>      -0.09700483       0.12517766       0.03375185 </v>
   <v>      -0.00559881      -0.00051269      -0.00254947 </v>
   <v>       0.00379316      -0.00123422       0.00408271 </v>
   <v>      -0.00020281      -0.00165216      -0.00113482 </v>
   <v>      -0.00987754      -0.00158329       0.00907563 </v>
   <v>       0.00531196      -0.00071385      -0.00619869 </v>
   <v>      -0.01747493       0.00330971       0.01035625 </v>
   <v>      -0.00793090      -0.00111778       0.00139426 </v>
   <v>      -0.00543163      -0.00001931       0.00473013 </v>
   <v>       0.00588389       0.01181076      -0.00160251 </v>
   <v>       0.00444448       0.00041783      -0.00010121 </v>
   <v>       0.00186078       0.00043369      -0.00446242 </v>
   <v>      -1.29831383      -1.59246360       0.57155564 </v>
   <v>      -0.02872772       0.00014487       0.00598756 </v>
   <v>       0.01043379      -0.00210681       0.00048980 </v>
   <v>       0.00518110      -0.00190845      -0.00221406 </v>
   <v>       0.00861892       0.00194453      -0.01709389 </v>
   <v>       0.33877870      -0.26506238       0.21919586 </v>
   <v>       0.00282634      -0.00139188      -0.00015713 </v>
   <v>       0.00162613       0.00021621      -0.00269318 </v>
   <v>      -0.10271519       0.17642373       0.13326682 </v>
   <v>       2.05749174       0.97511405      -0.69798743 </v>
   <v>       0.00216618      -0.00001772      -0.00146869 </v>
   <v>      -0.00084550       0.00069074      -0.00129743 </v>
   <v>       0.01357568      -0.01609288       0.06288898 </v>
   <v>      -0.00935439       0.00323053       0.00127184 </v>
   <v>       0.00125411      -0.00148103      -0.00250514 </v>
   <v>       0.00905405       0.00091488      -0.00405643 </v>
   <v>       0.00727361       0.00160826      -0.00785088 </v>
   <v>       0.12632056      -0.31362860      -0.26935616 </v>
   <v>       0.00143697       0.00039876      -0.00002176 </v>
   <v>      -0.00111208       0.00070386       0.00076525 </v>
   <v>      -0.00325329      -0.00147215      -0.00773740 </v>
   <v>      -0.00504761      -0.00004088       0.01165214 </v>
   <v>      -0.00020603       0.00143022       0.00119289 </v>
   <v>       0.00144777       0.00113319       0.00173364 </v>
   <v>      -0.00067739       0.00145375       0.00009727 </v>
   <v>      -0.00040997       0.00002237      -0.00067429 </v>
   <v>      -0.00299143       0.00106387      -0.00056417 </v>
   <v>      -0.00165790       0.00178445      -0.00355323 </v>
   <v>      -0.00442761       0.00033437       0.00244487 </v>
  </varray>
  <varray name="stress" >
   <v>      13.11059776       6.05833655      -3.58583080 </v>
   <v>       6.05830877       9.15308608      -2.87265376 </v>
   <v>      -3.58581381      -2.87265968       7.64290134 </v>
  </varray>
  <energy>
   <i name="e_fr_energy">   -812.87011068 </i>
   <i name="e_wo_entrp">   -812.85097001 </i>
   <i name="e_0_energy">   -812.86054035 </i>
  </energy>
  <time name="totalsc"> 1473.41 1483.57</time>
 </calculation>
 <calculation>
  <scstep>
   <time name="dav">   49.12   49.46</time>
   <time name="total">   52.30   52.65</time>
   <energy>
    <i name="alphaZ">   3514.54571391 </i>
    <i name="ewald"> -37003.92855498 </i>
    <i name="hartreedc"> -18335.96013476 </i>
    <i name="XCdc">   2568.69302724 </i>
    <i name="pawpsdc">  39654.89781241 </i>
    <i name="pawaedc"> -39536.96075853 </i>
    <i name="eentropy">     -0.01962519 </i>
    <i name="bandstr">  -8022.65363902 </i>
    <i name="atom">  56348.38862387 </i>
    <i name="e_fr_energy">   -812.99753505 </i>
    <i name="e_wo_entrp">   -812.97790985 </i>
    <i name="e_0_energy">   -812.98772245 </i>
   </energy>
  </scstep>
  <scstep>
   <time name="diag">    4.54    4.57</time>
   <time name="diis">   46.78   47.12</time>
   <time name="orth">    0.49    0.49</time>
   <time name="total">   54.97   55.36</time>
   <energy>
    <i name="e_fr_energy">   -813.05064666 </i>
    <i name="e_wo_entrp">   -813.03071777 </i>
    <i name="e_0_energy">   -813.04068221 </i>
   </energy>
  </scstep>
  <scstep>
   <time name="diag">    4.51    4.53</time>
   <time name="diis">   47.67   48.01</time>
   <time name="orth">    0.50    0.51</time>
   <time name="total">   55.93   56.31</time>
   <energy>
    <i name="e_fr_energy">   -813.06112113 </i>
    <i name="e_wo_entrp">   -813.04123610 </i>
    <i name="e_0_energy">   -813.05117862 </i>
   </energy>
  </scstep>
  <scstep>
   <time name="diag">    4.54    4.56</time>
   <time name="diis">   50.94   51.30</time>
   <time name="orth">    0.56    0.56</time>
   <time name="total">   59.36   59.76</time>
   <energy>
    <i name="e_fr_energy">   -813.06162446 </i>
    <i name="e_wo_entrp">   -813.04176907 </i>
    <i name="e_0_energy">   -813.05169676 </i>
   </energy>
  </scstep>
  <scstep>
   <time name="diag">    4.55    4.58</time>
   <time name="diis">   48.52   48.86</time>
   <time name="orth">    0.46    0.47</time>
   <time name="total">   56.59   56.98</time>
   <energy>
    <i name="e_fr_energy">   -813.06097644 </i>
    <i name="e_wo_entrp">   -813.04106970 </i>
    <i name="e_0_energy">   -813.05102307 </i>
   </energy>
  </scstep>
  <scstep>
   <time name="diag">    4.37    4.39</time>
   <time name="diis">   47.14   47.46</time>
   <time name="orth">    0.47    0.47</time>
   <time name="total">   54.97   55.33</time>
   <energy>
    <i name="e_fr_energy">   -813.06089053 </i>
    <i name="e_wo_entrp">   -813.04107760 </i>
    <i name="e_0_energy">   -813.05098407 </i>
   </energy>
  </scstep>
  <scstep>
   <time name="diag">    4.39    4.41</time>
   <time name="diis">   47.62   47.94</time>
   <time name="orth">    0.48    0.49</time>
   <time name="total">   55.37   55.72</time>
   <energy>
    <i name="e_fr_energy">   -813.06088418 </i>
    <i name="e_wo_entrp">   -813.04104220 </i>
    <i name="e_0_energy">   -813.05096319 </i>
   </energy>
  </scstep>
  <scstep>
   <time name="diag">    4.44    4.46</time>
   <time name="diis">   46.35   46.65</time>
   <time name="orth">    0.49    0.49</time>
   <time name="total">   54.08   54.41</time>
   <energy>
    <i name="e_fr_energy">   -813.06088326 </i>
    <i name="e_wo_entrp">   -813.04104178 </i>
    <i name="e_0_energy">   -813.05096252 </i>
   </energy>
  </scstep>
  <scstep>
   <time name="diag">    4.53    4.55</time>
   <time name="diis">   43.24   43.51</time>
   <time name="orth">    0.47    0.47</time>
   <time name="total">   50.98   51.28</time>
   <energy>
    <i name="e_fr_energy">   -813.06089283 </i>
    <i name="e_wo_entrp">   -813.04105205 </i>
    <i name="e_0_energy">   -813.05097244 </i>
   </energy>
  </scstep>
  <scstep>
   <time name="diag">    4.62    4.64</time>
   <time name="diis">   36.77   37.01</time>
   <time name="orth">    0.51    0.51</time>
   <time name="total">   44.83   45.11</time>
   <energy>
    <i name="e_fr_energy">   -813.06089428 </i>
    <i name="e_wo_entrp">   -813.04105109 </i>
    <i name="e_0_energy">   -813.05097268 </i>
   </energy>
  </scstep>
  <scstep>
   <time name="diag">    4.62    4.64</time>
   <time name="diis">   32.24   32.46</time>
   <time name="orth">    0.50    0.51</time>
   <time name="total">   40.56   40.82</time>
   <energy>
    <i name="e_fr_energy">   -813.06089514 </i>
    <i name="e_wo_entrp">   -813.04105385 </i>
    <i name="e_0_energy">   -813.05097449 </i>
   </energy>
  </scstep>
  <scstep>
   <time name="diag">    4.09    4.11</time>
   <time name="diis">   23.82   23.95</time>
   <time name="orth">    0.50    0.50</time>
   <time name="total">   29.62   29.78</time>
   <energy>
    <i name="alphaZ">   3514.54571391 </i>
    <i name="ewald"> -37003.92855498 </i>
    <i name="hartreedc"> -18336.47812861 </i>
    <i name="XCdc">   2568.72019499 </i>
    <i name="pawpsdc">  39657.07197908 </i>
    <i name="pawaedc"> -39539.08269310 </i>
    <i name="eentropy">     -0.01984124 </i>
    <i name="bandstr">  -8022.27818963 </i>
    <i name="atom">  56348.38862387 </i>
    <i name="e_fr_energy">   -813.06089570 </i>
    <i name="e_wo_entrp">   -813.04105446 </i>
    <i name="e_0_energy">   -813.05097508 </i>
   </energy>
  </scstep>
  <structure>
   <crystal>
    <varray name="basis" >
     <v>      22.78514290       0.00000000       0.00000000 </v>
     <v>       0.00000000       3.87685037       0.00000000 </v>
     <v>      -9.97305163       0.00000241      15.12824818 </v>
    </varray>
    <i name="volume">   1336.34759474 </i>
    <varray name="rec_basis" >
     <v>       0.04388825       0.00000000       0.02893261 </v>
     <v>       0.00000000       0.25794135      -0.00000004 </v>
     <v>       0.00000000       0.00000000       0.06610151 </v>
    </varray>
   </crystal>
   <varray name="positions" >
    <v>       0.32867514       0.81348283       0.62697060 </v>
    <v>       0.36706295       0.00758461       0.04604062 </v>
    <v>       0.63411670       0.00782776       0.95433392 </v>
    <v>       0.86518253       0.50783744       0.04459970 </v>
    <v>       0.13142088       0.50944446       0.95515050 </v>
    <v>       0.24868076       0.00360689       0.13739951 </v>
    <v>       0.75212212       0.00320876       0.86146921 </v>
    <v>       0.74778146       0.50313586       0.13794306 </v>
    <v>       0.24967699       0.50337663       0.86472697 </v>
    <v>       0.12968302       0.99733236       0.23022170 </v>
    <v>       0.86901190       0.99860440       0.76719610 </v>
    <v>       0.63150101       0.49850830       0.23304672 </v>
    <v>       0.37110384       0.49394849       0.77554314 </v>
    <v>       0.41893275       0.96657478       0.37953547 </v>
    <v>       0.58395051       0.96716520       0.61742322 </v>
    <v>       0.91750556       0.46714404       0.38160648 </v>
    <v>       0.08226330       0.46712388       0.62014482 </v>
    <v>       0.29669155       0.00460734       0.46682105 </v>
    <v>       0.70241583       0.00350092       0.52618632 </v>
    <v>       0.79865429       0.50366867       0.47307789 </v>
    <v>       0.19791949       0.50162846       0.52352144 </v>
    <v>       0.46755631       0.00220014       0.71397018 </v>
    <v>       0.53667625       0.00177874       0.28700895 </v>
    <v>       0.96365955       0.50165688       0.71231257 </v>
    <v>       0.03299349       0.50139666       0.28398670 </v>
    <v>       0.99930507       0.25192790       0.00015920 </v>
    <v>       0.50081167       0.75295729       0.00101195 </v>
    <v>       0.00028346       0.49091169       0.50033736 </v>
    <v>       0.50076344       0.99117794       0.49911043 </v>
    <v>       0.14866392       0.00447505       0.99135325 </v>
    <v>       0.84987434       0.00397130       0.00849955 </v>
    <v>       0.64909260       0.50436560       0.99046379 </v>
    <v>       0.35088056       0.50402904       0.00939500 </v>
    <v>       0.30330829       0.00307983       0.08178583 </v>
    <v>       0.69622846       0.00381613       0.91751085 </v>
    <v>       0.80284482       0.50331317       0.08133303 </v>
    <v>       0.19629763       0.50202953       0.91994866 </v>
    <v>       0.03377065       0.99917152       0.09881851 </v>
    <v>       0.96556956       0.99995551       0.90228836 </v>
    <v>       0.53440353       0.50165414       0.09877354 </v>
    <v>       0.46656238       0.50013460       0.90137723 </v>
    <v>       0.44974813       0.00385569       0.15572764 </v>
    <v>       0.54996202       0.00313604       0.84385280 </v>
    <v>       0.94898591       0.50338140       0.15525105 </v>
    <v>       0.05011981       0.50515341       0.84460874 </v>
    <v>       0.17982905       0.00193091       0.17772293 </v>
    <v>       0.81998551       0.00312709       0.82255589 </v>
    <v>       0.67983462       0.50295315       0.17709221 </v>
    <v>       0.31961645       0.50030125       0.82436745 </v>
    <v>       0.04878941       0.00124651       0.27027805 </v>
    <v>       0.95049768       0.00184019       0.73018490 </v>
    <v>       0.54990750       0.50169922       0.26975202 </v>
    <v>       0.45061634       0.50171000       0.72822109 </v>
    <v>       0.32538383       0.99965037       0.24991212 </v>
    <v>       0.67449500       0.99944521       0.74976339 </v>
    <v>       0.82532460       0.49920289       0.24962369 </v>
    <v>       0.17437418       0.49978841       0.75120652 </v>
    <v>       0.47626406       0.99851049       0.32596301 </v>
    <v>       0.52302830       0.99947913       0.67076882 </v>
    <v>       0.97614673       0.49942761       0.32680009 </v>
    <v>       0.02405860       0.49845097       0.67362851 </v>
    <v>       0.20661557       0.00179392       0.34902803 </v>
    <v>       0.79294667       0.00191905       0.65110222 </v>
    <v>       0.70763124       0.50212113       0.34906237 </v>
    <v>       0.29570484       0.49368966       0.65377295 </v>
    <v>       0.35388363       0.00070476       0.42602471 </v>
    <v>       0.64819999       0.99926514       0.57433463 </v>
    <v>       0.85278577       0.50022856       0.42547285 </v>
    <v>       0.14807330       0.49996871       0.57565581 </v>
    <v>       0.22320609       0.00116162       0.52294346 </v>
    <v>       0.77878619       0.00306050       0.48118562 </v>
    <v>       0.72194509       0.50293047       0.51851387 </v>
    <v>       0.27959175       0.50356039       0.48143806 </v>
    <v>       0.37693143       0.00691212       0.59654709 </v>
    <v>       0.62183214       0.00258861       0.40394635 </v>
    <v>       0.87849237       0.50276774       0.59597787 </v>
    <v>       0.12171266       0.50211155       0.40404878 </v>
    <v>       0.09108052       0.99276349       0.63117585 </v>
    <v>       0.91001441       0.99293767       0.36873980 </v>
    <v>       0.58995039       0.49283087       0.63102443 </v>
    <v>       0.40948417       0.49251989       0.36899479 </v>
    <v>       0.39227120       0.99823393       0.76794076 </v>
    <v>       0.60590690       0.00111745       0.23191939 </v>
    <v>       0.89450782       0.50100952       0.76827337 </v>
    <v>       0.10571911       0.50032086       0.23197153 </v>
    <v>       0.27540691       0.00303714       0.89719379 </v>
    <v>       0.72397370       0.00361384       0.10267640 </v>
    <v>       0.77539306       0.50362866       0.89650564 </v>
    <v>       0.22422999       0.50367525       0.10413606 </v>
    <v>       0.42939773       0.00435055       0.98739824 </v>
    <v>       0.57149263       0.00490052       0.01351969 </v>
    <v>       0.92805196       0.50258346       0.98695228 </v>
    <v>       0.07096483       0.50380314       0.01351709 </v>
   </varray>
  </structure>
  <varray name="forces" >
   <v>      -0.80946016       1.02713747       0.01607613 </v>
   <v>      -0.00147666       0.00030310       0.01053092 </v>
   <v>       0.00261972      -0.00015926      -0.00508766 </v>
   <v>      -0.00780283       0.00117030       0.00129136 </v>
   <v>      -0.00898347       0.00087886       0.00336323 </v>
   <v>       0.00522561       0.00089173      -0.01041803 </v>
   <v>      -0.00109206       0.00043618       0.00496078 </v>
   <v>       0.00185349      -0.00020585      -0.00500427 </v>
   <v>      -0.02306531      -0.00051812       0.01761470 </v>
   <v>       0.00117872       0.00171030      -0.03035601 </v>
   <v>      -0.00436244       0.00128262       0.00202318 </v>
   <v>       0.00690139       0.00201081      -0.00008287 </v>
   <v>      -0.01493630      -0.37918326       0.07348685 </v>
   <v>       0.04174619      -0.00467906      -0.00098538 </v>
   <v>      -0.00796253      -0.00545693       0.00442865 </v>
   <v>      -0.01765961      -0.00306645      -0.00166292 </v>
   <v>      -0.00828354      -0.00461923       0.00091361 </v>
   <v>       0.08992724       0.24234269      -0.10509621 </v>
   <v>      -0.00355382      -0.00121778       0.00414462 </v>
   <v>       0.00296399      -0.00008912       0.00339398 </v>
   <v>      -0.05496576      -0.23840699      -0.03755391 </v>
   <v>       0.08857384       0.18297401       0.01062545 </v>
   <v>       0.00541674       0.00086749       0.00245165 </v>
   <v>      -0.00262758       0.00112266       0.00255730 </v>
   <v>      -0.02859792       0.00035240      -0.02617860 </v>
   <v>      -0.00581240       0.00074712      -0.00496726 </v>
   <v>       0.00920785      -0.00829019      -0.00101373 </v>
   <v>       0.00818605      -0.00329844       0.01163077 </v>
   <v>      -0.00200360      -0.00203577      -0.01606125 </v>
   <v>      -0.00366756       0.00124042       0.00291841 </v>
   <v>       0.00139358       0.00079782       0.00056671 </v>
   <v>       0.00205320       0.00167731       0.00314175 </v>
   <v>      -0.00065484       0.00131682      -0.00111823 </v>
   <v>      -0.00129816       0.00148932       0.00470733 </v>
   <v>      -0.00329181       0.00168471       0.00116488 </v>
   <v>       0.00365775       0.00156715      -0.00286922 </v>
   <v>       0.00915182       0.00158556      -0.00309057 </v>
   <v>      -0.00229830      -0.00216662       0.01546709 </v>
   <v>      -0.00204089       0.00217681       0.00608953 </v>
   <v>       0.00005597       0.00585906      -0.00747621 </v>
   <v>      -0.00530877      -0.02284706       0.03261952 </v>
   <v>      -0.00005809       0.00088867      -0.00590257 </v>
   <v>       0.03234733       0.01497680       0.05667760 </v>
   <v>       0.00990424       0.00110083       0.02556614 </v>
   <v>      -0.00323239       0.00150434       0.00267088 </v>
   <v>      -0.01820203       0.00043698       0.00626809 </v>
   <v>       0.00397134       0.00130330      -0.00382896 </v>
   <v>      -0.00382662       0.00153435      -0.00047795 </v>
   <v>      -0.20660617      -0.00758902       0.14687548 </v>
   <v>      -0.00015493       0.00043027       0.00499053 </v>
   <v>       0.00259690       0.00022074       0.00031751 </v>
   <v>       0.00363031       0.00098149      -0.00012899 </v>
   <v>      -0.06796551       0.13846566       0.02268755 </v>
   <v>      -0.00610050      -0.00046620       0.00860263 </v>
   <v>      -0.00085471      -0.00129263      -0.00578552 </v>
   <v>       0.00098909      -0.00170529       0.00038227 </v>
   <v>      -0.00629819      -0.00097291      -0.00203621 </v>
   <v>      -0.00915341      -0.00133892       0.00081743 </v>
   <v>       0.25459479       0.00486796      -0.02598841 </v>
   <v>       0.02085881      -0.00041039      -0.00333637 </v>
   <v>       0.01089428      -0.00060991      -0.00166238 </v>
   <v>      -0.00469937       0.02133733      -0.05113471 </v>
   <v>       0.00441104       0.00058162      -0.00005289 </v>
   <v>       0.00320409       0.00028843      -0.00235701 </v>
   <v>      -0.90922065      -1.08877292       0.39905832 </v>
   <v>       0.19921396       0.00421103      -0.14362941 </v>
   <v>       0.00336884      -0.00216501       0.00041715 </v>
   <v>       0.00082214      -0.00185334       0.00126209 </v>
   <v>      -0.14032358      -0.00026359       0.01479176 </v>
   <v>       0.28028935      -0.27457994       0.22617719 </v>
   <v>       0.00424286      -0.00150380      -0.00129541 </v>
   <v>       0.00293526      -0.00002512      -0.00216227 </v>
   <v>      -0.07223516       0.18415658       0.11914977 </v>
   <v>       1.29689460       0.56915869      -0.48111802 </v>
   <v>       0.00053105       0.00010632      -0.00163060 </v>
   <v>       0.00132565       0.00050279      -0.00053933 </v>
   <v>      -0.02042564      -0.03008296      -0.01356139 </v>
   <v>      -0.00261839      -0.00097698       0.00153609 </v>
   <v>       0.00344959      -0.00261915      -0.00165947 </v>
   <v>       0.00592214      -0.00031502      -0.00371890 </v>
   <v>      -0.00220053      -0.00149562      -0.00489289 </v>
   <v>       0.07674932      -0.34470853      -0.25899197 </v>
   <v>       0.00199432       0.00060202       0.00014479 </v>
   <v>      -0.00008170       0.00091387       0.00008501 </v>
   <v>       0.00200794      -0.00062508      -0.00113894 </v>
   <v>      -0.00212426       0.00031659      -0.00039985 </v>
   <v>      -0.00034957       0.00125470       0.00347821 </v>
   <v>       0.00132728       0.00132915       0.00065068 </v>
[...]
        <r>  0.0000  0.0000  0.0000  0.0000  0.0000  0.0000  0.0000  0.0000  0.0000 </r>
        <r>  0.0022  0.0001  0.0156  0.0029  0.0000  0.0000  0.0000  0.0000  0.0000 </r>
        <r>  0.0017  0.0001  0.0151  0.0019  0.0000  0.0000  0.0000  0.0000  0.0000 </r>
        <r>  0.0000  0.0000  0.0002  0.0000  0.0000  0.0000  0.0000  0.0000  0.0000 </r>
        <r>  0.0000  0.0001  0.0001  0.0000  0.0000  0.0000  0.0000  0.0000  0.0000 </r>
        <r>  0.0007  0.0000  0.0065  0.0005  0.0000  0.0000  0.0000  0.0000  0.0000 </r>
        <r>  0.0004  0.0000  0.0032  0.0000  0.0000  0.0000  0.0000  0.0000  0.0000 </r>
        <r>  0.0000  0.0000  0.0001  0.0000  0.0000  0.0000  0.0000  0.0000  0.0000 </r>
        <r>  0.0000  0.0001  0.0001  0.0000  0.0000  0.0000  0.0000  0.0000  0.0000 </r>
        <r>  0.0003  0.0000  0.0041  0.0019  0.0000  0.0000  0.0000  0.0000  0.0000 </r>
        <r>  0.0004  0.0000  0.0054  0.0015  0.0000  0.0000  0.0000  0.0000  0.0000 </r>
        <r>  0.0000  0.0001  0.0000  0.0000  0.0000  0.0000  0.0000  0.0000  0.0000 </r>
        <r>  0.0000  0.0001  0.0000  0.0000  0.0000  0.0000  0.0000  0.0000  0.0000 </r>
        <r>  0.0003  0.0001  0.0001  0.0011  0.0000  0.0000  0.0000  0.0000  0.0000 </r>
        <r>  0.0003  0.0001  0.0002  0.0014  0.0000  0.0000  0.0000  0.0000  0.0000 </r>
        <r>  0.0000  0.0000  0.0000  0.0000  0.0000  0.0000  0.0000  0.0000  0.0000 </r>
        <r>  0.0000  0.0000  0.0000  0.0000  0.0000  0.0000  0.0000  0.0000  0.0000 </r>
        <r>  0.0006  0.0000  0.0044  0.0010  0.0000  0.0000  0.0000  0.0000  0.0000 </r>
        <r>  0.0007  0.0000  0.0055  0.0002  0.0000  0.0000  0.0000  0.0000  0.0000 </r>
        <r>  0.0000  0.0000  0.0000  0.0000  0.0000  0.0000  0.0000  0.0000  0.0000 </r>
        <r>  0.0000  0.0000  0.0000  0.0000  0.0000  0.0000  0.0000  0.0000  0.0000 </r>
        <r>  0.0007  0.0003  0.0040  0.0173  0.0000  0.0000  0.0000  0.0000  0.0000 </r>
        <r>  0.0013  0.0002  0.0038  0.0131  0.0000  0.0000  0.0000  0.0000  0.0000 </r>
        <r>  0.0000  0.0000  0.0000  0.0001  0.0000  0.0000  0.0000  0.0000  0.0000 </r>
        <r>  0.0000  0.0001  0.0000  0.0001  0.0000  0.0000  0.0000  0.0000  0.0000 </r>
        <r>  0.0009  0.0000  0.0242  0.0010  0.0000  0.0000  0.0000  0.0000  0.0000 </r>
        <r>  0.0004  0.0000  0.0219  0.0010  0.0000  0.0000  0.0000  0.0000  0.0000 </r>
        <r>  0.0000  0.0000  0.0002  0.0000  0.0000  0.0000  0.0000  0.0000  0.0000 </r>
        <r>  0.0000  0.0001  0.0000  0.0000  0.0000  0.0000  0.0000  0.0000  0.0000 </r>
        <r>  0.0035  0.0009  0.0010  0.0055  0.0000  0.0000  0.0000  0.0000  0.0000 </r>
        <r>  0.0024  0.0003  0.0005  0.0083  0.0000  0.0000  0.0000  0.0000  0.0000 </r>
        <r>  0.0000  0.0002  0.0000  0.0000  0.0000  0.0000  0.0000  0.0000  0.0000 </r>
        <r>  0.0000  0.0001  0.0000  0.0000  0.0000  0.0000  0.0000  0.0000  0.0000 </r>
        <r>  0.0001  0.0000  0.0000  0.0000  0.0000  0.0000  0.0000  0.0000  0.0000 </r>
        <r>  0.0004  0.0001  0.0000  0.0002  0.0000  0.0000  0.0000  0.0000  0.0000 </r>
        <r>  0.0000  0.0094  0.0000  0.0000  0.0000  0.0000  0.0000  0.0000  0.0000 </r>
        <r>  0.0000  0.0079  0.0000  0.0000  0.0000  0.0000  0.0000  0.0000  0.0000 </r>
        <r>  0.0014  0.0001  0.0002  0.0004  0.0000  0.0000  0.0000  0.0000  0.0000 </r>
        <r>  0.0018  0.0000  0.0001  0.0004  0.0000  0.0000  0.0000  0.0000  0.0000 </r>
        <r>  0.0000  0.0005  0.0000  0.0000  0.0000  0.0000  0.0000  0.0000  0.0000 </r>
        <r>  0.0000  0.0002  0.0000  0.0000  0.0000  0.0000  0.0000  0.0000  0.0000 </r>
        <r>  0.0000  0.0000  0.0000  0.0000  0.0000  0.0000  0.0000  0.0000  0.0000 </r>
        <r>  0.0000  0.0000  0.0000  0.0000  0.0000  0.0000  0.0000  0.0000  0.0000 </r>
        <r>  0.0000  0.0006  0.0000  0.0000  0.0000  0.0000  0.0000  0.0000  0.0000 </r>
        <r>  0.0000  0.0006  0.0001  0.0000  0.0000  0.0000  0.0000  0.0000  0.0000 </r>
        <r>  0.0006  0.0000  0.0002  0.0005  0.0000  0.0000  0.0000  0.0000  0.0000 </r>
        <r>  0.0007  0.0001  0.0005  0.0013  0.0000  0.0000  0.0000  0.0000  0.0000 </r>
        <r>  0.0001  0.0114  0.0000  0.0000  0.0000  0.0000  0.0000  0.0000  0.0000 </r>
        <r>  0.0000  0.0128  0.0000  0.0000  0.0000  0.0000  0.0000  0.0000  0.0000 </r>
        <r>  0.0001  0.0000  0.0006  0.0000  0.0000  0.0000  0.0000  0.0000  0.0000 </r>
        <r>  0.0000  0.0000  0.0002  0.0000  0.0000  0.0000  0.0000  0.0000  0.0000 </r>
        <r>  0.0000  0.0027  0.0000  0.0000  0.0000  0.0000  0.0000  0.0000  0.0000 </r>
        <r>  0.0000  0.0024  0.0000  0.0000  0.0000  0.0000  0.0000  0.0000  0.0000 </r>
        <r>  0.0002  0.0000  0.0001  0.0001  0.0000  0.0000  0.0000  0.0000  0.0000 </r>
        <r>  0.0000  0.0000  0.0000  0.0000  0.0000  0.0000  0.0000  0.0000  0.0000 </r>
        <r>  0.0000  0.0000  0.0006  0.0003  0.0000  0.0000  0.0000  0.0000  0.0000 </r>
        <r>  0.0000  0.0000  0.0006  0.0003  0.0000  0.0000  0.0000  0.0000  0.0000 </r>
       </set>
       <set comment="band 462">
        <r>  0.0001  0.0002  0.0001  0.0004  0.0000  0.0000  0.0000  0.0000  0.0000 </r>
        <r>  0.0000  0.0001  0.0000  0.0004  0.0001  0.0003  0.0002  0.0004  0.0027 </r>
        <r>  0.0000  0.0001  0.0001  0.0001  0.0001  0.0003  0.0000  0.0001  0.0012 </r>
        <r>  0.0021  0.0000  0.0049  0.0039  0.0000  0.0000  0.0008  0.0048  0.0578 </r>
        <r>  0.0002  0.0000  0.0005  0.0097  0.0001  0.0001  0.0072  0.0198  0.0712 </r>
        <r>  0.0000  0.0000  0.0000  0.0001  0.0000  0.0009  0.0002  0.0013  0.0018 </r>
        <r>  0.0000  0.0001  0.0000  0.0000  0.0000  0.0004  0.0001  0.0005  0.0012 </r>
        <r>  0.0008  0.0000  0.0002  0.0009  0.0000  0.0001  0.0014  0.0190  0.0482 </r>
        <r>  0.0012  0.0002  0.0000  0.0052  0.0000  0.0002  0.0003  0.0270  0.0587 </r>
        <r>  0.0001  0.0000  0.0000  0.0002  0.0002  0.0000  0.0002  0.0000  0.0005 </r>
        <r>  0.0001  0.0000  0.0000  0.0001  0.0000  0.0000  0.0001  0.0002  0.0002 </r>
        <r>  0.0014  0.0000  0.0001  0.0030  0.0000  0.0000  0.0017  0.0009  0.0026 </r>
        <r>  0.0023  0.0001  0.0000  0.0024  0.0003  0.0000  0.0048  0.0000  0.0012 </r>
        <r>  0.0002  0.0000  0.0001  0.0001  0.0000  0.0000  0.0004  0.0000  0.0008 </r>
        <r>  0.0001  0.0000  0.0001  0.0000  0.0000  0.0000  0.0002  0.0002  0.0005 </r>
        <r>  0.0004  0.0000  0.0043  0.0004  0.0000  0.0001  0.0157  0.0092  0.0001 </r>
        <r>  0.0012  0.0006  0.0033  0.0016  0.0001  0.0003  0.0182  0.0050  0.0013 </r>
        <r>  0.0000  0.0001  0.0000  0.0000  0.0005  0.0000  0.0004  0.0002  0.0006 </r>
        <r>  0.0000  0.0000  0.0000  0.0000  0.0002  0.0000  0.0002  0.0002  0.0000 </r>
        <r>  0.0001  0.0000  0.0003  0.0002  0.0001  0.0000  0.0054  0.0035  0.0000 </r>
        <r>  0.0014  0.0003  0.0055  0.0000  0.0006  0.0000  0.0280  0.0059  0.0001 </r>
        <r>  0.0000  0.0002  0.0000  0.0000  0.0000  0.0000  0.0004  0.0002  0.0001 </r>
        <r>  0.0000  0.0002  0.0000  0.0000  0.0000  0.0000  0.0001  0.0000  0.0000 </r>
        <r>  0.0000  0.0000  0.0006  0.0002  0.0001  0.0000  0.0001  0.0001  0.0001 </r>
        <r>  0.0002  0.0000  0.0003  0.0012  0.0001  0.0001  0.0196  0.0161  0.0001 </r>
        <r>  0.0004  0.0000  0.0001  0.0027  0.0018  0.0026  0.0000  0.0000  0.0000 </r>
        <r>  0.0000  0.0000  0.0000  0.0001  0.0001  0.0001  0.0000  0.0000  0.0000 </r>
        <r>  0.0000  0.0016  0.0106  0.0022  0.0000  0.0000  0.0000  0.0000  0.0000 </r>
        <r>  0.0000  0.0003  0.0002  0.0000  0.0000  0.0000  0.0000  0.0000  0.0000 </r>
        <r>  0.0001  0.0136  0.0001  0.0000  0.0000  0.0000  0.0000  0.0000  0.0000 </r>
        <r>  0.0000  0.0152  0.0000  0.0000  0.0000  0.0000  0.0000  0.0000  0.0000 </r>
        <r>  0.0000  0.0003  0.0003  0.0001  0.0000  0.0000  0.0000  0.0000  0.0000 </r>
        <r>  0.0000  0.0008  0.0002  0.0001  0.0000  0.0000  0.0000  0.0000  0.0000 </r>
        <r>  0.0000  0.0003  0.0001  0.0011  0.0000  0.0000  0.0000  0.0000  0.0000 </r>
        <r>  0.0000  0.0001  0.0001  0.0004  0.0000  0.0000  0.0000  0.0000  0.0000 </r>
        <r>  0.0001  0.0000  0.0045  0.0189  0.0000  0.0000  0.0000  0.0000  0.0000 </r>
        <r>  0.0000  0.0006  0.0029  0.0333  0.0000  0.0000  0.0000  0.0000  0.0000 </r>
        <r>  0.0001  0.0005  0.0002  0.0003  0.0000  0.0000  0.0000  0.0000  0.0000 </r>
        <r>  0.0000  0.0001  0.0001  0.0005  0.0000  0.0000  0.0000  0.0000  0.0000 </r>
        <r>  0.0000  0.0000  0.0000  0.0000  0.0000  0.0000  0.0000  0.0000  0.0000 </r>
        <r>  0.0000  0.0000  0.0001  0.0000  0.0000  0.0000  0.0000  0.0000  0.0000 </r>
        <r>  0.0000  0.0006  0.0000  0.0001  0.0000  0.0000  0.0000  0.0000  0.0000 </r>
        <r>  0.0000  0.0004  0.0000  0.0000  0.0000  0.0000  0.0000  0.0000  0.0000 </r>
        <r>  0.0021  0.0001  0.0033  0.0007  0.0000  0.0000  0.0000  0.0000  0.0000 </r>
        <r>  0.0003  0.0002  0.0007  0.0027  0.0000  0.0000  0.0000  0.0000  0.0000 </r>
        <r>  0.0001  0.0001  0.0001  0.0003  0.0000  0.0000  0.0000  0.0000  0.0000 </r>
        <r>  0.0000  0.0000  0.0000  0.0002  0.0000  0.0000  0.0000  0.0000  0.0000 </r>
        <r>  0.0012  0.0000  0.0004  0.0074  0.0000  0.0000  0.0000  0.0000  0.0000 </r>
        <r>  0.0021  0.0014  0.0001  0.0065  0.0000  0.0000  0.0000  0.0000  0.0000 </r>
        <r>  0.0001  0.0021  0.0000  0.0001  0.0000  0.0000  0.0000  0.0000  0.0000 </r>
        <r>  0.0000  0.0001  0.0000  0.0002  0.0000  0.0000  0.0000  0.0000  0.0000 </r>
        <r>  0.0003  0.0000  0.0000  0.0001  0.0000  0.0000  0.0000  0.0000  0.0000 </r>
        <r>  0.0002  0.0001  0.0001  0.0000  0.0000  0.0000  0.0000  0.0000  0.0000 </r>
        <r>  0.0001  0.0002  0.0000  0.0000  0.0000  0.0000  0.0000  0.0000  0.0000 </r>
        <r>  0.0001  0.0000  0.0000  0.0000  0.0000  0.0000  0.0000  0.0000  0.0000 </r>
        <r>  0.0022  0.0000  0.0003  0.0001  0.0000  0.0000  0.0000  0.0000  0.0000 </r>
        <r>  0.0029  0.0031  0.0003  0.0012  0.0000  0.0000  0.0000  0.0000  0.0000 </r>
        <r>  0.0000  0.0005  0.0000  0.0001  0.0000  0.0000  0.0000  0.0000  0.0000 </r>
        <r>  0.0000  0.0007  0.0000  0.0001  0.0000  0.0000  0.0000  0.0000  0.0000 </r>
        <r>  0.0000  0.0006  0.0009  0.0029  0.0000  0.0000  0.0000  0.0000  0.0000 </r>
        <r>  0.0000  0.0012  0.0002  0.0001  0.0000  0.0000  0.0000  0.0000  0.0000 </r>
        <r>  0.0000  0.0003  0.0001  0.0000  0.0000  0.0000  0.0000  0.0000  0.0000 </r>
        <r>  0.0000  0.0000  0.0001  0.0000  0.0000  0.0000  0.0000  0.0000  0.0000 </r>
        <r>  0.0003  0.0001  0.0007  0.0012  0.0000  0.0000  0.0000  0.0000  0.0000 </r>
        <r>  0.0003  0.0018  0.0036  0.0022  0.0000  0.0000  0.0000  0.0000  0.0000 </r>
        <r>  0.0001  0.0003  0.0000  0.0000  0.0000  0.0000  0.0000  0.0000  0.0000 </r>
        <r>  0.0000  0.0001  0.0000  0.0001  0.0000  0.0000  0.0000  0.0000  0.0000 </r>
        <r>  0.0000  0.0005  0.0001  0.0022  0.0000  0.0000  0.0000  0.0000  0.0000 </r>
        <r>  0.0006  0.0029  0.0012  0.0014  0.0000  0.0000  0.0000  0.0000  0.0000 </r>
        <r>  0.0005  0.0051  0.0001  0.0004  0.0000  0.0000  0.0000  0.0000  0.0000 </r>
        <r>  0.0000  0.0004  0.0000  0.0001  0.0000  0.0000  0.0000  0.0000  0.0000 </r>
        <r>  0.0001  0.0000  0.0000  0.0002  0.0000  0.0000  0.0000  0.0000  0.0000 </r>
        <r>  0.0005  0.0004  0.0000  0.0007  0.0000  0.0000  0.0000  0.0000  0.0000 </r>
        <r>  0.0000  0.0008  0.0002  0.0001  0.0000  0.0000  0.0000  0.0000  0.0000 </r>
        <r>  0.0000  0.0002  0.0001  0.0000  0.0000  0.0000  0.0000  0.0000  0.0000 </r>
        <r>  0.0002  0.0002  0.0010  0.0000  0.0000  0.0000  0.0000  0.0000  0.0000 </r>
        <r>  0.0003  0.0008  0.0116  0.0018  0.0000  0.0000  0.0000  0.0000  0.0000 </r>
        <r>  0.0008  0.0020  0.0001  0.0001  0.0000  0.0000  0.0000  0.0000  0.0000 </r>
        <r>  0.0002  0.0009  0.0002  0.0000  0.0000  0.0000  0.0000  0.0000  0.0000 </r>
        <r>  0.0001  0.0001  0.0000  0.0001  0.0000  0.0000  0.0000  0.0000  0.0000 </r>
        <r>  0.0001  0.0002  0.0001  0.0000  0.0000  0.0000  0.0000  0.0000  0.0000 </r>
        <r>  0.0001  0.0020  0.0000  0.0002  0.0000  0.0000  0.0000  0.0000  0.0000 </r>
        <r>  0.0000  0.0017  0.0000  0.0000  0.0000  0.0000  0.0000  0.0000  0.0000 </r>
        <r>  0.0000  0.0001  0.0000  0.0000  0.0000  0.0000  0.0000  0.0000  0.0000 </r>
        <r>  0.0001  0.0004  0.0001  0.0006  0.0000  0.0000  0.0000  0.0000  0.0000 </r>
        <r>  0.0002  0.0161  0.0003  0.0000  0.0000  0.0000  0.0000  0.0000  0.0000 </r>
        <r>  0.0000  0.0117  0.0000  0.0000  0.0000  0.0000  0.0000  0.0000  0.0000 </r>
        <r>  0.0000  0.0003  0.0001  0.0001  0.0000  0.0000  0.0000  0.0000  0.0000 </r>
        <r>  0.0002  0.0004  0.0008  0.0001  0.0000  0.0000  0.0000  0.0000  0.0000 </r>
        <r>  0.0001  0.0001  0.0001  0.0003  0.0000  0.0000  0.0000  0.0000  0.0000 </r>
        <r>  0.0000  0.0001  0.0000  0.0002  0.0000  0.0000  0.0000  0.0000  0.0000 </r>
        <r>  0.0005  0.0000  0.0005  0.0076  0.0000  0.0000  0.0000  0.0000  0.0000 </r>
        <r>  0.0027  0.0003  0.0026  0.0105  0.0000  0.0000  0.0000  0.0000  0.0000 </r>
       </set>
      </set>
     </set>
    </set>
   </array>
  </projected>
 </calculation>
 <structure name="finalpos" >
  <crystal>
   <varray name="basis" >
    <v>      22.78514290       0.00000000       0.00000000 </v>
    <v>       0.00000000       3.87685037       0.00000000 </v>
    <v>      -9.97305163       0.00000241      15.12824818 </v>
   </varray>
   <i name="volume">   1336.34759474 </i>
   <varray name="rec_basis" >
    <v>       0.04388825       0.00000000       0.02893261 </v>
    <v>       0.00000000       0.25794135      -0.00000004 </v>
    <v>       0.00000000       0.00000000       0.06610151 </v>
   </varray>
  </crystal>
  <varray name="positions" >
   <v>       0.32528683       0.82834702       0.62494283 </v>
   <v>       0.36728579       0.00526491       0.04610801 </v>
   <v>       0.63381097       0.01020772       0.95400206 </v>
   <v>       0.86538707       0.50776016       0.04478232 </v>
   <v>       0.13117485       0.50889829       0.95542726 </v>
   <v>       0.24887958       0.00356959       0.13707820 </v>
   <v>       0.75219556       0.00317295       0.86175536 </v>
   <v>       0.74787530       0.50393146       0.13780447 </v>
   <v>       0.24949653       0.50165370       0.86508278 </v>
   <v>       0.12956192       0.99710599       0.22993866 </v>
   <v>       0.86901230       0.99897409       0.76749632 </v>
   <v>       0.63176757       0.49950440       0.23279675 </v>
   <v>       0.37008955       0.46525550       0.77536936 </v>
   <v>       0.41987459       0.96889315       0.37874602 </v>
   <v>       0.58432475       0.96687872       0.61728301 </v>
   <v>       0.91740342       0.46631630       0.38179881 </v>
   <v>       0.08174279       0.46410743       0.62050169 </v>
   <v>       0.29754927       0.02574219       0.46498031 </v>
   <v>       0.70288979       0.00398151       0.52631545 </v>
   <v>       0.79877509       0.50370188       0.47319324 </v>
   <v>       0.19764803       0.48352719       0.52385387 </v>
   <v>       0.46808054       0.01044160       0.71252693 </v>
   <v>       0.53761382       0.00333179       0.28681144 </v>
   <v>       0.96344550       0.50137916       0.71276580 </v>
   <v>       0.03292635       0.50114140       0.28395129 </v>
   <v>       0.99929466       0.25142593       0.00050242 </v>
   <v>       0.50042613       0.74769427       0.00003391 </v>
   <v>      -0.00068733       0.48870283       0.50100088 </v>
   <v>       0.50017707       0.99150965       0.49953321 </v>
   <v>       0.14823957       0.00365168       0.99162982 </v>
   <v>       0.85036588       0.00426860       0.00895855 </v>
   <v>       0.64910888       0.50548915       0.99028030 </v>
   <v>       0.35089849       0.50092011       0.00994066 </v>
   <v>       0.30318457       0.00074626       0.08145576 </v>
   <v>       0.69593234       0.00425871       0.91695909 </v>
   <v>       0.80305378       0.50444509       0.08128197 </v>
   <v>       0.19573259       0.49786553       0.91992116 </v>
   <v>       0.03372847       1.00027586       0.09961284 </v>
   <v>       0.96580810       1.00050770       0.90256038 </v>
   <v>       0.53428844       0.49937831       0.09813935 </v>
   <v>       0.46618273       0.49295383       0.90045188 </v>
   <v>       0.45000698       0.00317857       0.15556982 </v>
   <v>       0.54966772       0.00884060       0.84397325 </v>
   <v>       0.94933953       0.50154630       0.15578992 </v>
   <v>       0.04964933       0.50547206       0.84509258 </v>
   <v>       0.18020939       0.00044009       0.17841195 </v>
   <v>       0.82051512       0.00370322       0.82325890 </v>
   <v>       0.67982742       0.50436945       0.17654594 </v>
   <v>       0.32149777       0.48245273       0.82862607 </v>
   <v>       0.04902482      -0.00030846       0.27096672 </v>
   <v>       0.95032195       0.00186748       0.73045423 </v>
   <v>       0.55038721       0.50249534       0.26921258 </v>
   <v>       0.44931869       0.50324999       0.72622008 </v>
   <v>       0.32584998       1.00065343       0.24909898 </v>
   <v>       0.67559157       0.99903011       0.74951830 </v>
   <v>       0.82541857       0.49886345       0.24948505 </v>
   <v>       0.17477858       0.49874967       0.75111018 </v>
   <v>       0.47709540       1.00240201       0.32565005 </v>
   <v>       0.52772771       1.00518456       0.67486680 </v>
   <v>       0.97715026       0.49983747       0.32806356 </v>
   <v>       0.02413356       0.49629922       0.67457462 </v>
   <v>       0.20638796       0.01014266       0.34965540 </v>
   <v>       0.79298782       0.00218247       0.65116162 </v>
   <v>       0.70775230       0.50226625       0.34869818 </v>
   <v>       0.29184879       0.47137286       0.65631959 </v>
   <v>       0.35181317       0.01563100       0.41976224 </v>
   <v>       0.64821851       1.00091314       0.57346544 </v>
   <v>       0.85253808       0.49964060       0.42508378 </v>
   <v>       0.14509792       0.49132560       0.57252057 </v>
   <v>       0.22716177      -0.01215043       0.52722575 </v>
   <v>       0.77900483       0.00317391       0.48105496 </v>
   <v>       0.72218042       0.50325066       0.51829363 </v>
   <v>       0.28229696       0.51493738       0.48493497 </v>
   <v>       0.38160977       0.01498476       0.59280606 </v>
   <v>       0.62239833       0.00281401       0.40349019 </v>
   <v>       0.87855092       0.50304049       0.59598779 </v>
   <v>       0.12296151       0.49175389       0.40424099 </v>
   <v>       0.09075703       0.98943467       0.63185819 </v>
   <v>       0.91026749       0.99214690       0.36837558 </v>
   <v>       0.59122423       0.49337626       0.63004304 </v>
   <v>       0.41085236       0.49587954       0.36785985 </v>
   <v>       0.38979181       0.97647824       0.76220273 </v>
   <v>       0.60607365       0.00155615       0.23127800 </v>
   <v>       0.89435806       0.50125786       0.76847225 </v>
   <v>       0.10606730       0.50111338       0.23221855 </v>
   <v>       0.27477913      -0.00156681       0.89768844 </v>
   <v>       0.72411315       0.00475187       0.10257308 </v>
   <v>       0.77577355       0.50382517       0.89701576 </v>
   <v>       0.22400598       0.50290610       0.10408358 </v>
   <v>       0.42903260      -0.00111252       0.98666413 </v>
   <v>       0.57103229       0.00153826       0.01289148 </v>
   <v>       0.92821893       0.50400787       0.98703092 </v>
   <v>       0.07088732       0.50423406       0.01427353 </v>
  </varray>
 </structure>
</modeling>
