 running  192 mpi-ranks, on    8 nodes
 each image running on   24 cores
 distrk:  each k-point on   24 cores,    1 groups
 distr:  one band on    6 cores,    4 groups
 vasp.6.5.1 10Mar25 (build Apr 25 2025 15:31:43) complex                        
  
 01/POSCAR found :  3 types and      39 ions
 scaLAPACK will be used
 LDA part: xc-table for (Slater+PW92), standard interpolation
 00/POSCAR found :  3 types and      39 ions
 09/POSCAR found :  3 types and      39 ions
 Jacobian:    18.3422329801906     
 00/POSCAR found :  3 types and      39 ions
 09/POSCAR found :  3 types and      39 ions
 POSCAR, INCAR and KPOINTS ok, starting setup
 FFT: planning ... GRIDC
 FFT: planning ... GRID_SOFT
 FFT: planning ... GRID
 WAVECAR not read
 entering main loop
       N       E                     dE             d eps       ncg     rms          rms(c)
DAV:   1     0.210997786489E+04    0.21100E+04   -0.15236E+05 10960   0.116E+03
DAV:   2    -0.904737589399E+02   -0.22005E+04   -0.20730E+04 11856   0.293E+02
DAV:   3    -0.209576677327E+03   -0.11910E+03   -0.10760E+03 12376   0.617E+01
DAV:   4    -0.213696521128E+03   -0.41198E+01   -0.40244E+01 12664   0.115E+01
DAV:   5    -0.213828640128E+03   -0.13212E+00   -0.13190E+00 13016   0.209E+00    0.411E+01
DAV:   6    -0.208653357293E+03    0.51753E+01   -0.43012E+01 12848   0.220E+01    0.320E+01
DAV:   7    -0.210179616979E+03   -0.15263E+01   -0.32170E+01 13216   0.166E+01    0.233E+01
DAV:   8    -0.223842406459E+03   -0.13663E+02   -0.31170E+01 11764   0.348E+01    0.379E+01
DAV:   9    -0.211292465223E+03    0.12550E+02   -0.16510E+01 11996   0.254E+01    0.328E+01
DAV:  10    -0.205466960336E+03    0.58255E+01   -0.21662E+01 11452   0.153E+01    0.140E+01
DAV:  11    -0.204264733679E+03    0.12022E+01   -0.71238E+00 11652   0.138E+01    0.133E+01
DAV:  12    -0.203088950495E+03    0.11758E+01   -0.40754E+00 15200   0.878E+00    0.891E+00
DAV:  13    -0.202581118998E+03    0.50783E+00   -0.20190E+00 11416   0.589E+00    0.547E+00
DAV:  14    -0.202334324948E+03    0.24679E+00   -0.63258E-01 12920   0.357E+00    0.233E+00
DAV:  15    -0.202307225125E+03    0.27100E-01   -0.24366E-01 11136   0.197E+00    0.169E+00
DAV:  16    -0.202294722488E+03    0.12503E-01   -0.10271E-01 11708   0.139E+00    0.179E+00
DAV:  17    -0.202290836942E+03    0.38855E-02   -0.60065E-02 11280   0.129E+00    0.145E+00
DAV:  18    -0.202282665892E+03    0.81710E-02   -0.42172E-02 11900   0.964E-01    0.938E-01
DAV:  19    -0.202274010770E+03    0.86551E-02   -0.11979E-02 11312   0.557E-01    0.538E-01
DAV:  20    -0.202271322942E+03    0.26878E-02   -0.75204E-03 13824   0.325E-01    0.172E-01
DAV:  21    -0.202271811639E+03   -0.48870E-03   -0.27418E-03 11232   0.184E-01    0.162E-01
DAV:  22    -0.202272155028E+03   -0.34339E-03   -0.97542E-04 11480   0.149E-01    0.953E-02
DAV:  23    -0.202272473192E+03   -0.31816E-03   -0.64331E-04 11308   0.118E-01    0.108E-01
DAV:  24    -0.202272468018E+03    0.51741E-05   -0.27608E-04 11488   0.866E-02    0.433E-02
DAV:  25    -0.202272599451E+03   -0.13143E-03   -0.11770E-04 11220   0.502E-02    0.519E-02
DAV:  26    -0.202272753739E+03   -0.15429E-03   -0.11804E-04 11296   0.501E-02    0.287E-02
DAV:  27    -0.202272928570E+03   -0.17483E-03   -0.60283E-05  9472   0.339E-02    0.279E-02
DAV:  28    -0.202273036439E+03   -0.10787E-03   -0.28228E-05  7780   0.251E-02    0.199E-02
DAV:  29    -0.202273086661E+03   -0.50222E-04   -0.10304E-05  6900   0.144E-02    0.159E-02
DAV:  30    -0.202273151488E+03   -0.64827E-04   -0.11760E-05  7052   0.130E-02    0.815E-03
DAV:  31    -0.202273170074E+03   -0.18586E-04   -0.55094E-06  6988   0.841E-03    0.648E-03
DAV:  32    -0.202273183750E+03   -0.13676E-04   -0.27290E-06  6720   0.487E-03    0.294E-03
DAV:  33    -0.202273186722E+03   -0.29724E-05   -0.97957E-07  6604   0.295E-03
   1 F= -.20227319E+03 E0= -.19967076E+03  d E =-.202273E+03
quench:  g(F)=  0.000E+00 g(S)=  0.000E+00 dE (1.order)= 0.000E+00
 bond charge predicted
       N       E                     dE             d eps       ncg     rms          rms(c)
DAV:   1    -0.202291548918E+03   -0.18365E-01   -0.26426E-01 10968   0.100E+00    0.953E-02
DAV:   2    -0.202292448387E+03   -0.89947E-03   -0.61611E-03 11284   0.202E-01    0.251E-01
DAV:   3    -0.202292080340E+03    0.36805E-03   -0.12122E-03 11532   0.147E-01    0.102E-01
DAV:   4    -0.202292074825E+03    0.55153E-05   -0.42988E-04 12240   0.980E-02    0.856E-02
DAV:   5    -0.202292046429E+03    0.28396E-04   -0.21370E-04 11988   0.760E-02    0.754E-02
DAV:   6    -0.202292015116E+03    0.31313E-04   -0.87162E-05  9540   0.516E-02    0.472E-02
DAV:   7    -0.202292013188E+03    0.19279E-05   -0.61496E-05  9568   0.382E-02
   2 F= -.20229201E+03 E0= -.19969071E+03  d E =-.188265E-01
quench:  g(F)=  0.000E+00 g(S)=  0.000E+00 dE (1.order)= 0.000E+00
 bond charge predicted
       N       E                     dE             d eps       ncg     rms          rms(c)
DAV:   1    -0.202326402061E+03   -0.34387E-01   -0.10301E+00 10944   0.198E+00    0.193E-01
DAV:   2    -0.202330005275E+03   -0.36032E-02   -0.24258E-02 11248   0.405E-01    0.511E-01
DAV:   3    -0.202328477503E+03    0.15278E-02   -0.49548E-03 11516   0.298E-01    0.207E-01
DAV:   4    -0.202328465004E+03    0.12499E-04   -0.17717E-03 12256   0.200E-01    0.176E-01
DAV:   5    -0.202328358173E+03    0.10683E-03   -0.90820E-04 12012   0.157E-01    0.157E-01
DAV:   6    -0.202328213279E+03    0.14489E-03   -0.36959E-04 11808   0.106E-01    0.936E-02
DAV:   7    -0.202328208786E+03    0.44938E-05   -0.23634E-04 11296   0.748E-02    0.687E-02
DAV:   8    -0.202328165414E+03    0.43371E-04   -0.12871E-04 11088   0.593E-02    0.193E-02
DAV:   9    -0.202328165870E+03   -0.45644E-06   -0.25751E-05  6564   0.241E-02
   3 F= -.20232817E+03 E0= -.19972921E+03  d E =-.361527E-01
quench:  g(F)=  0.000E+00 g(S)=  0.000E+00 dE (1.order)= 0.000E+00
 bond charge predicted
       N       E                     dE             d eps       ncg     rms          rms(c)
DAV:   1    -0.202375173305E+03   -0.47008E-01   -0.22299E+00 10944   0.292E+00    0.288E-01
DAV:   2    -0.202383141799E+03   -0.79685E-02   -0.53404E-02 11264   0.599E-01    0.765E-01
DAV:   3    -0.202379740068E+03    0.34017E-02   -0.10815E-02 11524   0.439E-01    0.310E-01
DAV:   4    -0.202379692372E+03    0.47696E-04   -0.38706E-03 12276   0.295E-01    0.263E-01
DAV:   5    -0.202379481996E+03    0.21038E-03   -0.20385E-03 11904   0.234E-01    0.240E-01
DAV:   6    -0.202379153253E+03    0.32874E-03   -0.83606E-04 11812   0.160E-01    0.144E-01
DAV:   7    -0.202379131660E+03    0.21593E-04   -0.53795E-04 11304   0.116E-01    0.103E-01
DAV:   8    -0.202379039367E+03    0.92293E-04   -0.28307E-04 11108   0.884E-02    0.329E-02
DAV:   9    -0.202379038315E+03    0.10521E-05   -0.74011E-05 11008   0.392E-02
   4 F= -.20237904E+03 E0= -.19978348E+03  d E =-.508724E-01
quench:  g(F)=  0.000E+00 g(S)=  0.000E+00 dE (1.order)= 0.000E+00
 bond charge predicted
       N       E                     dE             d eps       ncg     rms          rms(c)
DAV:   1    -0.202434051160E+03   -0.55012E-01   -0.37807E+00 10944   0.382E+00    0.388E-01
DAV:   2    -0.202448452263E+03   -0.14401E-01   -0.93733E-02 11260   0.805E-01    0.105E+00
DAV:   3    -0.202441910352E+03    0.65419E-02   -0.19642E-02 11520   0.592E-01    0.416E-01
DAV:   4    -0.202441898078E+03    0.12273E-04   -0.68387E-03 12340   0.393E-01    0.361E-01
DAV:   5    -0.202441564000E+03    0.33408E-03   -0.38088E-03 11812   0.320E-01    0.334E-01
DAV:   6    -0.202440916042E+03    0.64796E-03   -0.15775E-03 11816   0.221E-01    0.197E-01
DAV:   7    -0.202440864425E+03    0.51617E-04   -0.95102E-04 11284   0.156E-01    0.136E-01
DAV:   8    -0.202440707637E+03    0.15679E-03   -0.48551E-04 11144   0.117E-01    0.461E-02
DAV:   9    -0.202440704206E+03    0.34303E-05   -0.13985E-04 11180   0.536E-02    0.382E-02
DAV:  10    -0.202440695094E+03    0.91123E-05   -0.33351E-05  6924   0.287E-02
   5 F= -.20244070E+03 E0= -.19984961E+03  d E =-.616568E-01
quench:  g(F)=  0.000E+00 g(S)=  0.000E+00 dE (1.order)= 0.000E+00
 bond charge predicted
       N       E                     dE             d eps       ncg     rms          rms(c)
DAV:   1    -0.202498455682E+03   -0.57751E-01   -0.55062E+00 10944   0.463E+00    0.483E-01
DAV:   2    -0.202520397637E+03   -0.21942E-01   -0.14029E-01 11276   0.996E-01    0.133E+00
DAV:   3    -0.202510063140E+03    0.10334E-01   -0.29605E-02 11528   0.726E-01    0.518E-01
DAV:   4    -0.202510146580E+03   -0.83440E-04   -0.10214E-02 12252   0.483E-01    0.462E-01
DAV:   5    -0.202509697355E+03    0.44922E-03   -0.60207E-03 11764   0.403E-01    0.431E-01
DAV:   6    -0.202508600053E+03    0.10973E-02   -0.25786E-03 11792   0.284E-01    0.250E-01
DAV:   7    -0.202508517352E+03    0.82701E-04   -0.15017E-03 11312   0.196E-01    0.174E-01
DAV:   8    -0.202508269860E+03    0.24749E-03   -0.76001E-04 11204   0.147E-01    0.597E-02
DAV:   9    -0.202508261765E+03    0.80957E-05   -0.22168E-04 11220   0.677E-02    0.479E-02
DAV:  10    -0.202508248577E+03    0.13187E-04   -0.57206E-05  9976   0.370E-02    0.299E-02
DAV:  11    -0.202508243306E+03    0.52714E-05   -0.14364E-05  6280   0.188E-02
   6 F= -.20250824E+03 E0= -.19992273E+03  d E =-.675482E-01
quench:  g(F)=  0.000E+00 g(S)=  0.000E+00 dE (1.order)= 0.000E+00
 bond charge predicted
       N       E                     dE             d eps       ncg     rms          rms(c)
DAV:   1    -0.202563321452E+03   -0.55073E-01   -0.72618E+00 10944   0.533E+00    0.570E-01
DAV:   2    -0.202594051921E+03   -0.30730E-01   -0.19048E-01 11284   0.118E+00    0.161E+00
DAV:   3    -0.202578741660E+03    0.15310E-01   -0.40847E-02 11512   0.854E-01    0.614E-01
DAV:   4    -0.202579043771E+03   -0.30211E-03   -0.13473E-02 12164   0.556E-01    0.561E-01
DAV:   5    -0.202578470326E+03    0.57344E-03   -0.85759E-03 11624   0.479E-01    0.521E-01
DAV:   6    -0.202576867538E+03    0.16028E-02   -0.38006E-03 11716   0.346E-01    0.303E-01
DAV:   7    -0.202576704347E+03    0.16319E-03   -0.21023E-03 11296   0.233E-01    0.201E-01
DAV:   8    -0.202576384293E+03    0.32005E-03   -0.10039E-03 11232   0.170E-01    0.713E-02
DAV:   9    -0.202576373760E+03    0.10534E-04   -0.30919E-04 11256   0.800E-02    0.585E-02
DAV:  10    -0.202576354335E+03    0.19425E-04   -0.86148E-05 11292   0.451E-02    0.375E-02
DAV:  11    -0.202576345708E+03    0.86263E-05   -0.20866E-05  6648   0.229E-02
   7 F= -.20257635E+03 E0= -.19999745E+03  d E =-.681024E-01
quench:  g(F)=  0.000E+00 g(S)=  0.000E+00 dE (1.order)= 0.000E+00
 bond charge predicted
       N       E                     dE             d eps       ncg     rms          rms(c)
DAV:   1    -0.202624502463E+03   -0.48148E-01   -0.87353E+00 10944   0.584E+00    0.632E-01
DAV:   2    -0.202660421070E+03   -0.35919E-01   -0.22642E-01 11292   0.127E+00    0.173E+00
DAV:   3    -0.202642896108E+03    0.17525E-01   -0.46039E-02 11528   0.901E-01    0.667E-01
DAV:   4    -0.202643777393E+03   -0.88129E-03   -0.16175E-02 12216   0.611E-01    0.652E-01
DAV:   5    -0.202642764085E+03    0.10133E-02   -0.10980E-02 11588   0.540E-01    0.580E-01
DAV:   6    -0.202640827563E+03    0.19365E-02   -0.48443E-03 11740   0.388E-01    0.344E-01
DAV:   7    -0.202640547763E+03    0.27980E-03   -0.25944E-03 11332   0.261E-01    0.215E-01
DAV:   8    -0.202640199867E+03    0.34790E-03   -0.11816E-03 11300   0.185E-01    0.848E-02
DAV:   9    -0.202640176828E+03    0.23038E-04   -0.39530E-04 11272   0.904E-02    0.642E-02
DAV:  10    -0.202640156243E+03    0.20586E-04   -0.10910E-04 11316   0.503E-02    0.443E-02
DAV:  11    -0.202640144319E+03    0.11924E-04   -0.28365E-05  7184   0.267E-02    0.268E-02
DAV:  12    -0.202640146293E+03   -0.19747E-05   -0.36757E-05  9156   0.197E-02
   8 F= -.20264015E+03 E0= -.20006852E+03  d E =-.638006E-01
quench:  g(F)=  0.000E+00 g(S)=  0.000E+00 dE (1.order)= 0.000E+00
 bond charge predicted
       N       E                     dE             d eps       ncg     rms          rms(c)
DAV:   1    -0.202678716556E+03   -0.38572E-01   -0.99055E+00 10944   0.617E+00    0.655E-01
DAV:   2    -0.202716037642E+03   -0.37321E-01   -0.24673E-01 11272   0.129E+00    0.172E+00
DAV:   3    -0.202698779673E+03    0.17258E-01   -0.46510E-02 11552   0.901E-01    0.650E-01
DAV:   4    -0.202700414673E+03   -0.16350E-02   -0.17101E-02 12252   0.629E-01    0.691E-01
DAV:   5    -0.202698662759E+03    0.17519E-02   -0.11725E-02 11568   0.563E-01    0.573E-01
DAV:   6    -0.202696920072E+03    0.17427E-02   -0.50455E-03 11792   0.392E-01    0.360E-01
DAV:   7    -0.202696519332E+03    0.40074E-03   -0.27797E-03 11272   0.270E-01    0.207E-01
DAV:   8    -0.202696200424E+03    0.31891E-03   -0.11960E-03 11532   0.185E-01    0.915E-02
DAV:   9    -0.202696164976E+03    0.35448E-04   -0.41074E-04 11276   0.911E-02    0.617E-02
DAV:  10    -0.202696149300E+03    0.15676E-04   -0.99541E-05 11344   0.477E-02    0.457E-02
DAV:  11    -0.202696138093E+03    0.11207E-04   -0.29304E-05  7180   0.272E-02    0.286E-02
DAV:  12    -0.202696140559E+03   -0.24655E-05   -0.38689E-05  9392   0.206E-02
   9 F= -.20269614E+03 E0= -.20013230E+03  d E =-.559943E-01
quench:  g(F)=  0.000E+00 g(S)=  0.000E+00 dE (1.order)= 0.000E+00
 bond charge predicted
       N       E                     dE             d eps       ncg     rms          rms(c)
DAV:   1    -0.202712830126E+03   -0.16692E-01   -0.76110E+00 10944   0.526E+00    0.607E-01
DAV:   2    -0.202730556684E+03   -0.17727E-01   -0.16045E-01 11244   0.947E-01    0.974E-01
DAV:   3    -0.202727278848E+03    0.32778E-02   -0.25667E-02 11728   0.656E-01    0.592E-01
DAV:   4    -0.202728106957E+03   -0.82811E-03   -0.19228E-02 12120   0.657E-01    0.656E-01
DAV:   5    -0.202725208496E+03    0.28985E-02   -0.10558E-02 12156   0.534E-01    0.448E-01
DAV:   6    -0.202724180129E+03    0.10284E-02   -0.49786E-03 11888   0.387E-01    0.292E-01
DAV:   7    -0.202723712002E+03    0.46813E-03   -0.26255E-03 11584   0.271E-01    0.174E-01
DAV:   8    -0.202723413895E+03    0.29811E-03   -0.93411E-04 11332   0.170E-01    0.699E-02
DAV:   9    -0.202723394842E+03    0.19053E-04   -0.24404E-04 11456   0.747E-02    0.496E-02
DAV:  10    -0.202723384715E+03    0.10127E-04   -0.83328E-05 10816   0.457E-02    0.323E-02
DAV:  11    -0.202723384380E+03    0.33525E-06   -0.31541E-05  7092   0.284E-02
  10 F= -.20272338E+03 E0= -.20016406E+03  d E =-.272438E-01
quench:  g(F)=  0.000E+00 g(S)=  0.000E+00 dE (1.order)= 0.000E+00
 bond charge predicted
       N       E                     dE             d eps       ncg     rms          rms(c)
DAV:   1    -0.202736436508E+03   -0.13052E-01   -0.21541E-01 10944   0.645E-01    0.194E-01
DAV:   2    -0.202736710475E+03   -0.27397E-03   -0.49253E-03 11384   0.138E-01    0.127E-01
DAV:   3    -0.202737685399E+03   -0.97492E-03   -0.27174E-03 12176   0.250E-01    0.342E-01
DAV:   4    -0.202736834733E+03    0.85067E-03   -0.29567E-03 12240   0.243E-01    0.170E-01
DAV:   5    -0.202736556576E+03    0.27816E-03   -0.60673E-04 11964   0.128E-01    0.519E-02
DAV:   6    -0.202736551695E+03    0.48807E-05   -0.13328E-04 11628   0.556E-02    0.459E-02
DAV:   7    -0.202736534920E+03    0.16776E-04   -0.57959E-05  8808   0.407E-02    0.247E-02
DAV:   8    -0.202736530842E+03    0.40773E-05   -0.15299E-05  6464   0.209E-02
  11 F= -.20273653E+03 E0= -.20017798E+03  d E =-.131465E-01
quench:  g(F)=  0.000E+00 g(S)=  0.000E+00 dE (1.order)= 0.000E+00
 bond charge predicted
       N       E                     dE             d eps       ncg     rms          rms(c)
DAV:   1    -0.202747076739E+03   -0.10542E-01   -0.55089E-01 10944   0.116E+00    0.267E-01
DAV:   2    -0.202747948804E+03   -0.87206E-03   -0.12755E-02 11308   0.230E-01    0.221E-01
DAV:   3    -0.202749646212E+03   -0.16974E-02   -0.62005E-03 12272   0.353E-01    0.473E-01
DAV:   4    -0.202747866519E+03    0.17797E-02   -0.51413E-03 12164   0.324E-01    0.192E-01
DAV:   5    -0.202747557376E+03    0.30914E-03   -0.95539E-04 12084   0.170E-01    0.120E-01
DAV:   6    -0.202747500462E+03    0.56914E-04   -0.42510E-04 11912   0.105E-01    0.855E-02
DAV:   7    -0.202747445290E+03    0.55171E-04   -0.21240E-04 11724   0.815E-02    0.547E-02
DAV:   8    -0.202747416573E+03    0.28718E-04   -0.60428E-05  9152   0.439E-02    0.125E-02
DAV:   9    -0.202747422342E+03   -0.57696E-05   -0.13051E-05  6236   0.161E-02
  12 F= -.20274742E+03 E0= -.20019015E+03  d E =-.108915E-01
quench:  g(F)=  0.000E+00 g(S)=  0.000E+00 dE (1.order)= 0.000E+00
 bond charge predicted
       N       E                     dE             d eps       ncg     rms          rms(c)
DAV:   1    -0.202754552598E+03   -0.71360E-02   -0.23807E-01 10944   0.926E-01    0.805E-02
DAV:   2    -0.202755033137E+03   -0.48054E-03   -0.43986E-03 11268   0.158E-01    0.125E-01
DAV:   3    -0.202755001589E+03    0.31548E-04   -0.54235E-04 11824   0.974E-02    0.893E-02
DAV:   4    -0.202754998141E+03    0.34486E-05   -0.39510E-04 11768   0.920E-02    0.861E-02
DAV:   5    -0.202754952678E+03    0.45463E-04   -0.15220E-04 10704   0.647E-02    0.583E-02
DAV:   6    -0.202754941430E+03    0.11248E-04   -0.63922E-05  8636   0.440E-02    0.379E-02
DAV:   7    -0.202754942361E+03   -0.93106E-06   -0.59691E-05  9848   0.383E-02
  13 F= -.20275494E+03 E0= -.20019857E+03  d E =-.752002E-02
quench:  g(F)=  0.000E+00 g(S)=  0.000E+00 dE (1.order)= 0.000E+00
 bond charge predicted
       N       E                     dE             d eps       ncg     rms          rms(c)
DAV:   1    -0.202763882471E+03   -0.89410E-02   -0.41516E-01 10944   0.122E+00    0.107E-01
--------------------------------------------------------------------------
PRTE has lost communication with a remote daemon.

  HNP daemon   : [prterun-c0-2132354@0,0] on node c0
  Remote daemon: [prterun-c0-2132354@0,7] on node c26

This is usually due to either a failure of the TCP network
connection to the node, or possibly an internal failure of
the daemon itself. We cannot recover from this failure, and
therefore will terminate the job.
--------------------------------------------------------------------------
slurmstepd-c0: error: *** JOB 1512291 ON c0 CANCELLED AT 2025-12-08T14:52:06 ***
