<?xml version="1.0" encoding="ISO-8859-1"?>
<modeling>
 <generator>
  <i name="program" type="string">vasp </i>
  <i name="version" type="string">6.2.0  </i>
  <i name="subversion" type="string">18Jan21 (build Jan 15 2025 16:08:48) gamma-only                       parallel </i>
  <i name="platform" type="string">LinuxIFC </i>
  <i name="date" type="string">2025 03 07 </i>
  <i name="time" type="string">10:53:52 </i>
 </generator>
 <incar>
  <i type="string" name="SYSTEM">LiMox</i>
  <i type="int" name="ISTART">     0</i>
  <i type="string" name="PREC">Accurate</i>
  <i type="string" name="ALGO">VeryFast</i>
  <i type="logical" name="ADDGRID"> T  </i>
  <i type="int" name="ISPIN">     2</i>
  <i name="AMIX">      0.20000000</i>
  <i name="BMIX">      0.00001000</i>
  <i name="AMIX_MAG">      0.80000000</i>
  <i name="BMIX_MAG">      0.00001000</i>
  <i type="int" name="ICHARG">     2</i>
  <i type="int" name="NELM">   800</i>
  <i type="int" name="NELMDL">    10</i>
  <i type="int" name="NELMIN">     2</i>
  <i type="int" name="IBRION">     2</i>
  <i name="EDIFF">      0.00000100</i>
  <i name="EDIFFG">     -0.03000000</i>
  <i type="int" name="NSW">  1200</i>
  <i type="int" name="ISIF">     2</i>
  <i type="int" name="ISYM">     0</i>
  <i name="ENCUT">    400.00000000</i>
  <i name="POTIM">      0.20000000</i>
  <i type="int" name="NEDOS">   903</i>
  <i type="string" name="LREAL">Auto</i>
  <i type="int" name="ISMEAR">     0</i>
  <i name="SIGMA">      0.05000000</i>
  <i type="int" name="NWRITE">     0</i>
  <i type="int" name="LMAXMIX">     4</i>
  <i type="logical" name="LWAVE"> F  </i>
  <i type="logical" name="LCHARG"> F  </i>
  <i type="string" name="GGA">PE</i>
  <i type="int" name="IDIPOL">     3</i>
  <i name="SPRING">     -5.00000000</i>
 </incar>
 <primitive_cell>
  <structure name="primitive_cell" >
   <crystal>
    <varray name="basis" >
     <v>      27.12039819       0.40236035      -2.40280703 </v>
     <v>       0.30174466      23.36246522      -0.43769137 </v>
     <v>      -7.12957794      -0.28940548      10.36451101 </v>
    </varray>
    <i name="volume">   6163.49685856 </i>
    <varray name="rec_basis" >
     <v>       0.03926567      -0.00000112       0.02701018 </v>
     <v>      -0.00056378       0.04282612       0.00080800 </v>
     <v>       0.00907916       0.00180828       0.10277898 </v>
    </varray>
   </crystal>
   <varray name="positions" >
    <v>       0.53651126       0.08776685       0.67297435 </v>
    <v>       0.86421184       0.42266650       0.65649279 </v>
    <v>       0.76119459       0.56176248       0.01219225 </v>
    <v>       0.89739291       0.79669941       0.83909760 </v>
    <v>       0.27892124       0.46154056       0.16338711 </v>
    <v>       0.53499765       0.53155582       0.37610281 </v>
    <v>       0.64536243       0.91299101       0.73976890 </v>
    <v>       0.06061836       0.97702569       0.73832559 </v>
    <v>       0.76244932       0.24573412       0.13652683 </v>
    <v>       0.97319719       0.90762803       0.73461054 </v>
    <v>       0.36545763       0.96398481       0.08378679 </v>
    <v>       0.70335861       0.50714731       0.11678674 </v>
    <v>       0.90723311       0.68337860       0.73751510 </v>
    <v>       0.87672130       0.26379527       0.18960294 </v>
    <v>       0.18461175       0.54154038       0.55483725 </v>
    <v>       0.41756021       0.91958614       0.96086670 </v>
    <v>       0.88413026       0.93305687       0.76541488 </v>
    <v>       0.62655993       0.07091718       0.22991084 </v>
    <v>       0.72788886       0.38464159       0.56696920 </v>
    <v>       0.58649530       0.49014216       0.22525613 </v>
    <v>       0.35037057       0.08691849       0.31590788 </v>
    <v>       0.84845230       0.85365601       0.53575709 </v>
    <v>       0.21054033       0.68390072       0.49424323 </v>
    <v>       0.49003483       0.10401015       0.07360140 </v>
    <v>       0.60231161       0.08122283       0.56825643 </v>
    <v>       0.48141933       0.19356858       0.91961008 </v>
    <v>       0.62623683       0.17449997       0.10718348 </v>
    <v>       0.25676222       0.35202978       0.07547394 </v>
    <v>       0.83481138       0.96809863       0.03566771 </v>
    <v>       0.60608876       0.43553948       0.44369147 </v>
    <v>       0.33918983       0.77695627       0.25372156 </v>
    <v>       0.52753018       0.98566010       0.17408988 </v>
    <v>       0.01843905       0.19314353       0.94781189 </v>
    <v>       0.86988981       0.67709242       0.47562843 </v>
    <v>       0.21070927       0.74985476       0.04502909 </v>
    <v>       0.51995503       0.99162752       0.51923528 </v>
    <v>       0.72021724       0.02750267       0.81274793 </v>
    <v>       0.73819677       0.12387436       0.33581516 </v>
    <v>       0.51640730       0.87383249       0.23250800 </v>
    <v>       0.18954454       0.46630493       0.72184353 </v>
    <v>       0.34514671       0.66897058       0.68210126 </v>
    <v>       0.10434619       0.17675997       0.89174420 </v>
    <v>       0.21829519       0.22255529       0.95275721 </v>
    <v>       0.37715765       0.18097525       0.90093427 </v>
    <v>       0.27979811       0.76480493       0.69634633 </v>
    <v>       0.20897068       0.24671870       0.31189359 </v>
    <v>       0.86620270       0.57983358       0.00004962 </v>
    <v>       0.25294329       0.16883432       0.20544940 </v>
    <v>       0.22485949       0.88392556       0.25301392 </v>
    <v>       0.41432029       0.58402755       0.69570334 </v>
    <v>       0.04938548       0.77920948       0.33043217 </v>
    <v>       0.48997337       0.08834284       0.44092507 </v>
    <v>       0.31067676       0.92923516       0.15816208 </v>
    <v>       0.36491818       0.18642525       0.36407909 </v>
    <v>       0.03689819       0.46949433       0.64562135 </v>
    <v>       0.67025773       0.08409528       0.11134258 </v>
    <v>       0.09838220       0.50277409       0.50637124 </v>
    <v>       0.69065917       0.63349535       0.84157069 </v>
    <v>       0.34456990       0.05726456       0.13468143 </v>
    <v>       0.60288765       0.80645423       0.30919223 </v>
    <v>       0.08098063       0.27498552       0.95242667 </v>
    <v>       0.83629809       0.77031837       0.36242363 </v>
    <v>       0.96058895       0.54330419       0.03678486 </v>
    <v>       0.77437955       0.47329132       0.60771548 </v>
    <v>       0.17756750       0.05543496       0.41524996 </v>
    <v>       0.98485212       0.60599052       0.81797572 </v>
    <v>       0.94883529       0.52448040       0.17673600 </v>
    <v>       0.13969778       0.73607813       0.28599654 </v>
    <v>       0.67550095       0.22386540       0.68274620 </v>
    <v>       0.01521391       0.06124962       0.40464536 </v>
    <v>       0.22290319       0.39998436       0.20016407 </v>
    <v>       0.15645868       0.22399027       0.40148365 </v>
    <v>       0.69391526       0.42759672       0.69031428 </v>
    <v>       0.24853143       0.16122617       0.84849403 </v>
    <v>       0.55489389       0.73574521       0.91323516 </v>
    <v>       0.66543869       0.20010614       0.98076998 </v>
    <v>       0.73846722       0.33878432       0.07657350 </v>
    <v>       0.86582345       0.24039646       0.34799460 </v>
    <v>       0.78937088       0.20756774       0.00920926 </v>
    <v>       0.11526605       0.61742712       0.39242539 </v>
    <v>       0.40317852       0.62420741       0.30534908 </v>
    <v>       0.60870064       0.93597895       0.37620100 </v>
    <v>       0.12646520       0.50332318       0.78789874 </v>
    <v>       0.60154033       0.46312485       0.95339601 </v>
    <v>       0.27253277       0.47096722       0.45704422 </v>
    <v>       0.25895619       0.39274889       0.70931228 </v>
    <v>       0.56268068       0.64360368       0.87610809 </v>
    <v>       0.16757956       0.66175371       0.24886706 </v>
    <v>       0.64288343       0.52825344       0.46268290 </v>
    <v>       0.22165550       0.02364060       0.60837856 </v>
    <v>       0.80469517       0.46785746       0.27080957 </v>
    <v>       0.40246148       0.65692072       0.59807672 </v>
    <v>       0.24805495       0.79594186       0.26349320 </v>
    <v>       0.87484513       0.95481606       0.57262705 </v>
    <v>       0.89642981       0.49187261       0.61115726 </v>
    <v>       0.01528305       0.25900174       0.09015698 </v>
    <v>       0.47985479       0.96123790       0.28506833 </v>
    <v>       0.43368925       0.71097164       0.35158752 </v>
    <v>       0.64767929       0.09188587       0.80533681 </v>
    <v>       0.05409105       0.38344261       0.64591176 </v>
    <v>       0.98868879       0.18763218       0.72100404 </v>
    <v>       0.98765300       0.06167973       0.63093174 </v>
    <v>       0.12864200       0.37734933       0.64205998 </v>
    <v>       0.31594202       0.27894847       0.04919501 </v>
    <v>       0.41797722       0.01791757       0.01468455 </v>
    <v>       0.25723306       0.55944459       0.08215712 </v>
    <v>       0.43126943       0.85592965       0.62084259 </v>
    <v>       0.63467757       0.91423159       0.91017653 </v>
    <v>       0.56721049       0.61649060       0.50992626 </v>
    <v>       0.48226622       0.33061511       0.72646220 </v>
    <v>       0.71993633       0.08404732       0.67493025 </v>
    <v>       0.77995900       0.37688773       0.44205092 </v>
    <v>       0.81657796       0.91934923       0.14846412 </v>
    <v>       0.35878692       0.87193774       0.64666242 </v>
    <v>       0.68968293       0.48575701       0.91578808 </v>
    <v>       0.05333779       0.14476215       0.45137729 </v>
    <v>       0.79888392       0.05692464       0.03967687 </v>
    <v>       0.59454951       0.77909455       0.55356952 </v>
    <v>       0.05413750       0.64765081       0.43294924 </v>
    <v>       0.17015216       0.42197793       0.99515126 </v>
    <v>       0.25576562       0.06777813       0.25449635 </v>
    <v>       0.82867281       0.35167887       0.12810190 </v>
    <v>       0.23710969       0.27269012       0.16678913 </v>
    <v>       0.40027765       0.99708958       0.44084963 </v>
    <v>       0.84225832       0.13680348       0.56183972 </v>
    <v>       0.90390539       0.20698691       0.85686678 </v>
    <v>       0.10018942       0.53093308       0.06248986 </v>
    <v>       0.26582243       0.54802802       0.25610554 </v>
    <v>       0.25836700       0.32645297       0.46476229 </v>
    <v>       0.83007901       0.62049214       0.55088789 </v>
    <v>       0.86624379       0.33633887       0.55060752 </v>
    <v>       0.98551460       0.92124506       0.56177426 </v>
    <v>       0.66238985       0.16488327       0.34815676 </v>
    <v>       0.49500930       0.26999106       0.49163115 </v>
    <v>       0.54363788       0.99530249       0.73599895 </v>
    <v>       0.56741953       0.07149092       0.31595360 </v>
    <v>       0.53510510       0.03036426       0.01542810 </v>
    <v>       0.02476141       0.83443927       0.42483270 </v>
    <v>       0.22336222       0.85004127       0.58672532 </v>
    <v>       0.57805299       0.30477503       0.88473200 </v>
    <v>       0.94552179       0.93908479       0.20279941 </v>
    <v>       0.48886636       0.58553884       0.47524108 </v>
    <v>       0.54636973       0.45344797       0.00874907 </v>
    <v>       0.24222247       0.84440484       0.76985896 </v>
    <v>       0.73063430       0.22252675       0.27182174 </v>
    <v>       0.27272507       0.43506489       0.96974320 </v>
    <v>       0.68546327       0.97696466       0.29694266 </v>
    <v>       0.39278713       0.74459604       0.16847578 </v>
    <v>       0.96562875       0.39663344       0.87916814 </v>
    <v>       0.51645324       0.77087189       0.19170167 </v>
    <v>       0.34833899       0.69394741       0.87666256 </v>
    <v>       0.26974732       0.20220672       0.73893445 </v>
    <v>       0.15885413       0.93868527       0.81561871 </v>
    <v>       0.56787558       0.27185273       0.01895914 </v>
    <v>       0.10630040       0.78161122       0.94559708 </v>
    <v>       0.04005030       0.98911297       0.90015588 </v>
    <v>       0.53001534       0.45369530       0.47499299 </v>
    <v>       0.74693519       0.22537964       0.66897879 </v>
    <v>       0.28083120       0.50560475       0.76723406 </v>
    <v>       0.83719732       0.09359702       0.41208209 </v>
    <v>       0.26905176       0.59797188       0.57236939 </v>
    <v>       0.51506596       0.59608849       0.90675983 </v>
    <v>       0.57528072       0.76440077       0.79573850 </v>
    <v>       0.01379631       0.10388512       0.98037972 </v>
    <v>       0.35539847       0.38847533       0.25428636 </v>
    <v>       0.51593705       0.82835224       0.41498457 </v>
    <v>       0.79811452       0.87700057       0.63763078 </v>
    <v>       0.64237281       0.39498820       0.32607425 </v>
    <v>       0.11531316       0.74499510       0.80593331 </v>
    <v>       0.38112026       0.24524015       0.74265958 </v>
    <v>       0.48513303       0.34773055       0.57536835 </v>
    <v>       0.20302643       0.34938945       0.52423564 </v>
    <v>       0.74268804       0.96003939       0.24064308 </v>
    <v>       0.53875431       0.14081105       0.85962723 </v>
    <v>       0.75343343       0.93553753       0.80911096 </v>
    <v>       0.37054674       0.87173561       0.31101933 </v>
    <v>       0.97281393       0.87386537       0.91902768 </v>
    <v>       0.97694351       0.73225898       0.96179968 </v>
    <v>       0.75690171       0.65335791       0.68866810 </v>
    <v>       0.10734523       0.28733769       0.26084595 </v>
    <v>       0.92462104       0.17947974       0.14835629 </v>
    <v>       0.94708140       0.81709104       0.61619633 </v>
    <v>       0.50863372       0.56762020       0.15984811 </v>
    <v>       0.98510623       0.27503335       0.77609678 </v>
    <v>       0.15565578       0.66725234       0.89204427 </v>
    <v>       0.41435547       0.23782751       0.31397621 </v>
    <v>       0.84604151       0.51135550       0.20853730 </v>
    <v>       0.13773216       0.17609682       0.12186697 </v>
    <v>       0.93527853       0.86279803       0.27040717 </v>
    <v>       0.42392206       0.42940928       0.10927981 </v>
    <v>       0.83194360       0.34894524       0.77913918 </v>
    <v>       0.29321131       0.74468001       0.53508829 </v>
    <v>       0.90171544       0.98701640       0.96269990 </v>
    <v>       0.13310406       0.88154336       0.18998457 </v>
    <v>       0.20477025       0.12683645       0.98523558 </v>
    <v>       0.04845098       0.59816659       0.02543551 </v>
    <v>       0.11726324       0.97250863       0.62901638 </v>
    <v>       0.38473314       0.82639210       0.81504946 </v>
    <v>       0.19032851       0.47992176       0.41584156 </v>
    <v>       0.23115708       0.30607181       0.86496517 </v>
    <v>       0.83008192       0.76223902       0.61444646 </v>
    <v>       0.09651394       0.00462483       0.27632076 </v>
    <v>       0.41804199       0.06985594       0.56101994 </v>
    <v>       0.66712450       0.83797938       0.64176286 </v>
    <v>       0.19628448       0.71387072       0.64859396 </v>
    <v>       0.59654681       0.18087818       0.51772129 </v>
    <v>       0.68826267       0.50755192       0.27665766 </v>
    <v>       0.72784546       0.69112238       0.78878969 </v>
    <v>       0.52257731       0.18717274       0.70095141 </v>
    <v>       0.41174301       0.11282574       0.82323826 </v>
    <v>       0.89508317       0.41967011       0.88677917 </v>
    <v>       0.59207697       0.59064170       0.19296038 </v>
    <v>       0.54573868       0.19269737       0.15470424 </v>
    <v>       0.70225382       0.85590634       0.95110149 </v>
    <v>       0.88849473       0.15056800       0.95040829 </v>
    <v>       0.73380554       0.28091624       0.52921697 </v>
    <v>       0.85305157       0.79896044       0.93068718 </v>
    <v>       0.42460761       0.15560511       0.11752015 </v>
    <v>       0.35641561       0.51202483       0.38171537 </v>
    <v>       0.40034533       0.86396163       0.08479412 </v>
    <v>       0.71791416       0.60081501       0.11706082 </v>
    <v>       0.12284979       0.92067037       0.32477582 </v>
    <v>       0.53295329       0.88987462       0.57262182 </v>
    <v>       0.61894271       0.98056920       0.57273937 </v>
    <v>       0.28364949       0.18136322       0.44246951 </v>
    <v>       0.67309984       0.76678492       0.91726402 </v>
    <v>       0.65082911       0.35107474       0.59381954 </v>
    <v>       0.96209802       0.72250725       0.67347675 </v>
    <v>       0.99910716       0.70373368       0.27972230 </v>
    <v>       0.30112869       0.94040913       0.85983529 </v>
    <v>       0.28686756       0.68930560       0.22004591 </v>
    <v>       0.38826567       0.95136335       0.73951564 </v>
    <v>       0.91419256       0.61960103       0.42337344 </v>
    <v>       0.72791228       0.04327849       0.44904710 </v>
    <v>       0.42584546       0.27051580       0.94530438 </v>
    <v>       0.86478488       0.02854663       0.78168292 </v>
    <v>       0.94596443       0.07259588       0.41635888 </v>
    <v>       0.76939611       0.87585836       0.30588364 </v>
    <v>       0.17437004       0.04718571       0.68035808 </v>
    <v>       0.08308937       0.08600971       0.76464050 </v>
    <v>       0.52493654       0.89798883       0.06112766 </v>
    <v>       0.43413370       0.69668971       0.91396242 </v>
    <v>       0.23356411       0.56679356       0.79769189 </v>
    <v>       0.42553483       0.51383057       0.16668923 </v>
    <v>       0.41182074       0.78042771       0.52162499 </v>
    <v>       0.85579082       0.63714521       0.83539047 </v>
    <v>       0.11352192       0.23735615       0.76601350 </v>
    <v>       0.08967966       0.91730490       0.91995902 </v>
    <v>       0.84522914       0.63829634       0.11065867 </v>
    <v>       0.02625067       0.16996908       0.27024636 </v>
    <v>       0.26375010       0.80968320       0.01960772 </v>
    <v>       0.95048938       0.33107416       0.21607114 </v>
    <v>       0.98649046       0.28522145       0.38393699 </v>
    <v>       0.76706196       0.70949841       0.28322436 </v>
    <v>       0.51734844       0.40814936       0.19595482 </v>
    <v>       0.78403245       0.52258042       0.86271148 </v>
    <v>       0.28143803       0.65334236       0.38273568 </v>
   </varray>
  </structure>
  <varray name="primitive_index" >
   <v type="int" >        1 </v>
   <v type="int" >        2 </v>
   <v type="int" >        3 </v>
   <v type="int" >        4 </v>
   <v type="int" >        5 </v>
   <v type="int" >        6 </v>
   <v type="int" >        7 </v>
   <v type="int" >        8 </v>
   <v type="int" >        9 </v>
   <v type="int" >       10 </v>
   <v type="int" >       11 </v>
   <v type="int" >       12 </v>
   <v type="int" >       13 </v>
   <v type="int" >       14 </v>
   <v type="int" >       15 </v>
   <v type="int" >       16 </v>
   <v type="int" >       17 </v>
   <v type="int" >       18 </v>
   <v type="int" >       19 </v>
   <v type="int" >       20 </v>
   <v type="int" >       21 </v>
   <v type="int" >       22 </v>
   <v type="int" >       23 </v>
   <v type="int" >       24 </v>
   <v type="int" >       25 </v>
   <v type="int" >       26 </v>
   <v type="int" >       27 </v>
   <v type="int" >       28 </v>
   <v type="int" >       29 </v>
   <v type="int" >       30 </v>
   <v type="int" >       31 </v>
   <v type="int" >       32 </v>
   <v type="int" >       33 </v>
   <v type="int" >       34 </v>
   <v type="int" >       35 </v>
   <v type="int" >       36 </v>
   <v type="int" >       37 </v>
   <v type="int" >       38 </v>
   <v type="int" >       39 </v>
   <v type="int" >       40 </v>
   <v type="int" >       41 </v>
   <v type="int" >       42 </v>
   <v type="int" >       43 </v>
   <v type="int" >       44 </v>
   <v type="int" >       45 </v>
   <v type="int" >       46 </v>
   <v type="int" >       47 </v>
   <v type="int" >       48 </v>
   <v type="int" >       49 </v>
   <v type="int" >       50 </v>
   <v type="int" >       51 </v>
   <v type="int" >       52 </v>
   <v type="int" >       53 </v>
   <v type="int" >       54 </v>
   <v type="int" >       55 </v>
   <v type="int" >       56 </v>
   <v type="int" >       57 </v>
   <v type="int" >       58 </v>
   <v type="int" >       59 </v>
   <v type="int" >       60 </v>
   <v type="int" >       61 </v>
   <v type="int" >       62 </v>
   <v type="int" >       63 </v>
   <v type="int" >       64 </v>
   <v type="int" >       65 </v>
   <v type="int" >       66 </v>
   <v type="int" >       67 </v>
   <v type="int" >       68 </v>
   <v type="int" >       69 </v>
   <v type="int" >       70 </v>
   <v type="int" >       71 </v>
   <v type="int" >       72 </v>
   <v type="int" >       73 </v>
   <v type="int" >       74 </v>
   <v type="int" >       75 </v>
   <v type="int" >       76 </v>
   <v type="int" >       77 </v>
   <v type="int" >       78 </v>
   <v type="int" >       79 </v>
   <v type="int" >       80 </v>
   <v type="int" >       81 </v>
   <v type="int" >       82 </v>
   <v type="int" >       83 </v>
   <v type="int" >       84 </v>
   <v type="int" >       85 </v>
   <v type="int" >       86 </v>
   <v type="int" >       87 </v>
   <v type="int" >       88 </v>
   <v type="int" >       89 </v>
   <v type="int" >       90 </v>
   <v type="int" >       91 </v>
   <v type="int" >       92 </v>
   <v type="int" >       93 </v>
   <v type="int" >       94 </v>
   <v type="int" >       95 </v>
   <v type="int" >       96 </v>
   <v type="int" >       97 </v>
   <v type="int" >       98 </v>
   <v type="int" >       99 </v>
   <v type="int" >      100 </v>
   <v type="int" >      101 </v>
   <v type="int" >      102 </v>
   <v type="int" >      103 </v>
   <v type="int" >      104 </v>
   <v type="int" >      105 </v>
   <v type="int" >      106 </v>
   <v type="int" >      107 </v>
   <v type="int" >      108 </v>
   <v type="int" >      109 </v>
   <v type="int" >      110 </v>
   <v type="int" >      111 </v>
   <v type="int" >      112 </v>
   <v type="int" >      113 </v>
   <v type="int" >      114 </v>
   <v type="int" >      115 </v>
   <v type="int" >      116 </v>
   <v type="int" >      117 </v>
   <v type="int" >      118 </v>
   <v type="int" >      119 </v>
   <v type="int" >      120 </v>
   <v type="int" >      121 </v>
   <v type="int" >      122 </v>
   <v type="int" >      123 </v>
   <v type="int" >      124 </v>
   <v type="int" >      125 </v>
   <v type="int" >      126 </v>
   <v type="int" >      127 </v>
   <v type="int" >      128 </v>
   <v type="int" >      129 </v>
   <v type="int" >      130 </v>
   <v type="int" >      131 </v>
   <v type="int" >      132 </v>
   <v type="int" >      133 </v>
   <v type="int" >      134 </v>
   <v type="int" >      135 </v>
   <v type="int" >      136 </v>
   <v type="int" >      137 </v>
   <v type="int" >      138 </v>
   <v type="int" >      139 </v>
   <v type="int" >      140 </v>
   <v type="int" >      141 </v>
   <v type="int" >      142 </v>
   <v type="int" >      143 </v>
   <v type="int" >      144 </v>
   <v type="int" >      145 </v>
   <v type="int" >      146 </v>
   <v type="int" >      147 </v>
   <v type="int" >      148 </v>
   <v type="int" >      149 </v>
   <v type="int" >      150 </v>
   <v type="int" >      151 </v>
   <v type="int" >      152 </v>
   <v type="int" >      153 </v>
   <v type="int" >      154 </v>
   <v type="int" >      155 </v>
   <v type="int" >      156 </v>
   <v type="int" >      157 </v>
   <v type="int" >      158 </v>
   <v type="int" >      159 </v>
   <v type="int" >      160 </v>
   <v type="int" >      161 </v>
   <v type="int" >      162 </v>
   <v type="int" >      163 </v>
   <v type="int" >      164 </v>
   <v type="int" >      165 </v>
   <v type="int" >      166 </v>
   <v type="int" >      167 </v>
   <v type="int" >      168 </v>
   <v type="int" >      169 </v>
   <v type="int" >      170 </v>
   <v type="int" >      171 </v>
   <v type="int" >      172 </v>
   <v type="int" >      173 </v>
   <v type="int" >      174 </v>
   <v type="int" >      175 </v>
   <v type="int" >      176 </v>
   <v type="int" >      177 </v>
   <v type="int" >      178 </v>
   <v type="int" >      179 </v>
   <v type="int" >      180 </v>
   <v type="int" >      181 </v>
   <v type="int" >      182 </v>
   <v type="int" >      183 </v>
   <v type="int" >      184 </v>
   <v type="int" >      185 </v>
   <v type="int" >      186 </v>
   <v type="int" >      187 </v>
   <v type="int" >      188 </v>
   <v type="int" >      189 </v>
   <v type="int" >      190 </v>
   <v type="int" >      191 </v>
   <v type="int" >      192 </v>
   <v type="int" >      193 </v>
   <v type="int" >      194 </v>
   <v type="int" >      195 </v>
   <v type="int" >      196 </v>
   <v type="int" >      197 </v>
   <v type="int" >      198 </v>
   <v type="int" >      199 </v>
   <v type="int" >      200 </v>
   <v type="int" >      201 </v>
   <v type="int" >      202 </v>
   <v type="int" >      203 </v>
   <v type="int" >      204 </v>
   <v type="int" >      205 </v>
   <v type="int" >      206 </v>
   <v type="int" >      207 </v>
   <v type="int" >      208 </v>
   <v type="int" >      209 </v>
   <v type="int" >      210 </v>
   <v type="int" >      211 </v>
   <v type="int" >      212 </v>
   <v type="int" >      213 </v>
   <v type="int" >      214 </v>
   <v type="int" >      215 </v>
   <v type="int" >      216 </v>
   <v type="int" >      217 </v>
   <v type="int" >      218 </v>
   <v type="int" >      219 </v>
   <v type="int" >      220 </v>
   <v type="int" >      221 </v>
   <v type="int" >      222 </v>
   <v type="int" >      223 </v>
   <v type="int" >      224 </v>
   <v type="int" >      225 </v>
   <v type="int" >      226 </v>
   <v type="int" >      227 </v>
   <v type="int" >      228 </v>
   <v type="int" >      229 </v>
   <v type="int" >      230 </v>
   <v type="int" >      231 </v>
   <v type="int" >      232 </v>
   <v type="int" >      233 </v>
   <v type="int" >      234 </v>
   <v type="int" >      235 </v>
   <v type="int" >      236 </v>
   <v type="int" >      237 </v>
   <v type="int" >      238 </v>
   <v type="int" >      239 </v>
   <v type="int" >      240 </v>
   <v type="int" >      241 </v>
   <v type="int" >      242 </v>
   <v type="int" >      243 </v>
   <v type="int" >      244 </v>
   <v type="int" >      245 </v>
   <v type="int" >      246 </v>
   <v type="int" >      247 </v>
   <v type="int" >      248 </v>
   <v type="int" >      249 </v>
   <v type="int" >      250 </v>
   <v type="int" >      251 </v>
   <v type="int" >      252 </v>
   <v type="int" >      253 </v>
   <v type="int" >      254 </v>
   <v type="int" >      255 </v>
   <v type="int" >      256 </v>
   <v type="int" >      257 </v>
  </varray>
 </primitive_cell>
 <kpoints>
  <generation param="Gamma">
   <v type="int" name="divisions">       1        1        1 </v>
   <v name="usershift">      0.00000000       0.00000000       0.00000000 </v>
   <v name="genvec1">      1.00000000      -0.00000000       0.00000000 </v>
   <v name="genvec2">      0.00000000       1.00000000      -0.00000000 </v>
   <v name="genvec3">     -0.00000000       0.00000000       1.00000000 </v>
   <v name="shift">      0.00000000       0.00000000       0.00000000 </v>
  </generation>
  <varray name="kpointlist" >
   <v>       0.00000000       0.00000000       0.00000000 </v>
  </varray>
  <varray name="weights" >
   <v>       1.00000000 </v>
  </varray>
 </kpoints>
 <parameters>
  <separator name="general" >
   <i type="string" name="SYSTEM">LiMox</i>
   <i type="logical" name="LCOMPAT"> F  </i>
  </separator>
  <separator name="electronic" >
   <i type="string" name="PREC">accura</i>
   <i name="ENMAX">    400.00000000</i>
   <i name="ENAUG">    345.27800000</i>
   <i name="EDIFF">      0.00000100</i>
   <i type="int" name="IALGO">    48</i>
   <i type="int" name="IWAVPR">    11</i>
   <i type="int" name="NBANDS">  1052</i>
   <i type="int" name="NBANDSLOW">    -1</i>
   <i type="int" name="NBANDSHIGH">    -1</i>
   <i name="NELECT">   1537.00000000</i>
   <i type="int" name="TURBO">     0</i>
   <i type="int" name="IRESTART">     0</i>
   <i type="int" name="NREBOOT">     0</i>
   <i type="int" name="NMIN">     0</i>
   <i name="EREF">      0.00000000</i>
   <separator name="electronic smearing" >
    <i type="int" name="ISMEAR">     0</i>
    <i name="SIGMA">      0.05000000</i>
    <i name="KSPACING">      0.50000000</i>
    <i type="logical" name="KGAMMA"> T  </i>
    <i type="logical" name="KBLOWUP"> T  </i>
   </separator>
   <separator name="electronic projectors" >
    <i type="logical" name="LREAL"> T  </i>
    <v name="ROPT">     -0.00025000     -0.00025000     -0.00025000</v>
    <i type="int" name="LMAXPAW">  -100</i>
    <i type="int" name="LMAXMIX">     4</i>
    <i type="logical" name="NLSPLINE"> F  </i>
   </separator>
   <separator name="electronic startup" >
    <i type="int" name="ISTART">     0</i>
    <i type="int" name="ICHARG">     2</i>
    <i type="int" name="INIWAV">     1</i>
   </separator>
   <separator name="electronic spin" >
    <i type="int" name="ISPIN">     2</i>
    <i type="logical" name="LNONCOLLINEAR"> F  </i>
    <v name="MAGMOM">      1.00000000      1.00000000      1.00000000      1.00000000      1.00000000      1.00000000      1.00000000      1.00000000      1.00000000      1.00000000      1.00000000      1.00000000      1.00000000      1.00000000      1.00000000      1.00000000      1.00000000      1.00000000      1.00000000      1.00000000
      1.00000000      1.00000000      1.00000000      1.00000000      1.00000000      1.00000000      1.00000000      1.00000000      1.00000000      1.00000000      1.00000000      1.00000000      1.00000000      1.00000000      1.00000000      1.00000000      1.00000000      1.00000000      1.00000000      1.00000000
      1.00000000      1.00000000      1.00000000      1.00000000      1.00000000      1.00000000      1.00000000      1.00000000      1.00000000      1.00000000      1.00000000      1.00000000      1.00000000      1.00000000      1.00000000      1.00000000      1.00000000      1.00000000      1.00000000      1.00000000
      1.00000000      1.00000000      1.00000000      1.00000000      1.00000000      1.00000000      1.00000000      1.00000000      1.00000000      1.00000000      1.00000000      1.00000000      1.00000000      1.00000000      1.00000000      1.00000000      1.00000000      1.00000000      1.00000000      1.00000000
      1.00000000      1.00000000      1.00000000      1.00000000      1.00000000      1.00000000      1.00000000      1.00000000      1.00000000      1.00000000      1.00000000      1.00000000      1.00000000      1.00000000      1.00000000      1.00000000      1.00000000      1.00000000      1.00000000      1.00000000
      1.00000000      1.00000000      1.00000000      1.00000000      1.00000000      1.00000000      1.00000000      1.00000000      1.00000000      1.00000000      1.00000000      1.00000000      1.00000000      1.00000000      1.00000000      1.00000000      1.00000000      1.00000000      1.00000000      1.00000000
      1.00000000      1.00000000      1.00000000      1.00000000      1.00000000      1.00000000      1.00000000      1.00000000      1.00000000      1.00000000      1.00000000      1.00000000      1.00000000      1.00000000      1.00000000      1.00000000      1.00000000      1.00000000      1.00000000      1.00000000
      1.00000000      1.00000000      1.00000000      1.00000000      1.00000000      1.00000000      1.00000000      1.00000000      1.00000000      1.00000000      1.00000000      1.00000000      1.00000000      1.00000000      1.00000000      1.00000000      1.00000000      1.00000000      1.00000000      1.00000000
      1.00000000      1.00000000      1.00000000      1.00000000      1.00000000      1.00000000      1.00000000      1.00000000      1.00000000      1.00000000      1.00000000      1.00000000      1.00000000      1.00000000      1.00000000      1.00000000      1.00000000      1.00000000      1.00000000      1.00000000
      1.00000000      1.00000000      1.00000000      1.00000000      1.00000000      1.00000000      1.00000000      1.00000000      1.00000000      1.00000000      1.00000000      1.00000000      1.00000000      1.00000000      1.00000000      1.00000000      1.00000000      1.00000000      1.00000000      1.00000000
      1.00000000      1.00000000      1.00000000      1.00000000      1.00000000      1.00000000      1.00000000      1.00000000      1.00000000      1.00000000      1.00000000      1.00000000      1.00000000      1.00000000      1.00000000      1.00000000      1.00000000      1.00000000      1.00000000      1.00000000
      1.00000000      1.00000000      1.00000000      1.00000000      1.00000000      1.00000000      1.00000000      1.00000000      1.00000000      1.00000000      1.00000000      1.00000000      1.00000000      1.00000000      1.00000000      1.00000000      1.00000000      1.00000000      1.00000000      1.00000000
      1.00000000      1.00000000      1.00000000      1.00000000      1.00000000      1.00000000      1.00000000      1.00000000      1.00000000      1.00000000      1.00000000      1.00000000      1.00000000      1.00000000      1.00000000      1.00000000      1.00000000</v>
    <i name="NUPDOWN">     -1.00000000</i>
    <i type="logical" name="LSORBIT"> F  </i>
    <v name="SAXIS">      0.00000000      0.00000000      1.00000000</v>
    <i type="logical" name="LSPIRAL"> F  </i>
    <v name="QSPIRAL">      0.00000000      0.00000000      0.00000000</v>
    <i type="logical" name="LZEROZ"> F  </i>
   </separator>
   <separator name="electronic exchange-correlation" >
    <i type="logical" name="LASPH"> F  </i>
    <i type="logical" name="LMETAGGA"> F  </i>
   </separator>
   <separator name="electronic convergence" >
    <i type="int" name="NELM">   800</i>
    <i type="int" name="NELMDL">    10</i>
    <i type="int" name="NELMIN">     2</i>
    <i name="ENINI">    400.00000000</i>
    <separator name="electronic convergence detail" >
     <i type="logical" name="LDIAG"> T  </i>
     <i type="logical" name="LSUBROT"> F  </i>
     <i name="WEIMIN">      0.00100000</i>
     <i name="EBREAK">      0.00000000</i>
     <i name="DEPER">      0.30000000</i>
     <i type="int" name="NRMM">     4</i>
     <i name="TIME">      0.40000000</i>
    </separator>
   </separator>
   <separator name="electronic mixer" >
    <i name="AMIX">      0.20000000</i>
    <i name="BMIX">      0.00001000</i>
    <i name="AMIN">      0.10000000</i>
    <i name="AMIX_MAG">      0.80000000</i>
    <i name="BMIX_MAG">      0.00001000</i>
    <separator name="electronic mixer details" >
     <i type="int" name="IMIX">     4</i>
     <i type="logical" name="MIXFIRST"> F  </i>
     <i type="int" name="MAXMIX">   -45</i>
     <i name="WC">    100.00000000</i>
     <i type="int" name="INIMIX">     1</i>
     <i type="int" name="MIXPRE">     1</i>
     <i type="int" name="MREMOVE">     5</i>
    </separator>
   </separator>
   <separator name="electronic dipolcorrection" >
    <i type="logical" name="LDIPOL"> F  </i>
    <i type="logical" name="LMONO"> F  </i>
    <i type="int" name="IDIPOL">     3</i>
    <i name="EPSILON">      1.00000000</i>
    <v name="DIPOL">   -100.00000000   -100.00000000   -100.00000000</v>
    <i name="EFIELD">      0.00000000</i>
   </separator>
  </separator>
  <separator name="grids" >
   <i type="int" name="NGX">   180</i>
   <i type="int" name="NGY">   160</i>
   <i type="int" name="NGZ">    84</i>
   <i type="int" name="NGXF">   360</i>
   <i type="int" name="NGYF">   320</i>
   <i type="int" name="NGZF">   168</i>
   <i type="logical" name="ADDGRID"> T  </i>
  </separator>
  <separator name="ionic" >
   <i type="int" name="NSW">  1200</i>
   <i type="int" name="IBRION">     2</i>
   <i type="int" name="MDALGO">     0</i>
   <i type="int" name="ISIF">     2</i>
   <i name="PSTRESS">      0.00000000</i>
   <i name="EDIFFG">     -0.03000000</i>
   <i type="int" name="NFREE">     1</i>
   <i name="POTIM">      0.20000000</i>
   <i name="SMASS">     -3.00000000</i>
   <i name="SCALEE">      1.00000000</i>
  </separator>
  <separator name="ionic md" >
   <i name="TEBEG">      0.00010000</i>
   <i name="TEEND">      0.00010000</i>
   <i type="int" name="NBLOCK">     1</i>
   <i type="int" name="KBLOCK">  1200</i>
   <i type="int" name="NPACO">   256</i>
   <i name="APACO">     16.00000000</i>
  </separator>
  <separator name="symmetry" >
   <i type="int" name="ISYM">     0</i>
   <i name="SYMPREC">      0.00001000</i>
  </separator>
  <separator name="dos" >
   <i type="int" name="LORBIT">     0</i>
   <v name="RWIGS">     -1.00000000     -1.00000000     -1.00000000</v>
   <i type="int" name="NEDOS">   903</i>
   <i name="EMIN">     10.00000000</i>
   <i name="EMAX">    -10.00000000</i>
   <i name="EFERMI">      0.00000000</i>
  </separator>
  <separator name="writing" >
   <i type="int" name="NWRITE">     0</i>
   <i type="logical" name="LWAVE"> F  </i>
   <i type="logical" name="LDOWNSAMPLE"> F  </i>
   <i type="logical" name="LCHARG"> F  </i>
   <i type="logical" name="LPARD"> F  </i>
   <i type="logical" name="LVTOT"> F  </i>
   <i type="logical" name="LVHAR"> F  </i>
   <i type="logical" name="LELF"> F  </i>
   <i type="logical" name="LOPTICS"> F  </i>
   <v name="STM">      0.00000000      0.00000000      0.00000000      0.00000000      0.00000000      0.00000000      0.00000000</v>
  </separator>
  <separator name="performance" >
   <i type="int" name="NPAR">     4</i>
   <i type="int" name="NSIM">     4</i>
   <i type="int" name="NBLK">    -1</i>
   <i type="logical" name="LPLANE"> T  </i>
   <i type="logical" name="LSCALAPACK"> T  </i>
   <i type="logical" name="LSCAAWARE"> F  </i>
   <i type="logical" name="LSCALU"> F  </i>
   <i type="logical" name="LASYNC"> F  </i>
   <i type="logical" name="LORBITALREAL"> F  </i>
  </separator>
  <separator name="miscellaneous" >
   <i type="int" name="IDIOT">     3</i>
   <i type="int" name="PHON_NSTRUCT">    -1</i>
   <i type="logical" name="LMUSIC"> F  </i>
   <v name="POMASS">     95.94000000     32.06600000      7.01000000</v>
   <v name="DARWINR">      0.00000000      0.00000000      0.00000000</v>
   <v name="DARWINV">      1.00000000      1.00000000      1.00000000</v>
   <i type="logical" name="LCORR"> T  </i>
  </separator>
  <i type="logical" name="GGA_COMPAT"> T  </i>
  <i type="logical" name="LBERRY"> F  </i>
  <i type="int" name="ICORELEVEL">     0</i>
  <i type="logical" name="LDAU"> F  </i>
  <i type="int" name="I_CONSTRAINED_M">     0</i>
  <separator name="electronic exchange-correlation" >
   <i type="string" name="GGA">PE</i>
   <i type="int" name="VOSKOWN">     0</i>
   <i type="logical" name="LHFCALC"> F  </i>
   <i type="string" name="PRECFOCK"></i>
   <i type="logical" name="LSYMGRAD"> F  </i>
   <i type="logical" name="LHFONE"> F  </i>
   <i type="logical" name="LRHFCALC"> F  </i>
   <i type="logical" name="LTHOMAS"> F  </i>
   <i type="logical" name="LMODELHF"> F  </i>
   <i type="logical" name="LFOCKACE"> F  </i>
   <i name="ENCUT4O">     -1.00000000</i>
   <i type="int" name="EXXOEP">     0</i>
   <i type="int" name="FOURORBIT">     0</i>
   <i name="AEXX">      0.00000000</i>
   <i name="HFALPHA">      0.00000000</i>
   <i name="MCALPHA">      0.00000000</i>
   <i name="ALDAX">      1.00000000</i>
   <i name="AGGAX">      1.00000000</i>
   <i name="ALDAC">      1.00000000</i>
   <i name="AGGAC">      1.00000000</i>
   <i type="int" name="NKREDX">     1</i>
   <i type="int" name="NKREDY">     1</i>
   <i type="int" name="NKREDZ">     1</i>
   <i type="logical" name="SHIFTRED"> F  </i>
   <i type="logical" name="ODDONLY"> F  </i>
   <i type="logical" name="EVENONLY"> F  </i>
   <i type="int" name="LMAXFOCK">     0</i>
   <i type="int" name="NMAXFOCKAE">     0</i>
   <i type="logical" name="LFOCKAEDFT"> F  </i>
   <i name="HFSCREEN">      0.00000000</i>
   <i name="HFSCREENC">      0.00000000</i>
   <i type="int" name="NBANDSGWLOW">     0</i>
  </separator>
  <separator name="vdW DFT" >
   <i type="logical" name="LUSE_VDW"> F  </i>
   <i name="Zab_VDW">     -0.84910000</i>
   <i name="PARAM1">      0.12340000</i>
   <i name="PARAM2">      1.00000000</i>
   <i name="PARAM3">      0.00000000</i>
  </separator>
  <separator name="model GW" >
   <i type="int" name="MODEL_GW">     0</i>
   <i name="MODEL_EPS0">     14.38948683</i>
   <i name="MODEL_ALPHA">      1.00000000</i>
  </separator>
  <separator name="linear response parameters" >
   <i type="logical" name="LEPSILON"> F  </i>
   <i type="logical" name="LRPA"> F  </i>
   <i type="logical" name="LNABLA"> F  </i>
   <i type="logical" name="LVEL"> F  </i>
   <i type="int" name="KINTER">     0</i>
   <i name="CSHIFT">      0.10000000</i>
   <i name="OMEGAMAX">     -1.00000000</i>
   <i name="DEG_THRESHOLD">      0.00200000</i>
   <i name="RTIME">     -0.10000000</i>
   <i name="WPLASMAI">      0.00000000</i>
   <v name="DFIELD">      0.00000000      0.00000000      0.00000000</v>
   <v name="WPLASMA">      0.00000000      0.00000000      0.00000000      0.00000000      0.00000000      0.00000000      0.00000000      0.00000000      0.00000000</v>
  </separator>
  <separator name="orbital magnetization" >
   <i type="logical" name="NUCIND"> F  </i>
   <v name="MAGPOS">      0.00000000      0.00000000      0.00000000</v>
   <i type="logical" name="LNICSALL"> T  </i>
   <i type="logical" name="ORBITALMAG"> F  </i>
   <i type="logical" name="LMAGBLOCH"> F  </i>
   <i type="logical" name="LCHIMAG"> F  </i>
   <i type="logical" name="LGAUGE"> T  </i>
   <i type="int" name="MAGATOM">     0</i>
   <v name="MAGDIPOL">      0.00000000      0.00000000      0.00000000</v>
   <v name="AVECCONST">      0.00000000      0.00000000      0.00000000</v>
  </separator>
  <separator name="response functions" >
   <i type="logical" name="LFINITE_TEMPERATURE"> F  </i>
   <i type="logical" name="LADDER"> F  </i>
   <i type="logical" name="LRPAFORCE"> F  </i>
   <i type="logical" name="LFXC"> F  </i>
   <i type="logical" name="LHARTREE"> T  </i>
   <i type="int" name="IBSE">     0</i>
   <v type="int" name="KPOINT">    -1     0     0     0</v>
   <i type="logical" name="LTCTC"> F  </i>
   <i type="logical" name="LTCTE"> F  </i>
   <i type="logical" name="LTETE"> F  </i>
   <i type="logical" name="LTRIPLET"> F  </i>
   <i type="logical" name="LFXCEPS"> F  </i>
   <i type="logical" name="LFXHEG"> F  </i>
   <i type="int" name="NATURALO">     2</i>
   <i type="logical" name="LHOLEGF"> F  </i>
   <i type="logical" name="L2ORDER"> F  </i>
   <i type="logical" name="LDMP1"> F  </i>
   <i type="logical" name="LMP2LT"> F  </i>
   <i type="logical" name="LSMP2LT"> F  </i>
   <i type="logical" name="LGWLF"> F  </i>
   <i name="ENCUTGW">     -2.00000000</i>
   <i name="ENCUTGWSOFT">     -2.00000000</i>
   <i name="ENCUTLF">     -1.00000000</i>
   <i type="logical" name="LESF_SPLINES"> F  </i>
   <i type="int" name="LMAXMP2">    -1</i>
   <i name="SCISSOR">      0.00000000</i>
   <i type="int" name="NOMEGA">     0</i>
   <i type="int" name="NOMEGAR">     0</i>
   <i type="int" name="NBANDSGW">    -1</i>
   <i type="int" name="NBANDSO">    -1</i>
   <i type="int" name="NBANDSV">    -1</i>
   <i type="int" name="NELM">   800</i>
   <i type="int" name="NELMHF">     1</i>
   <i type="int" name="DIM">     3</i>
   <i type="int" name="IESPILON">     4</i>
   <i type="int" name="ANTIRES">     0</i>
   <i name="OMEGAMAX">    -30.00000000</i>
   <i name="OMEGAMIN">    -30.00000000</i>
   <i name="OMEGATL">   -200.00000000</i>
   <i type="int" name="OMEGAGRID">     0</i>
   <i name="CSHIFT">     -0.10000000</i>
   <i type="logical" name="LSELFENERGY"> F  </i>
   <i type="logical" name="LSPECTRAL"> F  </i>
   <i type="logical" name="LSPECTRALGW"> F  </i>
   <i type="logical" name="LSINGLES"> F  </i>
   <i type="logical" name="LFERMIGW"> F  </i>
   <i type="logical" name="ODDONLYGW"> F  </i>
   <i type="logical" name="EVENONLYGW"> F  </i>
   <i type="int" name="NKREDLFX">     1</i>
   <i type="int" name="NKREDLFY">     1</i>
   <i type="int" name="NKREDLFZ">     1</i>
   <i type="int" name="MAXMEM">  2800</i>
   <i type="int" name="TELESCOPE">     0</i>
   <i type="int" name="NTAUPAR">    -1</i>
   <i type="int" name="NOMEGAPAR">    -1</i>
   <i name="DAMP_NEWTON">      0.80000001</i>
   <i name="LAMBDA">      1.00000000</i>
  </separator>
  <separator name="External order field" >
   <i name="OFIELD_KAPPA">      0.00000000</i>
   <v name="OFIELD_K">      0.00000000      0.00000000      0.00000000</v>
   <i name="OFIELD_Q6_NEAR">      0.00000000</i>
   <i name="OFIELD_Q6_FAR">      0.00000000</i>
   <i name="OFIELD_A">      0.00000000</i>
  </separator>
 </parameters>
 <atominfo>
  <atoms>     257 </atoms>
  <types>       3 </types>
  <array name="atoms" >
   <dimension dim="1">ion</dimension>
   <field type="string">element</field>
   <field type="int">atomtype</field>
   <set>
    <rc><c>Mo</c><c>   1</c></rc>
    <rc><c>Mo</c><c>   1</c></rc>
    <rc><c>Mo</c><c>   1</c></rc>
    <rc><c>Mo</c><c>   1</c></rc>
    <rc><c>Mo</c><c>   1</c></rc>
    <rc><c>Mo</c><c>   1</c></rc>
    <rc><c>Mo</c><c>   1</c></rc>
    <rc><c>Mo</c><c>   1</c></rc>
    <rc><c>Mo</c><c>   1</c></rc>
    <rc><c>Mo</c><c>   1</c></rc>
    <rc><c>Mo</c><c>   1</c></rc>
    <rc><c>Mo</c><c>   1</c></rc>
    <rc><c>Mo</c><c>   1</c></rc>
    <rc><c>Mo</c><c>   1</c></rc>
    <rc><c>Mo</c><c>   1</c></rc>
    <rc><c>Mo</c><c>   1</c></rc>
    <rc><c>Mo</c><c>   1</c></rc>
    <rc><c>Mo</c><c>   1</c></rc>
    <rc><c>Mo</c><c>   1</c></rc>
    <rc><c>Mo</c><c>   1</c></rc>
    <rc><c>Mo</c><c>   1</c></rc>
    <rc><c>Mo</c><c>   1</c></rc>
    <rc><c>Mo</c><c>   1</c></rc>
    <rc><c>Mo</c><c>   1</c></rc>
    <rc><c>Mo</c><c>   1</c></rc>
    <rc><c>Mo</c><c>   1</c></rc>
    <rc><c>Mo</c><c>   1</c></rc>
    <rc><c>Mo</c><c>   1</c></rc>
    <rc><c>Mo</c><c>   1</c></rc>
    <rc><c>Mo</c><c>   1</c></rc>
    <rc><c>Mo</c><c>   1</c></rc>
    <rc><c>Mo</c><c>   1</c></rc>
    <rc><c>Mo</c><c>   1</c></rc>
    <rc><c>Mo</c><c>   1</c></rc>
    <rc><c>Mo</c><c>   1</c></rc>
    <rc><c>Mo</c><c>   1</c></rc>
    <rc><c>Mo</c><c>   1</c></rc>
    <rc><c>Mo</c><c>   1</c></rc>
    <rc><c>Mo</c><c>   1</c></rc>
    <rc><c>Mo</c><c>   1</c></rc>
    <rc><c>Mo</c><c>   1</c></rc>
    <rc><c>Mo</c><c>   1</c></rc>
    <rc><c>Mo</c><c>   1</c></rc>
    <rc><c>Mo</c><c>   1</c></rc>
    <rc><c>Mo</c><c>   1</c></rc>
    <rc><c>Mo</c><c>   1</c></rc>
    <rc><c>Mo</c><c>   1</c></rc>
    <rc><c>Mo</c><c>   1</c></rc>
    <rc><c>S </c><c>   2</c></rc>
    <rc><c>S </c><c>   2</c></rc>
    <rc><c>S </c><c>   2</c></rc>
    <rc><c>S </c><c>   2</c></rc>
    <rc><c>S </c><c>   2</c></rc>
    <rc><c>S </c><c>   2</c></rc>
    <rc><c>S </c><c>   2</c></rc>
    <rc><c>S </c><c>   2</c></rc>
    <rc><c>S </c><c>   2</c></rc>
    <rc><c>S </c><c>   2</c></rc>
    <rc><c>S </c><c>   2</c></rc>
    <rc><c>S </c><c>   2</c></rc>
    <rc><c>S </c><c>   2</c></rc>
    <rc><c>S </c><c>   2</c></rc>
    <rc><c>S </c><c>   2</c></rc>
    <rc><c>S </c><c>   2</c></rc>
    <rc><c>S </c><c>   2</c></rc>
    <rc><c>S </c><c>   2</c></rc>
    <rc><c>S </c><c>   2</c></rc>
    <rc><c>S </c><c>   2</c></rc>
    <rc><c>S </c><c>   2</c></rc>
    <rc><c>S </c><c>   2</c></rc>
    <rc><c>S </c><c>   2</c></rc>
    <rc><c>S </c><c>   2</c></rc>
    <rc><c>S </c><c>   2</c></rc>
    <rc><c>S </c><c>   2</c></rc>
    <rc><c>S </c><c>   2</c></rc>
    <rc><c>S </c><c>   2</c></rc>
    <rc><c>S </c><c>   2</c></rc>
    <rc><c>S </c><c>   2</c></rc>
    <rc><c>S </c><c>   2</c></rc>
    <rc><c>S </c><c>   2</c></rc>
    <rc><c>S </c><c>   2</c></rc>
    <rc><c>S </c><c>   2</c></rc>
    <rc><c>S </c><c>   2</c></rc>
    <rc><c>S </c><c>   2</c></rc>
    <rc><c>S </c><c>   2</c></rc>
    <rc><c>S </c><c>   2</c></rc>
    <rc><c>S </c><c>   2</c></rc>
    <rc><c>S </c><c>   2</c></rc>
    <rc><c>S </c><c>   2</c></rc>
    <rc><c>S </c><c>   2</c></rc>
    <rc><c>S </c><c>   2</c></rc>
    <rc><c>S </c><c>   2</c></rc>
    <rc><c>S </c><c>   2</c></rc>
    <rc><c>S </c><c>   2</c></rc>
    <rc><c>S </c><c>   2</c></rc>
    <rc><c>S </c><c>   2</c></rc>
    <rc><c>S </c><c>   2</c></rc>
    <rc><c>S </c><c>   2</c></rc>
    <rc><c>S </c><c>   2</c></rc>
    <rc><c>S </c><c>   2</c></rc>
    <rc><c>S </c><c>   2</c></rc>
    <rc><c>S </c><c>   2</c></rc>
    <rc><c>S </c><c>   2</c></rc>
    <rc><c>S </c><c>   2</c></rc>
    <rc><c>S </c><c>   2</c></rc>
    <rc><c>S </c><c>   2</c></rc>
    <rc><c>S </c><c>   2</c></rc>
    <rc><c>S </c><c>   2</c></rc>
    <rc><c>S </c><c>   2</c></rc>
    <rc><c>S </c><c>   2</c></rc>
    <rc><c>S </c><c>   2</c></rc>
    <rc><c>S </c><c>   2</c></rc>
    <rc><c>S </c><c>   2</c></rc>
    <rc><c>S </c><c>   2</c></rc>
    <rc><c>S </c><c>   2</c></rc>
    <rc><c>S </c><c>   2</c></rc>
    <rc><c>S </c><c>   2</c></rc>
    <rc><c>S </c><c>   2</c></rc>
    <rc><c>S </c><c>   2</c></rc>
    <rc><c>S </c><c>   2</c></rc>
    <rc><c>S </c><c>   2</c></rc>
    <rc><c>S </c><c>   2</c></rc>
    <rc><c>S </c><c>   2</c></rc>
    <rc><c>S </c><c>   2</c></rc>
    <rc><c>S </c><c>   2</c></rc>
    <rc><c>S </c><c>   2</c></rc>
    <rc><c>S </c><c>   2</c></rc>
    <rc><c>S </c><c>   2</c></rc>
    <rc><c>S </c><c>   2</c></rc>
    <rc><c>S </c><c>   2</c></rc>
    <rc><c>S </c><c>   2</c></rc>
    <rc><c>S </c><c>   2</c></rc>
    <rc><c>S </c><c>   2</c></rc>
    <rc><c>S </c><c>   2</c></rc>
    <rc><c>S </c><c>   2</c></rc>
    <rc><c>S </c><c>   2</c></rc>
    <rc><c>S </c><c>   2</c></rc>
    <rc><c>S </c><c>   2</c></rc>
    <rc><c>S </c><c>   2</c></rc>
    <rc><c>S </c><c>   2</c></rc>
    <rc><c>S </c><c>   2</c></rc>
    <rc><c>S </c><c>   2</c></rc>
    <rc><c>S </c><c>   2</c></rc>
    <rc><c>S </c><c>   2</c></rc>
    <rc><c>S </c><c>   2</c></rc>
    <rc><c>S </c><c>   2</c></rc>
    <rc><c>S </c><c>   2</c></rc>
    <rc><c>S </c><c>   2</c></rc>
    <rc><c>S </c><c>   2</c></rc>
    <rc><c>S </c><c>   2</c></rc>
    <rc><c>S </c><c>   2</c></rc>
    <rc><c>S </c><c>   2</c></rc>
    <rc><c>S </c><c>   2</c></rc>
    <rc><c>S </c><c>   2</c></rc>
    <rc><c>S </c><c>   2</c></rc>
    <rc><c>S </c><c>   2</c></rc>
    <rc><c>S </c><c>   2</c></rc>
    <rc><c>S </c><c>   2</c></rc>
    <rc><c>S </c><c>   2</c></rc>
    <rc><c>S </c><c>   2</c></rc>
    <rc><c>S </c><c>   2</c></rc>
    <rc><c>S </c><c>   2</c></rc>
    <rc><c>S </c><c>   2</c></rc>
    <rc><c>S </c><c>   2</c></rc>
    <rc><c>S </c><c>   2</c></rc>
    <rc><c>S </c><c>   2</c></rc>
    <rc><c>S </c><c>   2</c></rc>
    <rc><c>S </c><c>   2</c></rc>
    <rc><c>S </c><c>   2</c></rc>
    <rc><c>S </c><c>   2</c></rc>
    <rc><c>S </c><c>   2</c></rc>
    <rc><c>S </c><c>   2</c></rc>
    <rc><c>S </c><c>   2</c></rc>
    <rc><c>S </c><c>   2</c></rc>
    <rc><c>S </c><c>   2</c></rc>
    <rc><c>S </c><c>   2</c></rc>
    <rc><c>S </c><c>   2</c></rc>
    <rc><c>S </c><c>   2</c></rc>
    <rc><c>S </c><c>   2</c></rc>
    <rc><c>S </c><c>   2</c></rc>
    <rc><c>S </c><c>   2</c></rc>
    <rc><c>S </c><c>   2</c></rc>
    <rc><c>S </c><c>   2</c></rc>
    <rc><c>S </c><c>   2</c></rc>
    <rc><c>S </c><c>   2</c></rc>
    <rc><c>S </c><c>   2</c></rc>
    <rc><c>S </c><c>   2</c></rc>
    <rc><c>S </c><c>   2</c></rc>
    <rc><c>S </c><c>   2</c></rc>
    <rc><c>S </c><c>   2</c></rc>
    <rc><c>S </c><c>   2</c></rc>
    <rc><c>S </c><c>   2</c></rc>
    <rc><c>S </c><c>   2</c></rc>
    <rc><c>S </c><c>   2</c></rc>
    <rc><c>S </c><c>   2</c></rc>
    <rc><c>S </c><c>   2</c></rc>
    <rc><c>S </c><c>   2</c></rc>
    <rc><c>S </c><c>   2</c></rc>
    <rc><c>S </c><c>   2</c></rc>
    <rc><c>S </c><c>   2</c></rc>
    <rc><c>S </c><c>   2</c></rc>
    <rc><c>S </c><c>   2</c></rc>
    <rc><c>S </c><c>   2</c></rc>
    <rc><c>S </c><c>   2</c></rc>
    <rc><c>S </c><c>   2</c></rc>
    <rc><c>S </c><c>   2</c></rc>
    <rc><c>S </c><c>   2</c></rc>
    <rc><c>S </c><c>   2</c></rc>
    <rc><c>S </c><c>   2</c></rc>
    <rc><c>S </c><c>   2</c></rc>
    <rc><c>S </c><c>   2</c></rc>
    <rc><c>S </c><c>   2</c></rc>
    <rc><c>S </c><c>   2</c></rc>
    <rc><c>S </c><c>   2</c></rc>
    <rc><c>S </c><c>   2</c></rc>
    <rc><c>S </c><c>   2</c></rc>
    <rc><c>S </c><c>   2</c></rc>
    <rc><c>S </c><c>   2</c></rc>
    <rc><c>S </c><c>   2</c></rc>
    <rc><c>S </c><c>   2</c></rc>
    <rc><c>S </c><c>   2</c></rc>
    <rc><c>S </c><c>   2</c></rc>
    <rc><c>S </c><c>   2</c></rc>
    <rc><c>S </c><c>   2</c></rc>
    <rc><c>S </c><c>   2</c></rc>
    <rc><c>S </c><c>   2</c></rc>
    <rc><c>S </c><c>   2</c></rc>
    <rc><c>S </c><c>   2</c></rc>
    <rc><c>S </c><c>   2</c></rc>
    <rc><c>S </c><c>   2</c></rc>
    <rc><c>S </c><c>   2</c></rc>
    <rc><c>S </c><c>   2</c></rc>
    <rc><c>S </c><c>   2</c></rc>
    <rc><c>S </c><c>   2</c></rc>
    <rc><c>S </c><c>   2</c></rc>
    <rc><c>S </c><c>   2</c></rc>
    <rc><c>S </c><c>   2</c></rc>
    <rc><c>S </c><c>   2</c></rc>
    <rc><c>S </c><c>   2</c></rc>
    <rc><c>S </c><c>   2</c></rc>
    <rc><c>S </c><c>   2</c></rc>
    <rc><c>S </c><c>   2</c></rc>
    <rc><c>S </c><c>   2</c></rc>
    <rc><c>S </c><c>   2</c></rc>
    <rc><c>S </c><c>   2</c></rc>
    <rc><c>S </c><c>   2</c></rc>
    <rc><c>S </c><c>   2</c></rc>
    <rc><c>S </c><c>   2</c></rc>
    <rc><c>S </c><c>   2</c></rc>
    <rc><c>S </c><c>   2</c></rc>
    <rc><c>S </c><c>   2</c></rc>
    <rc><c>S </c><c>   2</c></rc>
    <rc><c>S </c><c>   2</c></rc>
    <rc><c>S </c><c>   2</c></rc>
    <rc><c>S </c><c>   2</c></rc>
    <rc><c>S </c><c>   2</c></rc>
    <rc><c>Li</c><c>   3</c></rc>
   </set>
  </array>
  <array name="atomtypes" >
   <dimension dim="1">type</dimension>
   <field type="int">atomspertype</field>
   <field type="string">element</field>
   <field>mass</field>
   <field>valence</field>
   <field type="string">pseudopotential</field>
   <set>
    <rc><c>  48</c><c>Mo</c><c>     95.94000000</c><c>      6.00000000</c><c>  PAW_PBE Mo 08Apr2002                  </c></rc>
    <rc><c> 208</c><c>S </c><c>     32.06600000</c><c>      6.00000000</c><c>  PAW_PBE S 06Sep2000                   </c></rc>
    <rc><c>   1</c><c>Li</c><c>      7.01000000</c><c>      1.00000000</c><c>  PAW_PBE Li 17Jan2003                  </c></rc>
   </set>
  </array>
 </atominfo>
 <structure name="initialpos" >
  <crystal>
   <varray name="basis" >
    <v>      27.12039819       0.40236035      -2.40280703 </v>
    <v>       0.30174466      23.36246522      -0.43769137 </v>
    <v>      -7.12957794      -0.28940548      10.36451101 </v>
   </varray>
   <i name="volume">   6163.49685856 </i>
   <varray name="rec_basis" >
    <v>       0.03926567      -0.00000112       0.02701018 </v>
    <v>      -0.00056378       0.04282612       0.00080800 </v>
    <v>       0.00907916       0.00180828       0.10277898 </v>
   </varray>
  </crystal>
  <varray name="positions" >
   <v>       0.53651126       0.08776685       0.67297435 </v>
   <v>       0.86421184       0.42266650       0.65649279 </v>
   <v>       0.76119459       0.56176248       0.01219225 </v>
   <v>       0.89739291       0.79669941       0.83909760 </v>
   <v>       0.27892124       0.46154056       0.16338711 </v>
   <v>       0.53499765       0.53155582       0.37610281 </v>
   <v>       0.64536243       0.91299101       0.73976890 </v>
   <v>       0.06061836       0.97702569       0.73832559 </v>
   <v>       0.76244932       0.24573412       0.13652683 </v>
   <v>       0.97319719       0.90762803       0.73461054 </v>
   <v>       0.36545763       0.96398481       0.08378679 </v>
   <v>       0.70335861       0.50714731       0.11678674 </v>
   <v>       0.90723311       0.68337860       0.73751510 </v>
   <v>       0.87672130       0.26379527       0.18960294 </v>
   <v>       0.18461175       0.54154038       0.55483725 </v>
   <v>       0.41756021       0.91958614       0.96086670 </v>
   <v>       0.88413026       0.93305687       0.76541488 </v>
   <v>       0.62655993       0.07091718       0.22991084 </v>
   <v>       0.72788886       0.38464159       0.56696920 </v>
   <v>       0.58649530       0.49014216       0.22525613 </v>
   <v>       0.35037057       0.08691849       0.31590788 </v>
   <v>       0.84845230       0.85365601       0.53575709 </v>
   <v>       0.21054033       0.68390072       0.49424323 </v>
   <v>       0.49003483       0.10401015       0.07360140 </v>
   <v>       0.60231161       0.08122283       0.56825643 </v>
   <v>       0.48141933       0.19356858       0.91961008 </v>
   <v>       0.62623683       0.17449997       0.10718348 </v>
   <v>       0.25676222       0.35202978       0.07547394 </v>
   <v>       0.83481138       0.96809863       0.03566771 </v>
   <v>       0.60608876       0.43553948       0.44369147 </v>
   <v>       0.33918983       0.77695627       0.25372156 </v>
   <v>       0.52753018       0.98566010       0.17408988 </v>
   <v>       0.01843905       0.19314353       0.94781189 </v>
   <v>       0.86988981       0.67709242       0.47562843 </v>
   <v>       0.21070927       0.74985476       0.04502909 </v>
   <v>       0.51995503       0.99162752       0.51923528 </v>
   <v>       0.72021724       0.02750267       0.81274793 </v>
   <v>       0.73819677       0.12387436       0.33581516 </v>
   <v>       0.51640730       0.87383249       0.23250800 </v>
   <v>       0.18954454       0.46630493       0.72184353 </v>
   <v>       0.34514671       0.66897058       0.68210126 </v>
   <v>       0.10434619       0.17675997       0.89174420 </v>
   <v>       0.21829519       0.22255529       0.95275721 </v>
   <v>       0.37715765       0.18097525       0.90093427 </v>
   <v>       0.27979811       0.76480493       0.69634633 </v>
   <v>       0.20897068       0.24671870       0.31189359 </v>
   <v>       0.86620270       0.57983358       0.00004962 </v>
   <v>       0.25294329       0.16883432       0.20544940 </v>
   <v>       0.22485949       0.88392556       0.25301392 </v>
   <v>       0.41432029       0.58402755       0.69570334 </v>
   <v>       0.04938548       0.77920948       0.33043217 </v>
   <v>       0.48997337       0.08834284       0.44092507 </v>
   <v>       0.31067676       0.92923516       0.15816208 </v>
   <v>       0.36491818       0.18642525       0.36407909 </v>
   <v>       0.03689819       0.46949433       0.64562135 </v>
   <v>       0.67025773       0.08409528       0.11134258 </v>
   <v>       0.09838220       0.50277409       0.50637124 </v>
   <v>       0.69065917       0.63349535       0.84157069 </v>
   <v>       0.34456990       0.05726456       0.13468143 </v>
   <v>       0.60288765       0.80645423       0.30919223 </v>
   <v>       0.08098063       0.27498552       0.95242667 </v>
   <v>       0.83629809       0.77031837       0.36242363 </v>
   <v>       0.96058895       0.54330419       0.03678486 </v>
   <v>       0.77437955       0.47329132       0.60771548 </v>
   <v>       0.17756750       0.05543496       0.41524996 </v>
   <v>       0.98485212       0.60599052       0.81797572 </v>
   <v>       0.94883529       0.52448040       0.17673600 </v>
   <v>       0.13969778       0.73607813       0.28599654 </v>
   <v>       0.67550095       0.22386540       0.68274620 </v>
   <v>       0.01521391       0.06124962       0.40464536 </v>
   <v>       0.22290319       0.39998436       0.20016407 </v>
   <v>       0.15645868       0.22399027       0.40148365 </v>
   <v>       0.69391526       0.42759672       0.69031428 </v>
   <v>       0.24853143       0.16122617       0.84849403 </v>
   <v>       0.55489389       0.73574521       0.91323516 </v>
   <v>       0.66543869       0.20010614       0.98076998 </v>
   <v>       0.73846722       0.33878432       0.07657350 </v>
   <v>       0.86582345       0.24039646       0.34799460 </v>
   <v>       0.78937088       0.20756774       0.00920926 </v>
   <v>       0.11526605       0.61742712       0.39242539 </v>
   <v>       0.40317852       0.62420741       0.30534908 </v>
   <v>       0.60870064       0.93597895       0.37620100 </v>
   <v>       0.12646520       0.50332318       0.78789874 </v>
   <v>       0.60154033       0.46312485       0.95339601 </v>
   <v>       0.27253277       0.47096722       0.45704422 </v>
   <v>       0.25895619       0.39274889       0.70931228 </v>
   <v>       0.56268068       0.64360368       0.87610809 </v>
   <v>       0.16757956       0.66175371       0.24886706 </v>
   <v>       0.64288343       0.52825344       0.46268290 </v>
   <v>       0.22165550       0.02364060       0.60837856 </v>
   <v>       0.80469517       0.46785746       0.27080957 </v>
   <v>       0.40246148       0.65692072       0.59807672 </v>
   <v>       0.24805495       0.79594186       0.26349320 </v>
   <v>       0.87484513       0.95481606       0.57262705 </v>
   <v>       0.89642981       0.49187261       0.61115726 </v>
   <v>       0.01528305       0.25900174       0.09015698 </v>
   <v>       0.47985479       0.96123790       0.28506833 </v>
   <v>       0.43368925       0.71097164       0.35158752 </v>
   <v>       0.64767929       0.09188587       0.80533681 </v>
   <v>       0.05409105       0.38344261       0.64591176 </v>
   <v>       0.98868879       0.18763218       0.72100404 </v>
   <v>       0.98765300       0.06167973       0.63093174 </v>
   <v>       0.12864200       0.37734933       0.64205998 </v>
   <v>       0.31594202       0.27894847       0.04919501 </v>
   <v>       0.41797722       0.01791757       0.01468455 </v>
   <v>       0.25723306       0.55944459       0.08215712 </v>
   <v>       0.43126943       0.85592965       0.62084259 </v>
   <v>       0.63467757       0.91423159       0.91017653 </v>
   <v>       0.56721049       0.61649060       0.50992626 </v>
   <v>       0.48226622       0.33061511       0.72646220 </v>
   <v>       0.71993633       0.08404732       0.67493025 </v>
   <v>       0.77995900       0.37688773       0.44205092 </v>
   <v>       0.81657796       0.91934923       0.14846412 </v>
   <v>       0.35878692       0.87193774       0.64666242 </v>
   <v>       0.68968293       0.48575701       0.91578808 </v>
   <v>       0.05333779       0.14476215       0.45137729 </v>
   <v>       0.79888392       0.05692464       0.03967687 </v>
   <v>       0.59454951       0.77909455       0.55356952 </v>
   <v>       0.05413750       0.64765081       0.43294924 </v>
   <v>       0.17015216       0.42197793       0.99515126 </v>
   <v>       0.25576562       0.06777813       0.25449635 </v>
   <v>       0.82867281       0.35167887       0.12810190 </v>
   <v>       0.23710969       0.27269012       0.16678913 </v>
   <v>       0.40027765       0.99708958       0.44084963 </v>
   <v>       0.84225832       0.13680348       0.56183972 </v>
   <v>       0.90390539       0.20698691       0.85686678 </v>
   <v>       0.10018942       0.53093308       0.06248986 </v>
   <v>       0.26582243       0.54802802       0.25610554 </v>
   <v>       0.25836700       0.32645297       0.46476229 </v>
   <v>       0.83007901       0.62049214       0.55088789 </v>
   <v>       0.86624379       0.33633887       0.55060752 </v>
   <v>       0.98551460       0.92124506       0.56177426 </v>
   <v>       0.66238985       0.16488327       0.34815676 </v>
   <v>       0.49500930       0.26999106       0.49163115 </v>
   <v>       0.54363788       0.99530249       0.73599895 </v>
   <v>       0.56741953       0.07149092       0.31595360 </v>
   <v>       0.53510510       0.03036426       0.01542810 </v>
   <v>       0.02476141       0.83443927       0.42483270 </v>
   <v>       0.22336222       0.85004127       0.58672532 </v>
   <v>       0.57805299       0.30477503       0.88473200 </v>
   <v>       0.94552179       0.93908479       0.20279941 </v>
   <v>       0.48886636       0.58553884       0.47524108 </v>
   <v>       0.54636973       0.45344797       0.00874907 </v>
   <v>       0.24222247       0.84440484       0.76985896 </v>
   <v>       0.73063430       0.22252675       0.27182174 </v>
   <v>       0.27272507       0.43506489       0.96974320 </v>
   <v>       0.68546327       0.97696466       0.29694266 </v>
   <v>       0.39278713       0.74459604       0.16847578 </v>
   <v>       0.96562875       0.39663344       0.87916814 </v>
   <v>       0.51645324       0.77087189       0.19170167 </v>
   <v>       0.34833899       0.69394741       0.87666256 </v>
   <v>       0.26974732       0.20220672       0.73893445 </v>
   <v>       0.15885413       0.93868527       0.81561871 </v>
   <v>       0.56787558       0.27185273       0.01895914 </v>
   <v>       0.10630040       0.78161122       0.94559708 </v>
   <v>       0.04005030       0.98911297       0.90015588 </v>
   <v>       0.53001534       0.45369530       0.47499299 </v>
   <v>       0.74693519       0.22537964       0.66897879 </v>
   <v>       0.28083120       0.50560475       0.76723406 </v>
   <v>       0.83719732       0.09359702       0.41208209 </v>
   <v>       0.26905176       0.59797188       0.57236939 </v>
   <v>       0.51506596       0.59608849       0.90675983 </v>
   <v>       0.57528072       0.76440077       0.79573850 </v>
   <v>       0.01379631       0.10388512       0.98037972 </v>
   <v>       0.35539847       0.38847533       0.25428636 </v>
   <v>       0.51593705       0.82835224       0.41498457 </v>
   <v>       0.79811452       0.87700057       0.63763078 </v>
   <v>       0.64237281       0.39498820       0.32607425 </v>
   <v>       0.11531316       0.74499510       0.80593331 </v>
   <v>       0.38112026       0.24524015       0.74265958 </v>
   <v>       0.48513303       0.34773055       0.57536835 </v>
   <v>       0.20302643       0.34938945       0.52423564 </v>
   <v>       0.74268804       0.96003939       0.24064308 </v>
   <v>       0.53875431       0.14081105       0.85962723 </v>
   <v>       0.75343343       0.93553753       0.80911096 </v>
   <v>       0.37054674       0.87173561       0.31101933 </v>
   <v>       0.97281393       0.87386537       0.91902768 </v>
   <v>       0.97694351       0.73225898       0.96179968 </v>
   <v>       0.75690171       0.65335791       0.68866810 </v>
   <v>       0.10734523       0.28733769       0.26084595 </v>
   <v>       0.92462104       0.17947974       0.14835629 </v>
   <v>       0.94708140       0.81709104       0.61619633 </v>
   <v>       0.50863372       0.56762020       0.15984811 </v>
   <v>       0.98510623       0.27503335       0.77609678 </v>
   <v>       0.15565578       0.66725234       0.89204427 </v>
   <v>       0.41435547       0.23782751       0.31397621 </v>
   <v>       0.84604151       0.51135550       0.20853730 </v>
   <v>       0.13773216       0.17609682       0.12186697 </v>
   <v>       0.93527853       0.86279803       0.27040717 </v>
   <v>       0.42392206       0.42940928       0.10927981 </v>
   <v>       0.83194360       0.34894524       0.77913918 </v>
   <v>       0.29321131       0.74468001       0.53508829 </v>
   <v>       0.90171544       0.98701640       0.96269990 </v>
   <v>       0.13310406       0.88154336       0.18998457 </v>
   <v>       0.20477025       0.12683645       0.98523558 </v>
   <v>       0.04845098       0.59816659       0.02543551 </v>
   <v>       0.11726324       0.97250863       0.62901638 </v>
   <v>       0.38473314       0.82639210       0.81504946 </v>
   <v>       0.19032851       0.47992176       0.41584156 </v>
   <v>       0.23115708       0.30607181       0.86496517 </v>
   <v>       0.83008192       0.76223902       0.61444646 </v>
   <v>       0.09651394       0.00462483       0.27632076 </v>
   <v>       0.41804199       0.06985594       0.56101994 </v>
   <v>       0.66712450       0.83797938       0.64176286 </v>
   <v>       0.19628448       0.71387072       0.64859396 </v>
   <v>       0.59654681       0.18087818       0.51772129 </v>
   <v>       0.68826267       0.50755192       0.27665766 </v>
   <v>       0.72784546       0.69112238       0.78878969 </v>
   <v>       0.52257731       0.18717274       0.70095141 </v>
   <v>       0.41174301       0.11282574       0.82323826 </v>
   <v>       0.89508317       0.41967011       0.88677917 </v>
   <v>       0.59207697       0.59064170       0.19296038 </v>
   <v>       0.54573868       0.19269737       0.15470424 </v>
   <v>       0.70225382       0.85590634       0.95110149 </v>
   <v>       0.88849473       0.15056800       0.95040829 </v>
   <v>       0.73380554       0.28091624       0.52921697 </v>
   <v>       0.85305157       0.79896044       0.93068718 </v>
   <v>       0.42460761       0.15560511       0.11752015 </v>
   <v>       0.35641561       0.51202483       0.38171537 </v>
   <v>       0.40034533       0.86396163       0.08479412 </v>
   <v>       0.71791416       0.60081501       0.11706082 </v>
   <v>       0.12284979       0.92067037       0.32477582 </v>
   <v>       0.53295329       0.88987462       0.57262182 </v>
   <v>       0.61894271       0.98056920       0.57273937 </v>
   <v>       0.28364949       0.18136322       0.44246951 </v>
   <v>       0.67309984       0.76678492       0.91726402 </v>
   <v>       0.65082911       0.35107474       0.59381954 </v>
   <v>       0.96209802       0.72250725       0.67347675 </v>
   <v>       0.99910716       0.70373368       0.27972230 </v>
   <v>       0.30112869       0.94040913       0.85983529 </v>
   <v>       0.28686756       0.68930560       0.22004591 </v>
   <v>       0.38826567       0.95136335       0.73951564 </v>
   <v>       0.91419256       0.61960103       0.42337344 </v>
   <v>       0.72791228       0.04327849       0.44904710 </v>
   <v>       0.42584546       0.27051580       0.94530438 </v>
   <v>       0.86478488       0.02854663       0.78168292 </v>
   <v>       0.94596443       0.07259588       0.41635888 </v>
   <v>       0.76939611       0.87585836       0.30588364 </v>
   <v>       0.17437004       0.04718571       0.68035808 </v>
   <v>       0.08308937       0.08600971       0.76464050 </v>
   <v>       0.52493654       0.89798883       0.06112766 </v>
   <v>       0.43413370       0.69668971       0.91396242 </v>
   <v>       0.23356411       0.56679356       0.79769189 </v>
   <v>       0.42553483       0.51383057       0.16668923 </v>
   <v>       0.41182074       0.78042771       0.52162499 </v>
   <v>       0.85579082       0.63714521       0.83539047 </v>
   <v>       0.11352192       0.23735615       0.76601350 </v>
   <v>       0.08967966       0.91730490       0.91995902 </v>
   <v>       0.84522914       0.63829634       0.11065867 </v>
   <v>       0.02625067       0.16996908       0.27024636 </v>
   <v>       0.26375010       0.80968320       0.01960772 </v>
   <v>       0.95048938       0.33107416       0.21607114 </v>
   <v>       0.98649046       0.28522145       0.38393699 </v>
   <v>       0.76706196       0.70949841       0.28322436 </v>
   <v>       0.51734844       0.40814936       0.19595482 </v>
   <v>       0.78403245       0.52258042       0.86271148 </v>
   <v>       0.28143803       0.65334236       0.38273568 </v>
  </varray>
 </structure>
 <calculation>
  <scstep>
   <time name="diag">   22.34   22.44</time>
   <time name="diis">   52.80   52.99</time>
   <time name="orth">    2.09    2.10</time>
   <time name="total">   81.79   82.10</time>
   <energy>
    <i name="alphaZ">   2674.94624358 </i>
    <i name="ewald"> -49799.72759913 </i>
    <i name="hartreedc"> -20974.12558650 </i>
    <i name="XCdc">   -373.75686403 </i>
    <i name="pawpsdc">  57971.91619422 </i>
    <i name="pawaedc"> -53884.73619297 </i>
    <i name="eentropy">     -0.06685186 </i>
    <i name="bandstr">  15548.35006016 </i>
    <i name="atom">  68024.25456431 </i>
    <i name="e_fr_energy">  19187.05396780 </i>
    <i name="e_wo_entrp">  19187.12081965 </i>
    <i name="e_0_energy">  19187.08739373 </i>
   </energy>
  </scstep>
  <scstep>
   <time name="diag">   22.07   22.16</time>
   <time name="diis">   52.78   52.97</time>
   <time name="orth">    2.10    2.11</time>
   <time name="total">   76.95   77.24</time>
   <energy>
    <i name="e_fr_energy">   5533.68474424 </i>
    <i name="e_wo_entrp">   5533.83165130 </i>
    <i name="e_0_energy">   5533.75819777 </i>
   </energy>
  </scstep>
  <scstep>
   <time name="diag">   22.05   22.14</time>
   <time name="diis">   52.79   52.98</time>
   <time name="orth">    2.22    2.22</time>
   <time name="total">   77.06   77.34</time>
   <energy>
    <i name="e_fr_energy">   1324.89930792 </i>
    <i name="e_wo_entrp">   1325.06500763 </i>
    <i name="e_0_energy">   1324.98215778 </i>
   </energy>
  </scstep>
  <scstep>
   <time name="diag">   22.07   22.15</time>
   <time name="diis">   52.77   52.95</time>
   <time name="orth">    2.14    2.15</time>
   <time name="total">   76.98   77.26</time>
   <energy>
    <i name="e_fr_energy">   -231.13880837 </i>
    <i name="e_wo_entrp">   -231.05363213 </i>
    <i name="e_0_energy">   -231.09622025 </i>
   </energy>
  </scstep>
  <scstep>
   <time name="diag">   22.14   22.22</time>
   <time name="diis">   52.80   52.99</time>
   <time name="orth">    2.13    2.14</time>
   <time name="total">   77.07   77.35</time>
   <energy>
    <i name="e_fr_energy">   -900.15544469 </i>
    <i name="e_wo_entrp">   -900.04619487 </i>
    <i name="e_0_energy">   -900.10081978 </i>
   </energy>
  </scstep>
  <scstep>
   <time name="diag">   21.98   22.06</time>
   <time name="diis">   52.82   53.00</time>
   <time name="orth">    2.14    2.15</time>
   <time name="total">   76.94   77.21</time>
   <energy>
    <i name="e_fr_energy">  -1199.60808972 </i>
    <i name="e_wo_entrp">  -1199.55796156 </i>
    <i name="e_0_energy">  -1199.58302564 </i>
   </energy>
  </scstep>
  <scstep>
   <time name="diag">   21.98   22.06</time>
   <time name="diis">   52.77   52.95</time>
   <time name="orth">    2.14    2.15</time>
   <time name="total">   76.88   77.16</time>
   <energy>
    <i name="e_fr_energy">  -1337.25011537 </i>
    <i name="e_wo_entrp">  -1337.19497445 </i>
    <i name="e_0_energy">  -1337.22254491 </i>
   </energy>
  </scstep>
  <scstep>
   <time name="diag">   21.98   22.10</time>
   <time name="diis">   97.89   98.43</time>
   <time name="orth">    2.10    2.11</time>
   <time name="total">  121.98  122.64</time>
   <energy>
    <i name="e_fr_energy">  -1438.35079179 </i>
    <i name="e_wo_entrp">  -1438.29507617 </i>
    <i name="e_0_energy">  -1438.32293398 </i>
   </energy>
  </scstep>
  <scstep>
   <time name="diag">   21.99   22.08</time>
   <time name="diis">  105.53  105.95</time>
   <time name="orth">    2.12    2.13</time>
   <time name="total">  129.64  130.16</time>
   <energy>
    <i name="e_fr_energy">  -1464.68292051 </i>
    <i name="e_wo_entrp">  -1464.63591554 </i>
    <i name="e_0_energy">  -1464.65941802 </i>
   </energy>
  </scstep>
  <scstep>
   <time name="diag">   21.98   22.07</time>
   <time name="diis">  117.57  118.04</time>
   <time name="orth">    2.04    2.05</time>
   <time name="total">  154.80  155.43</time>
   <energy>
    <i name="e_fr_energy">  -1468.17425058 </i>
    <i name="e_wo_entrp">  -1468.12418213 </i>
    <i name="e_0_energy">  -1468.14921636 </i>
   </energy>
  </scstep>
  <scstep>
   <time name="diag">   21.97   22.06</time>
   <time name="diis">  104.74  105.11</time>
   <time name="orth">    2.00    2.02</time>
   <time name="total">  146.26  146.81</time>
   <energy>
    <i name="e_fr_energy">  -1467.75135662 </i>
    <i name="e_wo_entrp">  -1467.64252409 </i>
    <i name="e_0_energy">  -1467.69694036 </i>
   </energy>
  </scstep>
  <scstep>
   <time name="diag">   21.94   22.03</time>
   <time name="diis">  137.26  137.78</time>
   <time name="orth">    2.08    2.09</time>
   <time name="total">  178.95  179.64</time>
   <energy>
    <i name="e_fr_energy">  -2728.22065445 </i>
    <i name="e_wo_entrp">  -2728.07718592 </i>
    <i name="e_0_energy">  -2728.14892018 </i>
   </energy>
  </scstep>
  <scstep>
   <time name="diag">   21.91   21.99</time>
   <time name="diis">  113.92  114.35</time>
   <time name="orth">    1.98    1.99</time>
   <time name="total">  155.47  156.06</time>
   <energy>
    <i name="e_fr_energy">  -1532.21302412 </i>
    <i name="e_wo_entrp">  -1532.11171917 </i>
    <i name="e_0_energy">  -1532.16237165 </i>
   </energy>
  </scstep>
  <scstep>
   <time name="diag">   21.94   22.02</time>
   <time name="diis">  135.95  136.47</time>
   <time name="orth">    2.11    2.12</time>
   <time name="total">  177.59  178.26</time>
   <energy>
    <i name="e_fr_energy">  -2046.86197705 </i>
    <i name="e_wo_entrp">  -2046.71537067 </i>
    <i name="e_0_energy">  -2046.78867386 </i>
   </energy>
  </scstep>
  <scstep>
   <time name="diag">   21.92   22.01</time>
   <time name="diis">  109.78  110.22</time>
   <time name="orth">    2.10    2.11</time>
   <time name="total">  151.54  152.14</time>
   <energy>
    <i name="e_fr_energy">  -1509.18306772 </i>
    <i name="e_wo_entrp">  -1509.04649870 </i>
    <i name="e_0_energy">  -1509.11478321 </i>
   </energy>
  </scstep>
  <scstep>
   <time name="diag">   22.06   22.14</time>
   <time name="diis">  109.30  109.69</time>
   <time name="orth">    2.08    2.09</time>
   <time name="total">  151.20  151.75</time>
   <energy>
    <i name="e_fr_energy">  -1535.58092868 </i>
    <i name="e_wo_entrp">  -1535.43477937 </i>
    <i name="e_0_energy">  -1535.50785402 </i>
   </energy>
  </scstep>
  <scstep>
   <time name="diag">   21.95   22.03</time>
   <time name="diis">   98.29   98.64</time>
   <time name="orth">    2.08    2.08</time>
   <time name="total">  140.04  140.54</time>
   <energy>
    <i name="e_fr_energy">  -1480.51101095 </i>
    <i name="e_wo_entrp">  -1480.38581458 </i>
    <i name="e_0_energy">  -1480.44841276 </i>
   </energy>
  </scstep>
  <scstep>
   <time name="diag">   21.97   22.05</time>
   <time name="diis">   93.55   93.89</time>
   <time name="orth">    2.01    2.02</time>
   <time name="total">  135.27  135.77</time>
   <energy>
    <i name="e_fr_energy">  -1476.52282582 </i>
    <i name="e_wo_entrp">  -1476.38341537 </i>
    <i name="e_0_energy">  -1476.45312060 </i>
   </energy>
  </scstep>
  <scstep>
   <time name="diag">   21.95   22.03</time>
   <time name="diis">   88.46   88.76</time>
   <time name="orth">    2.06    2.07</time>
   <time name="total">  130.15  130.61</time>
   <energy>
    <i name="e_fr_energy">  -1444.27432029 </i>
    <i name="e_wo_entrp">  -1444.17904047 </i>
    <i name="e_0_energy">  -1444.22668038 </i>
   </energy>
  </scstep>
  <scstep>
   <time name="diag">   21.97   22.05</time>
   <time name="diis">   87.81   88.14</time>
   <time name="orth">    2.05    2.06</time>
   <time name="total">  129.51  129.99</time>
   <energy>
    <i name="e_fr_energy">  -1439.48583908 </i>
    <i name="e_wo_entrp">  -1439.44345925 </i>
    <i name="e_0_energy">  -1439.46464916 </i>
   </energy>
  </scstep>
  <scstep>
   <time name="diag">   22.09   22.17</time>
   <time name="diis">   90.32   90.65</time>
   <time name="orth">    2.29    2.30</time>
   <time name="total">  132.39  132.88</time>
   <energy>
[...]
   <v>      -0.00784023       0.00658754       0.00900350 </v>
   <v>       0.01427070       0.01659106       0.02522461 </v>
   <v>      -0.01464149      -0.00312852      -0.00378767 </v>
   <v>       0.00243127      -0.01360696       0.00874472 </v>
   <v>       0.00407177       0.00230833      -0.00880563 </v>
   <v>       0.02146908      -0.02452444      -0.03069016 </v>
   <v>       0.00567112      -0.02618669       0.00773073 </v>
   <v>       0.19395055      -0.09857400      -0.05378414 </v>
   <v>       0.00690813       0.00226632      -0.00664085 </v>
   <v>      -0.01355745       0.00839864       0.01688977 </v>
   <v>      -0.00910324       0.00740419       0.00222246 </v>
   <v>       0.01969989       0.00303764      -0.02769713 </v>
   <v>       0.03114847      -0.01483010      -0.00536455 </v>
   <v>      -0.06061118      -0.02164852      -0.00418070 </v>
   <v>       0.01414400      -0.00672629       0.03336525 </v>
   <v>      -0.01456128       0.00520165      -0.00972114 </v>
   <v>      -0.00808034       0.03692825      -0.01750613 </v>
   <v>       0.03398255       0.01554940       0.00893904 </v>
   <v>       0.00553621      -0.01855266      -0.02417626 </v>
   <v>      -0.02104867       0.01681659      -0.00764563 </v>
   <v>      -0.08452980       0.01356557       0.02821713 </v>
   <v>       0.01609556      -0.02929159      -0.01123283 </v>
   <v>       0.01603501      -0.00839100      -0.02294337 </v>
   <v>       0.00923669       0.01651237      -0.00429218 </v>
   <v>      -0.00171034       0.00134622      -0.00897160 </v>
   <v>      -0.01092365       0.00241947       0.02626253 </v>
   <v>       0.00571289       0.00517505      -0.01288647 </v>
   <v>       0.01109348       0.04344642      -0.01525608 </v>
   <v>       0.01227544       0.00675322       0.00856853 </v>
   <v>       0.00813081       0.02758590      -0.01438488 </v>
   <v>      -0.00294653       0.02216958      -0.01741974 </v>
   <v>      -0.02405974       0.01177539      -0.00718365 </v>
   <v>       0.00053588      -0.00936235      -0.00642170 </v>
   <v>      -0.01297618      -0.02491914       0.00303448 </v>
   <v>      -0.00534863       0.00168567      -0.00101432 </v>
   <v>       0.01045799       0.02400086      -0.01769346 </v>
   <v>       0.01925805       0.01681343       0.00143878 </v>
   <v>      -0.00977029       0.03770546       0.00426531 </v>
   <v>      -0.00219399      -0.00682247      -0.00150855 </v>
   <v>      -0.10772237      -0.00003282      -0.05084569 </v>
   <v>      -0.00434390      -0.01806385       0.00790085 </v>
   <v>      -0.02165304       0.02964118       0.00311266 </v>
   <v>      -0.00661924      -0.00466847       0.00605440 </v>
   <v>       0.00101602       0.00878669      -0.00783757 </v>
   <v>       0.02444542      -0.01122193       0.00307197 </v>
   <v>      -0.00318846       0.04438484      -0.02688198 </v>
   <v>      -0.01906296       0.00255226       0.01844301 </v>
   <v>      -0.00131956       0.00722994      -0.00903788 </v>
   <v>       0.00979896       0.01100469       0.01049078 </v>
   <v>      -0.02417051      -0.01147801      -0.02456041 </v>
   <v>       0.00588644      -0.04166749       0.01654138 </v>
   <v>       0.00697623      -0.00097846       0.00767874 </v>
   <v>      -0.00604637      -0.02881026      -0.02669858 </v>
   <v>      -0.00826174       0.00788069      -0.01091515 </v>
   <v>       0.00588529      -0.01539448      -0.00733560 </v>
   <v>      -0.00217759       0.01261507       0.01814455 </v>
   <v>      -0.02307796      -0.00052015      -0.00432539 </v>
   <v>       0.01133767       0.00121510      -0.02538079 </v>
   <v>       0.01688907      -0.00074483       0.00833278 </v>
   <v>       0.00821534       0.00872661       0.01634974 </v>
   <v>       0.00721591      -0.01229628      -0.00490576 </v>
   <v>       0.00560712      -0.03656516      -0.01327406 </v>
   <v>       0.02956114       0.02728616       0.03558825 </v>
   <v>      -0.01191680      -0.00769428      -0.00252487 </v>
   <v>       0.01059160      -0.00886761       0.00495040 </v>
   <v>       0.01068703      -0.00402964       0.00347525 </v>
   <v>      -0.00693778      -0.00814363       0.00560391 </v>
   <v>       0.01364180       0.00705869      -0.00692313 </v>
   <v>       0.02496644      -0.00081314      -0.01038544 </v>
   <v>      -0.00570122       0.01963870       0.01372155 </v>
   <v>      -0.01810875       0.00831788       0.00514850 </v>
   <v>      -0.00719035      -0.00932279       0.01170758 </v>
   <v>       0.00894788      -0.00533871       0.03468860 </v>
   <v>       0.00124691       0.00700750      -0.02435265 </v>
   <v>      -0.01017885       0.01640766       0.00498700 </v>
   <v>       0.01738428       0.00717431       0.00514132 </v>
   <v>      -0.00032217      -0.02942130      -0.02325487 </v>
   <v>      -0.00632647      -0.00139087       0.00967675 </v>
   <v>       0.00466588      -0.01286557       0.00179188 </v>
   <v>       0.00059393       0.02902923      -0.00740757 </v>
   <v>      -0.02051773       0.00860600      -0.00456694 </v>
   <v>      -0.00574376      -0.03439930       0.00685363 </v>
   <v>       0.01348021       0.01056765       0.00931499 </v>
   <v>      -0.00409474       0.01264600      -0.01098066 </v>
   <v>      -0.01077163      -0.00886120       0.01148881 </v>
   <v>       0.01793218      -0.03159472      -0.03319171 </v>
   <v>       0.00302087      -0.02018666       0.00441267 </v>
   <v>       0.00126911      -0.00060976       0.00344738 </v>
   <v>       0.01054959       0.00048544      -0.00280426 </v>
   <v>       0.01874471       0.01094913       0.01008085 </v>
   <v>      -0.01062140       0.02230470       0.01162873 </v>
   <v>       0.00731023      -0.00347467      -0.00265092 </v>
   <v>      -0.00674945       0.00317202       0.00901178 </v>
   <v>      -0.00958368       0.00791601      -0.01115997 </v>
   <v>       0.03767185       0.03331742       0.02201187 </v>
   <v>       0.00857640      -0.00459873      -0.00279826 </v>
   <v>      -0.00227641       0.05280317      -0.00041040 </v>
   <v>      -0.00162806       0.01985792       0.01849054 </v>
   <v>       0.00996753      -0.00670376       0.01791796 </v>
   <v>      -0.01779738       0.00482289      -0.00131921 </v>
   <v>       0.01503393      -0.00937656      -0.01217297 </v>
   <v>       0.00819038      -0.02214496      -0.00214425 </v>
   <v>       0.00736538      -0.00816916      -0.01643930 </v>
   <v>      -0.02220852      -0.07821612       0.08528564 </v>
   <v>      -0.01172900      -0.01210564      -0.01156981 </v>
   <v>       0.01744269      -0.01869318      -0.00847656 </v>
   <v>      -0.00595922       0.01645127      -0.00246820 </v>
   <v>       0.01050977       0.01184201       0.00209566 </v>
   <v>       0.01213540       0.02392362      -0.00315819 </v>
   <v>      -0.01416367       0.00170270      -0.00168832 </v>
   <v>       0.02217200       0.00568784       0.00514614 </v>
   <v>      -0.01183053      -0.00533906      -0.00562416 </v>
   <v>       0.00133723       0.01359960      -0.00538878 </v>
   <v>       0.00267414       0.00120509      -0.01587849 </v>
   <v>      -0.00031921       0.00827314       0.01012484 </v>
   <v>      -0.01165020      -0.00870425      -0.00639894 </v>
   <v>      -0.01837158      -0.01305081      -0.04025299 </v>
   <v>       0.00042468       0.00045283      -0.00393357 </v>
   <v>      -0.01054615       0.00800991       0.00954152 </v>
   <v>       0.02261543      -0.00765733      -0.03039667 </v>
   <v>       0.02008256      -0.00202642       0.01451778 </v>
   <v>      -0.00047489      -0.00419024      -0.00111437 </v>
   <v>      -0.00767459       0.00007129       0.04553287 </v>
   <v>       0.01163915      -0.01317140       0.02188390 </v>
   <v>       0.01228937      -0.00731287       0.01719529 </v>
   <v>      -0.01739504       0.02782013      -0.00242679 </v>
   <v>       0.00786118       0.00098834      -0.00919682 </v>
   <v>       0.01752268       0.02116013       0.00214627 </v>
   <v>       0.00913198      -0.01397208      -0.01738799 </v>
   <v>      -0.00338865       0.01779485      -0.00127456 </v>
   <v>      -0.01378463      -0.00369571      -0.00668238 </v>
   <v>       0.01017461      -0.00010856       0.01195393 </v>
   <v>       0.04953796       0.02601043       0.00967082 </v>
   <v>       0.00449842      -0.00261416       0.00937530 </v>
   <v>       0.00448916      -0.01591181      -0.00006754 </v>
   <v>       0.00163285      -0.00403305       0.00780933 </v>
   <v>      -0.02038204      -0.00678487       0.01288329 </v>
   <v>       0.00059047      -0.01183461       0.00578734 </v>
   <v>      -0.01334928      -0.02422628      -0.02613263 </v>
   <v>      -0.01110915      -0.00471089       0.02547365 </v>
   <v>       0.05624902      -0.11638241       0.12441686 </v>
   <v>       0.01082521      -0.00939126      -0.02595458 </v>
   <v>      -0.00072804      -0.01357589       0.02904681 </v>
   <v>       0.00113129       0.01952098       0.02113649 </v>
   <v>      -0.00624810       0.01446048       0.00531746 </v>
   <v>      -0.03273031      -0.00478591      -0.02344615 </v>
   <v>       0.01051779       0.00428143      -0.00425119 </v>
   <v>       0.00568542      -0.00811681       0.02417518 </v>
   <v>      -0.00567215      -0.00684884      -0.01185186 </v>
   <v>      -0.00047144      -0.00990929       0.01132971 </v>
   <v>       0.03585301       0.03085178       0.00186970 </v>
   <v>       0.08086887       0.12338273       0.00375271 </v>
   <v>      -0.01057584       0.00135950       0.00914336 </v>
   <v>      -0.01187695      -0.01730324       0.03816193 </v>
   <v>       0.00703346      -0.01005656      -0.02291283 </v>
   <v>       0.02829981       0.00055795      -0.00823069 </v>
   <v>       0.00349092       0.00795631       0.01105654 </v>
   <v>       0.01410698      -0.00606909       0.01478644 </v>
   <v>      -0.00493932      -0.00215348      -0.01803009 </v>
   <v>      -0.01667537      -0.00238526       0.02569808 </v>
   <v>       0.01887678       0.00899228       0.02330675 </v>
   <v>      -0.00641240      -0.00686161       0.01396809 </v>
   <v>       0.00990003       0.00056970      -0.00185433 </v>
   <v>      -0.02646082       0.01369163       0.00156882 </v>
   <v>       0.01174083       0.00212926       0.02068854 </v>
   <v>       0.00629984       0.01457485      -0.00957815 </v>
   <v>       0.00016002      -0.02468418       0.03801636 </v>
   <v>      -0.00299521      -0.00167368       0.00982149 </v>
   <v>       0.00934768      -0.01794736       0.01521363 </v>
   <v>       0.01040397       0.00971741      -0.00836424 </v>
   <v>      -0.01560360      -0.00269606      -0.00633358 </v>
   <v>      -0.00234221      -0.00365457       0.00570516 </v>
   <v>      -0.02373353       0.00231631      -0.01975170 </v>
   <v>      -0.02678521       0.00442421      -0.00857154 </v>
   <v>      -0.05584683      -0.03101790      -0.06688728 </v>
   <v>      -0.00013228      -0.01501588      -0.00428747 </v>
   <v>      -0.02269630      -0.02340507      -0.01768994 </v>
   <v>      -0.00733698      -0.00071520       0.00617978 </v>
   <v>      -0.00216806      -0.00545218      -0.00069898 </v>
   <v>      -0.00011501       0.01474198       0.00140668 </v>
   <v>      -0.00023618       0.00747849       0.01488166 </v>
   <v>       0.01421115       0.01343902       0.00549846 </v>
   <v>      -0.01090032       0.01203283       0.00297783 </v>
   <v>      -0.01184058       0.01102659      -0.02428907 </v>
   <v>       0.02310283      -0.02110764       0.01274696 </v>
   <v>       0.00242729       0.02394307       0.00034843 </v>
   <v>       0.03089523       0.00562058      -0.03600166 </v>
   <v>       0.01138861      -0.02977836       0.00708504 </v>
   <v>       0.00132994      -0.00028708       0.00141274 </v>
   <v>       0.01962679      -0.01695636      -0.00624322 </v>
   <v>       0.11729441       0.03079210      -0.14002150 </v>
   <v>       0.00676779       0.00725175      -0.00294723 </v>
   <v>      -0.02650540       0.01141220       0.01181358 </v>
   <v>      -0.00997693      -0.01482737       0.00489124 </v>
   <v>      -0.02095960       0.00283803      -0.00171838 </v>
   <v>       0.00880015      -0.00424709       0.00880721 </v>
   <v>       0.00026741       0.01092463      -0.03526447 </v>
   <v>       0.02044797       0.00728111       0.00596662 </v>
   <v>      -0.01308314      -0.00026022       0.03679879 </v>
   <v>       0.00268046      -0.02468639      -0.01658386 </v>
   <v>      -0.02798884      -0.00827929      -0.00265293 </v>
   <v>      -0.02909941       0.02597531       0.01445615 </v>
   <v>      -0.00610984      -0.00898445       0.01428312 </v>
   <v>      -0.00978049      -0.00595279      -0.02356706 </v>
   <v>      -0.01412541      -0.01011154       0.01449095 </v>
   <v>      -0.00350144      -0.00872826      -0.01029732 </v>
   <v>      -0.09551790       0.10896218       0.03703401 </v>
   <v>      -0.00533983      -0.01387159       0.01138622 </v>
   <v>      -0.00426868       0.00208675      -0.03467946 </v>
   <v>      -0.02155220       0.00551752      -0.01038445 </v>
   <v>      -0.00008010      -0.01285389      -0.01363916 </v>
   <v>      -0.02844934       0.00655630      -0.01726462 </v>
   <v>       0.00299750       0.00105295      -0.01595239 </v>
   <v>       0.00723397       0.00979416       0.01287575 </v>
   <v>      -0.03421255       0.01878721       0.00222183 </v>
   <v>       0.00013805       0.00787850      -0.00292620 </v>
   <v>       0.01032196       0.01088055       0.00264071 </v>
   <v>      -0.02028682       0.00  <energy>
   <i name="e_fr_energy">  -1319.34870680 </i>
   <i name="e_wo_entrp">  -1319.31779413 </i>
   <i name="e_0_energy">  -1319.33325046 </i>
  </energy>
  <time name="totalsc"> 3627.02 3640.44</time>
 </calculation>
      0.02284768       0.01092928      -0.00238415 </v>
   <v>       0.02693721      -0.01202642      -0.01806212 </v>
   <v>       0.03156833       0.00475703       0.02797182 </v>
   <v>       0.01086786      -0.00631569      -0.00359606 </v>
   <v>      -0.00741678      -0.00719663       0.02241934 </v>
   <v>       0.03979716       0.00580155       0.01873108 </v>
   <v>      -0.01196173       0.00838156      -0.03123381 </v>
   <v>       0.00921338      -0.02850533      -0.01782372 </v>
   <v>       0.01644412       0.00663430      -0.01530520 </v>
   <v>       0.00729093       0.01328132      -0.00494893 </v>
  </varray>
  <varray name="stress" >
   <v>      13.06283258       0.57049265       0.03243192 </v>
   <v>       0.57049294      13.36273015       0.82854971 </v>
   <v>        <energy>
   <i name="e_fr_energy">  -1329.80498216 </i>
   <i name="e_wo_entrp">  -1329.75118087 </i>
   <i name="e_0_energy">  -1329.77808151 </i>
  </energy>
  <time name="totalsc"> 3615.40 3640.19</time>
 </calculation>
  <time name="totalsc"> 3600.82 3640.52</time>
 </ca   <time name="diag">   21   <time name="diag   <time name="diis">   52   <time name="diis   <time name="orth">    2   <time name="orth">    2   <time name="orth">    2   <time name="orth">    2.12    2.13</time>
   <time name="total">   82.10   82.39</time>
   <energy>
    <i name="alphaZ">   2674.94624358 </i>
    <i name="ewald"> -49793.70788287 </i>
    <i name="hartreedc"> -21354.58651950 </i>
    <i name="XCdc">   -323.44523130 </i>
    <i name="pawpsdc"> 151561.73391917 </i>
    <i name="pawaedc">-147567.71097734 </i>
    <i name="eentropy">     -0.03085838 </i>
    <i name="bandstr">  -4658.42894900 </i>
    <i name="atom">  68024.25456431 </i>
    <i name="e_fr_energy">  -1436.97569133 </i>
    <i name="e_wo_entrp">  -1436.94483295 </i>
    <   <time name="diag">   21   <time name="diag   <time name="diis">   52   <time name="diis   <tim   <time name="diis   <tim   <time name="diis   <time name="orth">    2   <time name="orth">    2.49    2.51</time>
   <time name="total">   77.36   77.63</time>
   <energy>
    <i name="e_fr_energy">  -1436.98202336 </i>
    <i name="e_wo_entrp">  -1436.95117063 </i>
    <   <time name="diag">   21   <time name="diag   <time name="diis">   52   <time name="diis   <tim   <time name="diis">   52   <time name="diis   <time name="orth">    2   <time name="orth">    2.35    2.36</time>
   <time name="total">   77.26   77.53</time>
   <energy>
    <i name="e_fr_energy">  -1436.98346281 </i>
    <i name="e_wo_entrp">  -1436.95261152 </i>
    <   <time name="diag">   21   <time name="diag   <time name="diis">   52   <time name="diis   <tim   <time name="diis">   52   <time name="diis   <time name="orth">    2   <time name="orth">    2.11    2.12</time>
   <time name="total">   77.04   77.32</time>
   <energy>
    <i name="e_fr_energy">  -1436.98384895 </i>
    <i name="e_wo_entrp">  -1436.95299809 </i>
    <   <time name="diag">   21   <time name="diag   <time name="diis">   52   <time name="diis">   52   <time name="diis">   52   <time name="diis   <time name="orth">    2   <time name="orth">    2.14    2.15</time>
   <time name="total">   76.98   77.25</time>
   <energy>
    <i name="e_fr_energy">  -1436.98396813 </i>
    <i name="e_wo_entrp">  -1436.95311743 </i>
    <   <time name="diag">   21   <time name="diag   <time name="diis">   52   <time name="diis">   52   <time name="diis">   52   <time name="diis   <time name="orth">    2   <time name="orth">    2.17    2.18</time>
   <time name="total">   77.11   77.38</time>
   <energy>
    <i name="e_fr_energy">  -1436.98400785 </i>
    <i name="e_wo_entrp">  -1436.95315720 </i>
    <   <time name="diag">   21   <time name="diag   <time name="diis">   52   <time name="diis">   52   <time name="diis">   52   <time name="diis">   52.82   53.01</time>
   <time name="orth">    2.10    2.11</time>
   <time name="total">   76.87   77.15</time>
   <energy>
    <i name="e_fr_energy">  -1436.98402219 </i>
    <i name="e_wo_entrp">  -1436.95317157 </i>
    <   <time name="diag">   21   <time name="diag   <time name="diis">   92   <time name="diis">   92   <time name="diis">   92   <time name="diis   <time name="orth">    2   <time name="orth">    2.14    2.15</time>
   <time name="total">  115.53  115.93</time>
   <energy>
    <i name="e_fr_energy">  -1436.98402944 </i>
    <i name="e_wo_entrp">  -1436.95317885 </i>
    <   <time name="diag">   21   <time name="diag   <time name="diis">   91   <time name="diis   <tim   <time name="diis">   89.65   90.63</time>
   <time name="orth">    2.09    2.11</time>
   <time name="total">  113.60  114.83</time>
   <energy>
    <i name="e_fr_energy">  -1436.96162194 </i>
    <i name="e_wo_entrp">  -1436.90731795 </i>
    <i name="e_0_energy">  -143   <time name="diag">   21   <time name="diag   <time name="diis">   70.73   71.04</time>
   <tim   <time name="diis">   66.91   67.62<   <time name="total">  107.29  107.78</time>
   <en   <time name="total">  103.92  105.05</time>
   <energy>
    <i name="e_fr_energy">  -1436.96162219 </i>
    <i name="e_wo_entrp">  -1436.90731821 </i>
    <i name="e_0_energy">  -143   <time name="diag">   21.64   21.74</time>
   <time name="diis">  143   <time name="diis   <tim   <time name="diis">  142.50  144.06<   <time name="total">  18   <time name="total">  18   <time name="total">  183.84  185.85</time>
   <energy>
    <i name="e_fr_energy">  -1436.96190181 </i>
    <i name="e_wo_entrp">  -1436.90763234 </i>
    <i name="e_0_energy">  -143   <time name="diag">   21   <time name="diag   <time name="diis">  138   <time name="diis">  139   <time name="diis">  139.41  140.93<   <time name="total">  17   <time name="total">  18   <time name="total">  180.66  182.64</time>
   <energy>
    <i name="e_fr_energy">  -1436.96282231 </i>
    <i name="e_wo_entrp">  -1436.90797821 </i>
    <i name="e_0_energy">  -143   <time name="diag">   21   <time name="diag">   21   <time name="diag">   21.73   21.96</time>
">   21.97   22.05</time>
