 vasp.6.4.2 20Jul23 (build Jun  3 2025 15:36:07) complex                         
 executed on              LinuxNV date 2025.06.06  14:52:50
 running    5 mpi-ranks, with    1 threads/rank, on    5 nodes
 each image running on    1 cores
 distrk:  each k-point on    1 cores,    1 groups
 distr:  one band on NCORE=   1 cores,    1 groups
 OpenACC runtime initialized ...    5 GPUs detected


--------------------------------------------------------------------------------------------------------


 INCAR:
   SYSTEM = Si
   ISTART = 0
   ICHARG = 0
   NCORE = 8
   ISPIN = 2
   NELM = 20
   ENCUT = 400
   PREC = Accurate
   ISMEAR = 0
   SIGMA = 0.01
   EDIFF = 1E-10
   ALGO = Normal
   NELECT = 1072
   IBRION = 3
   NSW = 500
   POTIM = 0
   ISIF = 0
   IOPT = 1
   EDIFFG = -0.010
   ICHAIN = 0
   IMAGES = 5
   SPRING = -5.0
   LCLIMB = .FALSE.

 POTCAR:    PAW_PBE Li_sv 10Sep2004               
 POTCAR:    PAW_PBE F 08Apr2002                   
 -----------------------------------------------------------------------------
|                                                                             |
|           W    W    AA    RRRRR   N    N  II  N    N   GGGG   !!!           |
|           W    W   A  A   R    R  NN   N  II  NN   N  G    G  !!!           |
|           W    W  A    A  R    R  N N  N  II  N N  N  G       !!!           |
|           W WW W  AAAAAA  RRRRR   N  N N  II  N  N N  G  GGG   !            |
|           WW  WW  A    A  R   R   N   NN  II  N   NN  G    G                |
|           W    W  A    A  R    R  N    N  II  N    N   GGGG   !!!           |
|                                                                             |
|     You use a magnetic or noncollinear calculation, but did not specify     |
|     the initial magnetic moment with the MAGMOM tag. Note that a            |
|     default of 1 will be used for all atoms. This ferromagnetic setup       |
|     may break the symmetry of the crystal, in particular it may rule        |
|     out finding an antiferromagnetic solution. Thence, we recommend         |
|     setting the initial magnetic moment manually or verifying carefully     |
|     that this magnetic setup is desired.                                    |
|                                                                             |
 -----------------------------------------------------------------------------

 POTCAR:    PAW_PBE Li_sv 10Sep2004               
   SHA256 =  7e51fe1804c037e1dccc81a9c376d94d693a7559600c847f4b41960edb8ab895 Li_sv/POTCAR          
   COPYR  = (c) Copyright 10Sep2004 Georg Kresse                                                    
   COPYR  = This file is part of the software VASP. Any use, copying, and all other rights are regul
   COPYR  = If you do not have a valid VASP license, you may not use, copy or distribute this file. 
   VRHFIN =Li: 1s2s2p                                                                               
   LEXCH  = PE                                                                                      
   EATOM  =   202.7858 eV,   14.9043 Ry                                                             
                                                                                                    
   TITEL  = PAW_PBE Li_sv 10Sep2004                                                                 
   LULTRA =        F    use ultrasoft PP ?                                                          
   IUNSCR =        0    unscreen: 0-lin 1-nonlin 2-no                                               
   RPACOR =    0.000    partial core radius                                                         
   POMASS =    7.010; ZVAL   =    3.000    mass and valenz                                          
   RCORE  =    1.700    outmost cutoff radius                                                       
   RWIGS  =    2.050; RWIGS  =    1.085    wigner-seitz radius (au A)                               
   ENMAX  =  499.034; ENMIN  =  374.276 eV                                                          
   ICORE  =        2    local potential                                                             
   LCOR   =        T    correct aug charges                                                         
   LPAW   =        T    paw PP                                                                      
   EAUG   =  628.945                                                                                
   RMAX   =    1.732    core radius for proj-oper                                                   
   RAUG   =    1.300    factor for augmentation sphere                                              
   RDEP   =    1.728    radius for radial grids                                                     
   RDEPT  =    1.329    core radius for aug-charge                                                  
                                                                                                    
   Atomic configuration                                                                             
    4 entries                                                                                       
     n  l   j            E        occ.                                                              
     1  0  0.50       -51.8549   2.0000                                                             
     2  0  0.50        -2.8742   1.0000                                                             
     2  1  0.50        -1.3606   0.0000                                                             
     3  2  1.50        -1.3606   0.0000                                                             
   Description                                                                                      
     l       E           TYP  RCUT    TYP  RCUT                                                     
     0    -51.8548813     23  1.400                                                                 
     0     -2.8742052     23  1.700                                                                 
     1     -1.3605826     23  1.400                                                                 
     2     -1.3605826     23  1.400                                                                 
  local pseudopotential read in
  atomic valenz-charges read in
  non local Contribution for L=            0  read in
    real space projection operators read in
  non local Contribution for L=            0  read in
    real space projection operators read in
  non local Contribution for L=            1  read in
    real space projection operators read in
    PAW grid and wavefunctions read in
 
   number of l-projection  operators is LMAX  =            3
   number of lm-projection operators is LMMAX =            5
 
 POTCAR:    PAW_PBE F 08Apr2002                   
   SHA256 =  53c630871ac675939349fc2b976745ee17808dedc90b5bdde026bc81f0faf456 F/POTCAR              
   COPYR  = (c) Copyright 08Apr2002 Georg Kresse                                                    
   COPYR  = This file is part of the software VASP. Any use, copying, and all other rights are regul
   COPYR  = If you do not have a valid VASP license, you may not use, copy or distribute this file. 
   VRHFIN =F: s2p5                                                                                  
   LEXCH  = PE                                                                                      
   EATOM  =   659.6475 eV,   48.4827 Ry                                                             
                                                                                                    
   TITEL  = PAW_PBE F 08Apr2002                                                                     
   LULTRA =        F    use ultrasoft PP ?                                                          
   IUNSCR =        1    unscreen: 0-lin 1-nonlin 2-no                                               
   RPACOR =    1.200    partial core radius                                                         
   POMASS =   18.998; ZVAL   =    7.000    mass and valenz                                          
   RCORE  =    1.520    outmost cutoff radius                                                       
   RWIGS  =    1.500; RWIGS  =    0.794    wigner-seitz radius (au A)                               
   ENMAX  =  400.000; ENMIN  =  300.000 eV                                                          
   ICORE  =        2    local potential                                                             
   LCOR   =        T    correct aug charges                                                         
   LPAW   =        T    paw PP                                                                      
   EAUG   =  613.614                                                                                
   RMAX   =    1.555    core radius for proj-oper                                                   
   RAUG   =    1.300    factor for augmentation sphere                                              
   RDEP   =    1.539    radius for radial grids                                                     
   RDEPT  =    1.299    core radius for aug-charge                                                  
                                                                                                    
   Atomic configuration                                                                             
    4 entries                                                                                       
     n  l   j            E        occ.                                                              
     1  0  0.50      -663.3661   2.0000                                                             
     2  0  0.50       -29.8995   2.0000                                                             
     2  1  0.50       -11.1114   5.0000                                                             
     3  2  1.50       -10.8847   0.0000                                                             
   Description                                                                                      
     l       E           TYP  RCUT    TYP  RCUT                                                     
     0    -29.8995018     23  1.200                                                                 
     0     -9.5240782     23  1.200                                                                 
     1    -11.1113914     23  1.520                                                                 
     1      1.3605826     23  1.520                                                                 
     2    -10.8846608      7  1.500                                                                 
  local pseudopotential read in
  partial core-charges read in
  partial kinetic energy density read in
  atomic valenz-charges read in
  non local Contribution for L=            0  read in
    real space projection operators read in
  non local Contribution for L=            0  read in
    real space projection operators read in
  non local Contribution for L=            1  read in
    real space projection operators read in
  non local Contribution for L=            1  read in
    real space projection operators read in
    PAW grid and wavefunctions read in
 
   number of l-projection  operators is LMAX  =            4
   number of lm-projection operators is LMMAX =            8
 
 -----------------------------------------------------------------------------
|                                                                             |
|               ----> ADVICE to this user running VASP <----                  |
|                                                                             |
|     You have a (more or less) 'large supercell' and for larger cells it     |
|     might be more efficient to use real-space projection operators.         |
|     Therefore, try LREAL= Auto in the INCAR file.                           |
|     Mind: For very accurate calculation, you might also keep the            |
|     reciprocal projection scheme (i.e. LREAL=.FALSE.).                      |
|                                                                             |
 -----------------------------------------------------------------------------

  PAW_PBE Li_sv 10Sep2004               :
 energy of atom  1       EATOM= -202.7858
 kinetic energy error for atom=    0.0926 (will be added to EATOM!!)
  PAW_PBE F 08Apr2002                   :
 energy of atom  2       EATOM= -659.6475
 kinetic energy error for atom=    0.1978 (will be added to EATOM!!)
 
 
 POSCAR: Li   F
  positions in direct lattice
  No initial velocities read in
 exchange correlation table for  LEXCH =        8
   RHO(1)=    0.500       N(1)  =     2000
   RHO(2)=  100.500       N(2)  =     4000

 VTST: version 4.1, (05/19/21)

 CHAIN: initializing optimizer
 
 OPT: Using LBFGS optimizer
 OPT: LBFGS, Init
 OPT: LBFGS, MEMORY             20
 OPT: LBFGS, IMAGES              5
 OPT: LBFGS, MAXMOVE      0.200000
 OPT: LBFGS, LGLOBAL      T
 OPT: LBFGS, INVCURV      0.010000
 OPT: LBFGS, LLINEOPT      F
 OPT: LBFGS, FDSTEP       0.005000
 OPT: LBFGS, LAUTOSCALE      T
 OPT: LBFGS, DAMPING      2.000000
 
 CHAIN: Read ICHAIN             0
 CHAIN: Running the NEB
 NEB:          SPRING     -5.000000
 NEB:          LCLIMB      F
 NEB:     LTANGENTOLD      F
 NEB:           LDNEB      F
 NEB:        LDNEBORG      F
 NEB:        LNEBCELL      F
 NEB:          EFIRST      0.000000
 NEB:           ELAST      0.000000
 
 POSCAR: Li   F
  positions in direct lattice
  No initial velocities read in
 
 POSCAR: Li   F
  positions in direct lattice
  No initial velocities read in
 
 POSCAR: Li   F
  positions in direct lattice
  No initial velocities read in
 
 POSCAR: Li   F
  positions in direct lattice
  No initial velocities read in
 


--------------------------------------------------------------------------------------------------------


 ion  position               nearest neighbor table
   1  0.999  0.002  0.001- 189 1.45 109 1.99 136 1.99 207 1.99 138 2.02 115 2.09
   2  1.000  0.000  0.333- 208 2.01 110 2.01 137 2.02 116 2.02 136 2.02
   3  1.000  0.001  0.666- 137 2.00 111 2.00 209 2.00 138 2.03 117 2.06
   4  0.999  0.331  0.001- 162 1.43 109 1.99 210 1.99 139 1.99 183 2.00 141 2.02 165 2.02 112 2.09

   5  1.000  0.333  0.333- 211 2.01 110 2.01 140 2.02 113 2.02 139 2.02
   6  1.000  0.332  0.666- 140 2.00 111 2.00 212 2.00 141 2.03 114 2.06
   7  0.992  0.667  0.008- 186 1.90 213 1.91 142 1.91 112 1.97 115 1.97 168 2.11
   8  0.999  0.667  0.334- 143 1.98 214 2.00 113 2.01 116 2.01 196 2.03 142 2.03
   9  0.999  0.667  0.657- 143 1.92 215 1.98 114 1.99 117 1.99 197 2.00
  10  0.334  0.001  0.000- 171 0.05 147 2.00 198 2.00 118 2.00 124 2.06
  11  0.334  0.000  0.333- 145 0.01 199 2.01 119 2.01 125 2.02
  12  0.334  0.000  0.666- 146 0.01 200 2.01 120 2.01 126 2.03
  13  0.334  0.332  0.000- 201 2.00 174 2.00 118 2.00 147 2.00 165 2.03 150 2.03 121 2.06
  14  0.334  0.333  0.333- 148 0.01 202 2.01 119 2.01 122 2.02
  15  0.334  0.333  0.666- 149 0.01 203 2.01 120 2.01 123 2.02
  16  0.343  0.667  0.001- 177 1.89 204 1.92 121 1.99 124 1.99 150 2.01 168 2.13
  17  0.334  0.667  0.334- 151 0.05 205 2.00 122 2.01 125 2.01 196 2.02
  18  0.335  0.667  0.665- 152 0.02 206 1.99 123 2.00 126 2.00 197 2.06
  19  0.667  0.000  0.000- 180 0.01 156 2.01 127 2.01 198 2.02 133 2.02 207 2.02
  20  0.667  0.000  0.333- 154 0.01 128 2.01 199 2.01 208 2.02 134 2.02
  21  0.667  0.000  0.666- 155 0.01 129 2.01 200 2.01 209 2.02 135 2.02
  22  0.667  0.333  0.000- 127 2.01 156 2.01 174 2.01 201 2.02 159 2.02 130 2.02 183 2.02 210 2.02

  23  0.667  0.333  0.333- 157 0.01 128 2.01 202 2.01 131 2.02 211 2.02
  24  0.667  0.333  0.666- 158 0.01 129 2.01 203 2.01 132 2.02 212 2.02
  25  0.666  0.667  0.001- 204 1.98 177 2.01 130 2.01 159 2.01 133 2.01 213 2.03 186 2.04
  26  0.666  0.667  0.334- 160 0.01 131 2.01 134 2.01 205 2.02 214 2.02
  27  0.666  0.667  0.666- 161 0.01 206 2.01 132 2.01 135 2.01 215 2.06
  28  1.000  0.167  0.167- 110 2.01 109 2.01 136 2.02 139 2.02
  29  1.000  0.167  0.500- 110 2.01 111 2.02 137 2.02 140 2.02
  30  1.000  0.167  0.833- 138 2.00 141 2.00 192 2.01 111 2.01 109 2.02
  31  1.000  0.499  0.168- 139 1.99 113 1.99 142 2.02 112 2.05
  32  1.000  0.499  0.499- 140 2.00 113 2.01 143 2.02 114 2.06
  33  1.000  0.491  0.833- 141 1.92 114 1.99 195 1.99 112 1.99
  34  1.000  0.834  0.168- 136 1.99 116 1.99 142 2.02 115 2.05
  35  1.000  0.834  0.499- 137 2.00 116 2.01 143 2.02 117 2.06
  36  1.000  0.842  0.833- 189 1.35 138 1.92 117 1.99 115 1.99
  37  0.334  0.167  0.167- 119 2.01 147 2.01 118 2.02
  38  0.334  0.167  0.500- 119 2.01 120 2.02
  39  0.334  0.167  0.833- 120 2.01 118 2.01 147 2.02 192 2.02
  40  0.334  0.500  0.167- 122 2.01 150 2.01 121 2.02
  41  0.334  0.500  0.500- 122 2.02 123 2.03
  42  0.334  0.499  0.833- 123 2.00 121 2.01 150 2.01 195 2.05
  43  0.334  0.834  0.167- 125 2.01 124 2.02
  44  0.334  0.834  0.500- 125 2.02 126 2.03
  45  0.334  0.834  0.833- 126 2.00 124 2.01
  46  0.667  0.167  0.167- 128 2.01 156 2.02 127 2.02
  47  0.667  0.167  0.500- 128 2.01 129 2.02
  48  0.666  0.167  0.833- 129 2.01 127 2.01 156 2.01
  49  0.667  0.500  0.167- 131 2.01 159 2.02 130 2.02
  50  0.667  0.500  0.500- 131 2.01 132 2.02
  51  0.666  0.499  0.833- 132 2.01 130 2.01 159 2.01
  52  0.667  0.834  0.167- 134 2.01 133 2.02
  53  0.667  0.834  0.500- 134 2.01 135 2.02
  54  0.666  0.834  0.833- 135 2.01 133 2.01
  55  0.167  0.001  0.168- 190 0.01 136 2.01
  56  0.167  0.000  0.500- 191 0.02 137 2.01
  57  0.167  0.002  0.833- 192 1.99 138 2.02
  58  0.167  0.332  0.168- 193 0.01 139 2.01 165 2.03
  59  0.167  0.333  0.500- 194 0.02 140 2.01
  60  0.167  0.331  0.833- 192 1.99 165 2.01 141 2.02 195 2.04
  61  0.167  0.667  0.176- 196 1.92 142 2.00 168 2.11
  62  0.167  0.667  0.499- 196 1.98 143 2.03 197 2.03
  63  0.175  0.667  0.825- 197 1.91 195 2.01 168 2.14
  64  0.500  0.000  0.167- 199 2.01 198 2.02
  65  0.500  0.000  0.500- 199 2.01 200 2.02
  66  0.500  0.000  0.833- 200 2.01 198 2.01
  67  0.500  0.333  0.167- 202 2.01 174 2.02 201 2.02
  68  0.500  0.333  0.500- 202 2.01 203 2.02
  69  0.500  0.333  0.833- 203 2.01 201 2.01 174 2.01
  70  0.501  0.667  0.168- 205 2.00 177 2.02 204 2.02
  71  0.500  0.667  0.500- 205 2.02 206 2.02
  72  0.501  0.667  0.833- 206 2.00 204 2.03 177 2.03
  73  0.833  0.000  0.167- 208 2.01 207 2.02 136 2.02
  74  0.833  0.000  0.500- 208 2.01 137 2.02 209 2.02
  75  0.832  0.001  0.833- 209 2.00 207 2.01 138 2.03
  76  0.833  0.333  0.167- 211 2.01 183 2.02 210 2.02 139 2.02
  77  0.833  0.333  0.500- 211 2.01 140 2.02 212 2.02
  78  0.832  0.332  0.833- 212 2.00 210 2.01 183 2.01 141 2.03
  79  0.832  0.667  0.168- 214 1.99 186 2.04 213 2.06 142 2.06
  80  0.832  0.667  0.499- 214 2.01 143 2.02 215 2.06
  81  0.824  0.667  0.833- 215 1.98 213 2.00 186 2.03
  82  0.167  0.167  0.000- 147 2.01 118 2.01 192 2.02 109 2.02 165 2.02
  83  0.167  0.167  0.334- 163 0.00 119 2.01 110 2.01
  84  0.167  0.167  0.666- 164 0.00 120 2.01 111 2.01 192 2.02
  85  0.167  0.491  0.000- 165 1.90 121 1.99 112 1.99 150 2.01 195 2.04 168 2.14
  86  0.167  0.499  0.334- 166 0.05 122 2.01 113 2.01 196 2.02
  87  0.167  0.499  0.666- 167 0.05 123 2.00 195 2.01 114 2.01 197 2.02
  88  0.167  0.842  0.000- 144 0.11 124 1.98 115 1.99 168 2.10
  89  0.167  0.834  0.334- 169 0.05 125 2.01 116 2.01 196 2.02
  90  0.167  0.834  0.666- 170 0.05 126 2.00 117 2.01 197 2.02
  91  0.500  0.167  0.000- 156 2.01 127 2.01 174 2.01 118 2.02 198 2.02 201 2.02 147 2.02
  92  0.500  0.167  0.333- 172 0.00 128 2.01 199 2.02 202 2.02 119 2.02
  93  0.500  0.167  0.666- 173 0.00 129 2.01 200 2.02 203 2.02 120 2.02
  94  0.501  0.499  0.000- 201 2.00 174 2.00 159 2.01 130 2.01 204 2.02 177 2.03 150 2.03 121 2.06

  95  0.500  0.500  0.333- 175 0.01 202 2.01 131 2.01 205 2.02 122 2.02
  96  0.500  0.500  0.666- 176 0.00 203 2.01 206 2.02 132 2.02 123 2.03
  97  0.501  0.834  0.000- 153 0.04 198 2.00 133 2.01 177 2.02 204 2.02 124 2.06
  98  0.500  0.834  0.333- 178 0.01 199 2.01 134 2.01 205 2.02 125 2.02
  99  0.500  0.834  0.666- 179 0.00 200 2.01 206 2.02 135 2.02 126 2.03
 100  0.833  0.167  0.000- 127 2.01 156 2.01 109 2.01 183 2.02 207 2.02 210 2.02
 101  0.833  0.167  0.333- 181 0.01 128 2.01 110 2.02 208 2.02 211 2.02
 102  0.833  0.167  0.666- 182 0.00 129 2.01 111 2.02 209 2.02 212 2.02
 103  0.832  0.499  0.000- 162 1.42 210 1.99 130 1.99 159 2.00 183 2.00 186 2.02 213 2.02 112 2.05

 104  0.833  0.500  0.333- 184 0.02 211 2.01 131 2.01 214 2.02 113 2.02
 105  0.833  0.500  0.666- 185 0.04 212 2.00 132 2.01 215 2.02 114 2.02
 106  0.832  0.834  0.000- 207 1.99 133 1.99 186 2.02 213 2.02 115 2.05
 107  0.833  0.834  0.333- 187 0.02 208 2.01 134 2.01 214 2.02 116 2.02
 108  0.833  0.834  0.666- 188 0.04 209 2.00 135 2.01 215 2.02 117 2.02
 109  1.000  0.167  0.000-   1 1.99   4 1.99  28 2.01 100 2.01  82 2.02  30 2.02
 110  0.000  0.167  0.333-  28 2.01   2 2.01   5 2.01  83 2.01  29 2.01 101 2.02
 111  0.000  0.167  0.667-   3 2.00   6 2.00  30 2.01  84 2.01  29 2.02 102 2.02
 112  0.002  0.504  0.998- 162 1.48   7 1.97  85 1.99  33 1.99 103 2.05  31 2.05   4 2.09
 113  0.000  0.500  0.333-  31 1.99  32 2.01  86 2.01   8 2.01   5 2.02 104 2.02
 114  0.000  0.503  0.669-  33 1.99   9 1.99  87 2.01 105 2.02   6 2.06  32 2.06
 115  0.002  0.829  0.998- 189 1.44   7 1.97  88 1.99  36 1.99  34 2.05 106 2.05   1 2.09
 116  0.000  0.833  0.333-  34 1.99  35 2.01  89 2.01   8 2.01   2 2.02 107 2.02
 117  0.000  0.831  0.669-  36 1.99   9 1.99  90 2.01 108 2.02  35 2.06   3 2.06
 118  0.333  0.167  1.000- 147 0.01  10 2.00  13 2.00  82 2.01  39 2.01  91 2.02  37 2.02
 119  0.333  0.167  0.333-  37 2.01  83 2.01  11 2.01  14 2.01  38 2.01  92 2.02
 120  0.333  0.167  0.667-  39 2.01  84 2.01  12 2.01  15 2.01  38 2.02  93 2.02
 121  0.331  0.503  1.000- 150 0.03  85 1.99  16 1.99  42 2.01  40 2.02  13 2.06  94 2.06
 122  0.333  0.501  0.333-  86 2.01  40 2.01  17 2.01  41 2.02  14 2.02  95 2.02
 123  0.332  0.501  0.668-  42 2.00  87 2.00  18 2.00  15 2.02  41 2.03  96 2.03
 124  0.331  0.831  1.000-  88 1.98  16 1.99  45 2.01  43 2.02  97 2.06  10 2.06
 125  0.333  0.833  0.333-  89 2.01  43 2.01  17 2.01  44 2.02  98 2.02  11 2.02
 126  0.332  0.833  0.668-  45 2.00  90 2.00  18 2.00  44 2.03  99 2.03  12 2.03
 127  0.667  0.167  1.000- 156 0.00 100 2.01  19 2.01  22 2.01  48 2.01  91 2.01  46 2.02
 128  0.667  0.167  0.333- 101 2.01  46 2.01  20 2.01  23 2.01  92 2.01  47 2.01
 129  0.667  0.167  0.667- 102 2.01  48 2.01  21 2.01  24 2.01  93 2.01  47 2.02
 130  0.667  0.500  1.000- 159 0.00 103 1.99  94 2.01  51 2.01  25 2.01  22 2.02  49 2.02
 131  0.667  0.500  0.333- 104 2.01  49 2.01  26 2.01  95 2.01  50 2.01  23 2.02
 132  0.667  0.501  0.667-  51 2.01 105 2.01  27 2.01  96 2.02  24 2.02  50 2.02
 133  0.667  0.833  1.000- 106 1.99  97 2.01  54 2.01  25 2.01  19 2.02  52 2.02
 134  0.667  0.833  0.333-  52 2.01 107 2.01  26 2.01  98 2.01  53 2.01  20 2.02
 135  0.667  0.833  0.667-  54 2.01 108 2.01  27 2.01  99 2.02  53 2.02  21 2.02
 136  0.000  0.999  0.166-  34 1.99   1 1.99  55 2.01  73 2.02  28 2.02   2 2.02
 137  0.000  0.999  0.500-  35 2.00   3 2.00  56 2.01   2 2.02  74 2.02  29 2.02
 138  0.000  0.001  0.834- 189 1.44  36 1.92  30 2.00  57 2.02   1 2.02  75 2.03   3 2.03
 139  0.000  0.334  0.166-  31 1.99   4 1.99  58 2.01  76 2.02  28 2.02   5 2.02
 140  0.000  0.334  0.500-  32 2.00   6 2.00  59 2.01   5 2.02  77 2.02  29 2.02
 141  0.000  0.332  0.834-  33 1.92  30 2.00  60 2.02   4 2.02  78 2.03   6 2.03
 142  0.002  0.667  0.166-   7 1.91  61 2.00  31 2.02  34 2.02   8 2.03  79 2.06
 143  1.000  0.667  0.498-   9 1.92   8 1.98  80 2.02  32 2.02  35 2.02  62 2.03
 144  0.169  0.833  0.002-  88 0.11
 145  0.333  0.999  0.333-  11 0.01
 146  0.333  0.999  0.667-  12 0.01
 147  0.333  0.166  0.000- 118 0.01  10 2.00  13 2.00  82 2.01  37 2.01  39 2.02  91 2.02
 148  0.333  0.334  0.333-  14 0.01
 149  0.333  0.334  0.667-  15 0.01
 150  0.333  0.500  0.000- 121 0.03  85 2.01  16 2.01  40 2.01  42 2.01  13 2.03  94 2.03
 151  0.331  0.667  0.332-  17 0.05
 152  0.335  0.667  0.667-  18 0.02
 153  0.498  0.833  0.002-  97 0.04
 154  0.667  1.000  0.333-  20 0.01
 155  0.667  1.000  0.667-  21 0.01
 156  0.667  0.167  1.000- 127 0.00 100 2.01  19 2.01  22 2.01  91 2.01  48 2.01  46 2.02
 157  0.667  0.334  0.333-  23 0.01
 158  0.667  0.334  0.667-  24 0.01
 159  0.667  0.500  1.000- 130 0.00 103 2.00  94 2.01  25 2.01  51 2.01  49 2.02  22 2.02
 160  0.667  0.667  0.334-  26 0.01
 161  0.665  0.667  0.667-  27 0.01
 162  0.917  0.417  1.000- 210 1.41 183 1.41 103 1.42   4 1.43 112 1.48
 163  0.167  0.167  0.334-  83 0.00
 164  0.167  0.167  0.667-  84 0.00
 165  0.166  0.334  0.999-  85 1.90  60 2.01   4 2.02  82 2.02  13 2.03  58 2.03
 166  0.166  0.503  0.332-  86 0.05
 167  0.165  0.502  0.667-  87 0.05
 168  0.166  0.668  0.002-  88 2.10  61 2.11   7 2.11  16 2.13  63 2.14  85 2.14
 169  0.166  0.831  0.332-  89 0.05
 170  0.165  0.831  0.667-  90 0.05
 171  0.333  0.998  0.002-  10 0.05
 172  0.500  0.167  0.333-  92 0.00
 173  0.500  0.167  0.667-  93 0.00
 174  0.500  0.333  1.000- 201 0.01  13 2.00  94 2.00  22 2.01  69 2.01  91 2.01  67 2.02
 175  0.500  0.501  0.333-  95 0.01
 176  0.500  0.500  0.667-  96 0.00
 177  0.500  0.667  0.000- 204 0.03  16 1.89  25 2.01  97 2.02  70 2.02  72 2.03  94 2.03
 178  0.500  0.833  0.333-  98 0.01
 179  0.500  0.833  0.667-  99 0.00
 180  0.666  1.000  0.000-  19 0.01
 181  0.834  0.167  0.333- 101 0.01
 182  0.833  0.167  0.667- 102 0.00
 183  0.834  0.334  1.000- 210 0.01 162 1.41   4 2.00 103 2.00  78 2.01 100 2.02  76 2.02  22 2.02

 184  0.834  0.501  0.333- 104 0.02
 185  0.836  0.502  0.667- 105 0.04
 186  0.834  0.667  1.000- 213 0.03   7 1.90 106 2.02 103 2.02  81 2.03  79 2.04  25 2.04
 187  0.834  0.833  0.333- 107 0.02
 188  0.836  0.831  0.667- 108 0.04
 189  0.000  0.916  0.917-  36 1.35 115 1.44 138 1.44   1 1.45
 190  0.167  0.001  0.167-  55 0.01
 191  0.166  0.999  0.500-  56 0.02
 192  0.166  0.167  0.833-  60 1.99  57 1.99  30 2.01  82 2.02  84 2.02  39 2.02
 193  0.167  0.332  0.167-  58 0.01
 194  0.166  0.334  0.500-  59 0.02
 195  0.165  0.500  0.832-  33 1.99  87 2.01  63 2.01  85 2.04  60 2.04  42 2.05
 196  0.167  0.667  0.335-  61 1.92  62 1.98  17 2.02  86 2.02  89 2.02   8 2.03
 197  0.165  0.667  0.667-  63 1.91   9 2.00  87 2.02  90 2.02  62 2.03  18 2.06
 198  0.500  0.999  1.000-  97 2.00  10 2.00  66 2.01  19 2.02  64 2.02  91 2.02
 199  0.500  1.000  0.333-  98 2.01  11 2.01  64 2.01  20 2.01  65 2.01  92 2.02
 200  0.500  1.000  0.667-  99 2.01  66 2.01  12 2.01  21 2.01  93 2.02  65 2.02
 201  0.500  0.334  1.000- 174 0.01  94 2.00  13 2.00  69 2.01  22 2.02  67 2.02  91 2.02
 202  0.500  0.334  0.333-  95 2.01  14 2.01  67 2.01  23 2.01  68 2.01  92 2.02
 203  0.500  0.334  0.667-  96 2.01  69 2.01  15 2.01  24 2.01  93 2.02  68 2.02
 204  0.502  0.667  0.000- 177 0.03  16 1.92  25 1.98  70 2.02  94 2.02  97 2.02  72 2.03
 205  0.500  0.667  0.333-  17 2.00  70 2.00  26 2.02  71 2.02  95 2.02  98 2.02
 206  0.500  0.667  0.667-  18 1.99  72 2.00  27 2.01  96 2.02  99 2.02  71 2.02
 207  0.834  0.999  1.000- 106 1.99   1 1.99  75 2.01  73 2.02 100 2.02  19 2.02
 208  0.834  1.000  0.333- 107 2.01   2 2.01  73 2.01  74 2.01 101 2.02  20 2.02
 209  0.834  0.999  0.667- 108 2.00   3 2.00  75 2.00 102 2.02  74 2.02  21 2.02
 210  0.834  0.334  1.000- 183 0.01 162 1.41 103 1.99   4 1.99  78 2.01  76 2.02 100 2.02  22 2.02

 211  0.834  0.334  0.333- 104 2.01   5 2.01  76 2.01  77 2.01 101 2.02  23 2.02
 212  0.834  0.334  0.667- 105 2.00   6 2.00  78 2.00 102 2.02  77 2.02  24 2.02
 213  0.834  0.667  0.998- 186 0.03   7 1.91  81 2.00 103 2.02 106 2.02  25 2.03  79 2.06
 214  0.833  0.667  0.333-  79 1.99   8 2.00  80 2.01 104 2.02 107 2.02  26 2.02
 215  0.836  0.667  0.669-   9 1.98  81 1.98 105 2.02 108 2.02  27 2.06  80 2.06
 
 -----------------------------------------------------------------------------
|                                                                             |
|           W    W    AA    RRRRR   N    N  II  N    N   GGGG   !!!           |
|           W    W   A  A   R    R  NN   N  II  NN   N  G    G  !!!           |
|           W    W  A    A  R    R  N N  N  II  N N  N  G       !!!           |
|           W WW W  AAAAAA  RRRRR   N  N N  II  N  N N  G  GGG   !            |
|           WW  WW  A    A  R   R   N   NN  II  N   NN  G    G                |
|           W    W  A    A  R    R  N    N  II  N    N   GGGG   !!!           |
|                                                                             |
|     The distance between some ions is very small. Please check the          |
|     nearest-neighbor list in the OUTCAR file.                               |
|     I HOPE YOU KNOW WHAT YOU ARE DOING!                                     |
|                                                                             |
 -----------------------------------------------------------------------------

  LATTYP: Found a simple cubic cell.
 ALAT       =    12.0789003372
  
  Lattice vectors:
  
 A1 = (  12.0789003372,   0.0000000000,   0.0000000000)
 A2 = (   0.0000000000,  12.0789003372,   0.0000000000)
 A3 = (   0.0000000000,   0.0000000000,  12.0789003372)


Analysis of symmetry for initial positions (statically):
=====================================================================
 Subroutine PRICEL returns:
 Original cell was already a primitive cell.
 

 Routine SETGRP: Setting up the symmetry group for a 
 simple cubic supercell.


 Subroutine GETGRP returns: Found  1 space group operations
 (whereof  1 operations were pure point group operations)
 out of a pool of 48 trial point group operations.


The static configuration has the point symmetry C_1 .


Analysis of symmetry for dynamics (positions and initial velocities):
=====================================================================
 Subroutine PRICEL returns:
 Original cell was already a primitive cell.
 

 Routine SETGRP: Setting up the symmetry group for a 
 simple cubic supercell.


 Subroutine GETGRP returns: Found  1 space group operations
 (whereof  1 operations were pure point group operations)
 out of a pool of 48 trial point group operations.


The dynamic configuration has the point symmetry C_1 .


Analysis of structural, dynamic, and magnetic symmetry:
=====================================================================
 Subroutine PRICEL returns:
 Original cell was already a primitive cell.
 

 Routine SETGRP: Setting up the symmetry group for a 
 simple cubic supercell.


 Subroutine GETGRP returns: Found  1 space group operations
 (whereof  1 operations were pure point group operations)
 out of a pool of 48 trial point group operations.


The overall configuration has the point symmetry C_1 .


 Subroutine INISYM returns: Found  1 space group operations
 (whereof  1 operations are pure point group operations),
 and found     1 'primitive' translations


----------------------------------------------------------------------------------------

                                     Primitive cell                                     

  volume of cell :    1762.3095

  direct lattice vectors                    reciprocal lattice vectors
    12.078900337  0.000000000  0.000000000     0.082788993  0.000000000  0.000000000
     0.000000000 12.078900337  0.000000000     0.000000000  0.082788993  0.000000000
     0.000000000  0.000000000 12.078900337     0.000000000  0.000000000  0.082788993

  length of vectors
    12.078900337 12.078900337 12.078900337     0.082788993  0.082788993  0.082788993

  position of ions in fractional coordinates (direct lattice)
     0.999213357  0.001954777  0.000817796
     0.999817250  0.000296797  0.333423926
     0.999816605  0.001080109  0.665763633
     0.999193284  0.331423876  0.000812192
     0.999808371  0.333069239  0.333434635
     0.999808110  0.332301821  0.665759988
     0.991547283  0.666644135  0.008459257
     0.999182071  0.666642856  0.334300787
     0.999178890  0.666649761  0.657316708
     0.334248531  0.001081923  0.000189140
     0.333617835  0.000181868  0.333440619
     0.333628974  0.000191553  0.666373348
     0.334245671  0.332307012  0.000190640
     0.333620616  0.333191516  0.333444839
     0.333632841  0.333179450  0.666367866
     0.342689241  0.666646763  0.000821197
     0.334335969  0.666640052  0.334299126
     0.335087317  0.666635374  0.664913641
     0.666587785  0.000295897  0.000188770
     0.666581659  0.000165071  0.333420816
     0.666569485  0.000177785  0.666392143
     0.666571483  0.333064827  0.000190769
     0.666570610  0.333202097  0.333430395
     0.666557020  0.333189439  0.666381347
     0.665705629  0.666646075  0.000821289
     0.666455249  0.666645223  0.333545460
     0.665703258  0.666640506  0.665666134
     0.999900817  0.166658626  0.166948344
     0.999908341  0.166669507  0.499799731
     0.999900926  0.166654310  0.833244569
     0.999891180  0.499078146  0.167719023
     0.999891252  0.499072919  0.499022449
     0.999889636  0.491430764  0.833246852
     0.999904402  0.834256478  0.167706788
     0.999891113  0.834257557  0.499015661
     0.999903790  0.841837624  0.833246365
     0.333550737  0.166652480  0.166830399
     0.333517360  0.166656915  0.499918255
     0.333665031  0.166650254  0.833246085
     0.333546348  0.499699148  0.166838787
     0.333540865  0.499701188  0.499904534
     0.334407674  0.499069418  0.833257350
     0.333558081  0.833645721  0.166835489
     0.333548025  0.833642925  0.499904509
     0.334410491  0.834244724  0.833258774
     0.666576164  0.166646238  0.166806983
     0.666576975  0.166653569  0.499917434
     0.666461599  0.166645181  0.833269830
     0.666567308  0.499697235  0.166845911
     0.666574736  0.499720394  0.499903672
     0.665704932  0.499066967  0.833249548
     0.666563725  0.833654738  0.166838500
     0.666565286  0.833624581  0.499904036
     0.665709451  0.834255054  0.833254607
     0.166851472  0.001082585  0.167544408
     0.166843599  0.000293370  0.499904574
     0.167463797  0.001967141  0.832547991
     0.166841973  0.332299054  0.167543558
     0.166837098  0.333067952  0.499902695
     0.167461623  0.331424315  0.832539918
     0.167451340  0.666648876  0.175971884
     0.167449659  0.666649006  0.499016953
     0.175002733  0.666636267  0.824998743
     0.500102827  0.000179497  0.166920785
     0.500086275  0.000162238  0.499919576
     0.500102402  0.000291683  0.833158428
     0.500101487  0.333181422  0.166913383
     0.500083264  0.333184624  0.499917844
     0.500101031  0.333066810  0.833162550
     0.500986909  0.666651915  0.167640802
     0.500196729  0.666658522  0.499803926
     0.500987011  0.666649316  0.832552093
     0.833090200  0.000195175  0.166921806
     0.833081384  0.000177890  0.499903889
     0.832477150  0.001081003  0.833169593
     0.833079955  0.333168639  0.166921398
     0.833086332  0.333180151  0.499902044
     0.832459893  0.332293624  0.833161987
     0.831587340  0.666664123  0.168416368
     0.832360734  0.666652374  0.499015531
     0.824033190  0.666652071  0.832554029
     0.166771937  0.166658605  0.000111911
     0.166734701  0.166650402  0.333547525
     0.166754070  0.166649251  0.666340008
     0.166754648  0.491432069  0.000109895
     0.166752438  0.499067035  0.334297678
     0.166741941  0.499069120  0.665593224
     0.166772464  0.841835286  0.000110778
     0.166752138  0.834253912  0.334299430
     0.166742309  0.834245906  0.665594378
     0.500207301  0.166669715  0.000090916
     0.500086779  0.166656003  0.333424736
     0.500085835  0.166654506  0.666484223
     0.500983571  0.499072979  0.000109767
     0.500096968  0.499720534  0.333426117
     0.500096564  0.499701131  0.666460026
     0.500990716  0.834257340  0.000110735
     0.500098706  0.833625186  0.333436618
     0.500098680  0.833642260  0.666453761
     0.833068064  0.166653229  0.000112101
     0.833193426  0.166647033  0.333428711
     0.833173962  0.166647054  0.666458194
     0.832283270  0.499077664  0.000109898
     0.833154447  0.499697752  0.333433727
     0.833162099  0.499698871  0.666456009
     0.832310087  0.834260161  0.000110333
     0.833163777  0.833653569  0.333441273
     0.833170772  0.833647286  0.666451638
     0.999799854  0.166681006  0.000218115
     0.000126515  0.166676294  0.333151635
     0.000126510  0.166674552  0.666623657
     0.002135609  0.504267950  0.997865904
     0.000406954  0.500187966  0.332844222
     0.000405352  0.502535008  0.669283366
     0.002149111  0.829061827  0.997870830
     0.000412595  0.833135836  0.332847940
     0.000411086  0.830787113  0.669276752
     0.333386082  0.166678464  0.999876295
     0.333132501  0.166672322  0.333160282
     0.333041854  0.166671073  0.666960280
     0.330720148  0.502535310  0.999594033
     0.332740369  0.500530429  0.332848291
     0.332434458  0.500814345  0.667565754
     0.330734143  0.830784829  0.999593308
     0.332748194  0.832797748  0.332854520
     0.332442067  0.832501472  0.667559887
     0.666858004  0.166672429  0.999876668
     0.666755565  0.166668361  0.333246815
     0.666845279  0.166668227  0.666873240
     0.667160195  0.500187663  0.999594271
     0.666848594  0.500247396  0.333151925
     0.667153131  0.500530377  0.667261267
     0.667162310  0.833138520  0.999593292
     0.666846012  0.833092192  0.333156208
     0.667151263  0.832797384  0.667257794
     0.000431619  0.999158249  0.165873660
     0.000119858  0.999473617  0.500360924
     0.000431436  0.001119973  0.833755824
     0.000419484  0.334184949  0.165873066
     0.000122564  0.333880413  0.500370617
     0.000419209  0.332206623  0.833750917
     0.002134868  0.666664503  0.166121175
     0.999783455  0.666664063  0.498408440
     0.168639164  0.833172025  0.001987759
     0.332761160  0.999372962  0.333073746
     0.332840092  0.999459756  0.666666697
     0.332766818  0.166360482  0.000255217
     0.332763379  0.333972790  0.333074523
     0.332842072  0.333881613  0.666668368
     0.332557267  0.500473325  0.000045955
     0.330826811  0.666660454  0.331556757
     0.335120827  0.666654283  0.666674520
     0.498034936  0.833170066  0.001983810
     0.666845628  0.999671446  0.333364132
     0.667053369  0.999547381  0.666669939
     0.666838960  0.166658762  0.999963772
     0.666834058  0.333671243  0.333364285
     0.667043430  0.333789064  0.666668978
     0.667043448  0.500174204  0.999755078
     0.667045508  0.666664771  0.333918689
     0.665103340  0.666659021  0.666675241
     0.916548700  0.416668889  0.999611044
     0.166544616  0.166674679  0.333719284
     0.166885968  0.166673144  0.666667546
     0.166252106  0.333751926  0.999307956
     0.166244809  0.502542322  0.331655106
     0.164518063  0.501911755  0.666670047
     0.166251352  0.668386801  0.001675631
     0.166250348  0.830786647  0.331657334
     0.164522019  0.831414446  0.666669688
     0.333337891  0.997868186  0.002061973
     0.499834041  0.166676573  0.333288788
     0.499923133  0.166674693  0.666667614
     0.499833872  0.333460731  0.999952509
     0.499530742  0.500531497  0.333079654
     0.499835888  0.499901088  0.666666485
     0.499533128  0.666957812  0.000245182
     0.499533713  0.832796120  0.333083728
     0.499834369  0.833424186  0.666670031
     0.666331278  0.999588768  0.000242511
     0.833640907  0.166670612  0.333375467
     0.833209332  0.166670249  0.666669597
     0.833934522  0.333749860  0.999650796
     0.834230948  0.500828965  0.333384944
     0.835656673  0.502252823  0.666670632
     0.834234338  0.666674659  0.999943619
     0.834234816  0.832514125  0.333384786
     0.835663200  0.831077397  0.666671561
     0.000072118  0.915787876  0.916673099
     0.166551671  0.001422138  0.166664587
     0.166251690  0.999159427  0.500037785
     0.166252074  0.166774138  0.833289719
     0.166544212  0.331907817  0.166665394
     0.166247407  0.334181367  0.500037601
     0.164519085  0.500367457  0.831575079
     0.166875888  0.666656326  0.334900939
     0.164510996  0.666653565  0.667232553
     0.499646102  0.999473682  0.999881689
     0.499847947  0.999762304  0.333160648
     0.499847585  0.999672126  0.666960832
     0.499635206  0.333880581  0.999876537
     0.499843741  0.333581672  0.333166666
     0.499843019  0.333670971  0.666952335
     0.501597555  0.666663998  0.000217894
     0.499630115  0.666664986  0.332956502
     0.499630277  0.666661870  0.666824309
     0.834149213  0.999158027  0.999587398
     0.833628211  0.999670893  0.333162486
     0.833921717  0.999370740  0.667245164
     0.834132623  0.334181457  0.999584096
     0.833624469  0.333672175  0.333169103
     0.833914861  0.333970360  0.667237885
     0.833886023  0.666667333  0.997870922
     0.833493465  0.666664275  0.332959232
     0.835854524  0.666661777  0.669173496

  ion indices of the primitive-cell ions
   primitive index   ion index
                 1           1
                 2           2
                 3           3
                 4           4
                 5           5
                 6           6
                 7           7
                 8           8
                 9           9
                10          10
                11          11
                12          12
                13          13
                14          14
                15          15
                16          16
                17          17
                18          18
                19          19
                20          20
                21          21
                22          22
                23          23
                24          24
                25          25
                26          26
                27          27
                28          28
                29          29
                30          30
                31          31
                32          32
                33          33
                34          34
                35          35
                36          36
                37          37
                38          38
                39          39
                40          40
                41          41
                42          42
                43          43
                44          44
                45          45
                46          46
                47          47
                48          48
                49          49
                50          50
                51          51
                52          52
                53          53
                54          54
                55          55
                56          56
                57          57
                58          58
                59          59
                60          60
                61          61
                62          62
                63          63
                64          64
                65          65
                66          66
                67          67
                68          68
                69          69
                70          70
                71          71
                72          72
                73          73
                74          74
                75          75
                76          76
                77          77
                78          78
                79          79
                80          80
                81          81
                82          82
                83          83
                84          84
                85          85
                86          86
                87          87
                88          88
                89          89
                90          90
                91          91
                92          92
                93          93
                94          94
                95          95
                96          96
                97          97
                98          98
                99          99
               100         100
               101         101
               102         102
               103         103
               104         104
               105         105
               106         106
               107         107
               108         108
               109         109
               110         110
               111         111
               112         112
               113         113
               114         114
               115         115
               116         116
               117         117
               118         118
               119         119
               120         120
               121         121
               122         122
               123         123
               124         124
               125         125
               126         126
               127         127
               128         128
               129         129
               130         130
               131         131
               132         132
               133         133
               134         134
               135         135
               136         136
               137         137
               138         138
               139         139
               140         140
               141         141
               142         142
               143         143
               144         144
               145         145
               146         146
               147         147
               148         148
               149         149
               150         150
               151         151
               152         152
               153         153
               154         154
               155         155
               156         156
               157         157
               158         158
               159         159
               160         160
               161         161
               162         162
               163         163
               164         164
               165         165
               166         166
               167         167
               168         168
               169         169
               170         170
               171         171
               172         172
               173         173
               174         174
               175         175
               176         176
               177         177
               178         178
               179         179
               180         180
               181         181
               182         182
               183         183
               184         184
               185         185
               186         186
               187         187
               188         188
               189         189
               190         190
               191         191
               192         192
               193         193
               194         194
               195         195
               196         196
               197         197
               198         198
               199         199
               200         200
               201         201
               202         202
               203         203
               204         204
               205         205
               206         206
               207         207
               208         208
               209         209
               210         210
               211         211
               212         212
               213         213
               214         214
               215         215

----------------------------------------------------------------------------------------

 
 
 KPOINTS: Gamma-point only                        

Automatic generation of k-mesh.
 Grid dimensions read from file:
 generate k-points for:    1    1    1

 Generating k-lattice:

  Cartesian coordinates                     Fractional coordinates (reciprocal lattice)
     0.082788993  0.000000000  0.000000000     1.000000000  0.000000000  0.000000000
     0.000000000  0.082788993  0.000000000     0.000000000  1.000000000  0.000000000
     0.000000000  0.000000000  0.082788993     0.000000000  0.000000000  1.000000000

  Length of vectors
     0.082788993  0.082788993  0.082788993

  Shift w.r.t. Gamma in fractional coordinates (k-lattice)
     0.000000000  0.000000000  0.000000000

 
 Subroutine IBZKPT returns following result:
 ===========================================
 
 Found      1 irreducible k-points:
 
 Following reciprocal coordinates:
            Coordinates               Weight
  0.000000  0.000000  0.000000      1.000000
 
 Following cartesian coordinates:
            Coordinates               Weight
  0.000000  0.000000  0.000000      1.000000
 


--------------------------------------------------------------------------------------------------------




 Dimension of arrays:
   k-points           NKPTS =      1   k-points in BZ     NKDIM =      1   number of bands    NBANDS=    752
   number of dos      NEDOS =    301   number of ions     NIONS =    215
   non local maximal  LDIM  =      4   non local SUM 2l+1 LMDIM =      8
   total plane-waves  NPLWV = 512000
   max r-space proj   IRMAX =      1   max aug-charges    IRDMAX=   3893
   dimension x,y,z NGX =    80 NGY =   80 NGZ =   80
   dimension x,y,z NGXF=   160 NGYF=  160 NGZF=  160
   support grid    NGXF=   160 NGYF=  160 NGZF=  160
   ions per type =             108 107
   NGX,Y,Z   is equivalent  to a cutoff of  11.01, 11.01, 11.01 a.u.
   NGXF,Y,Z  is equivalent  to a cutoff of  22.02, 22.02, 22.02 a.u.

 SYSTEM =  Si                                      
 POSCAR =  Li   F                                  

 Startparameter for this run:
   NWRITE =      2    write-flag & timer
   PREC   = accura    normal or accurate (medium, high low for compatibility)
   ISTART =      0    job   : 0-new  1-cont  2-samecut
   ICHARG =      0    charge: 1-file 2-atom 10-const
   ISPIN  =      2    spin polarized calculation?
   LNONCOLLINEAR =      F non collinear calculations
   LSORBIT =      F    spin-orbit coupling
   INIWAV =      1    electr: 0-lowe 1-rand  2-diag
   LASPH  =      F    aspherical Exc in radial PAW
 Electronic Relaxation 1
   ENCUT  =  400.0 eV  29.40 Ry    5.42 a.u.  19.70 19.70 19.70*2*pi/ulx,y,z
   ENINI  =  400.0     initial cutoff
   ENAUG  =  628.9 eV  augmentation charge cutoff
   NELM   =     20;   NELMIN=  2; NELMDL= -5     # of ELM steps 
   EDIFF  = 0.1E-09   stopping-criterion for ELM
   LREAL  =      F    real-space projection
   NLSPLINE    = F    spline interpolate recip. space projectors
   LCOMPAT=      F    compatible to vasp.4.4
   GGA_COMPAT  = T    GGA compatible to vasp.4.4-vasp.4.6
   LMAXPAW     = -100 max onsite density
   LMAXMIX     =    2 max onsite mixed and CHGCAR
   VOSKOWN=      0    Vosko Wilk Nusair interpolation
   ROPT   =    0.00000   0.00000
 Ionic relaxation
   EDIFFG = -.1E-01   stopping-criterion for IOM
   NSW    =    500    number of steps for IOM
   NBLOCK =      1;   KBLOCK =    500    inner block; outer block 
   IBRION =      3    ionic relax: 0-MD 1-quasi-New 2-CG
   NFREE  =      0    steps in history (QN), initial steepest desc. (CG)
   ISIF   =      0    stress and relaxation
   IWAVPR =     11    prediction:  0-non 1-charg 2-wave 3-comb
   ISYM   =      2    0-nonsym 1-usesym 2-fastsym
   LCORR  =      T    Harris-Foulkes like correction to forces

   POTIM  = 0.0000    time-step for ionic-motion
   TEIN   =    0.0    initial temperature
   TEBEG  =    0.0;   TEEND  =   0.0 temperature during run
   SMASS  =  -3.00    Nose mass-parameter (am)
   estimated Nose-frequenzy (Omega)   =  0.10E-29 period in steps = 0.00E+00 mass=  -0.333E-26a.u.
   SCALEE = 1.0000    scale energy and forces
   NPACO  =    256;   APACO  = 10.0  distance and # of slots for P.C.
   PSTRESS=    0.0 pullay stress

  Mass of Ions in am
   POMASS =   7.01 19.00
  Ionic Valenz
   ZVAL   =   3.00  7.00
  Atomic Wigner-Seitz radii
   RWIGS  =  -1.00 -1.00
  virtual crystal weights 
   VCA    =   1.00  1.00
   NELECT =    1072.0000    total number of electrons
   NUPDOWN=      -1.0000    fix difference up-down

 DOS related values:
   EMIN   =  10.00;   EMAX   =-10.00  energy-range for DOS
   EFERMI =   0.00;   METHOD = LEGACY      
   ISMEAR =     0;   SIGMA  =   0.01  broadening in eV -4-tet -1-fermi 0-gaus

 Electronic relaxation 2 (details)
   IALGO  =     38    algorithm
   LDIAG  =      T    sub-space diagonalisation (order eigenvalues)
   LSUBROT=      F    optimize rotation matrix (better conditioning)
   TURBO    =      0    0=normal 1=particle mesh
   IRESTART =      0    0=no restart 2=restart with 2 vectors
   NREBOOT  =      0    no. of reboots
   NMIN     =      0    reboot dimension
   EREF     =   0.00    reference energy to select bands
   IMIX   =      4    mixing-type and parameters
     AMIX     =   0.40;   BMIX     =  1.00
     AMIX_MAG =   1.60;   BMIX_MAG =  1.00
     AMIN     =   0.10
     WC   =   100.;   INIMIX=   1;  MIXPRE=   1;  MAXMIX= -45

 Intra band minimization:
   WEIMIN = 0.0010     energy-eigenvalue tresh-hold
   EBREAK =  0.33E-13  absolut break condition
   DEPER  =   0.30     relativ break condition  

   TIME   =   0.40     timestep for ELM

  volume/ion in A,a.u.               =       8.20        55.31
  Fermi-wavevector in a.u.,A,eV,Ry     =   1.387115  2.621267 26.178794  1.924087
  Thomas-Fermi vector in A             =   2.511366
 
 Write flags
   LWAVE        =      T    write WAVECAR
   LDOWNSAMPLE  =      F    k-point downsampling of WAVECAR
   LCHARG       =      T    write CHGCAR
   LVTOT        =      F    write LOCPOT, total local potential
   LVHAR        =      F    write LOCPOT, Hartree potential only
   LELF         =      F    write electronic localiz. function (ELF)
   LORBIT       =      0    0 simple, 1 ext, 2 COOP (PROOUT), +10 PAW based schemes


 Dipole corrections
   LMONO  =      F    monopole corrections only (constant potential shift)
   LDIPOL =      F    correct potential (dipole corrections)
   IDIPOL =      0    1-x, 2-y, 3-z, 4-all directions 
   EPSILON=  1.0000000 bulk dielectric constant

 Exchange correlation treatment:
   GGA     =    --    GGA type
   LEXCH   =     8    internal setting for exchange type
   LIBXC   =     F    Libxc                    
   VOSKOWN =     0    Vosko Wilk Nusair interpolation
   LHFCALC =     F    Hartree Fock is set to
   LHFONE  =     F    Hartree Fock one center treatment
   AEXX    =    0.0000 exact exchange contribution

 Linear response parameters
   LEPSILON=     F    determine dielectric tensor
   LRPA    =     F    only Hartree local field effects (RPA)
   LNABLA  =     F    use nabla operator in PAW spheres
   LVEL    =     F    velocity operator in full k-point grid
   CSHIFT  =0.1000    complex shift for real part using Kramers Kronig
   OMEGAMAX=  -1.0    maximum frequency
   DEG_THRESHOLD= 0.2000000E-02 threshold for treating states as degnerate
   RTIME   =   -0.100 relaxation time in fs
  (WPLASMAI=    0.000 imaginary part of plasma frequency in eV, 0.658/RTIME)
   DFIELD  = 0.0000000 0.0000000 0.0000000 field for delta impulse in time
 
  Optional k-point grid parameters
   LKPOINTS_OPT  =     F    use optional k-point grid
   KPOINTS_OPT_MODE=     1    mode for optional k-point grid
 
 Orbital magnetization related:
   ORBITALMAG=     F  switch on orbital magnetization
   LCHIMAG   =     F  perturbation theory with respect to B field
   DQ        =  0.001000  dq finite difference perturbation B field
   LLRAUG    =     F  two centre corrections for induced B field
   LBONE     =     F  B-component reconstruction in AE one-centre
   LVGVCALC  =     T  calculate vGv susceptibility
   LVGVAPPL  =     F  apply vGv susceptibility instead of pGv for G=0

 Random number generation:
   RANDOM_GENERATOR = DEFAULT
   PCG_SEED         = not used


--------------------------------------------------------------------------------------------------------


 quickmin algorithm: (dynamic with friction)
 charge density and potential will be updated during run
 spin polarized calculation
 Variant of blocked Davidson
 Davidson routine will perform the subspace rotation
 perform sub-space diagonalisation
    after iterative eigenvector-optimisation
 modified Broyden-mixing scheme, WC =      100.0
 initial mixing is a Kerker type mixing with AMIX =  0.4000 and BMIX =      1.0000
 Hartree-type preconditioning will be used
 using additional bands           216
 reciprocal scheme for non local part
 use partial core corrections
 calculate Harris-corrections to forces 
   (improved forces if not selfconsistent)
 use gradient corrections 
 use of overlap-Matrix (Vanderbilt PP)
 Gauss-broadening in eV      SIGMA  =   0.01


--------------------------------------------------------------------------------------------------------


  energy-cutoff  :      400.00
  volume of cell :     1762.31
      direct lattice vectors                 reciprocal lattice vectors
    12.078900337  0.000000000  0.000000000     0.082788993  0.000000000  0.000000000
     0.000000000 12.078900337  0.000000000     0.000000000  0.082788993  0.000000000
     0.000000000  0.000000000 12.078900337     0.000000000  0.000000000  0.082788993

  length of vectors
    12.078900337 12.078900337 12.078900337     0.082788993  0.082788993  0.082788993


 
 k-points in units of 2pi/SCALE and weight: Gamma-point only                        
   0.00000000  0.00000000  0.00000000       1.000
 
 k-points in reciprocal lattice and weights: Gamma-point only                        
   0.00000000  0.00000000  0.00000000       1.000
 
 position of ions in fractional coordinates (direct lattice) 
   0.99921336  0.00195478  0.00081780
   0.99981725  0.00029680  0.33342393
   0.99981661  0.00108011  0.66576363
   0.99919328  0.33142388  0.00081219
   0.99980837  0.33306924  0.33343463
   0.99980811  0.33230182  0.66575999
   0.99154728  0.66664413  0.00845926
   0.99918207  0.66664286  0.33430079
   0.99917889  0.66664976  0.65731671
   0.33424853  0.00108192  0.00018914
   0.33361783  0.00018187  0.33344062
   0.33362897  0.00019155  0.66637335
   0.33424567  0.33230701  0.00019064
   0.33362062  0.33319152  0.33344484
   0.33363284  0.33317945  0.66636787
   0.34268924  0.66664676  0.00082120
   0.33433597  0.66664005  0.33429913
   0.33508732  0.66663537  0.66491364
   0.66658778  0.00029590  0.00018877
   0.66658166  0.00016507  0.33342082
   0.66656948  0.00017779  0.66639214
   0.66657148  0.33306483  0.00019077
   0.66657061  0.33320210  0.33343040
   0.66655702  0.33318944  0.66638135
   0.66570563  0.66664608  0.00082129
   0.66645525  0.66664522  0.33354546
   0.66570326  0.66664051  0.66566613
   0.99990082  0.16665863  0.16694834
   0.99990834  0.16666951  0.49979973
   0.99990093  0.16665431  0.83324457
   0.99989118  0.49907815  0.16771902
   0.99989125  0.49907292  0.49902245
   0.99988964  0.49143076  0.83324685
   0.99990440  0.83425648  0.16770679
   0.99989111  0.83425756  0.49901566
   0.99990379  0.84183762  0.83324636
   0.33355074  0.16665248  0.16683040
   0.33351736  0.16665692  0.49991825
   0.33366503  0.16665025  0.83324608
   0.33354635  0.49969915  0.16683879
   0.33354087  0.49970119  0.49990453
   0.33440767  0.49906942  0.83325735
   0.33355808  0.83364572  0.16683549
   0.33354802  0.83364293  0.49990451
   0.33441049  0.83424472  0.83325877
   0.66657616  0.16664624  0.16680698
   0.66657697  0.16665357  0.49991743
   0.66646160  0.16664518  0.83326983
   0.66656731  0.49969723  0.16684591
   0.66657474  0.49972039  0.49990367
   0.66570493  0.49906697  0.83324955
   0.66656373  0.83365474  0.16683850
   0.66656529  0.83362458  0.49990404
   0.66570945  0.83425505  0.83325461
   0.16685147  0.00108259  0.16754441
   0.16684360  0.00029337  0.49990457
   0.16746380  0.00196714  0.83254799
   0.16684197  0.33229905  0.16754356
   0.16683710  0.33306795  0.49990269
   0.16746162  0.33142431  0.83253992
   0.16745134  0.66664888  0.17597188
   0.16744966  0.66664901  0.49901695
   0.17500273  0.66663627  0.82499874
   0.50010283  0.00017950  0.16692079
   0.50008628  0.00016224  0.49991958
   0.50010240  0.00029168  0.83315843
   0.50010149  0.33318142  0.16691338
   0.50008326  0.33318462  0.49991784
   0.50010103  0.33306681  0.83316255
   0.50098691  0.66665192  0.16764080
   0.50019673  0.66665852  0.49980393
   0.50098701  0.66664932  0.83255209
   0.83309020  0.00019518  0.16692181
   0.83308138  0.00017789  0.49990389
   0.83247715  0.00108100  0.83316959
   0.83307995  0.33316864  0.16692140
   0.83308633  0.33318015  0.49990204
   0.83245989  0.33229362  0.83316199
   0.83158734  0.66666412  0.16841637
   0.83236073  0.66665237  0.49901553
   0.82403319  0.66665207  0.83255403
   0.16677194  0.16665860  0.00011191
   0.16673470  0.16665040  0.33354752
   0.16675407  0.16664925  0.66634001
   0.16675465  0.49143207  0.00010990
   0.16675244  0.49906703  0.33429768
   0.16674194  0.49906912  0.66559322
   0.16677246  0.84183529  0.00011078
   0.16675214  0.83425391  0.33429943
   0.16674231  0.83424591  0.66559438
   0.50020730  0.16666971  0.00009092
   0.50008678  0.16665600  0.33342474
   0.50008583  0.16665451  0.66648422
   0.50098357  0.49907298  0.00010977
   0.50009697  0.49972053  0.33342612
   0.50009656  0.49970113  0.66646003
   0.50099072  0.83425734  0.00011074
   0.50009871  0.83362519  0.33343662
   0.50009868  0.83364226  0.66645376
   0.83306806  0.16665323  0.00011210
   0.83319343  0.16664703  0.33342871
   0.83317396  0.16664705  0.66645819
   0.83228327  0.49907766  0.00010990
   0.83315445  0.49969775  0.33343373
   0.83316210  0.49969887  0.66645601
   0.83231009  0.83426016  0.00011033
   0.83316378  0.83365357  0.33344127
   0.83317077  0.83364729  0.66645164
   0.99979985  0.16668101  0.00021812
   0.00012652  0.16667629  0.33315164
   0.00012651  0.16667455  0.66662366
   0.00213561  0.50426795  0.99786590
   0.00040695  0.50018797  0.33284422
   0.00040535  0.50253501  0.66928337
   0.00214911  0.82906183  0.99787083
   0.00041259  0.83313584  0.33284794
   0.00041109  0.83078711  0.66927675
   0.33338608  0.16667846  0.99987629
   0.33313250  0.16667232  0.33316028
   0.33304185  0.16667107  0.66696028
   0.33072015  0.50253531  0.99959403
   0.33274037  0.50053043  0.33284829
   0.33243446  0.50081435  0.66756575
   0.33073414  0.83078483  0.99959331
   0.33274819  0.83279775  0.33285452
   0.33244207  0.83250147  0.66755989
   0.66685800  0.16667243  0.99987667
   0.66675557  0.16666836  0.33324682
   0.66684528  0.16666823  0.66687324
   0.66716020  0.50018766  0.99959427
   0.66684859  0.50024740  0.33315192
   0.66715313  0.50053038  0.66726127
   0.66716231  0.83313852  0.99959329
   0.66684601  0.83309219  0.33315621
   0.66715126  0.83279738  0.66725779
   0.00043162  0.99915825  0.16587366
   0.00011986  0.99947362  0.50036092
   0.00043144  0.00111997  0.83375582
   0.00041948  0.33418495  0.16587307
   0.00012256  0.33388041  0.50037062
   0.00041921  0.33220662  0.83375092
   0.00213487  0.66666450  0.16612117
   0.99978346  0.66666406  0.49840844
   0.16863916  0.83317202  0.00198776
   0.33276116  0.99937296  0.33307375
   0.33284009  0.99945976  0.66666670
   0.33276682  0.16636048  0.00025522
   0.33276338  0.33397279  0.33307452
   0.33284207  0.33388161  0.66666837
   0.33255727  0.50047332  0.00004595
   0.33082681  0.66666045  0.33155676
   0.33512083  0.66665428  0.66667452
   0.49803494  0.83317007  0.00198381
   0.66684563  0.99967145  0.33336413
   0.66705337  0.99954738  0.66666994
   0.66683896  0.16665876  0.99996377
   0.66683406  0.33367124  0.33336428
   0.66704343  0.33378906  0.66666898
   0.66704345  0.50017420  0.99975508
   0.66704551  0.66666477  0.33391869
   0.66510334  0.66665902  0.66667524
   0.91654870  0.41666889  0.99961104
   0.16654462  0.16667468  0.33371928
   0.16688597  0.16667314  0.66666755
   0.16625211  0.33375193  0.99930796
   0.16624481  0.50254232  0.33165511
   0.16451806  0.50191176  0.66667005
   0.16625135  0.66838680  0.00167563
   0.16625035  0.83078665  0.33165733
   0.16452202  0.83141445  0.66666969
   0.33333789  0.99786819  0.00206197
   0.49983404  0.16667657  0.33328879
   0.49992313  0.16667469  0.66666761
   0.49983387  0.33346073  0.99995251
   0.49953074  0.50053150  0.33307965
   0.49983589  0.49990109  0.66666648
   0.49953313  0.66695781  0.00024518
   0.49953371  0.83279612  0.33308373
   0.49983437  0.83342419  0.66667003
   0.66633128  0.99958877  0.00024251
   0.83364091  0.16667061  0.33337547
   0.83320933  0.16667025  0.66666960
   0.83393452  0.33374986  0.99965080
   0.83423095  0.50082897  0.33338494
   0.83565667  0.50225282  0.66667063
   0.83423434  0.66667466  0.99994362
   0.83423482  0.83251412  0.33338479
   0.83566320  0.83107740  0.66667156
   0.00007212  0.91578788  0.91667310
   0.16655167  0.00142214  0.16666459
   0.16625169  0.99915943  0.50003778
   0.16625207  0.16677414  0.83328972
   0.16654421  0.33190782  0.16666539
   0.16624741  0.33418137  0.50003760
   0.16451908  0.50036746  0.83157508
   0.16687589  0.66665633  0.33490094
   0.16451100  0.66665357  0.66723255
   0.49964610  0.99947368  0.99988169
   0.49984795  0.99976230  0.33316065
   0.49984759  0.99967213  0.66696083
   0.49963521  0.33388058  0.99987654
   0.49984374  0.33358167  0.33316667
   0.49984302  0.33367097  0.66695233
   0.50159755  0.66666400  0.00021789
   0.49963012  0.66666499  0.33295650
   0.49963028  0.66666187  0.66682431
   0.83414921  0.99915803  0.99958740
   0.83362821  0.99967089  0.33316249
   0.83392172  0.99937074  0.66724516
   0.83413262  0.33418146  0.99958410
   0.83362447  0.33367217  0.33316910
   0.83391486  0.33397036  0.66723789
   0.83388602  0.66666733  0.99787092
   0.83349347  0.66666427  0.33295923
   0.83585452  0.66666178  0.66917350
 
 position of ions in cartesian coordinates  (Angst):
  12.06939856  0.02361155  0.00987807
  12.07669292  0.00358498  4.02739437
  12.07668513  0.01304653  8.04169257
  12.06915610  4.00323597  0.00981038
  12.07658567  4.02311014  4.02752372
  12.07658251  4.01384058  8.04164855
  11.97680081  8.05232806  0.10217852
  12.06902066  8.05231262  4.03798589
  12.06898223  8.05239602  7.93966300
   4.03735469  0.01306844  0.00228460
   4.02973658  0.00219676  4.02759601
   4.02987112  0.00231375  8.04905726
   4.03732015  4.01390328  0.00230272
   4.02977017  4.02458711  4.02764697
   4.02991783  4.02444137  8.04899104
   4.13930919  8.05235981  0.00991915
   4.03841085  8.05227875  4.03796582
   4.04748630  8.05222224  8.03142560
   8.05164742  0.00357411  0.00228013
   8.05157342  0.00199387  4.02735680
   8.05142638  0.00214745  8.04928428
   8.05145051  4.02305685  0.00230428
   8.05143997  4.02471492  4.02747251
   8.05127581  4.02456202  8.04915388
   8.04099195  8.05235150  0.00992027
   8.05004653  8.05234121  4.02886238
   8.04096331  8.05228423  8.04051489
  12.07770232  2.01305293  2.01655241
  12.07779320  2.01318436  6.03703114
  12.07770364  2.01300080 10.06467811
  12.07758591  6.02831519  2.02586136
  12.07758678  6.02825205  6.02764242
  12.07756726  5.93594322 10.06470568
  12.07774562 10.07690085  2.02571358
  12.07758510 10.07691389  6.02756043
  12.07773823 10.16847276 10.06469980
   4.02892611  2.01297870  2.01512777
   4.02852295  2.01303227  6.03846278
   4.03030666  2.01295181 10.06469642
   4.02887310  6.03581621  2.01522908
   4.02880687  6.03584085  6.03829705
   4.03927696  6.02820976 10.06483249
   4.02901482 10.06952358  2.01518924
   4.02889335 10.06948981  6.03829674
   4.03931099 10.07675888 10.06484969
   8.05150705  2.01290330  2.01484493
   8.05151685  2.01299185  6.03845286
   8.05012323  2.01289053 10.06498324
   8.05140008  6.03579310  2.01531513
   8.05148980  6.03607284  6.03828663
   8.04098352  6.02818015 10.06473825
   8.05135680 10.06963249  2.01522562
   8.05137566 10.06926824  6.03829103
   8.04103811 10.07688365 10.06479935
   2.01538230  0.01307644  2.02375220
   2.01528721  0.00354358  6.03829753
   2.02277851  0.02376090 10.05626421
   2.01526756  4.01380715  2.02374194
   2.01520868  4.02309460  6.03827483
   2.02275226  4.00324127 10.05616670
   2.02262805  8.05238533  2.12554685
   2.02260775  8.05238691  6.02757604
   2.11384057  8.05223303  9.96507759
   6.04069221  0.00216813  2.01621953
   6.04049228  0.00195966  6.03847874
   6.04068707  0.00352321 10.06363762
   6.04067602  4.02446519  2.01613012
   6.04045591  4.02450386  6.03845781
   6.04067051  4.02308080 10.06368741
   6.05137094  8.05242205  2.02491655
   6.04182644  8.05250184  6.03708182
   6.05137217  8.05239065 10.05631375
  10.06281349  0.00235750  2.01623186
  10.06270701  0.00214872  6.03828926
  10.05540852  0.01305733 10.06377248
  10.06268974  4.02431079  2.01622693
  10.06276677  4.02444983  6.03826697
  10.05520009  4.01374157 10.06368061
  10.04466060  8.05256950  2.03428452
  10.05400235  8.05242759  6.02755886
   9.95341478  8.05242393 10.05633714
   2.01442161  2.01305267  0.00135176
   2.01397184  2.01295360  4.02888731
   2.01420579  2.01293970  8.04865455
   2.01421277  5.93595898  0.00132742
   2.01418607  6.02818098  4.03794833
   2.01405929  6.02820616  8.03963421
   2.01442797 10.16844452  0.00133808
   2.01418246 10.07686986  4.03796949
   2.01406374 10.07677316  8.03964816
   6.04195413  2.01318687  0.00109816
   6.04049836  2.01302125  4.02740416
   6.04048696  2.01300317  8.05039651
   6.05133062  6.02825277  0.00132586
   6.04062144  6.03607452  4.02742084
   6.04061656  6.03584016  8.05010423
   6.05141692 10.07691127  0.00133756
   6.04064243 10.06927554  4.02754767
   6.04064211 10.06948178  8.05002856
  10.06254611  2.01298775  0.00135406
  10.06406036  2.01291291  4.02745217
  10.06382525  2.01291316  8.05008210
  10.05306667  6.02830936  0.00132744
  10.06358953  6.03579935  4.02751276
  10.06368196  6.03581286  8.05005572
  10.05339059 10.07694534  0.00133270
  10.06370223 10.06961838  4.02760391
  10.06378672 10.06954249  8.05000292
  12.07648279  2.01332326  0.00263459
   0.00152817  2.01326634  4.02410540
   0.00152811  2.01324530  8.05208072
   0.02579581  6.09100231 12.05312280
   0.00491556  6.04172059  4.02039219
   0.00489620  6.07007028  8.08420707
   0.02595890 10.01415518 12.05318231
   0.00498369 10.06336473  4.02043710
   0.00496547 10.03499474  8.08412718
   4.02693726  2.01329255 12.07740611
   4.02387427  2.01321837  4.02420984
   4.02277936  2.01320328  8.05614675
   3.99473571  6.07007393 12.07399670
   4.01913775  6.04585717  4.02044133
   4.01544268  6.04928656  8.06346021
   3.99490475 10.03496716 12.07398794
   4.01923227 10.05928100  4.02051658
   4.01553459 10.05570231  8.06338935
   8.05491136  2.01321966 12.07741062
   8.05367402  2.01317052  4.02525507
   8.05475767  2.01316891  8.05509540
   8.05856151  6.04171694 12.07399957
   8.05479771  6.04243844  4.02410890
   8.05847618  6.04585654  8.05978234
   8.05858705 10.06339715 12.07398776
   8.05476651 10.06283756  4.02416064
   8.05845361 10.05927660  8.05974040
   0.00521348 12.06873291  2.00357141
   0.00144775 12.07254222  6.04380974
   0.00521127  0.01352804 10.07085351
   0.00506691  4.03658669  2.00356423
   0.00148044  4.03290824  6.04392682
   0.00506358  4.01269069 10.07079424
   0.02578686  8.05257409  2.00656112
  12.07628472  8.05256878  6.02022587
   2.03697565 10.06380185  0.02400994
   4.01938889 12.07132641  4.02316458
   4.02034230 12.07237478  8.05260059
   4.01945723  2.00945168  0.00308274
   4.01941569  4.03402405  4.02317397
   4.02036621  4.03292273  8.05262077
   4.01692609  6.04516741  0.00055509
   3.99602408  8.05252518  4.00484102
   4.04789107  8.05245065  8.05269509
   6.01571436 10.06377819  0.02396224
   8.05476188 12.07493177  4.02667212
   8.05727117 12.07343320  8.05263976
   8.05468134  2.01305458 12.07846274
   8.05462212  4.03038169  4.02667397
   8.05715111  4.03180484  8.05262814
   8.05715132  6.04155437 12.07594195
   8.05717621  8.05257732  4.03337057
   8.03371696  8.05250788  8.05270379
  11.07090040  5.03290199 12.07420218
   2.01167582  2.01324683  4.03096198
   2.01579897  2.01322830  8.05261084
   2.00814262  4.03135625 12.07054121
   2.00805448  6.07015863  4.00602897
   1.98719728  6.06254207  8.05264106
   2.00813352  8.07337755  0.02023978
   2.00812139 10.03498912  4.00605588
   1.98724508 10.04257223  8.05263673
   4.02635517 12.05315037  0.02490637
   6.03744557  2.01326972  4.02576205
   6.03852170  2.01324700  8.05261167
   6.03744353  4.02783893 12.07832670
   6.03378205  6.04587007  4.02323595
   6.03746787  6.03825542  8.05259803
   6.03381087  8.05611694  0.00296153
   6.03381793 10.05926133  4.02328516
   6.03744953 10.06684768  8.05264086
   8.04854910 12.07393310  0.00292926
  10.06946544  2.01319772  4.02680904
  10.06425248  2.01319332  8.05263562
  10.07301198  4.03133129 12.07468234
  10.07659248  6.04946316  4.02692352
  10.09381367  6.06666179  8.05264812
  10.07663342  8.05269677 12.07821931
  10.07663921 10.05585514  4.02692160
  10.09389251 10.03850105  8.05265934
   0.00087110 11.06171049 11.07240300
   2.01176103  0.01717786  2.01312493
   2.00813760 12.06874714  6.03990657
   2.00814223  2.01444820 10.06522346
   2.01167094  4.00908144  2.01313469
   2.00808586  4.03654342  6.03990435
   1.98720963  6.04388864 10.04451250
   2.01567722  8.05247533  4.04523507
   1.98711192  8.05244197  8.05943550
   6.03517547 12.07254299 12.07747127
   6.03761354 12.07602923  4.02421426
   6.03760917 12.07493998  8.05615341
   6.03504386  4.03291026 12.07740903
   6.03756274  4.02929978  4.02428696
   6.03755401  4.03037840  8.05605078
   6.05874687  8.05256799  0.00263192
   6.03498237  8.05257993  4.02174840
   6.03498433  8.05254229  8.05450438
  10.07560521 12.06873023 12.07391656
  10.06931208 12.07492508  4.02423647
  10.07285731 12.07129957  8.05958784
  10.07540482  4.03654452 12.07387667
  10.06926688  4.03039294  4.02431639
  10.07277450  4.03399469  8.05949992
  10.07242616  8.05260827 12.05318341
  10.06768450  8.05257133  4.02178137
  10.09620349  8.05254116  8.08287997
 


--------------------------------------------------------------------------------------------------------


 k-point   1 :   0.0000 0.0000 0.0000  plane waves:   31919

 maximum and minimum number of plane-waves per node :     31919    31919

 maximum number of plane-waves:     31919
 maximum index in each direction: 
   IXMAX=   19   IYMAX=   19   IZMAX=   19
   IXMIN=  -19   IYMIN=  -19   IZMIN=  -19


 serial   3D FFT for wavefunctions
 parallel 3D FFT for charge:
    minimum data exchange during FFTs selected (reduces bandwidth)


 total amount of memory used by VASP MPI-rank0  1460119. kBytes
=======================================================================

   base      :      30000. kBytes
   nonl-proj :     113886. kBytes
   fftplans  :     141100. kBytes
   grid      :     372121. kBytes
   one-center:       1320. kBytes
   wavefun   :     801692. kBytes
 
     INWAV:  cpu time      0.0000: real time      0.0003
 Broyden mixing: mesh for mixing (old mesh)
   NGX = 39   NGY = 39   NGZ = 39
  (NGX  =160   NGY  =160   NGZ  =160)
  gives a total of  59319 points

 charge density for first step will be calculated from the start-wavefunctions


--------------------------------------------------------------------------------------------------------


 Maximum index for augmentation-charges          3623 (set IRDMAX)


--------------------------------------------------------------------------------------------------------


 initial charge from wavefunction
 First call to EWALD:  gamma=   0.147
 Maximum number of real-space cells 3x 3x 3
 Maximum number of reciprocal cells 3x 3x 3

    FEWALD:  cpu time      0.2496: real time      0.2501


--------------------------------------- Ionic step        1  -------------------------------------------




--------------------------------------- Iteration      1(   1)  ---------------------------------------


    POTLOK:  cpu time      0.1294: real time      0.1307
    SETDIJ:  cpu time      0.7783: real time      0.7802
     EDDAV:  cpu time     13.6736: real time     13.7130
       DOS:  cpu time      0.0003: real time      0.0003
    --------------------------------------------
      LOOP:  cpu time     14.5817: real time     14.6242

 eigenvalue-minimisations  :  4872
 total energy-change (2. order) : 0.2489258E+07  (-0.1197492E+06)
 number of electron    1071.9999974 magnetization      -0.0000002
 augmentation part       92.4934265 magnetization      -0.2759476

 Free energy of the ion-electron system (eV)
  ---------------------------------------------------
  alpha Z        PSCENC =      2139.14908826
  Ewald energy   TEWEN  =   2496217.73664772
  -Hartree energ DENC   =      -709.88963661
  -exchange      EXHF   =         0.00000000
  -V(xc)+E(xc)   XCENC  =      3523.77907125
  PAW double counting   =     16907.96505963   -17315.40859167
  entropy T*S    EENTRO =        -0.00000000
  eigenvalues    EBANDS =   -103957.39111175
  atomic energy  EATOM  =     92451.98304323
  Solvation  Ediel_sol  =         0.00000000
  ---------------------------------------------------
  free energy    TOTEN  =   2489257.92357005 eV

  energy without entropy =  2489257.92357005  energy(sigma->0) =  2489257.92357005


--------------------------------------------------------------------------------------------------------




--------------------------------------- Iteration      1(   2)  ---------------------------------------


     EDDAV:  cpu time     10.3606: real time     10.3914
       DOS:  cpu time      0.0003: real time      0.0003
    --------------------------------------------
      LOOP:  cpu time     10.3609: real time     10.3917

 eigenvalue-minimisations  :  3560
 total energy-change (2. order) :-0.1956038E+05  (-0.1866795E+05)
 number of electron    1071.9999974 magnetization      -0.0000002
 augmentation part       92.4934265 magnetization      -0.2759476

 Free energy of the ion-electron system (eV)
  ---------------------------------------------------
  alpha Z        PSCENC =      2139.14908826
  Ewald energy   TEWEN  =   2496217.73664772
  -Hartree energ DENC   =      -709.88963661
  -exchange      EXHF   =         0.00000000
  -V(xc)+E(xc)   XCENC  =      3523.77907125
  PAW double counting   =     16907.96505963   -17315.40859167
  entropy T*S    EENTRO =        -0.00000000
  eigenvalues    EBANDS =   -123517.77533098
  atomic energy  EATOM  =     92451.98304323
  Solvation  Ediel_sol  =         0.00000000
  ---------------------------------------------------
  free energy    TOTEN  =   2469697.53935083 eV

  energy without entropy =  2469697.53935083  energy(sigma->0) =  2469697.53935083


--------------------------------------------------------------------------------------------------------




--------------------------------------- Iteration      1(   3)  ---------------------------------------


 -----------------------------------------------------------------------------
|                                                                             |
|     EEEEEEE  RRRRRR   RRRRRR   OOOOOOO  RRRRRR      ###     ###     ###     |
|     E        R     R  R     R  O     O  R     R     ###     ###     ###     |
|     E        R     R  R     R  O     O  R     R     ###     ###     ###     |
|     EEEEE    RRRRRR   RRRRRR   O     O  RRRRRR       #       #       #      |
|     E        R   R    R   R    O     O  R   R                               |
|     E        R    R   R    R   O     O  R    R      ###     ###     ###     |
|     EEEEEEE  R     R  R     R  OOOOOOO  R     R     ###     ###     ###     |
|                                                                             |
|     Error EDDDAV: Call to ZHEGV failed. Returncode = 1200 2 16              |
|                                                                             |
|       ---->  I REFUSE TO CONTINUE WITH THIS SICK JOB ... BYE!!! <----       |
|                                                                             |
 -----------------------------------------------------------------------------

