<?xml version="1.0" encoding="ISO-8859-1"?>
<modeling>
 <generator>
  <i name="program" type="string">vasp </i>
  <i name="version" type="string">6.4.2  </i>
  <i name="subversion" type="string">20Jul23 (build Jun  3 2025 15:36:07) complex                          parallel </i>
  <i name="platform" type="string">LinuxNV </i>
  <i name="date" type="string">2025 06 06 </i>
  <i name="time" type="string">14:52:50 </i>
 </generator>
 <incar>
  <i type="string" name="SYSTEM">Si</i>
  <i type="int" name="ISTART">     0</i>
  <i type="string" name="PREC">Accurate</i>
  <i type="string" name="ALGO">Normal</i>
  <i type="int" name="ISPIN">     2</i>
  <i type="int" name="ICHARG">     0</i>
  <i type="int" name="NELM">    20</i>
  <i type="int" name="IBRION">     3</i>
  <i name="EDIFF">      0.00000000</i>
  <i name="EDIFFG">     -0.01000000</i>
  <i type="int" name="NSW">   500</i>
  <i type="int" name="ISIF">     0</i>
  <i name="ENCUT">    400.00000000</i>
  <i name="POTIM">      0.00000000</i>
  <i name="NELECT">   1072.00000000</i>
  <i type="int" name="ISMEAR">     0</i>
  <i name="SIGMA">      0.01000000</i>
  <i name="SPRING">     -5.00000000</i>
 </incar>
 <primitive_cell>
  <structure name="primitive_cell" >
   <crystal>
    <varray name="basis" >
     <v>      12.07890034       0.00000000       0.00000000 </v>
     <v>       0.00000000      12.07890034       0.00000000 </v>
     <v>       0.00000000       0.00000000      12.07890034 </v>
    </varray>
    <i name="volume">   1762.30954632 </i>
    <varray name="rec_basis" >
     <v>       0.08278899       0.00000000       0.00000000 </v>
     <v>       0.00000000       0.08278899       0.00000000 </v>
     <v>       0.00000000       0.00000000       0.08278899 </v>
    </varray>
   </crystal>
   <varray name="positions" >
    <v>       0.99921336       0.00195478       0.00081780 </v>
    <v>       0.99981725       0.00029680       0.33342393 </v>
    <v>       0.99981661       0.00108011       0.66576363 </v>
    <v>       0.99919328       0.33142388       0.00081219 </v>
    <v>       0.99980837       0.33306924       0.33343463 </v>
    <v>       0.99980811       0.33230182       0.66575999 </v>
    <v>       0.99154728       0.66664413       0.00845926 </v>
    <v>       0.99918207       0.66664286       0.33430079 </v>
    <v>       0.99917889       0.66664976       0.65731671 </v>
    <v>       0.33424853       0.00108192       0.00018914 </v>
    <v>       0.33361783       0.00018187       0.33344062 </v>
    <v>       0.33362897       0.00019155       0.66637335 </v>
    <v>       0.33424567       0.33230701       0.00019064 </v>
    <v>       0.33362062       0.33319152       0.33344484 </v>
    <v>       0.33363284       0.33317945       0.66636787 </v>
    <v>       0.34268924       0.66664676       0.00082120 </v>
    <v>       0.33433597       0.66664005       0.33429913 </v>
    <v>       0.33508732       0.66663537       0.66491364 </v>
    <v>       0.66658778       0.00029590       0.00018877 </v>
    <v>       0.66658166       0.00016507       0.33342082 </v>
    <v>       0.66656948       0.00017779       0.66639214 </v>
    <v>       0.66657148       0.33306483       0.00019077 </v>
    <v>       0.66657061       0.33320210       0.33343040 </v>
    <v>       0.66655702       0.33318944       0.66638135 </v>
    <v>       0.66570563       0.66664608       0.00082129 </v>
    <v>       0.66645525       0.66664522       0.33354546 </v>
    <v>       0.66570326       0.66664051       0.66566613 </v>
    <v>       0.99990082       0.16665863       0.16694834 </v>
    <v>       0.99990834       0.16666951       0.49979973 </v>
    <v>       0.99990093       0.16665431       0.83324457 </v>
    <v>       0.99989118       0.49907815       0.16771902 </v>
    <v>       0.99989125       0.49907292       0.49902245 </v>
    <v>       0.99988964       0.49143076       0.83324685 </v>
    <v>       0.99990440       0.83425648       0.16770679 </v>
    <v>       0.99989111       0.83425756       0.49901566 </v>
    <v>       0.99990379       0.84183762       0.83324636 </v>
    <v>       0.33355074       0.16665248       0.16683040 </v>
    <v>       0.33351736       0.16665692       0.49991825 </v>
    <v>       0.33366503       0.16665025       0.83324608 </v>
    <v>       0.33354635       0.49969915       0.16683879 </v>
    <v>       0.33354087       0.49970119       0.49990453 </v>
    <v>       0.33440767       0.49906942       0.83325735 </v>
    <v>       0.33355808       0.83364572       0.16683549 </v>
    <v>       0.33354802       0.83364293       0.49990451 </v>
    <v>       0.33441049       0.83424472       0.83325877 </v>
    <v>       0.66657616       0.16664624       0.16680698 </v>
    <v>       0.66657697       0.16665357       0.49991743 </v>
    <v>       0.66646160       0.16664518       0.83326983 </v>
    <v>       0.66656731       0.49969723       0.16684591 </v>
    <v>       0.66657474       0.49972039       0.49990367 </v>
    <v>       0.66570493       0.49906697       0.83324955 </v>
    <v>       0.66656373       0.83365474       0.16683850 </v>
    <v>       0.66656529       0.83362458       0.49990404 </v>
    <v>       0.66570945       0.83425505       0.83325461 </v>
    <v>       0.16685147       0.00108259       0.16754441 </v>
    <v>       0.16684360       0.00029337       0.49990457 </v>
    <v>       0.16746380       0.00196714       0.83254799 </v>
    <v>       0.16684197       0.33229905       0.16754356 </v>
    <v>       0.16683710       0.33306795       0.49990269 </v>
    <v>       0.16746162       0.33142431       0.83253992 </v>
    <v>       0.16745134       0.66664888       0.17597188 </v>
    <v>       0.16744966       0.66664901       0.49901695 </v>
    <v>       0.17500273       0.66663627       0.82499874 </v>
    <v>       0.50010283       0.00017950       0.16692079 </v>
    <v>       0.50008628       0.00016224       0.49991958 </v>
    <v>       0.50010240       0.00029168       0.83315843 </v>
    <v>       0.50010149       0.33318142       0.16691338 </v>
    <v>       0.50008326       0.33318462       0.49991784 </v>
    <v>       0.50010103       0.33306681       0.83316255 </v>
    <v>       0.50098691       0.66665192       0.16764080 </v>
    <v>       0.50019673       0.66665852       0.49980393 </v>
    <v>       0.50098701       0.66664932       0.83255209 </v>
    <v>       0.83309020       0.00019518       0.16692181 </v>
    <v>       0.83308138       0.00017789       0.49990389 </v>
    <v>       0.83247715       0.00108100       0.83316959 </v>
    <v>       0.83307995       0.33316864       0.16692140 </v>
    <v>       0.83308633       0.33318015       0.49990204 </v>
    <v>       0.83245989       0.33229362       0.83316199 </v>
    <v>       0.83158734       0.66666412       0.16841637 </v>
    <v>       0.83236073       0.66665237       0.49901553 </v>
    <v>       0.82403319       0.66665207       0.83255403 </v>
    <v>       0.16677194       0.16665860       0.00011191 </v>
    <v>       0.16673470       0.16665040       0.33354752 </v>
    <v>       0.16675407       0.16664925       0.66634001 </v>
    <v>       0.16675465       0.49143207       0.00010990 </v>
    <v>       0.16675244       0.49906703       0.33429768 </v>
    <v>       0.16674194       0.49906912       0.66559322 </v>
    <v>       0.16677246       0.84183529       0.00011078 </v>
    <v>       0.16675214       0.83425391       0.33429943 </v>
    <v>       0.16674231       0.83424591       0.66559438 </v>
    <v>       0.50020730       0.16666971       0.00009092 </v>
    <v>       0.50008678       0.16665600       0.33342474 </v>
    <v>       0.50008583       0.16665451       0.66648422 </v>
    <v>       0.50098357       0.49907298       0.00010977 </v>
    <v>       0.50009697       0.49972053       0.33342612 </v>
    <v>       0.50009656       0.49970113       0.66646003 </v>
    <v>       0.50099072       0.83425734       0.00011074 </v>
    <v>       0.50009871       0.83362519       0.33343662 </v>
    <v>       0.50009868       0.83364226       0.66645376 </v>
    <v>       0.83306806       0.16665323       0.00011210 </v>
    <v>       0.83319343       0.16664703       0.33342871 </v>
    <v>       0.83317396       0.16664705       0.66645819 </v>
    <v>       0.83228327       0.49907766       0.00010990 </v>
    <v>       0.83315445       0.49969775       0.33343373 </v>
    <v>       0.83316210       0.49969887       0.66645601 </v>
    <v>       0.83231009       0.83426016       0.00011033 </v>
    <v>       0.83316378       0.83365357       0.33344127 </v>
    <v>       0.83317077       0.83364729       0.66645164 </v>
    <v>       0.99979985       0.16668101       0.00021812 </v>
    <v>       0.00012652       0.16667629       0.33315164 </v>
    <v>       0.00012651       0.16667455       0.66662366 </v>
    <v>       0.00213561       0.50426795       0.99786590 </v>
    <v>       0.00040695       0.50018797       0.33284422 </v>
    <v>       0.00040535       0.50253501       0.66928337 </v>
    <v>       0.00214911       0.82906183       0.99787083 </v>
    <v>       0.00041259       0.83313584       0.33284794 </v>
    <v>       0.00041109       0.83078711       0.66927675 </v>
    <v>       0.33338608       0.16667846       0.99987629 </v>
    <v>       0.33313250       0.16667232       0.33316028 </v>
    <v>       0.33304185       0.16667107       0.66696028 </v>
    <v>       0.33072015       0.50253531       0.99959403 </v>
    <v>       0.33274037       0.50053043       0.33284829 </v>
    <v>       0.33243446       0.50081435       0.66756575 </v>
    <v>       0.33073414       0.83078483       0.99959331 </v>
    <v>       0.33274819       0.83279775       0.33285452 </v>
    <v>       0.33244207       0.83250147       0.66755989 </v>
    <v>       0.66685800       0.16667243       0.99987667 </v>
    <v>       0.66675557       0.16666836       0.33324682 </v>
    <v>       0.66684528       0.16666823       0.66687324 </v>
    <v>       0.66716020       0.50018766       0.99959427 </v>
    <v>       0.66684859       0.50024740       0.33315192 </v>
    <v>       0.66715313       0.50053038       0.66726127 </v>
    <v>       0.66716231       0.83313852       0.99959329 </v>
    <v>       0.66684601       0.83309219       0.33315621 </v>
    <v>       0.66715126       0.83279738       0.66725779 </v>
    <v>       0.00043162       0.99915825       0.16587366 </v>
    <v>       0.00011986       0.99947362       0.50036092 </v>
    <v>       0.00043144       0.00111997       0.83375582 </v>
    <v>       0.00041948       0.33418495       0.16587307 </v>
    <v>       0.00012256       0.33388041       0.50037062 </v>
    <v>       0.00041921       0.33220662       0.83375092 </v>
    <v>       0.00213487       0.66666450       0.16612117 </v>
    <v>       0.99978346       0.66666406       0.49840844 </v>
    <v>       0.16863916       0.83317202       0.00198776 </v>
    <v>       0.33276116       0.99937296       0.33307375 </v>
    <v>       0.33284009       0.99945976       0.66666670 </v>
    <v>       0.33276682       0.16636048       0.00025522 </v>
    <v>       0.33276338       0.33397279       0.33307452 </v>
    <v>       0.33284207       0.33388161       0.66666837 </v>
    <v>       0.33255727       0.50047332       0.00004595 </v>
    <v>       0.33082681       0.66666045       0.33155676 </v>
    <v>       0.33512083       0.66665428       0.66667452 </v>
    <v>       0.49803494       0.83317007       0.00198381 </v>
    <v>       0.66684563       0.99967145       0.33336413 </v>
    <v>       0.66705337       0.99954738       0.66666994 </v>
    <v>       0.66683896       0.16665876       0.99996377 </v>
    <v>       0.66683406       0.33367124       0.33336428 </v>
    <v>       0.66704343       0.33378906       0.66666898 </v>
    <v>       0.66704345       0.50017420       0.99975508 </v>
    <v>       0.66704551       0.66666477       0.33391869 </v>
    <v>       0.66510334       0.66665902       0.66667524 </v>
    <v>       0.91654870       0.41666889       0.99961104 </v>
    <v>       0.16654462       0.16667468       0.33371928 </v>
    <v>       0.16688597       0.16667314       0.66666755 </v>
    <v>       0.16625211       0.33375193       0.99930796 </v>
    <v>       0.16624481       0.50254232       0.33165511 </v>
    <v>       0.16451806       0.50191176       0.66667005 </v>
    <v>       0.16625135       0.66838680       0.00167563 </v>
    <v>       0.16625035       0.83078665       0.33165733 </v>
    <v>       0.16452202       0.83141445       0.66666969 </v>
    <v>       0.33333789       0.99786819       0.00206197 </v>
    <v>       0.49983404       0.16667657       0.33328879 </v>
    <v>       0.49992313       0.16667469       0.66666761 </v>
    <v>       0.49983387       0.33346073       0.99995251 </v>
    <v>       0.49953074       0.50053150       0.33307965 </v>
    <v>       0.49983589       0.49990109       0.66666648 </v>
    <v>       0.49953313       0.66695781       0.00024518 </v>
    <v>       0.49953371       0.83279612       0.33308373 </v>
    <v>       0.49983437       0.83342419       0.66667003 </v>
    <v>       0.66633128       0.99958877       0.00024251 </v>
    <v>       0.83364091       0.16667061       0.33337547 </v>
    <v>       0.83320933       0.16667025       0.66666960 </v>
    <v>       0.83393452       0.33374986       0.99965080 </v>
    <v>       0.83423095       0.50082897       0.33338494 </v>
    <v>       0.83565667       0.50225282       0.66667063 </v>
    <v>       0.83423434       0.66667466       0.99994362 </v>
    <v>       0.83423482       0.83251412       0.33338479 </v>
    <v>       0.83566320       0.83107740       0.66667156 </v>
    <v>       0.00007212       0.91578788       0.91667310 </v>
    <v>       0.16655167       0.00142214       0.16666459 </v>
    <v>       0.16625169       0.99915943       0.50003778 </v>
    <v>       0.16625207       0.16677414       0.83328972 </v>
    <v>       0.16654421       0.33190782       0.16666539 </v>
    <v>       0.16624741       0.33418137       0.50003760 </v>
    <v>       0.16451908       0.50036746       0.83157508 </v>
    <v>       0.16687589       0.66665633       0.33490094 </v>
    <v>       0.16451100       0.66665357       0.66723255 </v>
    <v>       0.49964610       0.99947368       0.99988169 </v>
    <v>       0.49984795       0.99976230       0.33316065 </v>
    <v>       0.49984759       0.99967213       0.66696083 </v>
    <v>       0.49963521       0.33388058       0.99987654 </v>
    <v>       0.49984374       0.33358167       0.33316667 </v>
    <v>       0.49984302       0.33367097       0.66695233 </v>
    <v>       0.50159755       0.66666400       0.00021789 </v>
    <v>       0.49963012       0.66666499       0.33295650 </v>
    <v>       0.49963028       0.66666187       0.66682431 </v>
    <v>       0.83414921       0.99915803       0.99958740 </v>
    <v>       0.83362821       0.99967089       0.33316249 </v>
    <v>       0.83392172       0.99937074       0.66724516 </v>
    <v>       0.83413262       0.33418146       0.99958410 </v>
    <v>       0.83362447       0.33367217       0.33316910 </v>
    <v>       0.83391486       0.33397036       0.66723789 </v>
    <v>       0.83388602       0.66666733       0.99787092 </v>
    <v>       0.83349347       0.66666427       0.33295923 </v>
    <v>       0.83585452       0.66666178       0.66917350 </v>
   </varray>
  </structure>
  <varray name="primitive_index" >
   <v type="int" >        1 </v>
   <v type="int" >        2 </v>
   <v type="int" >        3 </v>
   <v type="int" >        4 </v>
   <v type="int" >        5 </v>
   <v type="int" >        6 </v>
   <v type="int" >        7 </v>
   <v type="int" >        8 </v>
   <v type="int" >        9 </v>
   <v type="int" >       10 </v>
   <v type="int" >       11 </v>
   <v type="int" >       12 </v>
   <v type="int" >       13 </v>
   <v type="int" >       14 </v>
   <v type="int" >       15 </v>
   <v type="int" >       16 </v>
   <v type="int" >       17 </v>
   <v type="int" >       18 </v>
   <v type="int" >       19 </v>
   <v type="int" >       20 </v>
   <v type="int" >       21 </v>
   <v type="int" >       22 </v>
   <v type="int" >       23 </v>
   <v type="int" >       24 </v>
   <v type="int" >       25 </v>
   <v type="int" >       26 </v>
   <v type="int" >       27 </v>
   <v type="int" >       28 </v>
   <v type="int" >       29 </v>
   <v type="int" >       30 </v>
   <v type="int" >       31 </v>
   <v type="int" >       32 </v>
   <v type="int" >       33 </v>
   <v type="int" >       34 </v>
   <v type="int" >       35 </v>
   <v type="int" >       36 </v>
   <v type="int" >       37 </v>
   <v type="int" >       38 </v>
   <v type="int" >       39 </v>
   <v type="int" >       40 </v>
   <v type="int" >       41 </v>
   <v type="int" >       42 </v>
   <v type="int" >       43 </v>
   <v type="int" >       44 </v>
   <v type="int" >       45 </v>
   <v type="int" >       46 </v>
   <v type="int" >       47 </v>
   <v type="int" >       48 </v>
   <v type="int" >       49 </v>
   <v type="int" >       50 </v>
   <v type="int" >       51 </v>
   <v type="int" >       52 </v>
   <v type="int" >       53 </v>
   <v type="int" >       54 </v>
   <v type="int" >       55 </v>
   <v type="int" >       56 </v>
   <v type="int" >       57 </v>
   <v type="int" >       58 </v>
   <v type="int" >       59 </v>
   <v type="int" >       60 </v>
   <v type="int" >       61 </v>
   <v type="int" >       62 </v>
   <v type="int" >       63 </v>
   <v type="int" >       64 </v>
   <v type="int" >       65 </v>
   <v type="int" >       66 </v>
   <v type="int" >       67 </v>
   <v type="int" >       68 </v>
   <v type="int" >       69 </v>
   <v type="int" >       70 </v>
   <v type="int" >       71 </v>
   <v type="int" >       72 </v>
   <v type="int" >       73 </v>
   <v type="int" >       74 </v>
   <v type="int" >       75 </v>
   <v type="int" >       76 </v>
   <v type="int" >       77 </v>
   <v type="int" >       78 </v>
   <v type="int" >       79 </v>
   <v type="int" >       80 </v>
   <v type="int" >       81 </v>
   <v type="int" >       82 </v>
   <v type="int" >       83 </v>
   <v type="int" >       84 </v>
   <v type="int" >       85 </v>
   <v type="int" >       86 </v>
   <v type="int" >       87 </v>
   <v type="int" >       88 </v>
   <v type="int" >       89 </v>
   <v type="int" >       90 </v>
   <v type="int" >       91 </v>
   <v type="int" >       92 </v>
   <v type="int" >       93 </v>
   <v type="int" >       94 </v>
   <v type="int" >       95 </v>
   <v type="int" >       96 </v>
   <v type="int" >       97 </v>
   <v type="int" >       98 </v>
   <v type="int" >       99 </v>
   <v type="int" >      100 </v>
   <v type="int" >      101 </v>
   <v type="int" >      102 </v>
   <v type="int" >      103 </v>
   <v type="int" >      104 </v>
   <v type="int" >      105 </v>
   <v type="int" >      106 </v>
   <v type="int" >      107 </v>
   <v type="int" >      108 </v>
   <v type="int" >      109 </v>
   <v type="int" >      110 </v>
   <v type="int" >      111 </v>
   <v type="int" >      112 </v>
   <v type="int" >      113 </v>
   <v type="int" >      114 </v>
   <v type="int" >      115 </v>
   <v type="int" >      116 </v>
   <v type="int" >      117 </v>
   <v type="int" >      118 </v>
   <v type="int" >      119 </v>
   <v type="int" >      120 </v>
   <v type="int" >      121 </v>
   <v type="int" >      122 </v>
   <v type="int" >      123 </v>
   <v type="int" >      124 </v>
   <v type="int" >      125 </v>
   <v type="int" >      126 </v>
   <v type="int" >      127 </v>
   <v type="int" >      128 </v>
   <v type="int" >      129 </v>
   <v type="int" >      130 </v>
   <v type="int" >      131 </v>
   <v type="int" >      132 </v>
   <v type="int" >      133 </v>
   <v type="int" >      134 </v>
   <v type="int" >      135 </v>
   <v type="int" >      136 </v>
   <v type="int" >      137 </v>
   <v type="int" >      138 </v>
   <v type="int" >      139 </v>
   <v type="int" >      140 </v>
   <v type="int" >      141 </v>
   <v type="int" >      142 </v>
   <v type="int" >      143 </v>
   <v type="int" >      144 </v>
   <v type="int" >      145 </v>
   <v type="int" >      146 </v>
   <v type="int" >      147 </v>
   <v type="int" >      148 </v>
   <v type="int" >      149 </v>
   <v type="int" >      150 </v>
   <v type="int" >      151 </v>
   <v type="int" >      152 </v>
   <v type="int" >      153 </v>
   <v type="int" >      154 </v>
   <v type="int" >      155 </v>
   <v type="int" >      156 </v>
   <v type="int" >      157 </v>
   <v type="int" >      158 </v>
   <v type="int" >      159 </v>
   <v type="int" >      160 </v>
   <v type="int" >      161 </v>
   <v type="int" >      162 </v>
   <v type="int" >      163 </v>
   <v type="int" >      164 </v>
   <v type="int" >      165 </v>
   <v type="int" >      166 </v>
   <v type="int" >      167 </v>
   <v type="int" >      168 </v>
   <v type="int" >      169 </v>
   <v type="int" >      170 </v>
   <v type="int" >      171 </v>
   <v type="int" >      172 </v>
   <v type="int" >      173 </v>
   <v type="int" >      174 </v>
   <v type="int" >      175 </v>
   <v type="int" >      176 </v>
   <v type="int" >      177 </v>
   <v type="int" >      178 </v>
   <v type="int" >      179 </v>
   <v type="int" >      180 </v>
   <v type="int" >      181 </v>
   <v type="int" >      182 </v>
   <v type="int" >      183 </v>
   <v type="int" >      184 </v>
   <v type="int" >      185 </v>
   <v type="int" >      186 </v>
   <v type="int" >      187 </v>
   <v type="int" >      188 </v>
   <v type="int" >      189 </v>
   <v type="int" >      190 </v>
   <v type="int" >      191 </v>
   <v type="int" >      192 </v>
   <v type="int" >      193 </v>
   <v type="int" >      194 </v>
   <v type="int" >      195 </v>
   <v type="int" >      196 </v>
   <v type="int" >      197 </v>
   <v type="int" >      198 </v>
   <v type="int" >      199 </v>
   <v type="int" >      200 </v>
   <v type="int" >      201 </v>
   <v type="int" >      202 </v>
   <v type="int" >      203 </v>
   <v type="int" >      204 </v>
   <v type="int" >      205 </v>
   <v type="int" >      206 </v>
   <v type="int" >      207 </v>
   <v type="int" >      208 </v>
   <v type="int" >      209 </v>
   <v type="int" >      210 </v>
   <v type="int" >      211 </v>
   <v type="int" >      212 </v>
   <v type="int" >      213 </v>
   <v type="int" >      214 </v>
   <v type="int" >      215 </v>
  </varray>
 </primitive_cell>
 <kpoints>
  <generation param="Monkhorst-Pack">
   <v type="int" name="divisions">       1        1        1 </v>
   <v name="usershift">      0.00000000       0.00000000       0.00000000 </v>
   <v name="genvec1">      1.00000000       0.00000000       0.00000000 </v>
   <v name="genvec2">      0.00000000       1.00000000       0.00000000 </v>
   <v name="genvec3">      0.00000000       0.00000000       1.00000000 </v>
   <v name="shift">      0.00000000       0.00000000       0.00000000 </v>
  </generation>
  <varray name="kpointlist" >
   <v>       0.00000000       0.00000000       0.00000000 </v>
  </varray>
  <varray name="weights" >
   <v>       1.00000000 </v>
  </varray>
 </kpoints>
 <parameters>
  <separator name="general" >
   <i type="string" name="SYSTEM">Si</i>
   <i type="logical" name="LCOMPAT"> F  </i>
  </separator>
  <separator name="electronic" >
   <i type="string" name="PREC">accura</i>
   <i name="ENMAX">    400.00000000</i>
   <i name="ENAUG">    628.94500000</i>
   <i name="EDIFF">      0.00000000</i>
   <i type="int" name="IALGO">    38</i>
   <i type="int" name="IWAVPR">    11</i>
   <i type="int" name="NBANDS">   752</i>
   <i type="int" name="NBANDSLOW">    -1</i>
   <i type="int" name="NBANDSHIGH">    -1</i>
   <i name="NELECT">   1072.00000000</i>
   <i type="int" name="TURBO">     0</i>
   <i type="int" name="IRESTART">     0</i>
   <i type="int" name="NREBOOT">     0</i>
   <i type="int" name="NMIN">     0</i>
   <i name="EREF">      0.00000000</i>
   <separator name="electronic smearing" >
    <i type="int" name="ISMEAR">     0</i>
    <i name="SIGMA">      0.01000000</i>
    <i name="KSPACING">      0.50000000</i>
    <i type="logical" name="KGAMMA"> T  </i>
    <i type="logical" name="KBLOWUP"> T  </i>
   </separator>
   <separator name="electronic projectors" >
    <i type="logical" name="LREAL"> F  </i>
    <v name="ROPT">      0.00000000      0.00000000</v>
    <i type="int" name="LMAXPAW">  -100</i>
    <i type="int" name="LMAXMIX">     2</i>
    <i type="logical" name="NLSPLINE"> F  </i>
   </separator>
   <separator name="electronic startup" >
    <i type="int" name="ISTART">     0</i>
    <i type="int" name="ICHARG">     0</i>
    <i type="int" name="INIWAV">     1</i>
   </separator>
   <separator name="electronic spin" >
    <i type="int" name="ISPIN">     2</i>
    <i type="logical" name="LNONCOLLINEAR"> F  </i>
    <v name="MAGMOM">      1.00000000      1.00000000      1.00000000      1.00000000      1.00000000      1.00000000      1.00000000      1.00000000      1.00000000      1.00000000      1.00000000      1.00000000      1.00000000      1.00000000      1.00000000      1.00000000      1.00000000      1.00000000      1.00000000      1.00000000
      1.00000000      1.00000000      1.00000000      1.00000000      1.00000000      1.00000000      1.00000000      1.00000000      1.00000000      1.00000000      1.00000000      1.00000000      1.00000000      1.00000000      1.00000000      1.00000000      1.00000000      1.00000000      1.00000000      1.00000000
      1.00000000      1.00000000      1.00000000      1.00000000      1.00000000      1.00000000      1.00000000      1.00000000      1.00000000      1.00000000      1.00000000      1.00000000      1.00000000      1.00000000      1.00000000      1.00000000      1.00000000      1.00000000      1.00000000      1.00000000
      1.00000000      1.00000000      1.00000000      1.00000000      1.00000000      1.00000000      1.00000000      1.00000000      1.00000000      1.00000000      1.00000000      1.00000000      1.00000000      1.00000000      1.00000000      1.00000000      1.00000000      1.00000000      1.00000000      1.00000000
      1.00000000      1.00000000      1.00000000      1.00000000      1.00000000      1.00000000      1.00000000      1.00000000      1.00000000      1.00000000      1.00000000      1.00000000      1.00000000      1.00000000      1.00000000      1.00000000      1.00000000      1.00000000      1.00000000      1.00000000
      1.00000000      1.00000000      1.00000000      1.00000000      1.00000000      1.00000000      1.00000000      1.00000000      1.00000000      1.00000000      1.00000000      1.00000000      1.00000000      1.00000000      1.00000000      1.00000000      1.00000000      1.00000000      1.00000000      1.00000000
      1.00000000      1.00000000      1.00000000      1.00000000      1.00000000      1.00000000      1.00000000      1.00000000      1.00000000      1.00000000      1.00000000      1.00000000      1.00000000      1.00000000      1.00000000      1.00000000      1.00000000      1.00000000      1.00000000      1.00000000
      1.00000000      1.00000000      1.00000000      1.00000000      1.00000000      1.00000000      1.00000000      1.00000000      1.00000000      1.00000000      1.00000000      1.00000000      1.00000000      1.00000000      1.00000000      1.00000000      1.00000000      1.00000000      1.00000000      1.00000000
      1.00000000      1.00000000      1.00000000      1.00000000      1.00000000      1.00000000      1.00000000      1.00000000      1.00000000      1.00000000      1.00000000      1.00000000      1.00000000      1.00000000      1.00000000      1.00000000      1.00000000      1.00000000      1.00000000      1.00000000
      1.00000000      1.00000000      1.00000000      1.00000000      1.00000000      1.00000000      1.00000000      1.00000000      1.00000000      1.00000000      1.00000000      1.00000000      1.00000000      1.00000000      1.00000000      1.00000000      1.00000000      1.00000000      1.00000000      1.00000000
      1.00000000      1.00000000      1.00000000      1.00000000      1.00000000      1.00000000      1.00000000      1.00000000      1.00000000      1.00000000      1.00000000      1.00000000      1.00000000      1.00000000      1.00000000</v>
    <i name="NUPDOWN">     -1.00000000</i>
    <i type="logical" name="LSORBIT"> F  </i>
    <v name="SAXIS">      0.00000000      0.00000000      1.00000000</v>
    <i type="logical" name="LSPIRAL"> F  </i>
    <v name="QSPIRAL">      0.00000000      0.00000000      0.00000000</v>
    <i type="logical" name="LZEROZ"> F  </i>
   </separator>
   <separator name="electronic exchange-correlation" >
    <i type="logical" name="LASPH"> F  </i>
    <i type="logical" name="LMETAGGA"> F  </i>
   </separator>
   <separator name="electronic convergence" >
    <i type="int" name="NELM">    20</i>
    <i type="int" name="NELMDL">    -5</i>
    <i type="int" name="NELMIN">     2</i>
    <i name="ENINI">    400.00000000</i>
    <separator name="electronic convergence detail" >
     <i type="logical" name="LDIAG"> T  </i>
     <i type="logical" name="LSUBROT"> F  </i>
     <i name="WEIMIN">      0.00100000</i>
     <i name="EBREAK">      0.00000000</i>
     <i name="DEPER">      0.30000000</i>
     <i type="int" name="NRMM">     4</i>
     <i name="TIME">      0.40000000</i>
    </separator>
   </separator>
   <separator name="electronic mixer" >
    <i name="AMIX">      0.40000000</i>
    <i name="BMIX">      1.00000000</i>
    <i name="AMIN">      0.10000000</i>
    <i name="AMIX_MAG">      1.60000000</i>
    <i name="BMIX_MAG">      1.00000000</i>
    <separator name="electronic mixer details" >
     <i type="int" name="IMIX">     4</i>
     <i type="logical" name="MIXFIRST"> F  </i>
     <i type="int" name="MAXMIX">   -45</i>
     <i name="WC">    100.00000000</i>
     <i type="int" name="INIMIX">     1</i>
     <i type="int" name="MIXPRE">     1</i>
     <i type="int" name="MREMOVE">     5</i>
    </separator>
   </separator>
   <separator name="electronic dipolcorrection" >
    <i type="logical" name="LDIPOL"> F  </i>
    <i type="logical" name="LMONO"> F  </i>
    <i type="int" name="IDIPOL">     0</i>
    <i name="EPSILON">      1.00000000</i>
    <v name="DIPOL">   -100.00000000   -100.00000000   -100.00000000</v>
    <i name="EFIELD">      0.00000000</i>
   </separator>
  </separator>
  <separator name="grids" >
   <i type="int" name="NGX">    80</i>
   <i type="int" name="NGY">    80</i>
   <i type="int" name="NGZ">    80</i>
   <i type="int" name="NGXF">   160</i>
   <i type="int" name="NGYF">   160</i>
   <i type="int" name="NGZF">   160</i>
   <i type="logical" name="ADDGRID"> F  </i>
  </separator>
  <separator name="ionic" >
   <i type="int" name="NSW">   500</i>
   <i type="int" name="IBRION">     3</i>
   <i type="int" name="MDALGO">     0</i>
   <i type="int" name="ISIF">     0</i>
   <i name="PSTRESS">      0.00000000</i>
   <i name="EDIFFG">     -0.01000000</i>
   <i type="int" name="NFREE">     0</i>
   <i name="POTIM">      0.00000000</i>
   <i name="SMASS">     -3.00000000</i>
   <i name="SCALEE">      1.00000000</i>
  </separator>
  <separator name="ionic md" >
   <i name="TEBEG">      0.00010000</i>
   <i name="TEEND">      0.00010000</i>
   <i type="int" name="NBLOCK">     1</i>
   <i type="int" name="KBLOCK">   500</i>
   <i type="int" name="NPACO">   256</i>
   <i name="APACO">     10.00000000</i>
  </separator>
  <separator name="symmetry" >
   <i type="int" name="ISYM">     2</i>
   <i name="SYMPREC">      0.00001000</i>
  </separator>
  <separator name="dos" >
   <i type="int" name="LORBIT">     0</i>
   <v name="RWIGS">     -1.00000000     -1.00000000</v>
   <i type="int" name="NEDOS">   301</i>
   <i name="EMIN">     10.00000000</i>
   <i name="EMAX">    -10.00000000</i>
   <i name="EFERMI">      0.00000000</i>
  </separator>
  <separator name="writing" >
   <i type="int" name="NWRITE">     2</i>
   <i type="logical" name="LWAVE"> T  </i>
   <i type="logical" name="LDOWNSAMPLE"> F  </i>
   <i type="logical" name="LCHARG"> T  </i>
   <i type="logical" name="LPARD"> F  </i>
   <i type="logical" name="LVTOT"> F  </i>
   <i type="logical" name="LVHAR"> F  </i>
   <i type="logical" name="LELF"> F  </i>
   <i type="logical" name="LOPTICS"> F  </i>
   <v name="STM">      0.00000000      0.00000000      0.00000000      0.00000000      0.00000000      0.00000000      0.00000000</v>
  </separator>
  <separator name="performance" >
   <i type="int" name="NPAR">     1</i>
   <i type="int" name="NSIM">     4</i>
   <i type="int" name="NBLK">    -1</i>
   <i type="logical" name="LPLANE"> T  </i>
   <i type="logical" name="LSCALAPACK"> T  </i>
   <i type="logical" name="LSCAAWARE"> F  </i>
   <i type="logical" name="LSCALU"> F  </i>
   <i type="logical" name="LASYNC"> F  </i>
   <i type="logical" name="LORBITALREAL"> F  </i>
  </separator>
  <separator name="miscellaneous" >
   <i type="int" name="IDIOT">     3</i>
   <i type="int" name="PHON_NSTRUCT">    -1</i>
   <i type="logical" name="LMUSIC"> F  </i>
   <v name="POMASS">      7.01000000     18.99800000</v>
   <v name="DARWINR">      0.00000000      0.00000000</v>
   <v name="DARWINV">      1.00000000      1.00000000</v>
   <i type="logical" name="LCORR"> T  </i>
  </separator>
  <i type="logical" name="GGA_COMPAT"> T  </i>
  <i type="logical" name="LBERRY"> F  </i>
  <i type="int" name="ICORELEVEL">     0</i>
  <i type="logical" name="LDAU"> F  </i>
  <i type="int" name="I_CONSTRAINED_M">     0</i>
  <separator name="electronic exchange-correlation" >
   <i type="string" name="GGA">--</i>
   <i type="int" name="VOSKOWN">     0</i>
   <i type="logical" name="LHFCALC"> F  </i>
   <i type="string" name="PRECFOCK"></i>
   <i type="logical" name="LSYMGRAD"> F  </i>
   <i type="logical" name="LHFONE"> F  </i>
   <i type="logical" name="LRHFCALC"> F  </i>
   <i type="logical" name="LTHOMAS"> F  </i>
   <i type="logical" name="LMODELHF"> F  </i>
   <i type="logical" name="LFOCKACE"> F  </i>
   <i name="ENCUT4O">     -1.00000000</i>
   <i type="int" name="EXXOEP">     0</i>
   <i type="int" name="FOURORBIT">     0</i>
   <i name="AEXX">      0.00000000</i>
   <i name="HFALPHA">      0.00000000</i>
   <i name="MCALPHA">      0.00000000</i>
   <i name="ALDAX">      1.00000000</i>
   <i name="AGGAX">      1.00000000</i>
   <i name="ALDAC">      1.00000000</i>
   <i name="AGGAC">      1.00000000</i>
   <i type="int" name="NKREDX">     1</i>
   <i type="int" name="NKREDY">     1</i>
   <i type="int" name="NKREDZ">     1</i>
   <i type="logical" name="SHIFTRED"> F  </i>
   <i type="logical" name="ODDONLY"> F  </i>
   <i type="logical" name="EVENONLY"> F  </i>
   <i type="int" name="LMAXFOCK">     0</i>
   <i type="int" name="NMAXFOCKAE">     0</i>
   <i type="logical" name="LFOCKAEDFT"> F  </i>
   <i name="HFSCREEN">      0.00000000</i>
   <i name="HFSCREENC">      0.00000000</i>
   <i type="int" name="NBANDSGWLOW">     0</i>
  </separator>
  <separator name="vdW DFT" >
   <i type="logical" name="LUSE_VDW"> F  </i>
   <i type="int" name="IVDW_NL">     1</i>
   <i type="logical" name="LSPIN_VDW"> F  </i>
   <i name="Zab_VDW">     -0.84910000</i>
   <i name="PARAM1">      0.12340000</i>
   <i name="PARAM2">      1.00000000</i>
   <i name="PARAM3">      0.00000000</i>
  </separator>
  <separator name="model GW" >
   <i type="int" name="MODEL_GW">     0</i>
   <i name="MODEL_EPS0">      4.91807315</i>
   <i name="MODEL_ALPHA">      1.00000000</i>
  </separator>
  <separator name="linear response parameters" >
   <i type="logical" name="LEPSILON"> F  </i>
   <i type="logical" name="LRPA"> F  </i>
   <i type="logical" name="LNABLA"> F  </i>
   <i type="logical" name="LVEL"> F  </i>
   <i name="CSHIFT">      0.10000000</i>
   <i name="OMEGAMAX">     -1.00000000</i>
   <i name="DEG_THRESHOLD">      0.00200000</i>
   <i name="RTIME">     -0.10000000</i>
   <i name="WPLASMAI">      0.00000000</i>
   <v name="DFIELD">      0.00000000      0.00000000      0.00000000</v>
   <v name="WPLASMA">      0.00000000      0.00000000      0.00000000      0.00000000      0.00000000      0.00000000      0.00000000      0.00000000      0.00000000</v>
  </separator>
  <separator name="orbital magnetization" >
   <i type="logical" name="NUCIND"> F  </i>
   <v name="MAGPOS">      0.00000000      0.00000000      0.00000000</v>
   <i type="logical" name="LNICSALL"> T  </i>
   <i type="logical" name="ORBITALMAG"> F  </i>
   <i type="logical" name="LMAGBLOCH"> F  </i>
   <i type="logical" name="LCHIMAG"> F  </i>
   <i type="logical" name="LGAUGE"> T  </i>
   <i type="int" name="MAGATOM">     0</i>
   <v name="MAGDIPOL">      0.00000000      0.00000000      0.00000000</v>
   <v name="AVECCONST">      0.00000000      0.00000000      0.00000000</v>
  </separator>
  <separator name="response functions" >
   <i type="logical" name="LALL_IN_ONE"> F  </i>
   <i type="int" name="IALL_IN_ONE">    -1</i>
   <i type="int" name="NBANDS_WAVE">    -1</i>
   <i type="logical" name="LFINITE_TEMPERATURE"> F  </i>
   <i type="logical" name="LADDER"> F  </i>
   <i type="logical" name="LRPAFORCE"> F  </i>
   <i type="logical" name="LFXC"> F  </i>
   <i type="logical" name="LHARTREE"> T  </i>
   <i type="int" name="IBSE">     0</i>
   <v type="int" name="KPOINT">    -1     0     0     0</v>
   <i type="logical" name="LTCTC"> F  </i>
   <i type="logical" name="LTCTE"> F  </i>
   <i type="logical" name="LTETE"> F  </i>
   <i type="logical" name="LTRIPLET"> F  </i>
   <i type="logical" name="LFXCEPS"> F  </i>
   <i type="logical" name="LFXHEG"> F  </i>
   <i type="int" name="NATURALO">     2</i>
   <i type="logical" name="LHOLEGF"> F  </i>
   <i type="logical" name="L2ORDER"> F  </i>
   <i type="logical" name="LDMP1"> F  </i>
   <i type="logical" name="LMP2LT"> F  </i>
   <i type="logical" name="LSMP2LT"> F  </i>
   <i type="logical" name="LGWLF"> F  </i>
   <i name="ENCUTGW">     -1.60000002</i>
   <i name="ENCUTGWSOFT">     -1.60000002</i>
   <i name="ENCUTLF">     -1.00000000</i>
   <i type="logical" name="LESF_SPLINES"> F  </i>
   <i type="int" name="LMAXMP2">    -1</i>
   <i name="SCISSOR">      0.00000000</i>
   <i type="int" name="NOMEGA">     0</i>
   <i type="int" name="NOMEGAR">     0</i>
   <i type="int" name="NBANDSGW">    -1</i>
   <i type="int" name="NBANDSO">    -1</i>
   <i type="int" name="NBANDSV">    -1</i>
   <i type="int" name="NELMGW">     1</i>
   <i type="int" name="NELMHF">     1</i>
   <i type="int" name="DIM">     3</i>
   <i type="int" name="IESPILON">     4</i>
   <i type="int" name="ANTIRES">     0</i>
   <i name="OMEGAMAX">    -30.00000000</i>
   <i name="OMEGAMIN">    -30.00000000</i>
   <i name="OMEGATL">   -200.00000000</i>
   <i type="int" name="OMEGAGRID">     0</i>
   <i name="CSHIFT">     -0.10000000</i>
   <i type="logical" name="LSELFENERGY"> F  </i>
   <i type="logical" name="LSPECTRAL"> F  </i>
   <i type="logical" name="LSPECTRALGW"> F  </i>
   <i type="logical" name="LSINGLES"> F  </i>
   <i type="logical" name="LFERMIGW"> F  </i>
   <i type="logical" name="ODDONLYGW"> F  </i>
   <i type="logical" name="EVENONLYGW"> F  </i>
   <i type="int" name="NKREDLFX">     1</i>
   <i type="int" name="NKREDLFY">     1</i>
   <i type="int" name="NKREDLFZ">     1</i>
   <i type="int" name="MAXMEM">  2800</i>
   <i type="int" name="TELESCOPE">     0</i>
   <i type="int" name="NTAUPAR">    -1</i>
   <i type="int" name="NOMEGAPAR">    -1</i>
   <i name="DAMP_NEWTON">      0.80000001</i>
   <i name="LAMBDA">      1.00000000</i>
  </separator>
  <separator name="External order field" >
   <i name="OFIELD_KAPPA">      0.00000000</i>
   <v name="OFIELD_K">      0.00000000      0.00000000      0.00000000</v>
   <i name="OFIELD_Q6_NEAR">      0.00000000</i>
   <i name="OFIELD_Q6_FAR">      0.00000000</i>
   <i name="OFIELD_A">      0.00000000</i>
  </separator>
  <separator name="optional k-points parameters" >
   <i type="int" name="KPOINTS_OPT_MODE">     1</i>
   <i type="logical" name="LKPOINTS_OPT"> F  </i>
  </separator>
 </parameters>
 <atominfo>
  <atoms>     215 </atoms>
  <types>       2 </types>
  <array name="atoms" >
   <dimension dim="1">ion</dimension>
   <field type="string">element</field>
   <field type="int">atomtype</field>
   <set>
    <rc><c>Li</c><c>   1</c></rc>
    <rc><c>Li</c><c>   1</c></rc>
    <rc><c>Li</c><c>   1</c></rc>
    <rc><c>Li</c><c>   1</c></rc>
    <rc><c>Li</c><c>   1</c></rc>
    <rc><c>Li</c><c>   1</c></rc>
    <rc><c>Li</c><c>   1</c></rc>
    <rc><c>Li</c><c>   1</c></rc>
    <rc><c>Li</c><c>   1</c></rc>
    <rc><c>Li</c><c>   1</c></rc>
    <rc><c>Li</c><c>   1</c></rc>
    <rc><c>Li</c><c>   1</c></rc>
    <rc><c>Li</c><c>   1</c></rc>
    <rc><c>Li</c><c>   1</c></rc>
    <rc><c>Li</c><c>   1</c></rc>
    <rc><c>Li</c><c>   1</c></rc>
    <rc><c>Li</c><c>   1</c></rc>
    <rc><c>Li</c><c>   1</c></rc>
    <rc><c>Li</c><c>   1</c></rc>
    <rc><c>Li</c><c>   1</c></rc>
    <rc><c>Li</c><c>   1</c></rc>
    <rc><c>Li</c><c>   1</c></rc>
    <rc><c>Li</c><c>   1</c></rc>
    <rc><c>Li</c><c>   1</c></rc>
    <rc><c>Li</c><c>   1</c></rc>
    <rc><c>Li</c><c>   1</c></rc>
    <rc><c>Li</c><c>   1</c></rc>
    <rc><c>Li</c><c>   1</c></rc>
    <rc><c>Li</c><c>   1</c></rc>
    <rc><c>Li</c><c>   1</c></rc>
    <rc><c>Li</c><c>   1</c></rc>
    <rc><c>Li</c><c>   1</c></rc>
    <rc><c>Li</c><c>   1</c></rc>
    <rc><c>Li</c><c>   1</c></rc>
    <rc><c>Li</c><c>   1</c></rc>
    <rc><c>Li</c><c>   1</c></rc>
    <rc><c>Li</c><c>   1</c></rc>
    <rc><c>Li</c><c>   1</c></rc>
    <rc><c>Li</c><c>   1</c></rc>
    <rc><c>Li</c><c>   1</c></rc>
    <rc><c>Li</c><c>   1</c></rc>
    <rc><c>Li</c><c>   1</c></rc>
    <rc><c>Li</c><c>   1</c></rc>
    <rc><c>Li</c><c>   1</c></rc>
    <rc><c>Li</c><c>   1</c></rc>
    <rc><c>Li</c><c>   1</c></rc>
    <rc><c>Li</c><c>   1</c></rc>
    <rc><c>Li</c><c>   1</c></rc>
    <rc><c>Li</c><c>   1</c></rc>
    <rc><c>Li</c><c>   1</c></rc>
    <rc><c>Li</c><c>   1</c></rc>
    <rc><c>Li</c><c>   1</c></rc>
    <rc><c>Li</c><c>   1</c></rc>
    <rc><c>Li</c><c>   1</c></rc>
    <rc><c>Li</c><c>   1</c></rc>
    <rc><c>Li</c><c>   1</c></rc>
    <rc><c>Li</c><c>   1</c></rc>
    <rc><c>Li</c><c>   1</c></rc>
    <rc><c>Li</c><c>   1</c></rc>
    <rc><c>Li</c><c>   1</c></rc>
    <rc><c>Li</c><c>   1</c></rc>
    <rc><c>Li</c><c>   1</c></rc>
    <rc><c>Li</c><c>   1</c></rc>
    <rc><c>Li</c><c>   1</c></rc>
    <rc><c>Li</c><c>   1</c></rc>
    <rc><c>Li</c><c>   1</c></rc>
    <rc><c>Li</c><c>   1</c></rc>
    <rc><c>Li</c><c>   1</c></rc>
    <rc><c>Li</c><c>   1</c></rc>
    <rc><c>Li</c><c>   1</c></rc>
    <rc><c>Li</c><c>   1</c></rc>
    <rc><c>Li</c><c>   1</c></rc>
    <rc><c>Li</c><c>   1</c></rc>
    <rc><c>Li</c><c>   1</c></rc>
    <rc><c>Li</c><c>   1</c></rc>
    <rc><c>Li</c><c>   1</c></rc>
    <rc><c>Li</c><c>   1</c></rc>
    <rc><c>Li</c><c>   1</c></rc>
    <rc><c>Li</c><c>   1</c></rc>
    <rc><c>Li</c><c>   1</c></rc>
    <rc><c>Li</c><c>   1</c></rc>
    <rc><c>Li</c><c>   1</c></rc>
    <rc><c>Li</c><c>   1</c></rc>
    <rc><c>Li</c><c>   1</c></rc>
    <rc><c>Li</c><c>   1</c></rc>
    <rc><c>Li</c><c>   1</c></rc>
    <rc><c>Li</c><c>   1</c></rc>
    <rc><c>Li</c><c>   1</c></rc>
    <rc><c>Li</c><c>   1</c></rc>
    <rc><c>Li</c><c>   1</c></rc>
    <rc><c>Li</c><c>   1</c></rc>
    <rc><c>Li</c><c>   1</c></rc>
    <rc><c>Li</c><c>   1</c></rc>
    <rc><c>Li</c><c>   1</c></rc>
    <rc><c>Li</c><c>   1</c></rc>
    <rc><c>Li</c><c>   1</c></rc>
    <rc><c>Li</c><c>   1</c></rc>
    <rc><c>Li</c><c>   1</c></rc>
    <rc><c>Li</c><c>   1</c></rc>
    <rc><c>Li</c><c>   1</c></rc>
    <rc><c>Li</c><c>   1</c></rc>
    <rc><c>Li</c><c>   1</c></rc>
    <rc><c>Li</c><c>   1</c></rc>
    <rc><c>Li</c><c>   1</c></rc>
    <rc><c>Li</c><c>   1</c></rc>
    <rc><c>Li</c><c>   1</c></rc>
    <rc><c>Li</c><c>   1</c></rc>
    <rc><c>Li</c><c>   1</c></rc>
    <rc><c>F </c><c>   2</c></rc>
    <rc><c>F </c><c>   2</c></rc>
    <rc><c>F </c><c>   2</c></rc>
    <rc><c>F </c><c>   2</c></rc>
    <rc><c>F </c><c>   2</c></rc>
    <rc><c>F </c><c>   2</c></rc>
    <rc><c>F </c><c>   2</c></rc>
    <rc><c>F </c><c>   2</c></rc>
    <rc><c>F </c><c>   2</c></rc>
    <rc><c>F </c><c>   2</c></rc>
    <rc><c>F </c><c>   2</c></rc>
    <rc><c>F </c><c>   2</c></rc>
    <rc><c>F </c><c>   2</c></rc>
    <rc><c>F </c><c>   2</c></rc>
    <rc><c>F </c><c>   2</c></rc>
    <rc><c>F </c><c>   2</c></rc>
    <rc><c>F </c><c>   2</c></rc>
    <rc><c>F </c><c>   2</c></rc>
    <rc><c>F </c><c>   2</c></rc>
    <rc><c>F </c><c>   2</c></rc>
    <rc><c>F </c><c>   2</c></rc>
    <rc><c>F </c><c>   2</c></rc>
    <rc><c>F </c><c>   2</c></rc>
    <rc><c>F </c><c>   2</c></rc>
    <rc><c>F </c><c>   2</c></rc>
    <rc><c>F </c><c>   2</c></rc>
    <rc><c>F </c><c>   2</c></rc>
    <rc><c>F </c><c>   2</c></rc>
    <rc><c>F </c><c>   2</c></rc>
    <rc><c>F </c><c>   2</c></rc>
    <rc><c>F </c><c>   2</c></rc>
    <rc><c>F </c><c>   2</c></rc>
    <rc><c>F </c><c>   2</c></rc>
    <rc><c>F </c><c>   2</c></rc>
    <rc><c>F </c><c>   2</c></rc>
    <rc><c>F </c><c>   2</c></rc>
    <rc><c>F </c><c>   2</c></rc>
    <rc><c>F </c><c>   2</c></rc>
    <rc><c>F </c><c>   2</c></rc>
    <rc><c>F </c><c>   2</c></rc>
    <rc><c>F </c><c>   2</c></rc>
    <rc><c>F </c><c>   2</c></rc>
    <rc><c>F </c><c>   2</c></rc>
    <rc><c>F </c><c>   2</c></rc>
    <rc><c>F </c><c>   2</c></rc>
    <rc><c>F </c><c>   2</c></rc>
    <rc><c>F </c><c>   2</c></rc>
    <rc><c>F </c><c>   2</c></rc>
    <rc><c>F </c><c>   2</c></rc>
    <rc><c>F </c><c>   2</c></rc>
    <rc><c>F </c><c>   2</c></rc>
    <rc><c>F </c><c>   2</c></rc>
    <rc><c>F </c><c>   2</c></rc>
    <rc><c>F </c><c>   2</c></rc>
    <rc><c>F </c><c>   2</c></rc>
    <rc><c>F </c><c>   2</c></rc>
    <rc><c>F </c><c>   2</c></rc>
    <rc><c>F </c><c>   2</c></rc>
    <rc><c>F </c><c>   2</c></rc>
    <rc><c>F </c><c>   2</c></rc>
    <rc><c>F </c><c>   2</c></rc>
    <rc><c>F </c><c>   2</c></rc>
    <rc><c>F </c><c>   2</c></rc>
    <rc><c>F </c><c>   2</c></rc>
    <rc><c>F </c><c>   2</c></rc>
    <rc><c>F </c><c>   2</c></rc>
    <rc><c>F </c><c>   2</c></rc>
    <rc><c>F </c><c>   2</c></rc>
    <rc><c>F </c><c>   2</c></rc>
    <rc><c>F </c><c>   2</c></rc>
    <rc><c>F </c><c>   2</c></rc>
    <rc><c>F </c><c>   2</c></rc>
    <rc><c>F </c><c>   2</c></rc>
    <rc><c>F </c><c>   2</c></rc>
    <rc><c>F </c><c>   2</c></rc>
    <rc><c>F </c><c>   2</c></rc>
    <rc><c>F </c><c>   2</c></rc>
    <rc><c>F </c><c>   2</c></rc>
    <rc><c>F </c><c>   2</c></rc>
    <rc><c>F </c><c>   2</c></rc>
    <rc><c>F </c><c>   2</c></rc>
    <rc><c>F </c><c>   2</c></rc>
    <rc><c>F </c><c>   2</c></rc>
    <rc><c>F </c><c>   2</c></rc>
    <rc><c>F </c><c>   2</c></rc>
    <rc><c>F </c><c>   2</c></rc>
    <rc><c>F </c><c>   2</c></rc>
    <rc><c>F </c><c>   2</c></rc>
    <rc><c>F </c><c>   2</c></rc>
    <rc><c>F </c><c>   2</c></rc>
    <rc><c>F </c><c>   2</c></rc>
    <rc><c>F </c><c>   2</c></rc>
    <rc><c>F </c><c>   2</c></rc>
    <rc><c>F </c><c>   2</c></rc>
    <rc><c>F </c><c>   2</c></rc>
    <rc><c>F </c><c>   2</c></rc>
    <rc><c>F </c><c>   2</c></rc>
    <rc><c>F </c><c>   2</c></rc>
    <rc><c>F </c><c>   2</c></rc>
    <rc><c>F </c><c>   2</c></rc>
    <rc><c>F </c><c>   2</c></rc>
    <rc><c>F </c><c>   2</c></rc>
    <rc><c>F </c><c>   2</c></rc>
    <rc><c>F </c><c>   2</c></rc>
    <rc><c>F </c><c>   2</c></rc>
    <rc><c>F </c><c>   2</c></rc>
    <rc><c>F </c><c>   2</c></rc>
   </set>
  </array>
  <array name="atomtypes" >
   <dimension dim="1">type</dimension>
   <field type="int">atomspertype</field>
   <field type="string">element</field>
   <field>mass</field>
   <field>valence</field>
   <field type="string">pseudopotential</field>
   <set>
    <rc><c> 108</c><c>Li</c><c>      7.01000000</c><c>      3.00000000</c><c>  PAW_PBE Li_sv 10Sep2004               </c></rc>
    <rc><c> 107</c><c>F </c><c>     18.99800000</c><c>      7.00000000</c><c>  PAW_PBE F 08Apr2002                   </c></rc>
   </set>
  </array>
 </atominfo>
 <structure name="initialpos" >
  <crystal>
   <varray name="basis" >
    <v>      12.07890034       0.00000000       0.00000000 </v>
    <v>       0.00000000      12.07890034       0.00000000 </v>
    <v>       0.00000000       0.00000000      12.07890034 </v>
   </varray>
   <i name="volume">   1762.30954632 </i>
   <varray name="rec_basis" >
    <v>       0.08278899       0.00000000       0.00000000 </v>
    <v>       0.00000000       0.08278899       0.00000000 </v>
    <v>       0.00000000       0.00000000       0.08278899 </v>
   </varray>
  </crystal>
  <varray name="positions" >
   <v>       0.99921336       0.00195478       0.00081780 </v>
   <v>       0.99981725       0.00029680       0.33342393 </v>
   <v>       0.99981661       0.00108011       0.66576363 </v>
   <v>       0.99919328       0.33142388       0.00081219 </v>
   <v>       0.99980837       0.33306924       0.33343463 </v>
   <v>       0.99980811       0.33230182       0.66575999 </v>
   <v>       0.99154728       0.66664413       0.00845926 </v>
   <v>       0.99918207       0.66664286       0.33430079 </v>
   <v>       0.99917889       0.66664976       0.65731671 </v>
   <v>       0.33424853       0.00108192       0.00018914 </v>
   <v>       0.33361783       0.00018187       0.33344062 </v>
   <v>       0.33362897       0.00019155       0.66637335 </v>
   <v>       0.33424567       0.33230701       0.00019064 </v>
   <v>       0.33362062       0.33319152       0.33344484 </v>
   <v>       0.33363284       0.33317945       0.66636787 </v>
   <v>       0.34268924       0.66664676       0.00082120 </v>
   <v>       0.33433597       0.66664005       0.33429913 </v>
   <v>       0.33508732       0.66663537       0.66491364 </v>
   <v>       0.66658778       0.00029590       0.00018877 </v>
   <v>       0.66658166       0.00016507       0.33342082 </v>
   <v>       0.66656948       0.00017779       0.66639214 </v>
   <v>       0.66657148       0.33306483       0.00019077 </v>
   <v>       0.66657061       0.33320210       0.33343040 </v>
   <v>       0.66655702       0.33318944       0.66638135 </v>
   <v>       0.66570563       0.66664608       0.00082129 </v>
   <v>       0.66645525       0.66664522       0.33354546 </v>
   <v>       0.66570326       0.66664051       0.66566613 </v>
   <v>       0.99990082       0.16665863       0.16694834 </v>
   <v>       0.99990834       0.16666951       0.49979973 </v>
   <v>       0.99990093       0.16665431       0.83324457 </v>
   <v>       0.99989118       0.49907815       0.16771902 </v>
   <v>       0.99989125       0.49907292       0.49902245 </v>
   <v>       0.99988964       0.49143076       0.83324685 </v>
   <v>       0.99990440       0.83425648       0.16770679 </v>
   <v>       0.99989111       0.83425756       0.49901566 </v>
   <v>       0.99990379       0.84183762       0.83324636 </v>
   <v>       0.33355074       0.16665248       0.16683040 </v>
   <v>       0.33351736       0.16665692       0.49991825 </v>
   <v>       0.33366503       0.16665025       0.83324608 </v>
   <v>       0.33354635       0.49969915       0.16683879 </v>
   <v>       0.33354087       0.49970119       0.49990453 </v>
   <v>       0.33440767       0.49906942       0.83325735 </v>
   <v>       0.33355808       0.83364572       0.16683549 </v>
   <v>       0.33354802       0.83364293       0.49990451 </v>
   <v>       0.33441049       0.83424472       0.83325877 </v>
   <v>       0.66657616       0.16664624       0.16680698 </v>
   <v>       0.66657697       0.16665357       0.49991743 </v>
   <v>       0.66646160       0.16664518       0.83326983 </v>
   <v>       0.66656731       0.49969723       0.16684591 </v>
   <v>       0.66657474       0.49972039       0.49990367 </v>
   <v>       0.66570493       0.49906697       0.83324955 </v>
   <v>       0.66656373       0.83365474       0.16683850 </v>
   <v>       0.66656529       0.83362458       0.49990404 </v>
   <v>       0.66570945       0.83425505       0.83325461 </v>
   <v>       0.16685147       0.00108259       0.16754441 </v>
   <v>       0.16684360       0.00029337       0.49990457 </v>
   <v>       0.16746380       0.00196714       0.83254799 </v>
   <v>       0.16684197       0.33229905       0.16754356 </v>
   <v>       0.16683710       0.33306795       0.49990269 </v>
   <v>       0.16746162       0.33142431       0.83253992 </v>
   <v>       0.16745134       0.66664888       0.17597188 </v>
   <v>       0.16744966       0.66664901       0.49901695 </v>
   <v>       0.17500273       0.66663627       0.82499874 </v>
   <v>       0.50010283       0.00017950       0.16692079 </v>
   <v>       0.50008628       0.00016224       0.49991958 </v>
   <v>       0.50010240       0.00029168       0.83315843 </v>
   <v>       0.50010149       0.33318142       0.16691338 </v>
   <v>       0.50008326       0.33318462       0.49991784 </v>
   <v>       0.50010103       0.33306681       0.83316255 </v>
   <v>       0.50098691       0.66665192       0.16764080 </v>
   <v>       0.50019673       0.66665852       0.49980393 </v>
   <v>       0.50098701       0.66664932       0.83255209 </v>
   <v>       0.83309020       0.00019518       0.16692181 </v>
   <v>       0.83308138       0.00017789       0.49990389 </v>
   <v>       0.83247715       0.00108100       0.83316959 </v>
   <v>       0.83307995       0.33316864       0.16692140 </v>
   <v>       0.83308633       0.33318015       0.49990204 </v>
   <v>       0.83245989       0.33229362       0.83316199 </v>
   <v>       0.83158734       0.66666412       0.16841637 </v>
   <v>       0.83236073       0.66665237       0.49901553 </v>
   <v>       0.82403319       0.66665207       0.83255403 </v>
   <v>       0.16677194       0.16665860       0.00011191 </v>
   <v>       0.16673470       0.16665040       0.33354752 </v>
   <v>       0.16675407       0.16664925       0.66634001 </v>
   <v>       0.16675465       0.49143207       0.00010990 </v>
   <v>       0.16675244       0.49906703       0.33429768 </v>
   <v>       0.16674194       0.49906912       0.66559322 </v>
   <v>       0.16677246       0.84183529       0.00011078 </v>
   <v>       0.16675214       0.83425391       0.33429943 </v>
   <v>       0.16674231       0.83424591       0.66559438 </v>
   <v>       0.50020730       0.16666971       0.00009092 </v>
   <v>       0.50008678       0.16665600       0.33342474 </v>
   <v>       0.50008583       0.16665451       0.66648422 </v>
   <v>       0.50098357       0.49907298       0.00010977 </v>
   <v>       0.50009697       0.49972053       0.33342612 </v>
   <v>       0.50009656       0.49970113       0.66646003 </v>
   <v>       0.50099072       0.83425734       0.00011074 </v>
   <v>       0.50009871       0.83362519       0.33343662 </v>
   <v>       0.50009868       0.83364226       0.66645376 </v>
   <v>       0.83306806       0.16665323       0.00011210 </v>
   <v>       0.83319343       0.16664703       0.33342871 </v>
   <v>       0.83317396       0.16664705       0.66645819 </v>
   <v>       0.83228327       0.49907766       0.00010990 </v>
   <v>       0.83315445       0.49969775       0.33343373 </v>
   <v>       0.83316210       0.49969887       0.66645601 </v>
   <v>       0.83231009       0.83426016       0.00011033 </v>
   <v>       0.83316378       0.83365357       0.33344127 </v>
   <v>       0.83317077       0.83364729       0.66645164 </v>
   <v>       0.99979985       0.16668101       0.00021812 </v>
   <v>       0.00012652       0.16667629       0.33315164 </v>
   <v>       0.00012651       0.16667455       0.66662366 </v>
   <v>       0.00213561       0.50426795       0.99786590 </v>
   <v>       0.00040695       0.50018797       0.33284422 </v>
   <v>       0.00040535       0.50253501       0.66928337 </v>
   <v>       0.00214911       0.82906183       0.99787083 </v>
   <v>       0.00041259       0.83313584       0.33284794 </v>
   <v>       0.00041109       0.83078711       0.66927675 </v>
   <v>       0.33338608       0.16667846       0.99987629 </v>
   <v>       0.33313250       0.16667232       0.33316028 </v>
   <v>       0.33304185       0.16667107       0.66696028 </v>
   <v>       0.33072015       0.50253531       0.99959403 </v>
   <v>       0.33274037       0.50053043       0.33284829 </v>
   <v>       0.33243446       0.50081435       0.66756575 </v>
   <v>       0.33073414       0.83078483       0.99959331 </v>
   <v>       0.33274819       0.83279775       0.33285452 </v>
   <v>       0.33244207       0.83250147       0.66755989 </v>
   <v>       0.66685800       0.16667243       0.99987667 </v>
   <v>       0.66675557       0.16666836       0.33324682 </v>
   <v>       0.66684528       0.16666823       0.66687324 </v>
   <v>       0.66716020       0.50018766       0.99959427 </v>
   <v>       0.66684859       0.50024740       0.33315192 </v>
  