 running on   20 total cores
 distrk:  each k-point on   20 cores,    1 groups
 distr:  one band on    1 cores,   20 groups
 using from now: INCAR     
 vasp.5.4.4.18Apr17-6-g9f103f2a35 (build Dec 11 2018 16:16:58) complex          
  
 POSCAR found type information on POSCAR  Ni S 
 POSCAR found :  2 types and      56 ions
 scaLAPACK will be used

 ----------------------------------------------------------------------------- 
|                                                                             |
|           W    W    AA    RRRRR   N    N  II  N    N   GGGG   !!!           |
|           W    W   A  A   R    R  NN   N  II  NN   N  G    G  !!!           |
|           W    W  A    A  R    R  N N  N  II  N N  N  G       !!!           |
|           W WW W  AAAAAA  RRRRR   N  N N  II  N  N N  G  GGG   !            |
|           WW  WW  A    A  R   R   N   NN  II  N   NN  G    G                |
|           W    W  A    A  R    R  N    N  II  N    N   GGGG   !!!           |
|                                                                             |
|      For optimal performance we recommend to set                            |
|        NCORE= 4 - approx SQRT( number of cores)                             |
|      NCORE specifies how many cores store one orbital (NPAR=cpu/NCORE).     |
|      This setting can  greatly improve the performance of VASP for DFT.     |
|      The default,   NCORE=1            might be grossly inefficient         |
|      on modern multi-core architectures or massively parallel machines.     |
|      Do your own testing !!!!                                               |
|      Unfortunately you need to use the default for GW and RPA calculations. |
|      (for HF NCORE is supported but not extensively tested yet)             |
|                                                                             |
 ----------------------------------------------------------------------------- 

 LDA part: xc-table for Pade appr. of Perdew
 POSCAR, INCAR and KPOINTS ok, starting setup
 FFT: planning ...
 WAVECAR not read
 entering main loop
       N       E                     dE             d eps       ncg     rms          rms(c)
DAV:   1     0.284947277749E+04    0.28495E+04   -0.16160E+05  1520   0.882E+02
DAV:   2    -0.138055671606E+03   -0.29875E+04   -0.28863E+04  1640   0.275E+02
DAV:   3    -0.301245850956E+03   -0.16319E+03   -0.15637E+03  1780   0.775E+01
DAV:   4    -0.305194714850E+03   -0.39489E+01   -0.38869E+01  1660   0.136E+01
DAV:   5    -0.305293360058E+03   -0.98645E-01   -0.98573E-01  1720   0.158E+00    0.545E+01
RMM:   6    -0.388167421717E+03   -0.82874E+02   -0.57888E+02  1522   0.647E+01    0.128E+02
RMM:   7    -0.327682722859E+03    0.60485E+02   -0.27708E+02  1522   0.425E+01    0.807E+01
RMM:   8    -0.295358381846E+03    0.32324E+02   -0.10596E+02  1525   0.271E+01    0.869E+01
RMM:   9    -0.278342249231E+03    0.17016E+02   -0.47558E+01  1525   0.183E+01    0.749E+01
RMM:  10    -0.264027610257E+03    0.14315E+02   -0.19872E+01  1527   0.108E+01    0.472E+01
RMM:  11    -0.260473363225E+03    0.35542E+01   -0.62409E+00  1528   0.622E+00    0.517E+01
RMM:  12    -0.256299036645E+03    0.41743E+01   -0.74864E+00  1528   0.675E+00    0.430E+01
RMM:  13    -0.254308100513E+03    0.19909E+01   -0.54557E+00  1528   0.591E+00    0.421E+01
RMM:  14    -0.252169850984E+03    0.21382E+01   -0.28934E+00  1528   0.423E+00    0.329E+01
RMM:  15    -0.250884956861E+03    0.12849E+01   -0.12808E+00  1528   0.278E+00    0.254E+01
RMM:  16    -0.250326513146E+03    0.55844E+00   -0.11364E+00  1528   0.255E+00    0.211E+01
RMM:  17    -0.250773375116E+03   -0.44686E+00   -0.12684E+00  1528   0.262E+00    0.199E+01
RMM:  18    -0.251231217411E+03   -0.45784E+00   -0.53368E-01  1528   0.172E+00    0.197E+01
RMM:  19    -0.250972455675E+03    0.25876E+00   -0.26840E-01  1527   0.125E+00    0.127E+01
RMM:  20    -0.251421765331E+03   -0.44931E+00   -0.39763E-01  1528   0.148E+00    0.141E+01
RMM:  21    -0.252988564381E+03   -0.15668E+01   -0.12143E+00  1524   0.250E+00    0.238E+01
RMM:  22    -0.252854948030E+03    0.13362E+00   -0.10721E+00  1527   0.244E+00    0.137E+01
RMM:  23    -0.252783002991E+03    0.71945E-01   -0.22688E-01  1528   0.113E+00    0.107E+01
RMM:  24    -0.252858598771E+03   -0.75596E-01   -0.12220E-01  1527   0.805E-01    0.110E+01
RMM:  25    -0.252926539103E+03   -0.67940E-01   -0.21037E-01  1525   0.101E+00    0.116E+01
RMM:  26    -0.252858499502E+03    0.68040E-01   -0.83857E-02  1527   0.630E-01    0.976E+00
RMM:  27    -0.253263396220E+03   -0.40490E+00   -0.32209E-01  1524   0.111E+00    0.947E+00
RMM:  28    -0.253484802197E+03   -0.22141E+00   -0.25541E-01  1525   0.105E+00    0.577E+00
RMM:  29    -0.253781554521E+03   -0.29675E+00   -0.17443E-01  1527   0.926E-01    0.767E+00
RMM:  30    -0.254156206210E+03   -0.37465E+00   -0.11028E-01  1525   0.749E-01    0.531E+00
RMM:  31    -0.254255404524E+03   -0.99198E-01   -0.59699E-02  1527   0.579E-01    0.456E+00
RMM:  32    -0.254698048946E+03   -0.44264E+00   -0.79099E-02  1525   0.560E-01    0.402E+00
RMM:  33    -0.255261096482E+03   -0.56305E+00   -0.10266E-01  1523   0.600E-01    0.233E+00
RMM:  34    -0.255701404700E+03   -0.44031E+00   -0.64916E-02  1524   0.500E-01    0.300E+00
RMM:  35    -0.256306213752E+03   -0.60481E+00   -0.65846E-02  1524   0.445E-01    0.372E+00
RMM:  36    -0.256786483489E+03   -0.48027E+00   -0.47662E-02  1523   0.397E-01    0.315E+00
RMM:  37    -0.257076814673E+03   -0.29033E+00   -0.22806E-02  1524   0.292E-01    0.286E+00
RMM:  38    -0.257644539920E+03   -0.56773E+00   -0.46731E-02  1522   0.321E-01    0.243E+00
RMM:  39    -0.258007040080E+03   -0.36250E+00   -0.29416E-02  1522   0.290E-01    0.179E+00
RMM:  40    -0.258462984781E+03   -0.45594E+00   -0.36221E-02  1525   0.301E-01    0.259E+00
RMM:  41    -0.259147073148E+03   -0.68409E+00   -0.67872E-02  1521   0.314E-01    0.180E+00
RMM:  42    -0.259381194624E+03   -0.23412E+00   -0.20909E-02  1523   0.232E-01    0.143E+00
RMM:  43    -0.259851970239E+03   -0.47078E+00   -0.51430E-02  1522   0.279E-01    0.150E+00
RMM:  44    -0.260050092915E+03   -0.19812E+00   -0.18069E-02  1523   0.211E-01    0.963E-01
RMM:  45    -0.260185594234E+03   -0.13550E+00   -0.85740E-03  1525   0.159E-01    0.126E+00
RMM:  46    -0.260363749871E+03   -0.17816E+00   -0.10184E-02  1522   0.149E-01    0.928E-01
RMM:  47    -0.260440416448E+03   -0.76667E-01   -0.47090E-03  1524   0.129E-01    0.844E-01
RMM:  48    -0.260555283711E+03   -0.11487E+00   -0.66557E-03  1523   0.126E-01    0.672E-01
RMM:  49    -0.260584585937E+03   -0.29302E-01   -0.18389E-03  1527   0.845E-02    0.489E-01
RMM:  50    -0.260609633167E+03   -0.25047E-01   -0.11397E-03  1524   0.637E-02    0.528E-01
RMM:  51    -0.260658257716E+03   -0.48625E-01   -0.28773E-03  1522   0.883E-02    0.384E-01
RMM:  52    -0.260674432838E+03   -0.16175E-01   -0.10170E-03  1527   0.619E-02    0.341E-01
RMM:  53    -0.260704692694E+03   -0.30260E-01   -0.22582E-03  1523   0.668E-02    0.303E-01
RMM:  54    -0.260710613778E+03   -0.59211E-02   -0.62177E-04  1526   0.479E-02    0.172E-01
RMM:  55    -0.260719551646E+03   -0.89379E-02   -0.85868E-04  1522   0.413E-02    0.225E-01
RMM:  56    -0.260718043414E+03    0.15082E-02   -0.36958E-04  1524   0.432E-02    0.337E-01
RMM:  57    -0.260721641904E+03   -0.35985E-02   -0.33311E-04  1522   0.331E-02    0.133E-01
RMM:  58    -0.260722975727E+03   -0.13338E-02   -0.14368E-04  1523   0.238E-02    0.135E-01
RMM:  59    -0.260724530745E+03   -0.15550E-02   -0.17391E-04  1523   0.219E-02    0.862E-02
RMM:  60    -0.260726437064E+03   -0.19063E-02   -0.16399E-04  1523   0.221E-02    0.117E-01
RMM:  61    -0.260727805222E+03   -0.13682E-02   -0.13505E-04  1523   0.226E-02    0.110E-01
RMM:  62    -0.260728813039E+03   -0.10078E-02   -0.74065E-05  1519   0.161E-02    0.749E-02
RMM:  63    -0.260729632868E+03   -0.81983E-03   -0.54977E-05  1519   0.133E-02    0.728E-02
RMM:  64    -0.260730747123E+03   -0.11143E-02   -0.79659E-05  1517   0.120E-02    0.385E-02
RMM:  65    -0.260731332662E+03   -0.58554E-03   -0.36258E-05  1516   0.975E-03    0.516E-02
RMM:  66    -0.260731754430E+03   -0.42177E-03   -0.31492E-05  1518   0.103E-02    0.538E-02
RMM:  67    -0.260732191011E+03   -0.43658E-03   -0.25273E-05  1512   0.877E-03    0.428E-02
RMM:  68    -0.260732677030E+03   -0.48602E-03   -0.33099E-05  1492   0.707E-03    0.352E-02
RMM:  69    -0.260732777612E+03   -0.10058E-03   -0.12044E-05  1360   0.528E-03    0.334E-02
RMM:  70    -0.260732938400E+03   -0.16079E-03   -0.43441E-06  1077   0.363E-03    0.126E-02
RMM:  71    -0.260733166548E+03   -0.22815E-03   -0.78725E-06  1313   0.489E-03    0.280E-02
RMM:  72    -0.260733193503E+03   -0.26954E-04   -0.33965E-06  1103   0.413E-03    0.172E-02
RMM:  73    -0.260733275149E+03   -0.81647E-04   -0.53345E-06  1154   0.340E-03    0.107E-02
RMM:  74    -0.260733323591E+03   -0.48442E-04   -0.13167E-06   959   0.245E-03    0.116E-02
RMM:  75    -0.260733513643E+03   -0.19005E-03   -0.44414E-06  1085   0.293E-03    0.102E-02
RMM:  76    -0.260733537359E+03   -0.23716E-04   -0.90699E-07   940   0.214E-03    0.113E-02
RMM:  77    -0.260733568668E+03   -0.31309E-04   -0.12978E-06   970   0.220E-03    0.657E-03
RMM:  78    -0.260733608171E+03   -0.39503E-04   -0.79612E-07   945   0.169E-03    0.776E-03
RMM:  79    -0.260733678007E+03   -0.69836E-04   -0.14084E-06   986   0.182E-03    0.649E-03
RMM:  80    -0.260733694812E+03   -0.16805E-04   -0.48997E-07   932   0.136E-03    0.406E-03
RMM:  81    -0.260733703075E+03   -0.82630E-05   -0.22635E-07   908   0.101E-03    0.436E-03
RMM:  82    -0.260733707160E+03   -0.40847E-05   -0.22441E-07   909   0.897E-04    0.304E-03
RMM:  83    -0.260733706465E+03    0.69423E-06   -0.10879E-07   853   0.610E-04
   1 F= -.26073371E+03 E0= -.26039075E+03  d E =-.260734E+03  mag=    38.4953
 curvature:   0.00 expect dE= 0.000E+00 dE for cont linesearch  0.000E+00
 trial: gam= 0.00000 g(F)=  0.319E+01 g(S)=  0.000E+00 ort = 0.000E+00 (trialstep = 0.100E+01)
 search vector abs. value=  0.319E+01
 bond charge predicted
       N       E                     dE             d eps       ncg     rms          rms(c)
DAV:   1    -0.261804926727E+03   -0.10712E+01   -0.19540E+02  1580   0.199E+01    0.459E+00
RMM:   2    -0.264520909630E+03   -0.27160E+01   -0.11144E+01  1526   0.776E+00    0.185E+01
RMM:   3    -0.262959810201E+03    0.15611E+01   -0.22698E+00  1529   0.377E+00    0.182E+01
RMM:   4    -0.262339358218E+03    0.62045E+00   -0.53840E-01  1529   0.174E+00    0.608E+00
RMM:   5    -0.262366038488E+03   -0.26680E-01   -0.17955E-01  1529   0.101E+00    0.687E+00
RMM:   6    -0.262324832189E+03    0.41206E-01   -0.12246E-01  1528   0.847E-01    0.621E+00
RMM:   7    -0.262223672475E+03    0.10116E+00   -0.98913E-02  1528   0.801E-01    0.274E+00
RMM:   8    -0.262243901326E+03   -0.20229E-01   -0.63969E-02  1528   0.604E-01    0.497E+00
RMM:   9    -0.262178394857E+03    0.65506E-01   -0.54884E-02  1532   0.578E-01    0.415E+00
RMM:  10    -0.262136624655E+03    0.41770E-01   -0.29661E-02  1529   0.430E-01    0.202E+00
RMM:  11    -0.262142236620E+03   -0.56120E-02   -0.20886E-02  1528   0.352E-01    0.315E+00
RMM:  12    -0.262122799972E+03    0.19437E-01   -0.15869E-02  1528   0.322E-01    0.190E+00
RMM:  13    -0.262115271182E+03    0.75288E-02   -0.75002E-03  1528   0.225E-01    0.774E-01
RMM:  14    -0.262118312163E+03   -0.30410E-02   -0.37985E-03  1528   0.150E-01    0.107E+00
RMM:  15    -0.262119334690E+03   -0.10225E-02   -0.23697E-03  1527   0.122E-01    0.112E+00
RMM:  16    -0.262119617942E+03   -0.28325E-03   -0.17174E-03  1528   0.105E-01    0.399E-01
RMM:  17    -0.262128181523E+03   -0.85636E-02   -0.15228E-03  1528   0.891E-02    0.564E-01
RMM:  18    -0.262141686933E+03   -0.13505E-01   -0.14099E-03  1527   0.792E-02    0.607E-01
RMM:  19    -0.262152835575E+03   -0.11149E-01   -0.12579E-03  1527   0.768E-02    0.393E-01
RMM:  20    -0.262160756256E+03   -0.79207E-02   -0.70793E-04  1528   0.577E-02    0.264E-01
RMM:  21    -0.262182788764E+03   -0.22033E-01   -0.13234E-03  1526   0.596E-02    0.382E-01
RMM:  22    -0.262193004339E+03   -0.10216E-01   -0.61162E-04  1526   0.501E-02    0.209E-01
RMM:  23    -0.262198579983E+03   -0.55756E-02   -0.19566E-04  1528   0.294E-02    0.222E-01
RMM:  24    -0.262217389922E+03   -0.18810E-01   -0.49193E-04  1523   0.335E-02    0.288E-01
RMM:  25    -0.262226269898E+03   -0.88800E-02   -0.24419E-04  1527   0.297E-02    0.123E-01
RMM:  26    -0.262241119951E+03   -0.14850E-01   -0.44189E-04  1527   0.361E-02    0.240E-01
RMM:  27    -0.262262338579E+03   -0.21219E-01   -0.96377E-04  1524   0.396E-02    0.122E-01
RMM:  28    -0.262266452833E+03   -0.41143E-02   -0.15538E-04  1528   0.221E-02    0.114E-01
RMM:  29    -0.262274373899E+03   -0.79211E-02   -0.21893E-04  1526   0.228E-02    0.187E-01
RMM:  30    -0.262279882324E+03   -0.55084E-02   -0.18292E-04  1523   0.208E-02    0.912E-02
RMM:  31    -0.262281793646E+03   -0.19113E-02   -0.56916E-05  1522   0.140E-02    0.673E-02
RMM:  32    -0.262287272801E+03   -0.54792E-02   -0.18946E-04  1520   0.161E-02    0.901E-02
RMM:  33    -0.262288716395E+03   -0.14436E-02   -0.49063E-05  1518   0.115E-02    0.359E-02
RMM:  34    -0.262290098383E+03   -0.13820E-02   -0.22481E-05  1513   0.818E-03    0.516E-02
RMM:  35    -0.262292857509E+03   -0.27591E-02   -0.57566E-05  1514   0.869E-03    0.284E-02
RMM:  36    -0.262293682667E+03   -0.82516E-03   -0.15709E-05  1437   0.590E-03    0.251E-02
RMM:  37    -0.262295516141E+03   -0.18335E-02   -0.68495E-05  1506   0.718E-03    0.308E-02
RMM:  38    -0.262295853240E+03   -0.33710E-03   -0.14425E-05  1301   0.460E-03    0.163E-02
RMM:  39    -0.262296322369E+03   -0.46913E-03   -0.12791E-05  1275   0.389E-03    0.221E-02
RMM:  40    -0.262296608446E+03   -0.28608E-03   -0.70701E-06  1167   0.344E-03    0.115E-02
RMM:  41    -0.262296883308E+03   -0.27486E-03   -0.40070E-06  1091   0.267E-03    0.143E-02
RMM:  42    -0.262297192000E+03   -0.30869E-03   -0.51898E-06  1156   0.297E-03    0.776E-03
RMM:  43    -0.262297361763E+03   -0.16976E-03   -0.12631E-06   954   0.177E-03    0.103E-02
RMM:  44    -0.262297695636E+03   -0.33387E-03   -0.30877E-06  1071   0.215E-03    0.483E-03
RMM:  45    -0.262297814159E+03   -0.11852E-03   -0.83779E-07   943   0.146E-03    0.496E-03
RMM:  46    -0.262298182173E+03   -0.36801E-03   -0.49624E-06  1131   0.199E-03    0.538E-03
RMM:  47    -0.262298242120E+03   -0.59947E-04   -0.48159E-07   931   0.116E-03    0.250E-03
RMM:  48    -0.262298451730E+03   -0.20961E-03   -0.27134E-06  1041   0.133E-03    0.279E-03
RMM:  49    -0.262298484910E+03   -0.33180E-04   -0.27200E-07   910   0.813E-04    0.193E-03
RMM:  50    -0.262298562895E+03   -0.77985E-04   -0.56263E-07   920   0.770E-04    0.280E-03
RMM:  51    -0.262298594063E+03   -0.31168E-04   -0.24348E-07   899   0.705E-04    0.128E-03
RMM:  52    -0.262298615755E+03   -0.21693E-04   -0.23497E-07   795   0.570E-04    0.148E-03
RMM:  53    -0.262298626169E+03   -0.10414E-04   -0.90708E-08   710   0.480E-04    0.109E-03
RMM:  54    -0.262298631121E+03   -0.49521E-05   -0.37818E-08   506   0.368E-04    0.590E-04
RMM:  55    -0.262298635859E+03   -0.47378E-05   -0.33920E-08   497   0.348E-04    0.547E-04
RMM:  56    -0.262298637869E+03   -0.20098E-05   -0.23071E-08   440   0.323E-04    0.403E-04
RMM:  57    -0.262298639161E+03   -0.12917E-05   -0.88627E-09   338   0.304E-04    0.609E-04
RMM:  58    -0.262298639909E+03   -0.74827E-06   -0.12424E-08   347   0.301E-04
   2 F= -.26229864E+03 E0= -.26195181E+03  d E =-.156493E+01  mag=    39.8657
 trial-energy change:   -1.564933  1 .order   -1.781266   -3.194106   -0.368425
 step:   1.3385(harm=  1.1304)  dis= 0.16822  next Energy=  -262.352610 (dE=-0.162E+01)
 bond charge predicted
       N       E                     dE             d eps       ncg     rms          rms(c)
DAV:   1    -0.262274973977E+03    0.23665E-01   -0.20661E+01  1580   0.662E+00    0.139E+00
RMM:   2    -0.262463921426E+03   -0.18895E+00   -0.82016E-01  1527   0.207E+00    0.648E+00
RMM:   3    -0.262370733705E+03    0.93188E-01   -0.19501E-01  1550   0.103E+00    0.487E+00
RMM:   4    -0.262352778753E+03    0.17955E-01   -0.49472E-02  1529   0.528E-01    0.320E+00
RMM:   5    -0.262352595441E+03    0.18331E-03   -0.22841E-02  1528   0.380E-01    0.350E+00
RMM:   6    -0.262324135361E+03    0.28460E-01   -0.14183E-02  1528   0.304E-01    0.105E+00
RMM:   7    -0.262325419232E+03   -0.12839E-02   -0.60385E-03  1528   0.187E-01    0.101E+00
RMM:   8    -0.262323827698E+03    0.15915E-02   -0.60269E-03  1528   0.175E-01    0.152E+00
RMM:   9    -0.262317430785E+03    0.63969E-02   -0.37950E-03  1529   0.152E-01    0.839E-01
RMM:  10    -0.262316928939E+03    0.50185E-03   -0.26237E-03  1529   0.123E-01    0.853E-01
RMM:  11    -0.262315809107E+03    0.11198E-02   -0.24929E-03  1528   0.122E-01    0.110E+00
RMM:  12    -0.262312815906E+03    0.29932E-02   -0.15634E-03  1528   0.103E-01    0.352E-01
RMM:  13    -0.262312897189E+03   -0.81283E-04   -0.57019E-04  1528   0.587E-02    0.283E-01
RMM:  14    -0.262313276252E+03   -0.37906E-03   -0.31629E-04  1528   0.446E-02    0.393E-01
RMM:  15    -0.262313033364E+03    0.24289E-03   -0.17449E-04  1528   0.345E-02    0.189E-01
RMM:  16    -0.262313408411E+03   -0.37505E-03   -0.15462E-04  1528   0.308E-02    0.130E-01
RMM:  17    -0.262314661991E+03   -0.12536E-02   -0.16307E-04  1528   0.284E-02    0.179E-01
RMM:  18    -0.262315908875E+03   -0.12469E-02   -0.13254E-04  1528   0.256E-02    0.160E-01
RMM:  19    -0.262316520688E+03   -0.61181E-03   -0.65310E-05  1527   0.186E-02    0.787E-02
RMM:  20    -0.262317628468E+03   -0.11078E-02   -0.51807E-05  1527   0.153E-02    0.958E-02
RMM:  21    -0.262320885491E+03   -0.32570E-02   -0.14591E-04  1521   0.170E-02    0.755E-02
RMM:  22    -0.262321596839E+03   -0.71135E-03   -0.29302E-05  1521   0.107E-02    0.450E-02
RMM:  23    -0.262322842781E+03   -0.12459E-02   -0.25817E-05  1520   0.948E-03    0.848E-02
RMM:  24    -0.262324817032E+03   -0.19743E-02   -0.43244E-05  1516   0.986E-03    0.529E-02
RMM:  25    -0.262325605783E+03   -0.78875E-03   -0.16437E-05  1500   0.765E-03    0.349E-02
RMM:  26    -0.262327985646E+03   -0.23799E-02   -0.60901E-05  1520   0.103E-02    0.710E-02
RMM:  27    -0.262330031279E+03   -0.20456E-02   -0.79484E-05  1517   0.103E-02    0.241E-02
RMM:  28    -0.262330550135E+03   -0.51886E-03   -0.13958E-05  1436   0.564E-03    0.365E-02
RMM:  29    -0.262331424523E+03   -0.87439E-03   -0.20855E-05  1446   0.565E-03    0.412E-02
RMM:  30    -0.262331879700E+03   -0.45518E-03   -0.11142E-05  1362   0.492E-03    0.124E-02
RMM:  31    -0.262332085472E+03   -0.20577E-03   -0.25611E-06  1014   0.282E-03    0.151E-02
RMM:  32    -0.262332674485E+03   -0.58901E-03   -0.95389E-06  1204   0.349E-03    0.148E-02
RMM:  33    -0.262332830880E+03   -0.15639E-03   -0.19141E-06   971   0.232E-03    0.673E-03
RMM:  34    -0.262333193001E+03   -0.36212E-03   -0.52351E-06  1118   0.253E-03    0.134E-02
RMM:  35    -0.262333434073E+03   -0.24107E-03   -0.37798E-06  1065   0.241E-03    0.550E-03
RMM:  36    -0.262333558620E+03   -0.12455E-03   -0.15397E-06   957   0.168E-03    0.738E-03
RMM:  37    -0.262333715926E+03   -0.15731E-03   -0.43152E-06  1109   0.205E-03    0.425E-03
RMM:  38    -0.262333731863E+03   -0.15938E-04   -0.42147E-07   928   0.109E-03    0.365E-03
RMM:  39    -0.262333776546E+03   -0.44683E-04   -0.11622E-06   964   0.108E-03    0.259E-03
RMM:  40    -0.262333788138E+03   -0.11592E-04   -0.17970E-07   887   0.779E-04    0.186E-03
RMM:  41    -0.262333833573E+03   -0.45435E-04   -0.40494E-07   906   0.710E-04    0.279E-03
RMM:  42    -0.262333856156E+03   -0.22583E-04   -0.18308E-07   871   0.653E-04    0.112E-03
RMM:  43    -0.262333889072E+03   -0.32916E-04   -0.19043E-07   836   0.575E-04    0.232E-03
RMM:  44    -0.262333923140E+03   -0.34068E-04   -0.24743E-07   836   0.581E-04    0.996E-04
RMM:  45    -0.262333937161E+03   -0.14021E-04   -0.71482E-08   696   0.453E-04    0.124E-03
RMM:  46    -0.262333965995E+03   -0.28834E-04   -0.21301E-07   782   0.489E-04    0.701E-04
RMM:  47    -0.262333964532E+03    0.14625E-05   -0.23744E-08   538   0.372E-04    0.122E-03
RMM:  48    -0.262333982754E+03   -0.18222E-04   -0.80937E-08   542   0.372E-04    0.625E-04
RMM:  49    -0.262333990899E+03   -0.81444E-05   -0.81285E-08   584   0.363E-04    0.601E-04
RMM:  50    -0.262333993998E+03   -0.30995E-05   -0.29809E-08   428   0.312E-04    0.415E-04
RMM:  51    -0.262333999876E+03   -0.58775E-05   -0.53045E-08   481   0.334E-04    0.501E-04
RMM:  52    -0.262334000746E+03   -0.87059E-06   -0.20413E-09   286   0.286E-04
   3 F= -.26233400E+03 E0= -.26198931E+03  d E =-.160029E+01  mag=    40.2575
 curvature:   0.88 expect dE= 0.612E-01 dE for cont linesearch  0.512E-02
 ZBRENT: interpolating
 opt :   1.2469  next Energy=  -262.340262 (dE=-0.161E+01)
 bond charge predicted
       N       E                     dE             d eps       ncg     rms          rms(c)
DAV:   1    -0.262336620512E+03   -0.26206E-02   -0.14928E+00  1600   0.180E+00    0.355E-01
RMM:   2    -0.262346668498E+03   -0.10048E-01   -0.50285E-02  1529   0.466E-01    0.161E+00
RMM:   3    -0.262342561997E+03    0.41065E-02   -0.11800E-02  1551   0.246E-01    0.120E+00
RMM:   4    -0.262342611716E+03   -0.49719E-04   -0.35226E-03  1528   0.143E-01    0.103E+00
RMM:   5    -0.262341255926E+03    0.13558E-02   -0.17534E-03  1528   0.108E-01    0.869E-01
RMM:   6    -0.262339542339E+03    0.17136E-02   -0.95238E-04  1528   0.787E-02    0.249E-01
RMM:   7    -0.262339778387E+03   -0.23605E-03   -0.33288E-04  1528   0.431E-02    0.240E-01
RMM:   8    -0.262339299025E+03    0.47936E-03   -0.37823E-04  1528   0.412E-02    0.331E-01
RMM:   9    -0.262338833120E+03    0.46591E-03   -0.24077E-04  1531   0.373E-02    0.215E-01
RMM:  10    -0.262338742005E+03    0.91115E-04   -0.16403E-04  1531   0.301E-02    0.203E-01
RMM:  11    -0.262338485353E+03    0.25665E-03   -0.16062E-04  1528   0.304E-02    0.247E-01
RMM:  12    -0.262338275076E+03    0.21028E-03   -0.79357E-05  1526   0.233E-02    0.745E-02
RMM:  13    -0.262338304637E+03   -0.29561E-04   -0.25988E-05  1520   0.124E-02    0.586E-02
RMM:  14    -0.262338333111E+03   -0.28474E-04   -0.14572E-05  1516   0.960E-03    0.627E-02
RMM:  15    -0.262338328868E+03    0.42433E-05   -0.78651E-06  1454   0.725E-03    0.482E-02
RMM:  16    -0.262338372969E+03   -0.44101E-04   -0.66163E-06  1456   0.621E-03    0.399E-02
RMM:  17    -0.262338514310E+03   -0.14134E-03   -0.12386E-05  1489   0.736E-03    0.408E-02
RMM:  18    -0.262338629241E+03   -0.11493E-03   -0.93530E-06  1457   0.651E-03    0.283E-02
RMM:  19    -0.262338688989E+03   -0.59748E-04   -0.28945E-06  1039   0.389E-03    0.186E-02
RMM:  20    -0.262338818000E+03   -0.12901E-03   -0.29469E-06  1037   0.373E-03    0.234E-02
RMM:  21    -0.262339122618E+03   -0.30462E-03   -0.67341E-06  1233   0.422E-03    0.150E-02
RMM:  22    -0.262339208851E+03   -0.86232E-04   -0.14644E-06   963   0.254E-03    0.988E-03
RMM:  23    -0.262339496017E+03   -0.28717E-03   -0.39267E-06  1079   0.297E-03    0.209E-02
RMM:  24    -0.262339751867E+03   -0.25585E-03   -0.39856E-06  1089   0.314E-03    0.121E-02
RMM:  25    -0.262339845834E+03   -0.93966E-04   -0.11593E-06   957   0.198E-03    0.937E-03
RMM:  26    -0.262340145124E+03   -0.29929E-03   -0.45519E-06  1108   0.260E-03    0.154E-02
RMM:  27    -0.262340357509E+03   -0.21239E-03   -0.39229E-06  1065   0.265E-03    0.508E-03
RMM:  28    -0.262340442677E+03   -0.85168E-04   -0.11231E-06   965   0.169E-03    0.841E-03
RMM:  29    -0.262340590814E+03   -0.14814E-03   -0.21355E-06  1017   0.179E-03    0.879E-03
RMM:  30    -0.262340643285E+03   -0.52471E-04   -0.60271E-07   935   0.140E-03    0.287E-03
RMM:  31    -0.262340679800E+03   -0.36516E-04   -0.26735E-07   912   0.897E-04    0.378E-03
RMM:  32    -0.262340766920E+03   -0.87120E-04   -0.66567E-07   956   0.982E-04    0.297E-03
RMM:  33    -0.262340792654E+03   -0.25734E-04   -0.17759E-07   889   0.720E-04    0.192E-03
RMM:  34    -0.262340868425E+03   -0.75770E-04   -0.10411E-06   977   0.906E-04    0.288E-03
RMM:  35    -0.262340884840E+03   -0.16415E-04   -0.26227E-07   898   0.715E-04    0.983E-04
RMM:  36    -0.262340897631E+03   -0.12791E-04   -0.23701E-07   850   0.568E-04    0.184E-03
RMM:  37    -0.262340903334E+03   -0.57035E-05   -0.14210E-07   852   0.527E-04    0.105E-03
RMM:  38    -0.262340905241E+03   -0.19067E-05   -0.36982E-08   570   0.372E-04    0.105E-03
RMM:  39    -0.262340908182E+03   -0.29406E-05   -0.79926E-08   597   0.383E-04    0.520E-04
RMM:  40    -0.262340909475E+03   -0.12929E-05   -0.14159E-08   410   0.321E-04    0.555E-04
RMM:  41    -0.262340913717E+03   -0.42418E-05   -0.48070E-08   524   0.352E-04    0.526E-04
RMM:  42    -0.262340914974E+03   -0.12571E-05   -0.97290E-09   341   0.300E-04    0.437E-04
RMM:  43    -0.262340918948E+03   -0.39743E-05   -0.46856E-08   511   0.330E-04    0.428E-04
RMM:  44    -0.262340920369E+03   -0.14215E-05   -0.95835E-09   318   0.288E-04    0.299E-04
RMM:  45    -0.262340923887E+03   -0.35175E-05   -0.35915E-08   454   0.314E-04    0.292E-04
RMM:  46    -0.262340925138E+03   -0.12506E-05   -0.78423E-09   313   0.289E-04    0.219E-04
RMM:  47    -0.262340925882E+03   -0.74426E-06   -0.30594E-09   281   0.283E-04
   4 F= -.26234093E+03 E0= -.26199555E+03  d E =-.160722E+01  mag=    40.1647
 curvature:  -1.07 expect dE=-0.640E-01 dE for cont linesearch -0.510E-04
 ZBRENT: interpolating
 opt :   1.2381  next Energy=  -262.340982 (dE=-0.161E+01)
 bond charge predicted
       N       E                     dE             d eps       ncg     rms          rms(c)
DAV:   1    -0.262340940824E+03   -0.15686E-04   -0.13776E-02  1620   0.172E-01    0.344E-02
RMM:   2    -0.262341029273E+03   -0.88449E-04   -0.48092E-04  1529   0.466E-02    0.158E-01
RMM:   3    -0.262340973923E+03    0.55350E-04   -0.11404E-04  1554   0.242E-02    0.117E-01
RMM:   4    -0.262340975250E+03   -0.13268E-05   -0.32699E-05  1523   0.138E-02    0.953E-02
RMM:   5    -0.262340962715E+03    0.12535E-04   -0.16150E-05  1512   0.103E-02    0.861E-02
RMM:   6    -0.262340944499E+03    0.18216E-04   -0.91216E-06  1473   0.773E-03    0.248E-02
RMM:   7    -0.262340949837E+03   -0.53378E-05   -0.31076E-06  1076   0.434E-03    0.241E-02
RMM:   8    -0.262340934612E+03    0.15225E-04   -0.39294E-06  1125   0.447E-03    0.325E-02
RMM:   9    -0.262340924082E+03    0.10530E-04   -0.24540E-06   958   0.420E-03    0.212E-02
RMM:  10    -0.262340920185E+03    0.38974E-05   -0.15582E-06   918   0.311E-03    0.206E-02
RMM:  11    -0.262340910024E+03    0.10160E-04   -0.17144E-06   936   0.341E-03    0.245E-02
RMM:  12    -0.262340905575E+03    0.44490E-05   -0.90585E-07   905   0.280E-03    0.756E-03
RMM:  13    -0.262340905231E+03    0.34460E-06   -0.30993E-07   882   0.142E-03
   5 F= -.26234091E+03 E0= -.26199546E+03  d E =-.160720E+01  mag=    40.1605
 curvature:  -1.18 expect dE=-0.696E-01 dE for cont linesearch -0.342E-08
 trial: gam= 0.01851 g(F)=  0.592E-01 g(S)=  0.000E+00 ort = 0.965E-04 (trialstep = 0.105E+01)
 search vector abs. value=  0.603E-01
 bond charge predicted
       N       E                     dE             d eps       ncg     rms          rms(c)
DAV:   1    -0.262389136496E+03   -0.48231E-01   -0.45822E+00  1600   0.340E+00    0.636E-01
RMM:   2    -0.262455017693E+03   -0.65881E-01   -0.11302E-01  1528   0.856E-01    0.534E+00
RMM:   3    -0.262392516003E+03    0.62502E-01   -0.33232E-02  1550   0.452E-01    0.159E+00
RMM:   4    -0.262401001335E+03   -0.84853E-02   -0.11899E-02  1530   0.261E-01    0.167E+00
RMM:   5    -0.262400588710E+03    0.41262E-03   -0.56011E-03  1528   0.192E-01    0.153E+00
RMM:   6    -0.262395571895E+03    0.50168E-02   -0.32991E-03  1528   0.153E-01    0.357E-01
RMM:   7    -0.262396536717E+03   -0.96482E-03   -0.88303E-04  1528   0.728E-02    0.465E-01
RMM:   8    -0.262396844091E+03   -0.30737E-03   -0.73051E-04  1528   0.652E-02    0.647E-01
RMM:   9    -0.262395917016E+03    0.92708E-03   -0.61427E-04  1528   0.622E-02    0.305E-01
RMM:  10    -0.262396038800E+03   -0.12178E-03   -0.42827E-04  1528   0.511E-02    0.248E-01
RMM:  11    -0.262396258384E+03   -0.21958E-03   -0.38796E-04  1528   0.479E-02    0.405E-01
RMM:  12    -0.262395886301E+03    0.37208E-03   -0.26081E-04  1528   0.419E-02    0.170E-01
RMM:  13    -0.262395910925E+03   -0.24624E-04   -0.96515E-05  1529   0.246E-02    0.122E-01
RMM:  14    -0.262395916157E+03   -0.52316E-05   -0.38700E-05  1520   0.153E-02    0.107E-01
RMM:  15    -0.262395912002E+03    0.41547E-05   -0.28042E-05  1520   0.136E-02    0.708E-02
RMM:  16    -0.262395914836E+03   -0.28335E-05   -0.20769E-05  1522   0.118E-02    0.343E-02
RMM:  17    -0.262395936328E+03   -0.21492E-04   -0.85419E-06  1487   0.698E-03    0.489E-02
RMM:  18    -0.262395972217E+03   -0.35889E-04   -0.93126E-06  1490   0.701E-03    0.531E-02
RMM:  19    -0.262395985560E+03   -0.13343E-04   -0.55633E-06  1358   0.588E-03    0.958E-03
RMM:  20    -0.262396014292E+03   -0.28733E-04   -0.18725E-06   945   0.319E-03    0.171E-02
RMM:  21    -0.262396070061E+03   -0.55768E-04   -0.18987E-06   969   0.320E-03    0.101E-02
RMM:  22    -0.262396083053E+03   -0.12992E-04   -0.52382E-07   905   0.178E-03    0.638E-03
RMM:  23    -0.262396111669E+03   -0.28616E-04   -0.38673E-07   910   0.137E-03    0.104E-02
RMM:  24    -0.262396165216E+03   -0.53547E-04   -0.55730E-07   927   0.149E-03    0.441E-03
RMM:  25    -0.262396181823E+03   -0.16607E-04   -0.18480E-07   901   0.956E-04    0.357E-03
RMM:  26    -0.262396247962E+03   -0.66139E-04   -0.55587E-07   933   0.100E-03    0.573E-03
RMM:  27    -0.262396285655E+03   -0.37692E-04   -0.35419E-07   921   0.108E-03    0.297E-03
RMM:  28    -0.262396313664E+03   -0.28009E-04   -0.21696E-07   901   0.791E-04    0.504E-03
RMM:  29    -0.262396379810E+03   -0.66146E-04   -0.75982E-07   937   0.100E-03    0.493E-03
RMM:  30    -0.262396401164E+03   -0.21354E-04   -0.23490E-07   902   0.847E-04    0.157E-03
RMM:  31    -0.262396427625E+03   -0.26461E-04   -0.23845E-07   881   0.684E-04    0.326E-03
RMM:  32    -0.262396457002E+03   -0.29377E-04   -0.32181E-07   906   0.724E-04    0.158E-03
RMM:  33    -0.262396464546E+03   -0.75444E-05   -0.67599E-08   752   0.505E-04    0.143E-03
RMM:  34    -0.262396490137E+03   -0.25591E-04   -0.31955E-07   905   0.581E-04    0.225E-03
RMM:  35    -0.262396497899E+03   -0.77620E-05   -0.99626E-08   818   0.509E-04    0.107E-03
RMM:  36    -0.262396505180E+03   -0.72812E-05   -0.77606E-08   652   0.415E-04    0.146E-03
RMM:  37    -0.262396509461E+03   -0.42804E-05   -0.53965E-08   618   0.384E-04    0.515E-04
RMM:  38    -0.262396511236E+03   -0.17754E-05   -0.16185E-08   459   0.332E-04    0.685E-04
RMM:  39    -0.262396512864E+03   -0.16276E-05   -0.10466E-08   381   0.312E-04    0.380E-04
RMM:  40    -0.262396513292E+03   -0.42833E-06   -0.26133E-09   285   0.299E-04
   6 F= -.26239651E+03 E0= -.26205175E+03  d E =-.556081E-01  mag=    40.1904
 ZBRENT: can't locate minimum, use default step
 trial-energy change:   -0.055608  1 .order   -0.055509   -0.062051   -0.048968
 step:   4.1905(harm=  4.9687)  dis= 0.07125  next Energy=  -262.488052 (dE=-0.147E+00)
 bond charge predicted
       N       E                     dE             d eps       ncg     rms          rms(c)
DAV:   1    -0.262421252400E+03   -0.24740E-01   -0.41444E+01  1520   0.102E+01    0.196E+00
RMM:   2    -0.263070489804E+03   -0.64924E+00   -0.11454E+00  1528   0.273E+00    0.150E+01
RMM:   3    -0.262504701793E+03    0.56579E+00   -0.31772E-01  1549   0.141E+00    0.555E+00
RMM:   4    -0.262517637264E+03   -0.12935E-01   -0.11092E-01  1529   0.792E-01    0.429E+00
RMM:   5    -0.262539423484E+03   -0.21786E-01   -0.56294E-02  1528   0.594E-01    0.495E+00
RMM:   6    -0.262485111893E+03    0.54312E-01   -0.33354E-02  1528   0.488E-01    0.137E+00
RMM:   7    -0.262488959854E+03   -0.38480E-02   -0.80818E-03  1528   0.223E-01    0.130E+00
RMM:   8    -0.262492139270E+03   -0.31794E-02   -0.62312E-03  1528   0.190E-01    0.178E+00
RMM:   9    -0.262485862391E+03    0.62769E-02   -0.55320E-03  1528   0.185E-01    0.983E-01
RMM:  10    -0.262485222462E+03    0.63993E-03   -0.36932E-03  1528   0.150E-01    0.731E-01
RMM:  11    -0.262487203882E+03   -0.19814E-02   -0.37577E-03  1528   0.149E-01    0.114E+00
RMM:  12    -0.262484708760E+03    0.24951E-02   -0.26974E-03  1528   0.132E-01    0.547E-01
RMM:  13    -0.262484426745E+03    0.28201E-03   -0.11453E-03  1528   0.843E-02    0.299E-01
RMM:  14    -0.262484600272E+03   -0.17353E-03   -0.44104E-04  1528   0.523E-02    0.365E-01
RMM:  15    -0.262484570337E+03    0.29934E-04   -0.21397E-04  1528   0.378E-02    0.303E-01
RMM:  16    -0.262484475244E+03    0.95093E-04   -0.21414E-04  1528   0.377E-02    0.125E-01
RMM:  17    -0.262484637872E+03   -0.16263E-03   -0.92831E-05  1528   0.235E-02    0.154E-01
RMM:  18    -0.262484854076E+03   -0.21620E-03   -0.87999E-05  1525   0.224E-02    0.173E-01
RMM:  19    -0.262484935077E+03   -0.81000E-04   -0.62123E-05  1527   0.197E-02    0.426E-02
RMM:  20    -0.262485080417E+03   -0.14534E-03   -0.22508E-05  1524   0.107E-02    0.532E-02
RMM:  21    -0.262485402528E+03   -0.32211E-03   -0.17166E-05  1509   0.839E-03    0.388E-02
RMM:  22    -0.262485483501E+03   -0.80973E-04   -0.53575E-06  1321   0.545E-03    0.173E-02
RMM:  23    -0.262485672760E+03   -0.18926E-03   -0.39956E-06  1152   0.439E-03    0.425E-02
RMM:  24    -0.262485936815E+03   -0.26405E-03   -0.45093E-06  1156   0.459E-03    0.182E-02
RMM:  25    -0.262486023992E+03   -0.87177E-04   -0.14049E-06   931   0.283E-03    0.124E-02
RMM:  26    -0.262486324942E+03   -0.30095E-03   -0.33577E-06  1050   0.300E-03    0.198E-02
RMM:  27    -0.262486566852E+03   -0.24191E-03   -0.29542E-06  1018   0.319E-03    0.911E-03
RMM:  28    -0.262486748512E+03   -0.18166E-03   -0.19755E-06   965   0.246E-03    0.145E-02
RMM:  29    -0.262487223444E+03   -0.47493E-03   -0.85173E-06  1206   0.331E-03    0.184E-02
RMM:  30    -0.262487367464E+03   -0.14402E-03   -0.20323E-06   978   0.229E-03    0.743E-03
RMM:  31    -0.262487492750E+03   -0.12529E-03   -0.13187E-06   940   0.186E-03    0.105E-02
RMM:  32    -0.262487740837E+03   -0.24809E-03   -0.39046E-06  1073   0.226E-03    0.667E-03
RMM:  33    -0.262487790607E+03   -0.49770E-04   -0.60477E-07   928   0.138E-03    0.428E-03
RMM:  34    -0.262487927031E+03   -0.13642E-03   -0.18687E-06   985   0.149E-03    0.765E-03
RMM:  35    -0.262487995551E+03   -0.68521E-04   -0.11614E-06   943   0.153E-03    0.262E-03
RMM:  36    -0.262488027428E+03   -0.31877E-04   -0.50246E-07   926   0.107E-03    0.411E-03
RMM:  37    -0.262488061969E+03   -0.34540E-04   -0.62306E-07   932   0.106E-03    0.159E-03
RMM:  38    -0.262488069608E+03   -0.76397E-05   -0.12966E-07   837   0.692E-04    0.183E-03
RMM:  39    -0.262488084625E+03   -0.15016E-04   -0.19431E-07   853   0.554E-04    0.129E-03
RMM:  40    -0.262488087496E+03   -0.28710E-05   -0.34746E-08   626   0.404E-04    0.797E-04
RMM:  41    -0.262488096476E+03   -0.89801E-05   -0.80253E-08   633   0.391E-04    0.111E-03
RMM:  42    -0.262488099459E+03   -0.29833E-05   -0.26169E-08   478   0.342E-04    0.490E-04
RMM:  43    -0.262488103898E+03   -0.44390E-05   -0.56001E-08   648   0.380E-04    0.919E-04
RMM:  44    -0.262488108185E+03   -0.42876E-05   -0.60483E-08   582   0.357E-04    0.449E-04
RMM:  45    -0.262488109858E+03   -0.16725E-05   -0.18975E-08   413   0.306E-04    0.505E-04
RMM:  46    -0.262488112152E+03   -0.22938E-05   -0.31677E-08   464   0.319E-04    0.328E-04
RMM:  47    -0.262488112650E+03   -0.49837E-06   -0.56400E-09   292   0.287E-04
   7 F= -.26248811E+03 E0= -.26214561E+03  d E =-.147207E+00  mag=    40.2882
 curvature:  -2.43 expect dE=-0.410E-01 dE for cont linesearch -0.628E-02
 ZBRENT: extrapolating
 opt :   5.3358  next Energy=  -262.495261 (dE=-0.154E+00)
 bond charge predicted
       N       E                     dE             d eps       ncg     rms          rms(c)
DAV:   1    -0.262487195122E+03    0.91703E-03   -0.54731E+00  1600   0.370E+00    0.688E-01
RMM:   2    -0.262561691048E+03   -0.74496E-01   -0.13244E-01  1528   0.916E-01    0.557E+00
RMM:   3    -0.262492559808E+03    0.69131E-01   -0.38891E-02  1549   0.487E-01    0.175E+00
RMM:   4    -0.262500800600E+03   -0.82408E-02   -0.13928E-02  1529   0.281E-01    0.177E+00
RMM:   5    -0.262501069447E+03   -0.26885E-03   -0.68224E-03  1528   0.210E-01    0.172E+00
RMM:   6    -0.262494591819E+03    0.64776E-02   -0.40868E-03  1528   0.170E-01    0.385E-01
RMM:   7    -0.262495626620E+03   -0.10348E-02   -0.11048E-03  1528   0.814E-02    0.441E-01
RMM:   8    -0.262495952020E+03   -0.32540E-03   -0.88639E-04  1528   0.703E-02    0.640E-01
RMM:   9    -0.262495029005E+03    0.92302E-03   -0.64677E-04  1528   0.642E-02    0.337E-01
RMM:  10    -0.262495103035E+03   -0.74030E-04   -0.41036E-04  1529   0.494E-02    0.262E-01
RMM:  11    -0.262495401739E+03   -0.29870E-03   -0.43542E-04  1528   0.508E-02    0.441E-01
RMM:  12    -0.262494958843E+03    0.44290E-03   -0.28733E-04  1528   0.439E-02    0.172E-01
RMM:  13    -0.262494994826E+03   -0.35983E-04   -0.11449E-04  1528   0.268E-02    0.867E-02
RMM:  14    -0.262495025242E+03   -0.30416E-04   -0.49506E-05  1528   0.176E-02    0.809E-02
RMM:  15    -0.262495044400E+03   -0.19159E-04   -0.24733E-05  1520   0.132E-02    0.873E-02
RMM:  16    -0.262495043247E+03    0.11529E-05   -0.11988E-05  1508   0.874E-03    0.444E-02
RMM:  17    -0.262495081241E+03   -0.37993E-04   -0.10369E-05  1504   0.775E-03    0.498E-02
RMM:  18    -0.262495132383E+03   -0.51143E-04   -0.95859E-06  1485   0.727E-03    0.572E-02
RMM:  19    -0.262495154370E+03   -0.21987E-04   -0.56384E-06  1335   0.584E-03    0.147E-02
RMM:  20    -0.262495181707E+03   -0.27336E-04   -0.20210E-06   947   0.338E-03    0.147E-02
RMM:  21    -0.262495258711E+03   -0.77004E-04   -0.21822E-06   983   0.324E-03    0.130E-02
RMM:  22    -0.262495277751E+03   -0.19041E-04   -0.71821E-07   911   0.217E-03    0.558E-03
RMM:  23    -0.262495313899E+03   -0.36148E-04   -0.47237E-07   915   0.147E-03    0.125E-02
RMM:  24    -0.262495374427E+03   -0.60528E-04   -0.63802E-07   927   0.160E-03    0.510E-03
RMM:  25    -0.262495394358E+03   -0.19930E-04   -0.22397E-07   905   0.105E-03    0.375E-03
RMM:  26    -0.262495469475E+03   -0.75117E-04   -0.67390E-07   933   0.110E-03    0.603E-03
RMM:  27    -0.262495510259E+03   -0.40784E-04   -0.39971E-07   923   0.115E-03    0.332E-03
RMM:  28    -0.262495534806E+03   -0.24548E-04   -0.19204E-07   891   0.777E-04    0.459E-03
RMM:  29    -0.262495612947E+03   -0.78141E-04   -0.95672E-07   940   0.104E-03    0.523E-03
RMM:  30    -0.262495638707E+03   -0.25760E-04   -0.30514E-07   910   0.929E-04    0.178E-03
RMM:  31    -0.262495663865E+03   -0.25158E-04   -0.23433E-07   890   0.706E-04    0.342E-03
RMM:  32    -0.262495700888E+03   -0.37023E-04   -0.44608E-07   915   0.768E-04    0.167E-03
RMM:  33    -0.262495709317E+03   -0.84286E-05   -0.84283E-08   768   0.540E-04    0.149E-03
RMM:  34    -0.262495738031E+03   -0.28714E-04   -0.39462E-07   914   0.608E-04    0.217E-03
RMM:  35    -0.262495744794E+03   -0.67630E-05   -0.94762E-08   800   0.500E-04    0.108E-03
RMM:  36    -0.262495751536E+03   -0.67421E-05   -0.71891E-08   628   0.404E-04    0.150E-03
RMM:  37    -0.262495756060E+03   -0.45235E-05   -0.58782E-08   603   0.379E-04    0.566E-04
RMM:  38    -0.262495757399E+03   -0.13398E-05   -0.13042E-08   425   0.330E-04    0.687E-04
RMM:  39    -0.262495759363E+03   -0.19634E-05   -0.15327E-08   409   0.324E-04    0.368E-04
RMM:  40    -0.262495759749E+03   -0.38632E-06   -0.38269E-09   290   0.301E-04
   8 F= -.26249576E+03 E0= -.26215413E+03  d E =-.154855E+00  mag=    40.3196
 curvature:  -2.77 expect dE=-0.595E-01 dE for cont linesearch -0.424E-04
 trial: gam= 0.33927 g(F)=  0.215E-01 g(S)=  0.000E+00 ort = 0.961E-03 (trialstep = 0.191E+01)
 search vector abs. value=  0.291E-01
 bond charge predicted
       N       E                     dE             d eps       ncg     rms          rms(c)
DAV:   1    -0.262521767832E+03   -0.26008E-01   -0.82344E+00  1560   0.460E+00    0.875E-01
RMM:   2    -0.262651403949E+03   -0.12964E+00   -0.16691E-01  1528   0.106E+00    0.764E+00
RMM:   3    -0.262527988752E+03    0.12342E+00   -0.57979E-02  1536   0.627E-01    0.242E+00
RMM:   4    -0.262534554817E+03   -0.65661E-02   -0.23341E-02  1528   0.367E-01    0.171E+00
RMM:   5    -0.262540286321E+03   -0.57315E-02   -0.10392E-02  1528   0.258E-01    0.225E+00
RMM:   6    -0.262529043803E+03    0.11243E-01   -0.60577E-03  1528   0.210E-01    0.523E-01
RMM:   7    -0.262530160841E+03   -0.11170E-02   -0.14550E-03  1528   0.940E-02    0.400E-01
RMM:   8    -0.262531351109E+03   -0.11903E-02   -0.12658E-03  1528   0.855E-02    0.809E-01
RMM:   9    -0.262530032323E+03    0.13188E-02   -0.10230E-03  1528   0.813E-02    0.404E-01
RMM:  10    -0.262530154106E+03   -0.12178E-03   -0.48451E-04  1528   0.543E-02    0.322E-01
RMM:  11    -0.262530552952E+03   -0.39885E-03   -0.49170E-04  1528   0.546E-02    0.489E-01
RMM:  12    -0.262530103511E+03    0.44944E-03   -0.35817E-04  1528   0.495E-02    0.213E-01
RMM:  13    -0.262530161920E+03   -0.58409E-04   -0.15379E-04  1528   0.316E-02    0.977E-02
RMM:  14    -0.262530238589E+03   -0.76669E-04   -0.66342E-05  1528   0.200E-02    0.156E-01
RMM:  15    -0.262530213084E+03    0.25505E-04   -0.31580E-05  1519   0.147E-02    0.972E-02
RMM:  16    -0.262530217868E+03   -0.47832E-05   -0.27361E-05  1522   0.132E-02    0.429E-02
RMM:  17    -0.262530243772E+03   -0.25905E-04   -0.13602E-05  1520   0.897E-03    0.528E-02
RMM:  18    -0.262530272712E+03   -0.28939E-04   -0.10312E-05  1494   0.783E-03    0.614E-02
RMM:  19    -0.262530282611E+03   -0.98992E-05   -0.73651E-06  1464   0.688E-03    0.170E-02
RMM:  20    -0.262530295079E+03   -0.12468E-04   -0.20908E-06   942   0.363E-03    0.140E-02
RMM:  21    -0.262530328896E+03   -0.33817E-04   -0.19243E-06   962   0.344E-03    0.135E-02
RMM:  22    -0.262530336308E+03   -0.74114E-05   -0.80641E-07   905   0.247E-03    0.556E-03
RMM:  23    -0.262530350434E+03   -0.14127E-04   -0.45175E-07   906   0.161E-03    0.131E-02
RMM:  24    -0.262530365446E+03   -0.15011E-04   -0.36710E-07   906   0.163E-03    0.564E-03
RMM:  25    -0.262530370289E+03   -0.48431E-05   -0.14076E-07   880   0.951E-04    0.287E-03
RMM:  26    -0.262530384116E+03   -0.13827E-04   -0.12984E-07   905   0.779E-04    0.436E-03
RMM:  27    -0.262530392875E+03   -0.87591E-05   -0.92922E-08   896   0.761E-04    0.170E-03
RMM:  28    -0.262530398745E+03   -0.58693E-05   -0.44701E-08   759   0.456E-04    0.306E-03
RMM:  29    -0.262530412669E+03   -0.13924E-04   -0.98102E-08   846   0.517E-04    0.315E-03
RMM:  30    -0.262530418689E+03   -0.60207E-05   -0.47128E-08   817   0.485E-04    0.107E-03
RMM:  31    -0.262530423331E+03   -0.46415E-05   -0.14232E-08   428   0.335E-04    0.145E-03
RMM:  32    -0.262530432983E+03   -0.96524E-05   -0.48876E-08   512   0.346E-04    0.904E-04
RMM:  33    -0.262530435341E+03   -0.23583E-05   -0.75006E-09   362   0.315E-04    0.608E-04
RMM:  34    -0.262530444866E+03   -0.95249E-05   -0.93655E-08   686   0.406E-04    0.121E-03
RMM:  35    -0.262530450974E+03   -0.61077E-05   -0.55180E-08   629   0.383E-04    0.689E-04
RMM:  36    -0.262530454152E+03   -0.31780E-05   -0.21936E-08   484   0.330E-04    0.882E-04
RMM:  37    -0.262530459761E+03   -0.56093E-05   -0.62211E-08   544   0.356E-04    0.675E-04
RMM:  38    -0.262530461269E+03   -0.15080E-05   -0.15028E-08   373   0.315E-04    0.517E-04
RMM:  39    -0.262530463658E+03   -0.23882E-05   -0.47323E-08   525   0.348E-04    0.497E-04
RMM:  40    -0.262530464176E+03   -0.51866E-06   -0.70691E-09   318   0.309E-04
   9 F= -.26253046E+03 E0= -.26218902E+03  d E =-.347044E-01  mag=    40.3320
 trial-energy change:   -0.034704  1 .order   -0.034618   -0.041590   -0.027646
 step:   5.3262(harm=  5.6828)  dis= 0.04602  next Energy=  -262.555785 (dE=-0.600E-01)
 bond charge predicted
       N       E                     dE             d eps       ncg     rms          rms(c)
DAV:   1    -0.262529811680E+03    0.65198E-03   -0.26597E+01  1520   0.828E+00    0.158E+00
RMM:   2    -0.262951263251E+03   -0.42145E+00   -0.56504E-01  1528   0.195E+00    0.133E+01
RMM:   3    -0.262565927847E+03    0.38534E+00   -0.18777E-01  1537   0.113E+00    0.455E+00
RMM:   4    -0.262571277873E+03   -0.53500E-02   -0.75834E-02  1528   0.660E-01    0.296E+00
RMM:   5    -0.262593001508E+03   -0.21724E-01   -0.34307E-02  1528   0.465E-01    0.412E+00
RMM:   6    -0.262555631215E+03    0.37370E-01   -0.20209E-02  1528   0.385E-01    0.993E-01
RMM:   7    -0.262558177257E+03   -0.25460E-02   -0.44001E-03  1528   0.164E-01    0.780E-01
RMM:   8    -0.262561919897E+03   -0.37426E-02   -0.36261E-03  1528   0.146E-01    0.151E+00
RMM:   9    -0.262557952215E+03    0.39677E-02   -0.31897E-03  1528   0.141E-01    0.836E-01
RMM:  10    -0.262557604548E+03    0.34767E-03   -0.18859E-03  1528   0.108E-01    0.523E-01
RMM:  11    -0.262558965374E+03   -0.13608E-02   -0.17822E-03  1528   0.104E-01    0.857E-01
RMM:  12    -0.262557630338E+03    0.13350E-02   -0.12795E-03  1528   0.936E-02    0.394E-01
RMM:  13    -0.262557702422E+03   -0.72084E-04   -0.48199E-04  1528   0.556E-02    0.239E-01
RMM:  14    -0.262557898484E+03   -0.19606E-03   -0.20153E-04  1528   0.353E-02    0.331E-01
RMM:  15    -0.262557758604E+03    0.13988E-03   -0.15880E-04  1528   0.331E-02    0.136E-01
RMM:  16    -0.262557800532E+03   -0.41928E-04   -0.88138E-05  1528   0.238E-02    0.843E-02
RMM:  17    -0.262557867870E+03   -0.67339E-04   -0.51081E-05  1528   0.173E-02    0.119E-01
RMM:  18    -0.262557903062E+03   -0.35192E-04   -0.37069E-05  1520   0.151E-02    0.970E-02
RMM:  19    -0.262557923699E+03   -0.20637E-04   -0.26340E-05  1522   0.130E-02    0.306E-02
RMM:  20    -0.262557952967E+03   -0.29268E-04   -0.87239E-06  1488   0.695E-03    0.293E-02
RMM:  21    -0.262558015316E+03   -0.62348E-04   -0.60845E-06  1361   0.570E-03    0.290E-02
RMM:  22    -0.262558028297E+03   -0.12981E-04   -0.22946E-06   953   0.400E-03    0.136E-02
RMM:  23    -0.262558045393E+03   -0.17096E-04   -0.11633E-06   906   0.270E-03    0.203E-02
RMM:  24    -0.262558087890E+03   -0.42497E-04   -0.11394E-06   933   0.279E-03    0.112E-02
RMM:  25    -0.262558097743E+03   -0.98523E-05   -0.46705E-07   906   0.185E-03    0.500E-03
RMM:  26    -0.262558124634E+03   -0.26891E-04   -0.40963E-07   915   0.143E-03    0.916E-03
RMM:  27    -0.262558143774E+03   -0.19140E-04   -0.32297E-07   906   0.147E-03    0.388E-03
RMM:  28    -0.262558152155E+03   -0.83805E-05   -0.12367E-07   895   0.788E-04    0.425E-03
RMM:  29    -0.262558175237E+03   -0.23083E-04   -0.20832E-07   913   0.836E-04    0.627E-03
RMM:  30    -0.262558192989E+03   -0.17751E-04   -0.18764E-07   905   0.923E-04    0.202E-03
RMM:  31    -0.262558201048E+03   -0.80597E-05   -0.72234E-08   835   0.555E-04    0.245E-03
RMM:  32    -0.262558222243E+03   -0.21195E-04   -0.15749E-07   858   0.555E-04    0.169E-03
RMM:  33    -0.262558227183E+03   -0.49403E-05   -0.38234E-08   704   0.439E-04    0.104E-03
RMM:  34    -0.262558243486E+03   -0.16302E-04   -0.11446E-07   776   0.450E-04    0.208E-03
RMM:  35    -0.262558256077E+03   -0.12592E-04   -0.10698E-07   761   0.473E-04    0.930E-04
RMM:  36    -0.262558262304E+03   -0.62271E-05   -0.43229E-08   630   0.393E-04    0.127E-03
RMM:  37    -0.262558277346E+03   -0.15042E-04   -0.20945E-07   794   0.470E-04    0.834E-04
RMM:  38    -0.262558279639E+03   -0.22925E-05   -0.24884E-08   508   0.346E-04    0.640E-04
RMM:  39    -0.262558284704E+03   -0.50658E-05   -0.76831E-08   625   0.374E-04    0.648E-04
RMM:  40    -0.262558285578E+03   -0.87317E-06   -0.98184E-09   358   0.302E-04
  10 F= -.26255829E+03 E0= -.26221752E+03  d E =-.625258E-01  mag=    40.3487
 curvature:  -3.75 expect dE=-0.283E-01 dE for cont linesearch -0.356E-03
 ZBRENT: extrapolating
 opt :   5.7683  next Energy=  -262.558653 (dE=-0.629E-01)
 bond charge predicted
       N       E                     dE             d eps       ncg     rms          rms(c)
DAV:   1    -0.262558162650E+03    0.12205E-03   -0.44288E-01  1600   0.107E+00    0.197E-01
RMM:   2    -0.262563952339E+03   -0.57897E-02   -0.81286E-03  1528   0.231E-01    0.164E+00
RMM:   3    -0.262557943857E+03    0.60085E-02   -0.28762E-03  1537   0.139E-01    0.536E-01
RMM:   4    -0.262558774805E+03   -0.83095E-03   -0.11922E-03  1528   0.830E-02    0.420E-01
RMM:   5    -0.262559028265E+03   -0.25346E-03   -0.53547E-04  1528   0.589E-02    0.509E-01
RMM:   6    -0.262558425781E+03    0.60248E-03   -0.31156E-04  1528   0.476E-02    0.117E-01
RMM:   7    -0.262558574217E+03   -0.14844E-03   -0.77888E-05  1528   0.218E-02    0.909E-02
RMM:   8    -0.262558662168E+03   -0.87951E-04   -0.67394E-05  1525   0.195E-02    0.197E-01
RMM:   9    -0.262558579917E+03    0.82251E-04   -0.54954E-05  1522   0.188E-02    0.103E-01
RMM:  10    -0.262558589660E+03   -0.97431E-05   -0.25564E-05  1520   0.125E-02    0.602E-02
RMM:  11    -0.262558622831E+03   -0.33171E-04   -0.27003E-05  1522   0.127E-02    0.109E-01
RMM:  12    -0.262558596993E+03    0.25838E-04   -0.17864E-05  1514   0.110E-02    0.504E-02
RMM:  13    -0.262558603690E+03   -0.66969E-05   -0.77839E-06  1463   0.720E-03    0.183E-02
RMM:  14    -0.262558607976E+03   -0.42858E-05   -0.29311E-06  1015   0.416E-03    0.210E-02
RMM:  15    -0.262558610109E+03   -0.21336E-05   -0.12682E-06   905   0.319E-03    0.267E-02
RMM:  16    -0.262558610024E+03    0.85434E-07   -0.97772E-07   896   0.280E-03
  11 F= -.26255861E+03 E0= -.26221795E+03  d E =-.628503E-01  mag=    40.3502
 curvature:  -3.87 expect dE=-0.337E-01 dE for cont linesearch -0.980E-06
 trial: gam= 0.41834 g(F)=  0.871E-02 g(S)=  0.000E+00 ort =-0.858E-04 (trialstep = 0.268E+01)
 search vector abs. value=  0.137E-01
 bond charge predicted
       N       E                     dE             d eps       ncg     rms          rms(c)
DAV:   1    -0.262566195500E+03   -0.75854E-02   -0.72955E+00  1600   0.437E+00    0.793E-01
RMM:   2    -0.262646643071E+03   -0.80448E-01   -0.14562E-01  1528   0.977E-01    0.575E+00
RMM:   3    -0.262576910318E+03    0.69733E-01   -0.45582E-02  1547   0.542E-01    0.229E+00
RMM:   4    -0.262580159857E+03   -0.32495E-02   -0.17515E-02  1528   0.319E-01    0.167E+00
RMM:   5    -0.262581228155E+03   -0.10683E-02   -0.76899E-03  1528   0.228E-01    0.179E+00
RMM:   6    -0.262574416465E+03    0.68117E-02   -0.38916E-03  1528   0.168E-01    0.480E-01
RMM:   7    -0.262575407621E+03   -0.99116E-03   -0.12999E-03  1528   0.886E-02    0.443E-01
RMM:   8    -0.262575863258E+03   -0.45564E-03   -0.12182E-03  1528   0.825E-02    0.685E-01
RMM:   9    -0.262574796586E+03    0.10667E-02   -0.94581E-04  1528   0.771E-02    0.345E-01
RMM:  10    -0.262575001134E+03   -0.20455E-03   -0.46988E-04  1529   0.525E-02    0.370E-01
RMM:  11    -0.262575205253E+03   -0.20412E-03   -0.50258E-04  1528   0.554E-02    0.473E-01
RMM:  12    -0.262574732405E+03    0.47285E-03   -0.32829E-04  1528   0.476E-02    0.202E-01
RMM:  13    -0.262574767386E+03   -0.34981E-04   -0.14566E-04  1528   0.304E-02    0.897E-02
RMM:  14    -0.262574824607E+03   -0.57222E-04   -0.57503E-05  1528   0.188E-02    0.101E-01
RMM:  15    -0.262574842441E+03   -0.17834E-04   -0.26098E-05  1516   0.134E-02    0.105E-01
RMM:  16    -0.262574848552E+03   -0.61108E-05   -0.17963E-05  1522   0.107E-02    0.434E-02
RMM:  17    -0.262574894502E+03   -0.45950E-04   -0.12960E-05  1519   0.862E-03    0.482E-02
RMM:  18    -0.262574976904E+03   -0.82402E-04   -0.12277E-05  1504   0.781E-03    0.604E-02
RMM:  19    -0.262575000785E+03   -0.23880E-04   -0.62805E-06  1400   0.610E-03    0.159E-02
RMM:  20    -0.262575033336E+03   -0.32552E-04   -0.23020E-06   960   0.368E-03    0.159E-02
RMM:  21    -0.262575126101E+03   -0.92765E-04   -0.28974E-06  1033   0.357E-03    0.154E-02
RMM:  22    -0.262575145760E+03   -0.19659E-04   -0.87546E-07   914   0.237E-03    0.681E-03
RMM:  23    -0.262575178478E+03   -0.32718E-04   -0.56760E-07   917   0.164E-03    0.124E-02
RMM:  24    -0.262575243303E+03   -0.64825E-04   -0.88624E-07   934   0.178E-03    0.761E-03
RMM:  25    -0.262575261528E+03   -0.18225E-04   -0.28602E-07   907   0.121E-03    0.283E-03
RMM:  26    -0.262575311310E+03   -0.49782E-04   -0.46829E-07   928   0.104E-03    0.585E-03
RMM:  27    -0.262575353210E+03   -0.41900E-04   -0.42537E-07   927   0.111E-03    0.252E-03
RMM:  28    -0.262575373856E+03   -0.20646E-04   -0.17156E-07   893   0.742E-04    0.303E-03
RMM:  29    -0.262575442278E+03   -0.68422E-04   -0.84710E-07   936   0.901E-04    0.241E-03
RMM:  30    -0.262575454484E+03   -0.12207E-04   -0.13410E-07   854   0.633E-04    0.171E-03
RMM:  31    -0.262575475634E+03   -0.21149E-04   -0.15174E-07   825   0.517E-04    0.312E-03
RMM:  32    -0.262575509631E+03   -0.33997E-04   -0.32269E-07   886   0.601E-04    0.142E-03
RMM:  33    -0.262575518797E+03   -0.91659E-05   -0.61653E-08   714   0.450E-04    0.123E-03
RMM:  34    -0.262575552593E+03   -0.33796E-04   -0.42281E-07   884   0.583E-04    0.207E-03
RMM:  35    -0.262575564283E+03   -0.11691E-04   -0.15146E-07   836   0.498E-04    0.761E-04
RMM:  36    -0.262575571994E+03   -0.77108E-05   -0.74124E-08   617   0.406E-04    0.132E-03
RMM:  37    -0.262575578764E+03   -0.67692E-05   -0.87969E-08   602   0.386E-04    0.585E-04
RMM:  38    -0.262575580026E+03   -0.12629E-05   -0.13768E-08   397   0.324E-04    0.566E-04
RMM:  39    -0.262575582807E+03   -0.27807E-05   -0.28158E-08   448   0.334E-04    0.370E-04
RMM:  40    -0.262575583278E+03   -0.47038E-06   -0.29102E-09   280   0.302E-04
  12 F= -.26257558E+03 E0= -.26223504E+03  d E =-.169733E-01  mag=    40.3652
 trial-energy change:   -0.016973  1 .order   -0.016954   -0.023228   -0.010680
 step:   4.9572(harm=  4.9572)  dis= 0.02875  next Energy=  -262.580109 (dE=-0.215E-01)
 bond charge predicted
       N       E                     dE             d eps       ncg     rms          rms(c)
DAV:   1    -0.262573340496E+03    0.22423E-02   -0.52851E+00  1600   0.372E+00    0.674E-01
RMM:   2    -0.262630827338E+03   -0.57487E-01   -0.10519E-01  1528   0.831E-01    0.486E+00
RMM:   3    -0.262580708811E+03    0.50119E-01   -0.33040E-02  1545   0.461E-01    0.194E+00
RMM:   4    -0.262583443948E+03   -0.27351E-02   -0.12594E-02  1528   0.270E-01    0.144E+00
RMM:   5    -0.262584152317E+03   -0.70837E-03   -0.55668E-03  1528   0.194E-01    0.152E+00
RMM:   6    -0.262579207622E+03    0.49447E-02   -0.28103E-03  1528   0.143E-01    0.408E-01
RMM:   7    -0.262579973442E+03   -0.76582E-03   -0.93590E-04  1528   0.752E-02    0.372E-01
RMM:   8    -0.262580299930E+03   -0.32649E-03   -0.89815E-04  1528   0.707E-02    0.568E-01
RMM:   9    -0.262579518269E+03    0.78166E-03   -0.70454E-04  1528   0.664E-02    0.267E-01
RMM:  10    -0.262579717724E+03   -0.19946E-03   -0.35015E-04  1529   0.452E-02    0.326E-01
RMM:  11    -0.262579840566E+03   -0.12284E-03   -0.34602E-04  1528   0.460E-02    0.404E-01
RMM:  12    -0.262579499459E+03    0.34111E-03   -0.22257E-04  1528   0.392E-02    0.183E-01
RMM:  13    -0.262579519931E+03   -0.20472E-04   -0.10790E-04  1528   0.262E-02    0.737E-02
RMM:  14    -0.262579560918E+03   -0.40987E-04   -0.41119E-05  1528   0.158E-02    0.747E-02
RMM:  15    -0.262579580917E+03   -0.19999E-04   -0.20188E-05  1514   0.117E-02    0.829E-02
RMM:  16    -0.262579584910E+03   -0.39936E-05   -0.10650E-05  1503   0.826E-03    0.406E-02
RMM:  17    -0.262579614965E+03   -0.30055E-04   -0.85353E-06  1489   0.701E-03    0.402E-02
RMM:  18    -0.262579675667E+03   -0.60701E-04   -0.87709E-06  1471   0.657E-03    0.513E-02
RMM:  19    -0.262579691940E+03   -0.16273E-04   -0.43188E-06  1228   0.515E-03    0.141E-02
RMM:  20    -0.262579714656E+03   -0.22716E-04   -0.16640E-06   926   0.317E-03    0.130E-02
RMM:  21    -0.262579781955E+03   -0.67299E-04   -0.20778E-06   987   0.303E-03    0.132E-02
RMM:  22    -0.262579796360E+03   -0.14405E-04   -0.69120E-07   912   0.213E-03    0.557E-03
RMM:  23    -0.262579820053E+03   -0.23693E-04   -0.41492E-07   910   0.139E-03    0.105E-02
RMM:  24    -0.262579866480E+03   -0.46427E-04   -0.61413E-07   931   0.151E-03    0.632E-03
RMM:  25    -0.262579879611E+03   -0.13132E-04   -0.19952E-07   903   0.102E-03    0.238E-03
RMM:  26    -0.262579913477E+03   -0.33866E-04   -0.29584E-07   918   0.857E-04    0.487E-03
RMM:  27    -0.262579945142E+03   -0.31665E-04   -0.29916E-07   916   0.917E-04    0.215E-03
RMM:  28    -0.262579958618E+03   -0.13476E-04   -0.10630E-07   859   0.606E-04    0.236E-03
RMM:  29    -0.262580004630E+03   -0.46013E-04   -0.49179E-07   915   0.719E-04    0.344E-03
RMM:  30    -0.262580015968E+03   -0.11338E-04   -0.10707E-07   842   0.568E-04    0.122E-03
RMM:  31    -0.262580029092E+03   -0.13123E-04   -0.79867E-08   695   0.438E-04    0.180E-03
RMM:  32    -0.262580057766E+03   -0.28674E-04   -0.26629E-07   814   0.510E-04    0.117E-03
RMM:  33    -0.262580064701E+03   -0.69350E-05   -0.45718E-08   644   0.397E-04    0.985E-04
RMM:  34    -0.262580090246E+03   -0.25545E-04   -0.30402E-07   849   0.519E-04    0.169E-03
RMM:  35    -0.262580099498E+03   -0.92525E-05   -0.10626E-07   735   0.428E-04    0.803E-04
RMM:  36    -0.262580105636E+03   -0.61374E-05   -0.56545E-08   596   0.374E-04    0.113E-03
RMM:  37    -0.262580111909E+03   -0.62734E-05   -0.78243E-08   561   0.364E-04    0.474E-04
RMM:  38    -0.262580112823E+03   -0.91427E-06   -0.10298E-08   343   0.307E-04
  13 F= -.26258011E+03 E0= -.26223976E+03  d E =-.215028E-01  mag=    40.3758
 curvature:  -3.92 expect dE=-0.176E-01 dE for cont linesearch -0.161E-06
 trial: gam= 0.50754 g(F)=  0.449E-02 g(S)=  0.000E+00 ort =-0.237E-04 (trialstep = 0.313E+01)
 search vector abs. value=  0.800E-02
 bond charge predicted
       N       E                     dE             d eps       ncg     rms          rms(c)
DAV:   1    -0.262585016224E+03   -0.49043E-02   -0.68646E+00  1600   0.426E+00    0.744E-01
RMM:   2    -0.262651559554E+03   -0.66543E-01   -0.87998E-02  1528   0.819E-01    0.540E+00
RMM:   3    -0.262589116859E+03    0.62443E-01   -0.35768E-02  1528   0.501E-01    0.202E+00
RMM:   4    -0.262595760561E+03   -0.66437E-02   -0.14444E-02  1528   0.293E-01    0.181E+00
RMM:   5    -0.262593946987E+03    0.18136E-02   -0.70084E-03  1528   0.219E-01    0.153E+00
RMM:   6    -0.262589226173E+03    0.47208E-02   -0.33173E-03  1528   0.155E-01    0.479E-01
RMM:   7    -0.262589911255E+03   -0.68508E-03   -0.10380E-03  1528   0.793E-02    0.377E-01
RMM:   8    -0.262590703399E+03   -0.79214E-03   -0.11551E-03  1528   0.824E-02    0.642E-01
RMM:   9    -0.262589723189E+03    0.98021E-03   -0.87887E-04  1528   0.770E-02    0.312E-01
RMM:  10    -0.262589799782E+03   -0.76593E-04   -0.24111E-04  1528   0.383E-02    0.255E-01
RMM:  11    -0.262590046293E+03   -0.24651E-03   -0.29464E-04  1528   0.424E-02    0.359E-01
RMM:  12    -0.262589726061E+03    0.32023E-03   -0.19048E-04  1528   0.369E-02    0.135E-01
RMM:  13    -0.262589798488E+03   -0.72428E-04   -0.55050E-05  1522   0.185E-02    0.778E-02
RMM:  14    -0.262589849373E+03   -0.50884E-04   -0.34745E-05  1521   0.151E-02    0.911E-02
RMM:  15    -0.262589841600E+03    0.77722E-05   -0.16866E-05  1514   0.109E-02    0.450E-02
RMM:  16    -0.262589855613E+03   -0.14012E-04   -0.56586E-06  1395   0.595E-03    0.422E-02
RMM:  17    -0.262589878309E+03   -0.22696E-04   -0.63257E-06  1398   0.617E-03    0.474E-02
RMM:  18    -0.262589888839E+03   -0.10530E-04   -0.36598E-06  1188   0.511E-03    0.288E-02
RMM:  19    -0.262589898670E+03   -0.98309E-05   -0.23078E-06   987   0.398E-03    0.126E-02
RMM:  20    -0.262589915758E+03   -0.17088E-04   -0.15621E-06   954   0.319E-03    0.153E-02
RMM:  21    -0.262589944729E+03   -0.28972E-04   -0.12870E-06   939   0.294E-03    0.142E-02
RMM:  22    -0.262589956220E+03   -0.11490E-04   -0.70226E-07   908   0.225E-03    0.613E-03
RMM:  23    -0.262589972846E+03   -0.16626E-04   -0.41185E-07   911   0.149E-03    0.105E-02
RMM:  24    -0.262589995735E+03   -0.22889E-04   -0.39016E-07   919   0.150E-03    0.774E-03
RMM:  25    -0.262590003823E+03   -0.80878E-05   -0.16541E-07   895   0.102E-03    0.262E-03
RMM:  26    -0.262590020059E+03   -0.16236E-04   -0.14886E-07   902   0.802E-04    0.488E-03
RMM:  27    -0.262590039695E+03   -0.19636E-04   -0.16443E-07   906   0.848E-04    0.224E-03
RMM:  28    -0.262590046974E+03   -0.72788E-05   -0.58882E-08   815   0.518E-04    0.281E-03
RMM:  29    -0.262590066918E+03   -0.19943E-04   -0.13171E-07   896   0.562E-04    0.401E-03
RMM:  30    -0.262590085312E+03   -0.18395E-04   -0.14104E-07   892   0.635E-04    0.131E-03
RMM:  31    -0.262590093985E+03   -0.86726E-05   -0.51302E-08   715   0.449E-04    0.207E-03
RMM:  32    -0.262590117345E+03   -0.23361E-04   -0.19650E-07   842   0.513E-04    0.166E-03
RMM:  33    -0.262590123208E+03   -0.58622E-05   -0.47033E-08   686   0.421E-04    0.104E-03
RMM:  34    -0.262590138723E+03   -0.15516E-04   -0.13539E-07   802   0.471E-04    0.201E-03
RMM:  35    -0.262590148783E+03   -0.10060E-04   -0.11542E-07   799   0.472E-04    0.784E-04
RMM:  36    -0.262590152521E+03   -0.37383E-05   -0.29981E-08   561   0.366E-04    0.101E-03
RMM:  37    -0.262590158351E+03   -0.58301E-05   -0.66903E-08   563   0.370E-04    0.562E-04
RMM:  38    -0.262590159000E+03   -0.64847E-06   -0.73497E-09   352   0.318E-04
  14 F= -.26259016E+03 E0= -.26225022E+03  d E =-.100462E-01  mag=    40.3552
 trial-energy change:   -0.010046  1 .order   -0.010062   -0.014032   -0.006092
 step:   5.5383(harm=  5.5383)  dis= 0.01938  next Energy=  -262.592513 (dE=-0.124E-01)
 bond charge predicted
       N       E                     dE             d eps       ncg     rms          rms(c)
DAV:   1    -0.262589518823E+03    0.63953E-03   -0.40411E+00  1600   0.327E+00    0.570E-01
RMM:   2    -0.262627835767E+03   -0.38317E-01   -0.51227E-02  1528   0.626E-01    0.411E+00
RMM:   3    -0.262591440465E+03    0.36395E-01   -0.20934E-02  1528   0.383E-01    0.154E+00
RMM:   4    -0.262595774250E+03   -0.43338E-02   -0.84521E-03  1528   0.224E-01    0.140E+00
RMM:   5    -0.262594639809E+03    0.11344E-02   -0.41153E-03  1528   0.167E-01    0.118E+00
RMM:   6    -0.262591857663E+03    0.27821E-02   -0.19576E-03  1528   0.119E-01    0.367E-01
RMM:   7    -0.262592340644E+03   -0.48298E-03   -0.61026E-04  1528   0.608E-02    0.287E-01
RMM:   8    -0.262592833455E+03   -0.49281E-03   -0.68929E-04  1528   0.636E-02    0.494E-01
RMM:   9    -0.262592235913E+03    0.59754E-03   -0.52669E-04  1528   0.596E-02    0.230E-01
RMM:  10    -0.262592298866E+03   -0.62952E-04   -0.13499E-04  1528   0.286E-02    0.190E-01
RMM:  11    -0.262592453589E+03   -0.15472E-03   -0.16749E-04  1528   0.318E-02    0.278E-01
RMM:  12    -0.262592255384E+03    0.19820E-03   -0.10959E-04  1528   0.280E-02    0.106E-01
RMM:  13    -0.262592302751E+03   -0.47366E-04   -0.31005E-05  1518   0.140E-02    0.538E-02
RMM:  14    -0.262592337152E+03   -0.34401E-04   -0.19262E-05  1520   0.111E-02    0.689E-02
RMM:  15    -0.262592333726E+03    0.34254E-05   -0.94807E-06  1477   0.816E-03    0.365E-02
RMM:  16    -0.262592342453E+03   -0.87270E-05   -0.31738E-06  1079   0.459E-03    0.303E-02
RMM:  17    -0.262592355588E+03   -0.13134E-04   -0.35807E-06  1087   0.482E-03    0.347E-02
RMM:  18    -0.262592363092E+03   -0.75039E-05   -0.21763E-06   941   0.414E-03    0.225E-02
RMM:  19    -0.262592369600E+03   -0.65086E-05   -0.13571E-06   926   0.316E-03    0.950E-03
RMM:  20    -0.262592380066E+03   -0.10466E-04   -0.89277E-07   907   0.238E-03    0.111E-02
RMM:  21    -0.262592399134E+03   -0.19068E-04   -0.79007E-07   924   0.229E-03    0.110E-02
RMM:  22    -0.262592406742E+03   -0.76082E-05   -0.42574E-07   906   0.175E-03    0.464E-03
RMM:  23    -0.262592417104E+03   -0.10361E-04   -0.24032E-07   904   0.113E-03    0.789E-03
RMM:  24    -0.262592431960E+03   -0.14857E-04   -0.22662E-07   911   0.114E-03    0.582E-03
RMM:  25    -0.262592437230E+03   -0.52698E-05   -0.95276E-08   881   0.772E-04    0.196E-03
RMM:  26    -0.262592447513E+03   -0.10283E-04   -0.83150E-08   870   0.606E-04    0.366E-03
RMM:  27    -0.262592461032E+03   -0.13520E-04   -0.98616E-08   871   0.640E-04    0.181E-03
RMM:  28    -0.262592465748E+03   -0.47158E-05   -0.30191E-08   645   0.411E-04    0.208E-03
RMM:  29    -0.262592478274E+03   -0.12526E-04   -0.78171E-08   852   0.458E-04    0.306E-03
RMM:  30    -0.262592491694E+03   -0.13420E-04   -0.95314E-08   865   0.514E-04    0.105E-03
RMM:  31    -0.262592496867E+03   -0.51726E-05   -0.22692E-08   510   0.361E-04    0.146E-03
RMM:  32    -0.262592512420E+03   -0.15553E-04   -0.11601E-07   696   0.418E-04    0.133E-03
RMM:  33    -0.262592516472E+03   -0.40521E-05   -0.26435E-08   529   0.361E-04    0.880E-04
RMM:  34    -0.262592526445E+03   -0.99734E-05   -0.84388E-08   716   0.421E-04    0.156E-03
RMM:  35    -0.262592533783E+03   -0.73382E-05   -0.75470E-08   651   0.403E-04    0.774E-04
RMM:  36    -0.262592536158E+03   -0.23742E-05   -0.24655E-08   518   0.339E-04    0.865E-04
RMM:  37    -0.262592540448E+03   -0.42904E-05   -0.45414E-08   538   0.344E-04    0.499E-04
RMM:  38    -0.262592540950E+03   -0.50240E-06   -0.44902E-09   305   0.290E-04
  15 F= -.26259254E+03 E0= -.26225298E+03  d E =-.124281E-01  mag=    40.3395
 curvature:  -4.95 expect dE=-0.923E-02 dE for cont linesearch -0.439E-07
 trial: gam= 0.37522 g(F)=  0.187E-02 g(S)=  0.000E+00 ort =-0.842E-05 (trialstep = 0.361E+01)
 search vector abs. value=  0.299E-02
 bond charge predicted
       N       E                     dE             d eps       ncg     rms          rms(c)
DAV:   1    -0.262594820537E+03   -0.22801E-02   -0.34719E+00  1600   0.302E+00    0.531E-01
RMM:   2    -0.262626158876E+03   -0.31338E-01   -0.43582E-02  1528   0.578E-01    0.371E+00
RMM:   3    -0.262595484014E+03    0.30675E-01   -0.18864E-02  1528   0.362E-01    0.130E+00
RMM:   4    -0.262601364691E+03   -0.58807E-02   -0.76486E-03  1528   0.213E-01    0.150E+00
RMM:   5    -0.262599991114E+03    0.13736E-02   -0.37977E-03  1528   0.160E-01    0.131E+00
RMM:   6    -0.262596648022E+03    0.33431E-02   -0.20611E-03  1528   0.122E-01    0.368E-01
RMM:   7    -0.262597159154E+03   -0.51113E-03   -0.63562E-04  1528   0.623E-02    0.235E-01
RMM:   8    -0.262597755967E+03   -0.59681E-03   -0.57688E-04  1528   0.582E-02    0.520E-01
RMM:   9    -0.262597163125E+03    0.59284E-03   -0.41062E-04  1528   0.532E-02    0.271E-01
RMM:  10    -0.262597187173E+03   -0.24047E-04   -0.17584E-04  1528   0.333E-02    0.167E-01
RMM:  11    -0.262597308733E+03   -0.12156E-03   -0.13593E-04  1528   0.282E-02    0.239E-01
RMM:  12    -0.262597226820E+03    0.81912E-04   -0.10133E-04  1528   0.257E-02    0.147E-01
RMM:  13    -0.262597208962E+03    0.17858E-04   -0.64307E-05  1526   0.206E-02    0.655E-02
RMM:  14    -0.262597215403E+03   -0.64407E-05   -0.19298E-05  1520   0.107E-02    0.421E-02
RMM:  15    -0.262597227123E+03   -0.11720E-04   -0.80614E-06  1478   0.719E-03    0.721E-02
RMM:  16    -0.262597214704E+03    0.12418E-04   -0.56345E-06  1398   0.637E-03    0.290E-02
RMM:  17    -0.262597222160E+03   -0.74557E-05   -0.28579E-06  1053   0.443E-03    0.196E-02
RMM:  18    -0.262597228423E+03   -0.62630E-05   -0.19934E-06   928   0.368E-03    0.307E-02
RMM:  19    -0.262597231364E+03   -0.29413E-05   -0.16666E-06   929   0.376E-03    0.905E-03
RMM:  20    -0.262597235423E+03   -0.40584E-05   -0.55522E-07   893   0.193E-03    0.686E-03
RMM:  21    -0.262597248450E+03   -0.13027E-04   -0.58927E-07   926   0.172E-03    0.944E-03
RMM:  22    -0.262597252074E+03   -0.36237E-05   -0.31184E-07   902   0.151E-03    0.375E-03
RMM:  23    -0.262597257958E+03   -0.58843E-05   -0.16526E-07   904   0.907E-04    0.591E-03
RMM:  24    -0.262597267905E+03   -0.99464E-05   -0.16616E-07   903   0.914E-04    0.475E-03
RMM:  25    -0.262597271871E+03   -0.39663E-05   -0.75950E-08   868   0.666E-04    0.158E-03
RMM:  26    -0.262597278957E+03   -0.70866E-05   -0.61333E-08   841   0.488E-04    0.272E-03
RMM:  27    -0.262597289930E+03   -0.10973E-04   -0.86303E-08   820   0.520E-04    0.133E-03
RMM:  28    -0.262597293586E+03   -0.36555E-05   -0.21330E-08   520   0.359E-04    0.152E-03
RMM:  29    -0.262597302833E+03   -0.92477E-05   -0.56069E-08   658   0.396E-04    0.220E-03
RMM:  30    -0.262597313453E+03   -0.10620E-04   -0.92783E-08   724   0.416E-04    0.805E-04
RMM:  31    -0.262597317177E+03   -0.37242E-05   -0.14787E-08   434   0.321E-04    0.948E-04
RMM:  32    -0.262597328141E+03   -0.10964E-04   -0.74660E-08   541   0.362E-04    0.935E-04
RMM:  33    -0.262597331255E+03   -0.31133E-05   -0.16351E-08   396   0.315E-04    0.520E-04
RMM:  34    -0.262597339753E+03   -0.84981E-05   -0.89791E-08   621   0.377E-04    0.827E-04
RMM:  35    -0.262597346569E+03   -0.68162E-05   -0.62078E-08   548   0.356E-04    0.528E-04
RMM:  36    -0.262597350632E+03   -0.40631E-05   -0.37676E-08   487   0.331E-04    0.579E-04
RMM:  37    -0.262597354370E+03   -0.37380E-05   -0.38423E-08   482   0.325E-04    0.336E-04
RMM:  38    -0.262597355391E+03   -0.10215E-05   -0.97052E-09   337   0.295E-04    0.350E-04
RMM:  39    -0.262597357050E+03   -0.16587E-05   -0.26483E-08   417   0.305E-04    0.254E-04
RMM:  40    -0.262597357466E+03   -0.41552E-06   -0.39949E-09   277   0.282E-04
  16 F= -.26259736E+03 E0= -.26225816E+03  d E =-.481652E-02  mag=    40.3345
 trial-energy change:   -0.004817  1 .order   -0.004802   -0.006733   -0.002872
 step:   6.2042(harm=  6.3029)  dis= 0.01041  next Energy=  -262.598391 (dE=-0.585E-02)
 bond charge predicted
       N       E                     dE             d eps       ncg     rms          rms(c)
DAV:   1    -0.262597135781E+03    0.22127E-03   -0.17819E+00  1600   0.216E+00    0.380E-01
RMM:   2    -0.262612963687E+03   -0.15828E-01   -0.22215E-02  1528   0.412E-01    0.265E+00
RMM:   3    -0.262597089009E+03    0.15875E-01   -0.96387E-03  1528   0.259E-01    0.932E-01
RMM:   4    -0.262600404816E+03   -0.33158E-02   -0.39274E-03  1528   0.153E-01    0.108E+00
RMM:   5    -0.262599692664E+03    0.71215E-03   -0.19452E-03  1528   0.114E-01    0.940E-01
RMM:   6    -0.262597966655E+03    0.17260E-02   -0.10636E-03  1528   0.875E-02    0.263E-01
RMM:   7    -0.262598302371E+03   -0.33572E-03   -0.32529E-04  1528   0.446E-02    0.168E-01
RMM:   8    -0.262598624995E+03   -0.32262E-03   -0.29946E-04  1528   0.419E-02    0.371E-01
RMM:   9    -0.262598310854E+03    0.31414E-03   -0.21582E-04  1528   0.385E-02    0.186E-01
RMM:  10    -0.262598340867E+03   -0.30014E-04   -0.90303E-05  1528   0.239E-02    0.117E-01
RMM:  11    -0.262598406483E+03   -0.65616E-04   -0.66254E-05  1527   0.197E-02    0.172E-01
RMM:  12    -0.262598361873E+03    0.44610E-04   -0.50195E-05  1521   0.181E-02    0.109E-01
RMM:  13    -0.262598352382E+03    0.94912E-05   -0.32978E-05  1520   0.148E-02    0.470E-02
RMM:  14    -0.262598356152E+03   -0.37698E-05   -0.95727E-06  1479   0.756E-03    0.273E-02
RMM:  15    -0.262598362332E+03   -0.61797E-05   -0.38622E-06  1214   0.503E-03    0.491E-02
RMM:  16    -0.262598356792E+03    0.55393E-05   -0.26791E-06   996   0.464E-03    0.224E-02
RMM:  17    -0.262598359874E+03   -0.30821E-05   -0.14130E-06   905   0.325E-03    0.138E-02
RMM:  18    -0.262598362674E+03   -0.28001E-05   -0.94617E-07   904   0.253E-03    0.198E-02
RMM:  19    -0.262598364754E+03   -0.20794E-05   -0.81300E-07   911   0.259E-03    0.666E-03
RMM:  20    -0.262598366786E+03   -0.20318E-05   -0.28867E-07   884   0.140E-03    0.469E-03
RMM:  21    -0.262598373973E+03   -0.71871E-05   -0.30061E-07   918   0.122E-03    0.666E-03
RMM:  22    -0.262598376138E+03   -0.21656E-05   -0.16223E-07   889   0.109E-03    0.267E-03
RMM:  23    -0.262598379481E+03   -0.33421E-05   -0.83390E-08   876   0.644E-04    0.415E-03
RMM:  24    -0.262598385370E+03   -0.58892E-05   -0.85870E-08   890   0.648E-04    0.340E-03
RMM:  25    -0.262598387831E+03   -0.24609E-05   -0.38337E-08   802   0.485E-04    0.110E-03
RMM:  26    -0.262598392020E+03   -0.41899E-05   -0.22926E-08   550   0.366E-04    0.187E-03
RMM:  27    -0.262598399099E+03   -0.70785E-05   -0.40489E-08   530   0.349E-04    0.945E-04
RMM:  28    -0.262598401303E+03   -0.22040E-05   -0.10227E-08   386   0.310E-04    0.105E-03
RMM:  29    -0.262598406599E+03   -0.52963E-05   -0.39395E-08   537   0.359E-04    0.154E-03
RMM:  30    -0.262598413769E+03   -0.71702E-05   -0.65634E-08   570   0.370E-04    0.637E-04
RMM:  31    -0.262598415939E+03   -0.21696E-05   -0.97076E-09   352   0.311E-04    0.675E-04
RMM:  32    -0.262598422593E+03   -0.66537E-05   -0.64940E-08   547   0.353E-04    0.710E-04
RMM:  33    -0.262598424934E+03   -0.23414E-05   -0.14780E-08   364   0.303E-04    0.335E-04
RMM:  34    -0.262598429684E+03   -0.47501E-05   -0.52051E-08   509   0.336E-04    0.566E-04
RMM:  35    -0.262598434171E+03   -0.44864E-05   -0.39008E-08   479   0.327E-04    0.384E-04
RMM:  36    -0.262598436491E+03   -0.23205E-05   -0.27300E-08   420   0.313E-04    0.441E-04
RMM:  37    -0.262598439026E+03   -0.25347E-05   -0.35089E-08   435   0.313E-04    0.251E-04
RMM:  38    -0.262598439578E+03   -0.55198E-06   -0.77507E-09   302   0.290E-04
  17 F= -.26259844E+03 E0= -.26225952E+03  d E =-.589863E-02  mag=    40.3310
 curvature:  -5.05 expect dE=-0.411E-02 dE for cont linesearch -0.376E-05
 trial: gam= 0.42832 g(F)=  0.815E-03 g(S)=  0.000E+00 ort = 0.472E-04 (trialstep = 0.413E+01)
 search vector abs. value=  0.140E-02
 bond charge predicted
       N       E                     dE             d eps       ncg     rms          rms(c)
DAV:   1    -0.262598584751E+03   -0.14573E-03   -0.19492E+00  1560   0.226E+00    0.413E-01
RMM:   2    -0.262620779586E+03   -0.22195E-01   -0.32013E-02  1528   0.478E-01    0.319E+00
RMM:   3    -0.262598148092E+03    0.22631E-01   -0.12179E-02  1539   0.287E-01    0.857E-01
RMM:   4    -0.262603161908E+03   -0.50138E-02   -0.48026E-03  1530   0.169E-01    0.122E+00
RMM:   5    -0.262602409669E+03    0.75224E-03   -0.23922E-03  1528   0.128E-01    0.109E+00
RMM:   6    -0.262599994164E+03    0.24155E-02   -0.12422E-03  1528   0.945E-02    0.230E-01
RMM:   7    -0.262600444170E+03   -0.45001E-03   -0.36714E-04  1528   0.470E-02    0.219E-01
RMM:   8    -0.262600646370E+03   -0.20220E-03   -0.30947E-04  1528   0.421E-02    0.367E-01
RMM:   9    -0.262600300343E+03    0.34603E-03   -0.24770E-04  1528   0.395E-02    0.172E-01
RMM:  10    -0.262600346835E+03   -0.46492E-04   -0.14346E-04  1528   0.292E-02    0.153E-01
RMM:  11    -0.262600403228E+03   -0.56393E-04   -0.98319E-05  1528   0.241E-02    0.225E-01
RMM:  12    -0.262600295000E+03    0.10823E-03   -0.73899E-05  1526   0.221E-02    0.126E-01
RMM:  13    -0.262600291232E+03    0.37682E-05   -0.45895E-05  1524   0.175E-02    0.476E-02
RMM:  14    -0.262600301196E+03   -0.99636E-05   -0.11364E-05  1506   0.824E-03    0.349E-02
RMM:  15    -0.262600319721E+03   -0.18525E-04   -0.62851E-06  1434   0.633E-03    0.548E-02
RMM:  16    -0.262600324369E+03   -0.46486E-05   -0.40445E-06  1224   0.534E-03    0.252E-02
RMM:  17    -0.262600335190E+03   -0.10821E-04   -0.20218E-06   937   0.365E-03    0.196E-02
RMM:  18    -0.262600357111E+03   -0.21921E-04   -0.20862E-06   949   0.352E-03    0.297E-02
RMM:  19    -0.262600378114E+03   -0.21003E-04   -0.19897E-06   962   0.371E-03    0.760E-03
RMM:  20    -0.262600389867E+03   -0.11753E-04   -0.66317E-07   906   0.195E-03    0.704E-03
RMM:  21    -0.262600423240E+03   -0.33373E-04   -0.80567E-07   935   0.178E-03    0.733E-03
RMM:  22    -0.262600432245E+03   -0.90044E-05   -0.30790E-07   905   0.138E-03    0.274E-03
RMM:  23    -0.262600447746E+03   -0.15501E-04   -0.21229E-07   905   0.887E-04    0.615E-03
RMM:  24    -0.262600469393E+03   -0.21647E-04   -0.24575E-07   915   0.934E-04    0.357E-03
RMM:  25    -0.262600477023E+03   -0.76302E-05   -0.87374E-08   879   0.640E-04    0.157E-03
RMM:  26    -0.262600494014E+03   -0.16992E-04   -0.12381E-07   855   0.544E-04    0.316E-03
RMM:  27    -0.262600515242E+03   -0.21228E-04   -0.19158E-07   872   0.620E-04    0.152E-03
RMM:  28    -0.262600523771E+03   -0.85293E-05   -0.59367E-08   717   0.455E-04    0.189E-03
RMM:  29    -0.262600543193E+03   -0.19422E-04   -0.17716E-07   841   0.498E-04    0.264E-03
RMM:  30    -0.262600555548E+03   -0.12355E-04   -0.11343E-07   837   0.496E-04    0.101E-03
RMM:  31    -0.262600560915E+03   -0.53669E-05   -0.29528E-08   523   0.362E-04    0.113E-03
RMM:  32    -0.262600577100E+03   -0.16185E-04   -0.15077E-07   699   0.419E-04    0.925E-04
RMM:  33    -0.262600580427E+03   -0.33265E-05   -0.19940E-08   433   0.332E-04    0.603E-04
RMM:  34    -0.262600590622E+03   -0.10195E-04   -0.11507E-07   738   0.414E-04    0.113E-03
RMM:  35    -0.262600595888E+03   -0.52659E-05   -0.48030E-08   545   0.360E-04    0.695E-04
RMM:  36    -0.262600599132E+03   -0.32448E-05   -0.33795E-08   504   0.341E-04    0.715E-04
RMM:  37    -0.262600601903E+03   -0.27703E-05   -0.33282E-08   481   0.332E-04    0.447E-04
RMM:  38    -0.262600602902E+03   -0.99892E-06   -0.11845E-08   334   0.301E-04
  18 F= -.26260060E+03 E0= -.26226207E+03  d E =-.216332E-02  mag=    40.3416
 trial-energy change:   -0.002163  1 .order   -0.002151   -0.003452   -0.000849
 step:   5.4297(harm=  5.4797)  dis= 0.00658  next Energy=  -262.600736 (dE=-0.230E-02)
 bond charge predicted
       N       E                     dE             d eps       ncg     rms          rms(c)
DAV:   1    -0.262600551599E+03    0.50304E-04   -0.19202E-01  1640   0.710E-01    0.130E-01
RMM:   2    -0.262602689849E+03   -0.21382E-02   -0.31436E-03  1528   0.150E-01    0.101E+00
RMM:   3    -0.262600234850E+03    0.24550E-02   -0.12023E-03  1538   0.901E-02    0.269E-01
RMM:   4    -0.262600959496E+03   -0.72465E-03   -0.47652E-04  1530   0.532E-02    0.387E-01
RMM:   5    -0.262600867543E+03    0.91953E-04   -0.23680E-04  1528   0.401E-02    0.344E-01
RMM:   6    -0.262600637211E+03    0.23033E-03   -0.12479E-04  1528   0.300E-02    0.724E-02
RMM:   7    -0.262600718596E+03   -0.81386E-04   -0.35861E-05  1526   0.147E-02    0.683E-02
RMM:   8    -0.262600742935E+03   -0.24339E-04   -0.30566E-05  1522   0.132E-02    0.117E-01
RMM:   9    -0.262600704324E+03    0.38611E-04   -0.24872E-05  1518   0.125E-02    0.546E-02
RMM:  10    -0.262600712167E+03   -0.78427E-05   -0.13738E-05  1518   0.906E-03    0.470E-02
RMM:  11    -0.262600716691E+03   -0.45236E-05   -0.95284E-06  1498   0.746E-03    0.692E-02
RMM:  12    -0.262600703869E+03    0.12821E-04   -0.73703E-06  1456   0.697E-03    0.401E-02
RMM:  13    -0.262600703185E+03    0.68375E-06   -0.43906E-06  1195   0.559E-03
  19 F= -.26260070E+03 E0= -.26226228E+03  d E =-.226361E-02  mag=    40.3432
 curvature:  -4.60 expect dE=-0.185E-02 dE for cont linesearch -0.143E-05
 trial: gam= 0.47580 g(F)=  0.403E-03 g(S)=  0.000E+00 ort = 0.209E-04 (trialstep = 0.439E+01)
 search vector abs. value=  0.741E-03
 bond charge predicted
       N       E                     dE             d eps       ncg     rms          rms(c)
DAV:   1    -0.262600810899E+03   -0.10703E-03   -0.12101E+00  1600   0.178E+00    0.333E-01
RMM:   2    -0.262617945856E+03   -0.17135E-01   -0.18982E-02  1528   0.367E-01    0.289E+00
RMM:   3    -0.262599425050E+03    0.18521E-01   -0.85611E-03  1531   0.243E-01    0.644E-01
RMM:   4    -0.262603412865E+03   -0.39878E-02   -0.29946E-03  1528   0.134E-01    0.986E-01
RMM:   5    -0.262602780426E+03    0.63244E-03   -0.14062E-03  1528   0.969E-02    0.830E-01
RMM:   6    -0.262601393192E+03    0.13872E-02   -0.89973E-04  1528   0.801E-02    0.183E-01
RMM:   7    -0.262601725417E+03   -0.33223E-03   -0.22165E-04  1528   0.369E-02    0.159E-01
RMM:   8    -0.262601895288E+03   -0.16987E-03   -0.17761E-04  1528   0.322E-02    0.294E-01
RMM:   9    -0.262601707916E+03    0.18737E-03   -0.14676E-04  1528   0.310E-02    0.131E-01
RMM:  10    -0.262601746761E+03   -0.38845E-04   -0.72148E-05  1528   0.210E-02    0.940E-02
RMM:  11    -0.262601807512E+03   -0.60751E-04   -0.54153E-05  1523   0.177E-02    0.163E-01
RMM:  12    -0.262601766130E+03    0.41383E-04   -0.35451E-05  1519   0.152E-02    0.974E-02
RMM:  13    -0.262601767776E+03   -0.16465E-05   -0.26425E-05  1520   0.131E-02    0.376E-02
RMM:  14    -0.262601774194E+03   -0.64180E-05   -0.56656E-06  1343   0.586E-03    0.213E-02
RMM:  15    -0.262601784675E+03   -0.10481E-04   -0.28470E-06  1021   0.443E-03    0.378E-02
RMM:  16    -0.262601785269E+03   -0.59454E-06   -0.19894E-06   926   0.412E-03
  20 F= -.26260179E+03 E0= -.26226357E+03  d E =-.108208E-02  mag=    40.3462
 trial-energy change:   -0.001082  1 .order   -0.001129   -0.001814   -0.000443
 step:   6.4060(harm=  5.8095)  dis= 0.00583  next Energy=  -262.601882 (dE=-0.118E-02)
 reached required accuracy - stopping structural energy minimisation
