  56  56   0   0
  0.1428571E+03  0.2000000E-08  0.2000000E-08  0.2000000E-08  0.2000000E-15
  1.000000000000000E-004
  CAR 
 1x1_001_aAl2O3                          
      2.82039387    -17.80944674  301     -3.79339407      1.00000000
    -17.809  0.0000E+00  0.0000E+00  0.0000E+00  0.0000E+00
    -17.741  0.0000E+00  0.0000E+00  0.0000E+00  0.0000E+00
    -17.672  0.0000E+00  0.0000E+00  0.0000E+00  0.0000E+00
    -17.603  0.0000E+00  0.0000E+00  0.0000E+00  0.0000E+00
    -17.534  0.0000E+00  0.0000E+00  0.0000E+00  0.0000E+00
    -17.466  0.0000E+00  0.0000E+00  0.0000E+00  0.0000E+00
    -17.397  0.8072E-17  0.0000E+00  0.5551E-18  0.0000E+00
    -17.328  0.1616E-13  0.0000E+00  0.1112E-14  0.0000E+00
    -17.259  0.1445E-10  0.4036E-16  0.9948E-12  0.2776E-17
    -17.191  0.5119E-08  0.7165E-13  0.3530E-09  0.4930E-14
    -17.122  0.7221E-06  0.5284E-10  0.5001E-07  0.3638E-11
    -17.053  0.4085E-04  0.1545E-07  0.2859E-05  0.1066E-08
    -16.984  0.9350E-03  0.1801E-05  0.6715E-04  0.1249E-06
    -16.915  0.8745E-02  0.8435E-04  0.6685E-03  0.5925E-05
    -16.847  0.3377E-01  0.1601E-02  0.2990E-02  0.1161E-03
    -16.778  0.5423E-01  0.1245E-01  0.6720E-02  0.9724E-03
    -16.709  0.3634E-01  0.4004E-01  0.9219E-02  0.3726E-02
    -16.640  0.1014E-01  0.5362E-01  0.9916E-02  0.7414E-02
    -16.572  0.1168E-02  0.2996E-01  0.9996E-02  0.9474E-02
    -16.503  0.5503E-04  0.6958E-02  0.1000E-01  0.9952E-02
    -16.434  0.1050E-05  0.6662E-03  0.1000E-01  0.9998E-02
    -16.365  0.8040E-08  0.2604E-04  0.1000E-01  0.1000E-01
    -16.297  0.2453E-10  0.4112E-06  0.1000E-01  0.1000E-01
    -16.228  0.2966E-13  0.2602E-08  0.1000E-01  0.1000E-01
    -16.159  0.1614E-16  0.6551E-11  0.1000E-01  0.1000E-01
    -16.090  0.0000E+00  0.6523E-14  0.1000E-01  0.1000E-01
    -16.022  0.0000E+00  0.0000E+00  0.1000E-01  0.1000E-01
    -15.953  0.0000E+00  0.0000E+00  0.1000E-01  0.1000E-01
    -15.884  0.0000E+00  0.0000E+00  0.1000E-01  0.1000E-01
    -15.815  0.0000E+00  0.0000E+00  0.1000E-01  0.1000E-01
    -15.746  0.0000E+00  0.0000E+00  0.1000E-01  0.1000E-01
    -15.678  0.0000E+00  0.0000E+00  0.1000E-01  0.1000E-01
    -15.609  0.0000E+00  0.0000E+00  0.1000E-01  0.1000E-01
    -15.540  0.0000E+00  0.0000E+00  0.1000E-01  0.1000E-01
    -15.471  0.0000E+00  0.0000E+00  0.1000E-01  0.1000E-01
    -15.403  0.0000E+00  0.0000E+00  0.1000E-01  0.1000E-01
    -15.334  0.0000E+00  0.0000E+00  0.1000E-01  0.1000E-01
    -15.265  0.0000E+00  0.0000E+00  0.1000E-01  0.1000E-01
    -15.196  0.0000E+00  0.0000E+00  0.1000E-01  0.1000E-01
    -15.128  0.0000E+00  0.0000E+00  0.1000E-01  0.1000E-01
    -15.059  0.0000E+00  0.0000E+00  0.1000E-01  0.1000E-01
    -14.990  0.0000E+00  0.0000E+00  0.1000E-01  0.1000E-01
    -14.921  0.0000E+00  0.0000E+00  0.1000E-01  0.1000E-01
    -14.853  0.0000E+00  0.0000E+00  0.1000E-01  0.1000E-01
    -14.784  0.0000E+00  0.0000E+00  0.1000E-01  0.1000E-01
    -14.715  0.0000E+00  0.0000E+00  0.1000E-01  0.1000E-01
    -14.646  0.0000E+00  0.0000E+00  0.1000E-01  0.1000E-01
    -14.577  0.0000E+00  0.0000E+00  0.1000E-01  0.1000E-01
    -14.509  0.0000E+00  0.0000E+00  0.1000E-01  0.1000E-01
    -14.440  0.0000E+00  0.0000E+00  0.1000E-01  0.1000E-01
    -14.371  0.0000E+00  0.0000E+00  0.1000E-01  0.1000E-01
    -14.302  0.0000E+00  0.0000E+00  0.1000E-01  0.1000E-01
    -14.234  0.0000E+00  0.0000E+00  0.1000E-01  0.1000E-01
    -14.165  0.0000E+00  0.0000E+00  0.1000E-01  0.1000E-01
    -14.096  0.0000E+00  0.0000E+00  0.1000E-01  0.1000E-01
    -14.027  0.0000E+00  0.0000E+00  0.1000E-01  0.1000E-01
    -13.959  0.0000E+00  0.0000E+00  0.1000E-01  0.1000E-01
    -13.890  0.0000E+00  0.0000E+00  0.1000E-01  0.1000E-01
    -13.821  0.0000E+00  0.0000E+00  0.1000E-01  0.1000E-01
    -13.752  0.0000E+00  0.0000E+00  0.1000E-01  0.1000E-01
    -13.683  0.0000E+00  0.0000E+00  0.1000E-01  0.1000E-01
    -13.615  0.0000E+00  0.0000E+00  0.1000E-01  0.1000E-01
    -13.546  0.0000E+00  0.0000E+00  0.1000E-01  0.1000E-01
    -13.477  0.0000E+00  0.0000E+00  0.1000E-01  0.1000E-01
    -13.408  0.0000E+00  0.0000E+00  0.1000E-01  0.1000E-01
    -13.340  0.0000E+00  0.0000E+00  0.1000E-01  0.1000E-01
    -13.271  0.0000E+00  0.0000E+00  0.1000E-01  0.1000E-01
    -13.202  0.0000E+00  0.0000E+00  0.1000E-01  0.1000E-01
    -13.133  0.0000E+00  0.0000E+00  0.1000E-01  0.1000E-01
    -13.065  0.0000E+00  0.0000E+00  0.1000E-01  0.1000E-01
    -12.996  0.0000E+00  0.0000E+00  0.1000E-01  0.1000E-01
    -12.927  0.0000E+00  0.0000E+00  0.1000E-01  0.1000E-01
    -12.858  0.0000E+00  0.0000E+00  0.1000E-01  0.1000E-01
    -12.790  0.0000E+00  0.0000E+00  0.1000E-01  0.1000E-01
    -12.721  0.0000E+00  0.0000E+00  0.1000E-01  0.1000E-01
    -12.652  0.0000E+00  0.0000E+00  0.1000E-01  0.1000E-01
    -12.583  0.3229E-16  0.1614E-16  0.1000E-01  0.1000E-01
    -12.514  0.6489E-13  0.2786E-13  0.1000E-01  0.1000E-01
    -12.446  0.4847E-10  0.2323E-10  0.1000E-01  0.1000E-01
    -12.377  0.1436E-07  0.7676E-08  0.1000E-01  0.1000E-01
    -12.308  0.1695E-05  0.1010E-05  0.1000E-01  0.1000E-01
    -12.239  0.8042E-04  0.5338E-04  0.1001E-01  0.1000E-01
    -12.171  0.1546E-02  0.1142E-02  0.1011E-01  0.1008E-01
    -12.102  0.1217E-01  0.9985E-02  0.1095E-01  0.1077E-01
    -12.033  0.3963E-01  0.3608E-01  0.1367E-01  0.1325E-01
    -11.964  0.5373E-01  0.5425E-01  0.1737E-01  0.1698E-01
    -11.896  0.3039E-01  0.3403E-01  0.1946E-01  0.1932E-01
    -11.827  0.7145E-02  0.8882E-02  0.1995E-01  0.1993E-01
    -11.758  0.6928E-03  0.9570E-03  0.2000E-01  0.2000E-01
    -11.689  0.2742E-04  0.4214E-04  0.2000E-01  0.2000E-01
    -11.620  0.4386E-06  0.7508E-06  0.2000E-01  0.2000E-01
    -11.552  0.2811E-08  0.5365E-08  0.2000E-01  0.2000E-01
    -11.483  0.7170E-11  0.1527E-10  0.2000E-01  0.2000E-01
    -11.414  0.7233E-14  0.1721E-13  0.2000E-01  0.2000E-01
    -11.345  0.0000E+00  0.0000E+00  0.2000E-01  0.2000E-01
    -11.277  0.0000E+00  0.0000E+00  0.2000E-01  0.2000E-01
    -11.208  0.1792E-14  0.1275E-14  0.2000E-01  0.2000E-01
    -11.139  0.2289E-11  0.1703E-11  0.2000E-01  0.2000E-01
    -11.070  0.1162E-08  0.9017E-09  0.2000E-01  0.2000E-01
    -11.002  0.2351E-06  0.1900E-06  0.2000E-01  0.2000E-01
    -10.933  0.1913E-04  0.1606E-04  0.2000E-01  0.2000E-01
    -10.864  0.6337E-03  0.5510E-03  0.2004E-01  0.2004E-01
    -10.795  0.8697E-02  0.7810E-02  0.2064E-01  0.2058E-01
    -10.727  0.5064E-01  0.4688E-01  0.2413E-01  0.2380E-01
    -10.658  0.1288E+00  0.1233E+00  0.3298E-01  0.3228E-01
    -10.589  0.1477E+00  0.1480E+00  0.4314E-01  0.4246E-01
    -10.520  0.7824E-01  0.8396E-01  0.4852E-01  0.4823E-01
    -10.451  0.1923E-01  0.2272E-01  0.4984E-01  0.4979E-01
    -10.383  0.2151E-02  0.2857E-02  0.4999E-01  0.4999E-01
    -10.314  0.1058E-03  0.1594E-03  0.5000E-01  0.5000E-01
    -10.245  0.2205E-05  0.3781E-05  0.5000E-01  0.5000E-01
    -10.176  0.1896E-07  0.3694E-07  0.5000E-01  0.5000E-01
    -10.108  0.6595E-10  0.1458E-09  0.5000E-01  0.5000E-01
    -10.039  0.9164E-13  0.2295E-12  0.5000E-01  0.5000E-01
     -9.970  0.1711E-14  0.1453E-15  0.5000E-01  0.5000E-01
     -9.901  0.2217E-11  0.1130E-14  0.5000E-01  0.5000E-01
     -9.833  0.1185E-08  0.1616E-11  0.5000E-01  0.5000E-01
     -9.764  0.2556E-06  0.9191E-09  0.5000E-01  0.5000E-01
     -9.695  0.2242E-04  0.2095E-06  0.5000E-01  0.5000E-01
     -9.626  0.8093E-03  0.1930E-04  0.5006E-01  0.5000E-01
     -9.558  0.1219E-01  0.7259E-03  0.5090E-01  0.5005E-01
     -9.489  0.7778E-01  0.1130E-01  0.5624E-01  0.5083E-01
     -9.420  0.2142E+00  0.7408E-01  0.7098E-01  0.5592E-01
     -9.351  0.2637E+00  0.2082E+00  0.8911E-01  0.7024E-01
     -9.282  0.1678E+00  0.2558E+00  0.1006E+00  0.8782E-01
     -9.214  0.8519E-01  0.1426E+00  0.1065E+00  0.9763E-01
     -9.145  0.3937E-01  0.5353E-01  0.1092E+00  0.1013E+00
     -9.076  0.1021E-01  0.5171E-01  0.1099E+00  0.1049E+00
     -9.007  0.1160E-02  0.4949E-01  0.1100E+00  0.1083E+00
     -8.939  0.7631E-04  0.2114E-01  0.1100E+00  0.1097E+00
     -8.870  0.7060E-03  0.3757E-02  0.1101E+00  0.1100E+00
     -8.801  0.9422E-02  0.2746E-03  0.1107E+00  0.1100E+00
     -8.732  0.5388E-01  0.1319E-04  0.1144E+00  0.1100E+00
     -8.664  0.1383E+00  0.2206E-03  0.1239E+00  0.1100E+00
     -8.595  0.1793E+00  0.3973E-02  0.1362E+00  0.1103E+00
     -8.526  0.1722E+00  0.3012E-01  0.1481E+00  0.1124E+00
     -8.457  0.2351E+00  0.9951E-01  0.1643E+00  0.1192E+00
     -8.388  0.3272E+00  0.1526E+00  0.1867E+00  0.1297E+00
     -8.320  0.3129E+00  0.1273E+00  0.2083E+00  0.1385E+00
     -8.251  0.3000E+00  0.8750E-01  0.2289E+00  0.1445E+00
     -8.182  0.3153E+00  0.6882E-01  0.2506E+00  0.1492E+00
     -8.113  0.2437E+00  0.8853E-01  0.2673E+00  0.1553E+00
     -8.045  0.1843E+00  0.2228E+00  0.2800E+00  0.1706E+00
     -7.976  0.2748E+00  0.4370E+00  0.2989E+00  0.2007E+00
     -7.907  0.4292E+00  0.4819E+00  0.3284E+00  0.2338E+00
     -7.838  0.4162E+00  0.3266E+00  0.3570E+00  0.2563E+00
     -7.770  0.2852E+00  0.1656E+00  0.3766E+00  0.2677E+00
     -7.701  0.2276E+00  0.9346E-01  0.3923E+00  0.2741E+00
     -7.632  0.2548E+00  0.1042E+00  0.4098E+00  0.2812E+00
     -7.563  0.3696E+00  0.1207E+00  0.4352E+00  0.2895E+00
     -7.495  0.4556E+00  0.1483E+00  0.4666E+00  0.2997E+00
     -7.426  0.4614E+00  0.2126E+00  0.4983E+00  0.3144E+00
     -7.357  0.4696E+00  0.3170E+00  0.5306E+00  0.3362E+00
     -7.288  0.4387E+00  0.4114E+00  0.5608E+00  0.3644E+00
     -7.219  0.3432E+00  0.3405E+00  0.5844E+00  0.3879E+00
     -7.151  0.3114E+00  0.1976E+00  0.6058E+00  0.4014E+00
     -7.082  0.3230E+00  0.2123E+00  0.6280E+00  0.4160E+00
     -7.013  0.3046E+00  0.3386E+00  0.6489E+00  0.4393E+00
     -6.944  0.3025E+00  0.4477E+00  0.6697E+00  0.4701E+00
     -6.876  0.3475E+00  0.4947E+00  0.6936E+00  0.5041E+00
     -6.807  0.3957E+00  0.4733E+00  0.7208E+00  0.5367E+00
     -6.738  0.4133E+00  0.4086E+00  0.7493E+00  0.5648E+00
     -6.669  0.4302E+00  0.3142E+00  0.7788E+00  0.5864E+00
     -6.601  0.4832E+00  0.2774E+00  0.8121E+00  0.6055E+00
     -6.532  0.7167E+00  0.2856E+00  0.8613E+00  0.6251E+00
     -6.463  0.9446E+00  0.2812E+00  0.9263E+00  0.6444E+00
     -6.394  0.8970E+00  0.2171E+00  0.9880E+00  0.6594E+00
     -6.326  0.7539E+00  0.1497E+00  0.1040E+01  0.6697E+00
     -6.257  0.7209E+00  0.2124E+00  0.1089E+01  0.6843E+00
     -6.188  0.7457E+00  0.4019E+00  0.1141E+01  0.7119E+00
     -6.119  0.7357E+00  0.5035E+00  0.1191E+01  0.7465E+00
     -6.050  0.7222E+00  0.4838E+00  0.1241E+01  0.7798E+00
     -5.982  0.5954E+00  0.4552E+00  0.1282E+01  0.8111E+00
     -5.913  0.3979E+00  0.5613E+00  0.1309E+01  0.8497E+00
     -5.844  0.4367E+00  0.7424E+00  0.1339E+01  0.9007E+00
     -5.775  0.7765E+00  0.6628E+00  0.1393E+01  0.9463E+00
     -5.707  0.1008E+01  0.4682E+00  0.1462E+01  0.9785E+00
     -5.638  0.9916E+00  0.5361E+00  0.1530E+01  0.1015E+01
     -5.569  0.9911E+00  0.6861E+00  0.1598E+01  0.1063E+01
     -5.500  0.9550E+00  0.7265E+00  0.1664E+01  0.1113E+01
     -5.432  0.7440E+00  0.8661E+00  0.1715E+01  0.1172E+01
     -5.363  0.5834E+00  0.9658E+00  0.1755E+01  0.1239E+01
     -5.294  0.6066E+00  0.6963E+00  0.1797E+01  0.1286E+01
     -5.225  0.7503E+00  0.3994E+00  0.1849E+01  0.1314E+01
     -5.156  0.8209E+00  0.4614E+00  0.1905E+01  0.1346E+01
     -5.088  0.8178E+00  0.7275E+00  0.1961E+01  0.1396E+01
     -5.019  0.9174E+00  0.8061E+00  0.2024E+01  0.1451E+01
     -4.950  0.1066E+01  0.6922E+00  0.2098E+01  0.1499E+01
     -4.881  0.1131E+01  0.8130E+00  0.2175E+01  0.1555E+01
     -4.813  0.1154E+01  0.1111E+01  0.2255E+01  0.1631E+01
     -4.744  0.1271E+01  0.1084E+01  0.2342E+01  0.1705E+01
     -4.675  0.1459E+01  0.8339E+00  0.2443E+01  0.1763E+01
     -4.606  0.1747E+01  0.7471E+00  0.2563E+01  0.1814E+01
     -4.538  0.1792E+01  0.7488E+00  0.2686E+01  0.1866E+01
     -4.469  0.1415E+01  0.6030E+00  0.2783E+01  0.1907E+01
     -4.400  0.9720E+00  0.5202E+00  0.2850E+01  0.1943E+01
     -4.331  0.6311E+00  0.7132E+00  0.2893E+01  0.1992E+01
     -4.263  0.3660E+00  0.1027E+01  0.2919E+01  0.2063E+01
     -4.194  0.1717E+00  0.1151E+01  0.2930E+01  0.2142E+01
     -4.125  0.1089E+00  0.1022E+01  0.2938E+01  0.2212E+01
     -4.056  0.1022E+00  0.9695E+00  0.2945E+01  0.2279E+01
     -3.987  0.8686E-01  0.1125E+01  0.2951E+01  0.2356E+01
     -3.919  0.1246E+00  0.1179E+01  0.2959E+01  0.2437E+01
     -3.850  0.1865E+00  0.1107E+01  0.2972E+01  0.2513E+01
     -3.781  0.1605E+00  0.1165E+01  0.2983E+01  0.2593E+01
     -3.712  0.9684E-01  0.1339E+01  0.2990E+01  0.2685E+01
     -3.644  0.9952E-01  0.1289E+01  0.2997E+01  0.2774E+01
     -3.575  0.1505E+00  0.9088E+00  0.3007E+01  0.2837E+01
     -3.506  0.1650E+00  0.6570E+00  0.3019E+01  0.2882E+01
     -3.437  0.1158E+00  0.5441E+00  0.3026E+01  0.2919E+01
     -3.369  0.4335E-01  0.3963E+00  0.3029E+01  0.2946E+01
     -3.300  0.1009E-01  0.2868E+00  0.3030E+01  0.2966E+01
     -3.231  0.1850E-01  0.2213E+00  0.3031E+01  0.2981E+01
     -3.162  0.5046E-01  0.1771E+00  0.3035E+01  0.2994E+01
     -3.093  0.7392E-01  0.1807E+00  0.3040E+01  0.3006E+01
     -3.025  0.8521E-01  0.1784E+00  0.3046E+01  0.3018E+01
     -2.956  0.1059E+00  0.1203E+00  0.3053E+01  0.3027E+01
     -2.887  0.1231E+00  0.4832E-01  0.3062E+01  0.3030E+01
     -2.818  0.9130E-01  0.3420E-01  0.3068E+01  0.3032E+01
     -2.750  0.5148E-01  0.6455E-01  0.3071E+01  0.3037E+01
     -2.681  0.6893E-01  0.9020E-01  0.3076E+01  0.3043E+01
     -2.612  0.9550E-01  0.1120E+00  0.3083E+01  0.3051E+01
     -2.543  0.7422E-01  0.1333E+00  0.3088E+01  0.3060E+01
     -2.475  0.4700E-01  0.1193E+00  0.3091E+01  0.3068E+01
     -2.406  0.1074E+00  0.9187E-01  0.3098E+01  0.3074E+01
     -2.337  0.2443E+00  0.9243E-01  0.3115E+01  0.3081E+01
     -2.268  0.2888E+00  0.1064E+00  0.3135E+01  0.3088E+01
     -2.200  0.2089E+00  0.1316E+00  0.3149E+01  0.3097E+01
     -2.131  0.1090E+00  0.1519E+00  0.3157E+01  0.3107E+01
     -2.062  0.3707E-01  0.1823E+00  0.3160E+01  0.3120E+01
     -1.993  0.7979E-02  0.2294E+00  0.3160E+01  0.3136E+01
     -1.924  0.1192E-01  0.1983E+00  0.3161E+01  0.3149E+01
     -1.856  0.3844E-01  0.1091E+00  0.3164E+01  0.3157E+01
     -1.787  0.5405E-01  0.3812E-01  0.3167E+01  0.3160E+01
     -1.718  0.3328E-01  0.1225E-01  0.3170E+01  0.3160E+01
     -1.649  0.2327E-01  0.2637E-01  0.3171E+01  0.3162E+01
     -1.581  0.6410E-01  0.5224E-01  0.3176E+01  0.3166E+01
     -1.512  0.1214E+00  0.4602E-01  0.3184E+01  0.3169E+01
     -1.443  0.1598E+00  0.3308E-01  0.3195E+01  0.3171E+01
     -1.374  0.2154E+00  0.6734E-01  0.3210E+01  0.3176E+01
     -1.306  0.2018E+00  0.1098E+00  0.3224E+01  0.3183E+01
     -1.237  0.1241E+00  0.1117E+00  0.3232E+01  0.3191E+01
     -1.168  0.1317E+00  0.1495E+00  0.3241E+01  0.3201E+01
     -1.099  0.1797E+00  0.2075E+00  0.3254E+01  0.3216E+01
     -1.031  0.1781E+00  0.1650E+00  0.3266E+01  0.3227E+01
     -0.962  0.1567E+00  0.1005E+00  0.3277E+01  0.3234E+01
     -0.893  0.1829E+00  0.1165E+00  0.3289E+01  0.3242E+01
     -0.824  0.2735E+00  0.1823E+00  0.3308E+01  0.3254E+01
     -0.755  0.3079E+00  0.2332E+00  0.3329E+01  0.3270E+01
     -0.687  0.2477E+00  0.2707E+00  0.3346E+01  0.3289E+01
     -0.618  0.1667E+00  0.3386E+00  0.3358E+01  0.3312E+01
     -0.549  0.1067E+00  0.3242E+00  0.3365E+01  0.3335E+01
     -0.480  0.5513E-01  0.2008E+00  0.3369E+01  0.3348E+01
     -0.412  0.1621E-01  0.1295E+00  0.3370E+01  0.3357E+01
     -0.343  0.2202E-02  0.1099E+00  0.3370E+01  0.3365E+01
     -0.274  0.1271E-03  0.5818E-01  0.3370E+01  0.3369E+01
     -0.205  0.7054E-05  0.1410E-01  0.3370E+01  0.3370E+01
     -0.137  0.1609E-03  0.1480E-02  0.3370E+01  0.3370E+01
     -0.068  0.2663E-02  0.6797E-04  0.3370E+01  0.3370E+01
      0.001  0.1960E-01  0.1024E-03  0.3372E+01  0.3370E+01
      0.070  0.7454E-01  0.1840E-02  0.3377E+01  0.3370E+01
      0.139  0.1772E+00  0.1398E-01  0.3389E+01  0.3371E+01
      0.207  0.2701E+00  0.4852E-01  0.3407E+01  0.3374E+01
      0.276  0.2493E+00  0.1044E+00  0.3425E+01  0.3382E+01
      0.345  0.1691E+00  0.2053E+00  0.3436E+01  0.3396E+01
      0.414  0.1350E+00  0.3023E+00  0.3445E+01  0.3417E+01
      0.482  0.1277E+00  0.2643E+00  0.3454E+01  0.3435E+01
      0.551  0.1000E+00  0.1795E+00  0.3461E+01  0.3447E+01
      0.620  0.7334E-01  0.1421E+00  0.3466E+01  0.3457E+01
      0.689  0.4626E-01  0.1059E+00  0.3469E+01  0.3464E+01
      0.757  0.4272E-01  0.6436E-01  0.3472E+01  0.3469E+01
      0.826  0.1067E+00  0.4906E-01  0.3480E+01  0.3472E+01
      0.895  0.2062E+00  0.1120E+00  0.3494E+01  0.3480E+01
      0.964  0.2716E+00  0.2175E+00  0.3513E+01  0.3495E+01
      1.032  0.2885E+00  0.2698E+00  0.3532E+01  0.3513E+01
      1.101  0.3129E+00  0.2502E+00  0.3554E+01  0.3530E+01
      1.170  0.3918E+00  0.2509E+00  0.3581E+01  0.3548E+01
      1.239  0.4608E+00  0.3743E+00  0.3612E+01  0.3573E+01
      1.308  0.4013E+00  0.5050E+00  0.3640E+01  0.3608E+01
      1.376  0.3103E+00  0.4403E+00  0.3661E+01  0.3638E+01
      1.445  0.3152E+00  0.3128E+00  0.3683E+01  0.3660E+01
      1.514  0.3184E+00  0.3114E+00  0.3705E+01  0.3681E+01
      1.583  0.3127E+00  0.3359E+00  0.3727E+01  0.3704E+01
      1.651  0.3441E+00  0.3411E+00  0.3750E+01  0.3728E+01
      1.720  0.3376E+00  0.3691E+00  0.3773E+01  0.3753E+01
      1.789  0.2511E+00  0.3493E+00  0.3791E+01  0.3777E+01
      1.858  0.1104E+00  0.2290E+00  0.3798E+01  0.3793E+01
      1.926  0.2338E-01  0.8561E-01  0.3800E+01  0.3799E+01
      1.995  0.2179E-02  0.1596E-01  0.3800E+01  0.3800E+01
      2.064  0.8574E-04  0.1376E-02  0.3800E+01  0.3800E+01
      2.133  0.1393E-05  0.5228E-04  0.3800E+01  0.3800E+01
      2.201  0.9203E-08  0.8449E-06  0.3800E+01  0.3800E+01
      2.270  0.2445E-10  0.5658E-08  0.3800E+01  0.3800E+01
      2.339  0.2593E-13  0.1541E-10  0.3800E+01  0.3800E+01
      2.408  0.0000E+00  0.1687E-13  0.3800E+01  0.3800E+01
      2.477  0.0000E+00  0.0000E+00  0.3800E+01  0.3800E+01
      2.545  0.0000E+00  0.0000E+00  0.3800E+01  0.3800E+01
      2.614  0.0000E+00  0.0000E+00  0.3800E+01  0.3800E+01
      2.683  0.0000E+00  0.0000E+00  0.3800E+01  0.3800E+01
      2.752  0.0000E+00  0.0000E+00  0.3800E+01  0.3800E+01
      2.820  0.0000E+00  0.0000E+00  0.3800E+01  0.3800E+01
