   56   56  100    2
  0.1428571E+03  0.2000000E-08  0.2000000E-08  0.2000000E-08  0.2000000E-15
  1.000000000000000E-004
  CAR 
 1x1_001_aAl2O3                          
    556      1    380
 
  0.0000000E+00  0.0000000E+00  0.0000000E+00  0.1000000E+01
    1      -16.809447    -16.686211   1.000000   1.000000
    2      -12.009149    -12.001002   1.000000   1.000000
    3      -10.664472    -10.660129   1.000000   1.000000
    4      -10.659979    -10.658712   1.000000   1.000000
    5      -10.609654    -10.600566   1.000000   1.000000
    6       -9.426754     -9.352076   1.000000   1.000000
    7       -9.417038     -9.348510   1.000000   1.000000
    8       -9.404044     -9.335284   1.000000   1.000000
    9       -9.402518     -9.333903   1.000000   1.000000
   10       -9.373569     -9.296557   1.000000   1.000000
   11       -9.245417     -9.073987   1.000000   1.000000
   12       -8.674034     -8.442789   1.000000   1.000000
   13       -8.666072     -8.435568   1.000000   1.000000
   14       -8.620656     -8.374231   1.000000   1.000000
   15       -8.543613     -8.248437   1.000000   1.000000
   16       -8.432522     -8.083764   1.000000   1.000000
   17       -8.423563     -8.000898   1.000000   1.000000
   18       -8.417215     -7.981653   1.000000   1.000000
   19       -8.415502     -7.980049   1.000000   1.000000
   20       -8.410305     -7.975769   1.000000   1.000000
   21       -8.335814     -7.974109   1.000000   1.000000
   22       -8.286574     -7.970716   1.000000   1.000000
   23       -8.241173     -7.966856   1.000000   1.000000
   24       -8.218320     -7.952330   1.000000   1.000000
   25       -8.211346     -7.876843   1.000000   1.000000
   26       -8.181386     -7.854280   1.000000   1.000000
   27       -8.172729     -7.846612   1.000000   1.000000
   28       -8.062249     -7.674535   1.000000   1.000000
   29       -7.990595     -7.606692   1.000000   1.000000
   30       -7.938787     -7.502472   1.000000   1.000000
   31       -7.936320     -7.451234   1.000000   1.000000
   32       -7.920092     -7.428499   1.000000   1.000000
   33       -7.913688     -7.333859   1.000000   1.000000
   34       -7.906844     -7.333032   1.000000   1.000000
   35       -7.906357     -7.331982   1.000000   1.000000
   36       -7.866866     -7.319735   1.000000   1.000000
   37       -7.853652     -7.304196   1.000000   1.000000
   38       -7.760637     -7.277120   1.000000   1.000000
   39       -7.732576     -7.258065   1.000000   1.000000
   40       -7.711296     -7.236986   1.000000   1.000000
   41       -7.592218     -7.063982   1.000000   1.000000
   42       -7.589794     -7.059564   1.000000   1.000000
   43       -7.587251     -7.058230   1.000000   1.000000
   44       -7.572890     -7.051689   1.000000   1.000000
   45       -7.532960     -6.956957   1.000000   1.000000
   46       -7.512233     -6.952134   1.000000   1.000000
   47       -7.506402     -6.949035   1.000000   1.000000
   48       -7.498896     -6.944664   1.000000   1.000000
   49       -7.441434     -6.919928   1.000000   1.000000
   50       -7.434814     -6.913462   1.000000   1.000000
   51       -7.400159     -6.883760   1.000000   1.000000
   52       -7.397461     -6.856411   1.000000   1.000000
   53       -7.355605     -6.808934   1.000000   1.000000
   54       -7.344890     -6.806717   1.000000   1.000000
   55       -7.329545     -6.794028   1.000000   1.000000
   56       -7.308152     -6.778879   1.000000   1.000000
   57       -7.299827     -6.767652   1.000000   1.000000
   58       -7.292731     -6.734898   1.000000   1.000000
   59       -7.189609     -6.644368   1.000000   1.000000
   60       -7.179508     -6.634908   1.000000   1.000000
   61       -7.161464     -6.633280   1.000000   1.000000
   62       -7.103255     -6.536539   1.000000   1.000000
   63       -7.098742     -6.532929   1.000000   1.000000
   64       -7.087505     -6.512954   1.000000   1.000000
   65       -7.013617     -6.458756   1.000000   1.000000
   66       -6.993146     -6.449998   1.000000   1.000000
   67       -6.967352     -6.376874   1.000000   1.000000
   68       -6.900403     -6.223744   1.000000   1.000000
   69       -6.893806     -6.214058   1.000000   1.000000
   70       -6.874148     -6.207888   1.000000   1.000000
   71       -6.837114     -6.202859   1.000000   1.000000
   72       -6.813553     -6.186502   1.000000   1.000000
   73       -6.803540     -6.173562   1.000000   1.000000
   74       -6.797294     -6.160285   1.000000   1.000000
   75       -6.721699     -6.121384   1.000000   1.000000
   76       -6.702891     -6.085192   1.000000   1.000000
   77       -6.699776     -6.077802   1.000000   1.000000
   78       -6.687785     -6.073946   1.000000   1.000000
   79       -6.670128     -6.046465   1.000000   1.000000
   80       -6.662011     -6.039193   1.000000   1.000000
   81       -6.555377     -5.988173   1.000000   1.000000
   82       -6.550989     -5.977592   1.000000   1.000000
   83       -6.544513     -5.906367   1.000000   1.000000
   84       -6.542516     -5.896645   1.000000   1.000000
   85       -6.538761     -5.889430   1.000000   1.000000
   86       -6.527369     -5.885981   1.000000   1.000000
   87       -6.518191     -5.884094   1.000000   1.000000
   88       -6.513757     -5.875351   1.000000   1.000000
   89       -6.503995     -5.871244   1.000000   1.000000
   90       -6.502085     -5.854524   1.000000   1.000000
   91       -6.483014     -5.842724   1.000000   1.000000
   92       -6.480146     -5.835091   1.000000   1.000000
   93       -6.475574     -5.833760   1.000000   1.000000
   94       -6.463371     -5.821397   1.000000   1.000000
   95       -6.455448     -5.815206   1.000000   1.000000
   96       -6.445815     -5.789615   1.000000   1.000000
   97       -6.433902     -5.773282   1.000000   1.000000
   98       -6.404975     -5.678461   1.000000   1.000000
   99       -6.401888     -5.644734   1.000000   1.000000
  100       -6.394833     -5.644147   1.000000   1.000000
  101       -6.389824     -5.636507   1.000000   1.000000
  102       -6.381636     -5.626196   1.000000   1.000000
  103       -6.346614     -5.617822   1.000000   1.000000
  104       -6.321068     -5.615244   1.000000   1.000000
  105       -6.316004     -5.596609   1.000000   1.000000
  106       -6.313723     -5.595534   1.000000   1.000000
  107       -6.292357     -5.592165   1.000000   1.000000
  108       -6.255670     -5.545182   1.000000   1.000000
  109       -6.248299     -5.531334   1.000000   1.000000
  110       -6.241034     -5.530260   1.000000   1.000000
  111       -6.231036     -5.521157   1.000000   1.000000
  112       -6.217689     -5.486808   1.000000   1.000000
  113       -6.212725     -5.456009   1.000000   1.000000
  114       -6.212291     -5.449316   1.000000   1.000000
  115       -6.194598     -5.431907   1.000000   1.000000
  116       -6.190884     -5.428686   1.000000   1.000000
  117       -6.157698     -5.428010   1.000000   1.000000
  118       -6.129785     -5.411369   1.000000   1.000000
  119       -6.125109     -5.405226   1.000000   1.000000
  120       -6.093525     -5.403283   1.000000   1.000000
  121       -6.084182     -5.394740   1.000000   1.000000
  122       -6.078627     -5.390260   1.000000   1.000000
  123       -6.077538     -5.386250   1.000000   1.000000
  124       -6.071930     -5.385290   1.000000   1.000000
  125       -6.054561     -5.372714   1.000000   1.000000
  126       -6.046445     -5.371390   1.000000   1.000000
  127       -6.036113     -5.362484   1.000000   1.000000
  128       -6.005478     -5.350565   1.000000   1.000000
  129       -5.993655     -5.345626   1.000000   1.000000
  130       -5.992752     -5.339898   1.000000   1.000000
  131       -5.949810     -5.238732   1.000000   1.000000
  132       -5.880082     -5.212766   1.000000   1.000000
  133       -5.808219     -5.154567   1.000000   1.000000
  134       -5.804508     -5.152503   1.000000   1.000000
  135       -5.792283     -5.123933   1.000000   1.000000
  136       -5.789742     -5.110538   1.000000   1.000000
  137       -5.779902     -5.108877   1.000000   1.000000
  138       -5.774729     -5.096752   1.000000   1.000000
  139       -5.773593     -5.092135   1.000000   1.000000
  140       -5.770281     -5.087096   1.000000   1.000000
  141       -5.768665     -5.079416   1.000000   1.000000
  142       -5.763300     -5.063545   1.000000   1.000000
  143       -5.757685     -5.063094   1.000000   1.000000
  144       -5.746099     -5.057058   1.000000   1.000000
  145       -5.744332     -5.045565   1.000000   1.000000
  146       -5.711619     -5.044208   1.000000   1.000000
  147       -5.701622     -5.017078   1.000000   1.000000
  148       -5.701405     -5.004322   1.000000   1.000000
  149       -5.692222     -4.984161   1.000000   1.000000
  150       -5.686146     -4.954521   1.000000   1.000000
  151       -5.652813     -4.904726   1.000000   1.000000
  152       -5.651841     -4.896327   1.000000   1.000000
  153       -5.647261     -4.892305   1.000000   1.000000
  154       -5.634769     -4.877328   1.000000   1.000000
  155       -5.619679     -4.872142   1.000000   1.000000
  156       -5.608735     -4.857016   1.000000   1.000000
  157       -5.604834     -4.846667   1.000000   1.000000
  158       -5.586931     -4.841474   1.000000   1.000000
  159       -5.568843     -4.833787   1.000000   1.000000
  160       -5.554113     -4.830896   1.000000   1.000000
  161       -5.549940     -4.823571   1.000000   1.000000
  162       -5.539058     -4.819471   1.000000   1.000000
  163       -5.537534     -4.817718   1.000000   1.000000
  164       -5.532898     -4.815265   1.000000   1.000000
  165       -5.529110     -4.808446   1.000000   1.000000
  166       -5.525203     -4.806021   1.000000   1.000000
  167       -5.523905     -4.805129   1.000000   1.000000
  168       -5.518326     -4.796759   1.000000   1.000000
  169       -5.508462     -4.793908   1.000000   1.000000
  170       -5.504882     -4.789020   1.000000   1.000000
  171       -5.457247     -4.777287   1.000000   1.000000
  172       -5.428389     -4.747302   1.000000   1.000000
  173       -5.418875     -4.724972   1.000000   1.000000
  174       -5.401406     -4.711952   1.000000   1.000000
  175       -5.378987     -4.702891   1.000000   1.000000
  176       -5.355080     -4.686013   1.000000   1.000000
  177       -5.351146     -4.682712   1.000000   1.000000
  178       -5.334571     -4.666093   1.000000   1.000000
  179       -5.311037     -4.661489   1.000000   1.000000
  180       -5.264716     -4.604306   1.000000   1.000000
  181       -5.243163     -4.591933   1.000000   1.000000
  182       -5.239487     -4.583472   1.000000   1.000000
  183       -5.239351     -4.582863   1.000000   1.000000
  184       -5.236569     -4.574560   1.000000   1.000000
  185       -5.235490     -4.568994   1.000000   1.000000
  186       -5.223887     -4.554904   1.000000   1.000000
  187       -5.219161     -4.554461   1.000000   1.000000
  188       -5.208112     -4.548622   1.000000   1.000000
  189       -5.193782     -4.541851   1.000000   1.000000
  190       -5.184823     -4.531376   1.000000   1.000000
  191       -5.158278     -4.506665   1.000000   1.000000
  192       -5.141834     -4.426774   1.000000   1.000000
  193       -5.128732     -4.425368   1.000000   1.000000
  194       -5.125127     -4.404269   1.000000   1.000000
  195       -5.100824     -4.387989   1.000000   1.000000
  196       -5.083113     -4.360699   1.000000   1.000000
  197       -5.067783     -4.348086   1.000000   1.000000
  198       -5.063218     -4.326084   1.000000   1.000000
  199       -5.059431     -4.317480   1.000000   1.000000
  200       -5.037071     -4.296428   1.000000   1.000000
  201       -5.028293     -4.292758   1.000000   1.000000
  202       -5.017665     -4.291000   1.000000   1.000000
  203       -5.016079     -4.284902   1.000000   1.000000
  204       -5.010923     -4.280233   1.000000   1.000000
  205       -5.000732     -4.269848   1.000000   1.000000
  206       -4.994029     -4.268526   1.000000   1.000000
  207       -4.958847     -4.260909   1.000000   1.000000
  208       -4.957307     -4.257612   1.000000   1.000000
  209       -4.949139     -4.246898   1.000000   1.000000
  210       -4.946948     -4.239781   1.000000   1.000000
  211       -4.936914     -4.238171   1.000000   1.000000
  212       -4.929738     -4.215481   1.000000   1.000000
  213       -4.928778     -4.214731   1.000000   1.000000
  214       -4.927505     -4.201151   1.000000   1.000000
  215       -4.916099     -4.180662   1.000000   1.000000
  216       -4.903400     -4.179841   1.000000   1.000000
  217       -4.895502     -4.176603   1.000000   1.000000
  218       -4.887503     -4.171894   1.000000   1.000000
  219       -4.880539     -4.170262   1.000000   1.000000
  220       -4.879396     -4.168069   1.000000   1.000000
  221       -4.864542     -4.164268   1.000000   1.000000
  222       -4.860304     -4.158868   1.000000   1.000000
  223       -4.818940     -4.098161   1.000000   0.999992
  224       -4.814913     -4.077931   1.000000   0.999971
  225       -4.795637     -4.076683   1.000000   0.999969
  226       -4.783869     -4.067922   1.000000   0.999948
  227       -4.782381     -4.046961   1.000000   0.999832
  228       -4.776349     -4.046147   1.000000   0.999825
  229       -4.773454     -4.043671   1.000000   0.999800
  230       -4.772985     -4.033471   1.000000   0.999657
  231       -4.770329     -4.025644   1.000000   0.999489
  232       -4.770138     -4.018216   1.000000   0.999262
  233       -4.769150     -4.003355   1.000000   0.998508
  234       -4.764816     -3.994151   1.000000   0.997738
  235       -4.759571     -3.993992   1.000000   0.997722
  236       -4.757228     -3.976432   1.000000   0.995181
  237       -4.726775     -3.975682   1.000000   0.995030
  238       -4.724870     -3.968808   1.000000   0.993444
  239       -4.712213     -3.967452   1.000000   0.993083
  240       -4.698926     -3.960636   1.000000   0.990989
  241       -4.681115     -3.956159   1.000000   0.989328
  242       -4.678247     -3.950981   1.000000   0.987080
  243       -4.660246     -3.947195   1.000000   0.985188
  244       -4.653541     -3.931237   1.000000   0.974376
  245       -4.653095     -3.927184   1.000000   0.970760
  246       -4.648544     -3.917071   1.000000   0.959860
  247       -4.648166     -3.907634   1.000000   0.946909
  248       -4.644084     -3.894563   1.000000   0.923747
  249       -4.642826     -3.858239   1.000000   0.820442
  250       -4.639479     -3.851182   1.000000   0.793106
  251       -4.638236     -3.840534   1.000000   0.747504
  252       -4.626351     -3.838624   1.000000   0.738798
  253       -4.618431     -3.829601   1.000000   0.695688
  254       -4.615104     -3.825876   1.000000   0.677011
  255       -4.603419     -3.822437   1.000000   0.659367
  256       -4.603241     -3.813154   1.000000   0.610048
  257       -4.599573     -3.807050   1.000000   0.576567
  258       -4.595764     -3.799854   1.000000   0.536396
  259       -4.589326     -3.794268   1.000000   0.504930
  260       -4.585559     -3.789116   1.000000   0.475876
  261       -4.582622     -3.755664   1.000000   0.296814
  262       -4.579323     -3.750076   1.000000   0.270068
  263       -4.578252     -3.740539   1.000000   0.227387
  264       -4.572476     -3.731742   1.000000   0.191634
  265       -4.571425     -3.723032   1.000000   0.159853
  266       -4.567438     -3.719548   1.000000   0.148164
  267       -4.564111     -3.703593   1.000000   0.102047
  268       -4.562883     -3.696736   1.000000   0.085820
  269       -4.556786     -3.695508   1.000000   0.083130
  270       -4.546387     -3.695081   1.000000   0.082210
  271       -4.545776     -3.693540   1.000000   0.078952
  272       -4.544677     -3.688692   1.000000   0.069341
  273       -4.540264     -3.687384   1.000000   0.066910
  274       -4.537312     -3.681413   1.000000   0.056637
  275       -4.534324     -3.680872   1.000000   0.055771
  276       -4.491525     -3.680504   1.000000   0.055187
  277       -4.478233     -3.678040   1.000000   0.051408
  278       -4.467305     -3.676746   1.000000   0.049507
  279       -4.466079     -3.674119   1.000000   0.045820
  280       -4.461862     -3.672394   1.000000   0.043522
  281       -4.460378     -3.670286   1.000000   0.040841
  282       -4.454759     -3.660355   1.000000   0.029955
  283       -4.454516     -3.575804   1.000000   0.001045
  284       -4.444579     -3.563264   1.000000   0.000568
  285       -4.437207     -3.562605   1.000000   0.000550
  286       -4.430978     -3.556530   1.000000   0.000404
  287       -4.402502     -3.552444   1.000000   0.000328
  288       -4.356057     -3.515277   1.000000   0.000042
  289       -4.340910     -3.508228   1.000000   0.000028
  290       -4.335345     -3.470557   1.000000   0.000002
  291       -4.335035     -3.463719   1.000000   0.000002
  292       -4.329419     -3.461428   1.000000   0.000001
  293       -4.276894     -3.456012   1.000000   0.000001
  294       -4.140356     -3.434779   1.000000   0.000000
  295       -4.071798     -3.392581   0.999959   0.000000
  296       -3.899573     -3.315849   0.933400   0.000000
  297       -3.882515     -3.310719   0.896231   0.000000
  298       -3.866643     -3.298689   0.849875   0.000000
  299       -3.790438     -3.220136   0.483325   0.000000
  300       -3.620915     -3.134354   0.007359   0.000000
  301       -3.602257     -3.108956   0.003435   0.000000
  302       -3.508059     -3.029096   0.000027   0.000000
  303       -3.502711     -3.021869   0.000020   0.000000
  304       -3.155265     -2.763015   0.000000   0.000000
  305       -3.029414     -2.653974   0.000000   0.000000
  306       -2.915735     -2.557783   0.000000   0.000000
  307       -2.891395     -2.532054   0.000000   0.000000
  308       -2.677722     -2.392746   0.000000   0.000000
  309       -2.603031     -2.290608   0.000000   0.000000
  310       -2.352563     -2.181657   0.000000   0.000000
  311       -2.347498     -2.176833   0.000000   0.000000
  312       -2.342122     -2.038912   0.000000   0.000000
  313       -2.341719     -2.032975   0.000000   0.000000
  314       -2.280770     -2.017567   0.000000   0.000000
  315       -2.245149     -1.973117   0.000000   0.000000
  316       -2.183263     -1.905466   0.000000   0.000000
  317       -1.828952     -1.594049   0.000000   0.000000
  318       -1.550021     -1.353038   0.000000   0.000000
  319       -1.524375     -1.314836   0.000000   0.000000
  320       -1.395185     -1.169382   0.000000   0.000000
  321       -1.380129     -1.126258   0.000000   0.000000
  322       -1.367610     -1.108941   0.000000   0.000000
  323       -1.352321     -1.100891   0.000000   0.000000
  324       -1.182679     -0.938974   0.000000   0.000000
  325       -1.123253     -0.835185   0.000000   0.000000
  326       -1.119841     -0.823673   0.000000   0.000000
  327       -1.030968     -0.783591   0.000000   0.000000
  328       -0.986833     -0.743288   0.000000   0.000000
  329       -0.861083     -0.667244   0.000000   0.000000
  330       -0.856835     -0.656070   0.000000   0.000000
  331       -0.828673     -0.631330   0.000000   0.000000
  332       -0.820146     -0.602784   0.000000   0.000000
  333       -0.771835     -0.592201   0.000000   0.000000
  334       -0.743772     -0.586009   0.000000   0.000000
  335       -0.715412     -0.543743   0.000000   0.000000
  336       -0.650569     -0.409754   0.000000   0.000000
  337       -0.563852     -0.373416   0.000000   0.000000
  338        0.079587      0.226561   0.000000   0.000000
  339        0.165347      0.340936   0.000000   0.000000
  340        0.185942      0.372920   0.000000   0.000000
  341        0.190963      0.385940   0.000000   0.000000
  342        0.196487      0.395188   0.000000   0.000000
  343        0.258315      0.415460   0.000000   0.000000
  344        0.324913      0.447675   0.000000   0.000000
  345        0.425912      0.555904   0.000000   0.000000
  346        0.464709      0.581528   0.000000   0.000000
  347        0.595656      0.688189   0.000000   0.000000
  348        0.825573      0.918768   0.000000   0.000000
  349        0.873504      0.921836   0.000000   0.000000
  350        0.906317      0.964346   0.000000   0.000000
  351        0.939990      1.023495   0.000000   0.000000
  352        0.970312      1.032640   0.000000   0.000000
  353        1.006215      1.046388   0.000000   0.000000
  354        1.034349      1.125568   0.000000   0.000000
  355        1.099961      1.178560   0.000000   0.000000
  356        1.112872      1.229325   0.000000   0.000000
  357        1.122886      1.245215   0.000000   0.000000
  358        1.188523      1.260393   0.000000   0.000000
  359        1.202368      1.278467   0.000000   0.000000
  360        1.205118      1.287257   0.000000   0.000000
  361        1.218624      1.294741   0.000000   0.000000
  362        1.232279      1.310685   0.000000   0.000000
  363        1.239516      1.314351   0.000000   0.000000
  364        1.270347      1.324167   0.000000   0.000000
  365        1.298468      1.373433   0.000000   0.000000
  366        1.365255      1.433156   0.000000   0.000000
  367        1.400919      1.497268   0.000000   0.000000
  368        1.438035      1.507592   0.000000   0.000000
  369        1.456100      1.510143   0.000000   0.000000
  370        1.464723      1.547517   0.000000   0.000000
  371        1.481431      1.566012   0.000000   0.000000
  372        1.579945      1.635566   0.000000   0.000000
  373        1.596209      1.651208   0.000000   0.000000
  374        1.602482      1.676999   0.000000   0.000000
  375        1.622111      1.692492   0.000000   0.000000
  376        1.658926      1.724140   0.000000   0.000000
  377        1.703214      1.760720   0.000000   0.000000
  378        1.729896      1.770008   0.000000   0.000000
  379        1.746268      1.790016   0.000000   0.000000
  380        1.751012      1.820394   0.000000   0.000000
