<?xml version="1.0" encoding="ISO-8859-1"?>
<modeling>
 <generator>
  <i name="program" type="string">vasp </i>
  <i name="version" type="string">5.4.4.18Apr17-6-g9f103f2a35  </i>
  <i name="subversion" type="string">(build Dec 11 2018 16:16:58) complex            parallel </i>
  <i name="platform" type="string">LinuxIFC </i>
  <i name="date" type="string">2020 07 21 </i>
  <i name="time" type="string">16:39:58 </i>
 </generator>
 <incar>
  <i type="string" name="SYSTEM"> 1x1_001_aAl2O3</i>
  <i type="int" name="ISTART">     0</i>
  <i type="string" name="PREC">normal  ! precision parameter, typicall</i>
  <i type="string" name="ALGO"> fast   ! sets SCF algorithm.  fast: com</i>
  <i type="int" name="ISPIN">     2</i>
  <i type="int" name="NELM">   100</i>
  <i type="int" name="IBRION">     2</i>
  <i type="int" name="NFREE">     5</i>
  <i name="EDIFF">      0.00000100</i>
  <i name="EDIFFG">     -0.03000000</i>
  <i type="int" name="NSW">   100</i>
  <i type="int" name="ISIF">     0</i>
  <i name="SYMPREC">      0.00000100</i>
  <i name="ENCUT">    400.00000000</i>
  <i name="POTIM">      0.20000000</i>
  <i type="string" name="LREAL"> auto  ! how to numerically handle core</i>
  <i type="int" name="ISMEAR">     0</i>
  <i name="SIGMA">      0.10000000</i>
  <i type="int" name="NWRITE">     1</i>
  <i type="logical" name="LWAVE"> F  </i>
  <i type="logical" name="LCHARG"> F  </i>
  <i type="logical" name="LVTOT"> F  </i>
  <v type="int" name="KPOINT_BSE">    -1     0     0     0</v>
  <i type="int" name="NELM">   100</i>
 </incar>
 <structure name="primitive_cell" >
  <crystal>
   <varray name="basis" >
    <v>      20.00000000       0.00000000       0.00000000 </v>
    <v>       0.00000000      20.00000000       0.00000000 </v>
    <v>       0.00000000       0.00000000      20.00000000 </v>
   </varray>
   <i name="volume">   8000.00000000 </i>
   <varray name="rec_basis" >
    <v>       0.05000000       0.00000000       0.00000000 </v>
    <v>       0.00000000       0.05000000       0.00000000 </v>
    <v>       0.00000000       0.00000000       0.05000000 </v>
   </varray>
  </crystal>
  <varray name="positions" >
   <v>       0.34999999      -0.40390003       0.41023001 </v>
   <v>       0.41481999      -0.45690000       0.49675000 </v>
   <v>       0.45361000      -0.45758998       0.37911001 </v>
   <v>       0.31621998      -0.40671998      -0.47240001 </v>
   <v>       0.39269999      -0.40680999       0.29561001 </v>
   <v>       0.41144002      -0.33666003       0.49592999 </v>
   <v>       0.35174000       0.48896000       0.34492999 </v>
   <v>       0.45111999      -0.33701998       0.37739000 </v>
   <v>       0.31229001       0.48839000       0.46421999 </v>
   <v>      -0.48544002      -0.39142001       0.46454999 </v>
   <v>       0.41624001       0.43660000       0.43307000 </v>
   <v>       0.35165000       0.48844001      -0.41759002 </v>
   <v>      -0.48479998      -0.40201998       0.29126000 </v>
   <v>       0.45374000       0.49070001       0.27023000 </v>
   <v>       0.41226000      -0.40284002      -0.39567000 </v>
   <v>      -0.48412001       0.49059999       0.46496999 </v>
   <v>      -0.48710001      -0.27643001       0.46397001 </v>
   <v>       0.31948999       0.38475001       0.39871001 </v>
   <v>      -0.48341000       0.43858001       0.35894001 </v>
   <v>      -0.48606998      -0.45673001      -0.42956001 </v>
   <v>      -0.42243999      -0.45551997       0.37959999 </v>
   <v>       0.45506999       0.43731001      -0.44989997 </v>
   <v>      -0.48699999      -0.33556998      -0.42921001 </v>
   <v>       0.41586000       0.38284001       0.32444999 </v>
   <v>      -0.42303002      -0.33487999       0.37803999 </v>
   <v>       0.35187000       0.38130999      -0.48260999 </v>
   <v>      -0.38485998      -0.45569003       0.49803001 </v>
   <v>      -0.48196000       0.37242001       0.46355998 </v>
   <v>      -0.42085999       0.49233001       0.27079999 </v>
   <v>      -0.38468999      -0.33471000       0.49739999 </v>
   <v>       0.41635999       0.31641999       0.43090999 </v>
   <v>       0.45265999       0.49094000      -0.33677000 </v>
   <v>       0.36684999       0.46491000      -0.32617003 </v>
   <v>      -0.48646998      -0.40294999      -0.32789999 </v>
   <v>      -0.48280001       0.38745001       0.25582999 </v>
   <v>      -0.36229998      -0.40324003       0.29679000 </v>
   <v>      -0.38308001       0.43946001       0.43193999 </v>
   <v>       0.39315000       0.38383001      -0.36723000 </v>
   <v>      -0.42210001       0.43765000      -0.44985998 </v>
   <v>      -0.38496000      -0.40061003      -0.39552999 </v>
   <v>       0.45515999       0.31744999      -0.45060998 </v>
   <v>      -0.32093000      -0.40033001       0.41203999 </v>
   <v>      -0.48159999       0.31786001       0.35631999 </v>
   <v>      -0.38104999       0.38558999       0.32365999 </v>
   <v>      -0.42072999       0.49200001      -0.34307998 </v>
   <v>      -0.31892997       0.49320999       0.34472001 </v>
   <v>      -0.48091000       0.38150001      -0.35790002 </v>
   <v>      -0.28792000      -0.40315002      -0.47022998 </v>
   <v>      -0.48047000       0.25764999       0.46280000 </v>
   <v>      -0.28048998       0.49331000       0.46399999 </v>
   <v>      -0.31966001       0.49168000      -0.41626000 </v>
   <v>      -0.37988001       0.31862000       0.42938000 </v>
   <v>      -0.41842997       0.31762001      -0.44972998 </v>
   <v>      -0.31803000       0.38521001      -0.48307002 </v>
   <v>      -0.28499001       0.38927999       0.39916000 </v>
   <v>      -0.35878998       0.38648999      -0.36857998 </v>
  </varray>
 </structure>
 <varray name="primitive_index" >
  <v type="int" >        1 </v>
  <v type="int" >       10 </v>
  <v type="int" >       19 </v>
  <v type="int" >        8 </v>
  <v type="int" >       16 </v>
  <v type="int" >        3 </v>
  <v type="int" >       17 </v>
  <v type="int" >        2 </v>
  <v type="int" >       24 </v>
  <v type="int" >        5 </v>
  <v type="int" >       26 </v>
  <v type="int" >        9 </v>
  <v type="int" >       20 </v>
  <v type="int" >       18 </v>
  <v type="int" >       11 </v>
  <v type="int" >       28 </v>
  <v type="int" >        4 </v>
  <v type="int" >       50 </v>
  <v type="int" >       21 </v>
  <v type="int" >       13 </v>
  <v type="int" >       23 </v>
  <v type="int" >       27 </v>
  <v type="int" >       12 </v>
  <v type="int" >       47 </v>
  <v type="int" >        6 </v>
  <v type="int" >       25 </v>
  <v type="int" >       14 </v>
  <v type="int" >       29 </v>
  <v type="int" >       22 </v>
  <v type="int" >        7 </v>
  <v type="int" >       51 </v>
  <v type="int" >       39 </v>
  <v type="int" >       56 </v>
  <v type="int" >       40 </v>
  <v type="int" >       48 </v>
  <v type="int" >       35 </v>
  <v type="int" >       30 </v>
  <v type="int" >       42 </v>
  <v type="int" >       31 </v>
  <v type="int" >       15 </v>
  <v type="int" >       43 </v>
  <v type="int" >       32 </v>
  <v type="int" >       52 </v>
  <v type="int" >       49 </v>
  <v type="int" >       41 </v>
  <v type="int" >       36 </v>
  <v type="int" >       44 </v>
  <v type="int" >       33 </v>
  <v type="int" >       55 </v>
  <v type="int" >       37 </v>
  <v type="int" >       34 </v>
  <v type="int" >       53 </v>
  <v type="int" >       45 </v>
  <v type="int" >       38 </v>
  <v type="int" >       54 </v>
  <v type="int" >       46 </v>
 </varray>
 <kpoints>
  <generation param="Monkhorst-Pack">
   <v type="int" name="divisions">       1        1        1 </v>
   <v name="usershift">      0.00000000       0.00000000       0.00000000 </v>
   <v name="genvec1">      1.00000000       0.00000000       0.00000000 </v>
   <v name="genvec2">      0.00000000       1.00000000       0.00000000 </v>
   <v name="genvec3">      0.00000000       0.00000000       1.00000000 </v>
   <v name="shift">      0.00000000       0.00000000       0.00000000 </v>
  </generation>
  <varray name="kpointlist" >
   <v>       0.00000000       0.00000000       0.00000000 </v>
  </varray>
  <varray name="weights" >
   <v>       1.00000000 </v>
  </varray>
 </kpoints>
 <parameters>
  <separator name="general" >
   <i type="string" name="SYSTEM">1x1_001_aAl2O3</i>
   <i type="logical" name="LCOMPAT"> F  </i>
  </separator>
  <separator name="electronic" >
   <i type="string" name="PREC">normal</i>
   <i name="ENMAX">    400.00000000</i>
   <i name="ENAUG">    544.56500000</i>
   <i name="EDIFF">      0.00000100</i>
   <i type="int" name="IALGO">    68</i>
   <i type="int" name="IWAVPR">    11</i>
   <i type="int" name="NBANDS">   380</i>
   <i name="NELECT">    556.00000000</i>
   <i type="int" name="TURBO">     0</i>
   <i type="int" name="IRESTART">     0</i>
   <i type="int" name="NREBOOT">     0</i>
   <i type="int" name="NMIN">     0</i>
   <i name="EREF">      0.00000000</i>
   <separator name="electronic smearing" >
    <i type="int" name="ISMEAR">     0</i>
    <i name="SIGMA">      0.10000000</i>
    <i name="KSPACING">      0.50000000</i>
    <i type="logical" name="KGAMMA"> T  </i>
   </separator>
   <separator name="electronic projectors" >
    <i type="logical" name="LREAL"> T  </i>
    <v name="ROPT">     -0.00050000     -0.00050000</v>
    <i type="int" name="LMAXPAW">  -100</i>
    <i type="int" name="LMAXMIX">     2</i>
    <i type="logical" name="NLSPLINE"> F  </i>
   </separator>
   <separator name="electronic startup" >
    <i type="int" name="ISTART">     0</i>
    <i type="int" name="ICHARG">     2</i>
    <i type="int" name="INIWAV">     1</i>
   </separator>
   <separator name="electronic spin" >
    <i type="int" name="ISPIN">     2</i>
    <i type="logical" name="LNONCOLLINEAR"> F  </i>
    <v name="MAGMOM">      1.00000000      1.00000000      1.00000000      1.00000000      1.00000000      1.00000000      1.00000000      1.00000000      1.00000000      1.00000000      1.00000000      1.00000000      1.00000000      1.00000000      1.00000000      1.00000000      1.00000000      1.00000000      1.00000000      1.00000000
      1.00000000      1.00000000      1.00000000      1.00000000      1.00000000      1.00000000      1.00000000      1.00000000      1.00000000      1.00000000      1.00000000      1.00000000      1.00000000      1.00000000      1.00000000      1.00000000      1.00000000      1.00000000      1.00000000      1.00000000
      1.00000000      1.00000000      1.00000000      1.00000000      1.00000000      1.00000000      1.00000000      1.00000000      1.00000000      1.00000000      1.00000000      1.00000000      1.00000000      1.00000000      1.00000000      1.00000000</v>
    <i name="NUPDOWN">     -1.00000000</i>
    <i type="logical" name="LSORBIT"> F  </i>
    <v name="SAXIS">      0.00000000      0.00000000      1.00000000</v>
    <i type="logical" name="LSPIRAL"> F  </i>
    <v name="QSPIRAL">      0.00000000      0.00000000      0.00000000</v>
    <i type="logical" name="LZEROZ"> F  </i>
   </separator>
   <separator name="electronic exchange-correlation" >
    <i type="logical" name="LASPH"> F  </i>
    <i type="logical" name="LMETAGGA"> F  </i>
   </separator>
   <separator name="electronic convergence" >
    <i type="int" name="NELM">   100</i>
    <i type="int" name="NELMDL">    -5</i>
    <i type="int" name="NELMIN">     2</i>
    <i name="ENINI">    400.00000000</i>
    <separator name="electronic convergence detail" >
     <i type="logical" name="LDIAG"> T  </i>
     <i type="logical" name="LSUBROT"> F  </i>
     <i name="WEIMIN">      0.00100000</i>
     <i name="EBREAK">      0.00000000</i>
     <i name="DEPER">      0.30000000</i>
     <i type="int" name="NRMM">     4</i>
     <i name="TIME">      0.40000000</i>
    </separator>
   </separator>
   <separator name="electronic mixer" >
    <i name="AMIX">      0.40000000</i>
    <i name="BMIX">      1.00000000</i>
    <i name="AMIN">      0.10000000</i>
    <i name="AMIX_MAG">      1.60000000</i>
    <i name="BMIX_MAG">      1.00000000</i>
    <separator name="electronic mixer details" >
     <i type="int" name="IMIX">     4</i>
     <i type="logical" name="MIXFIRST"> F  </i>
     <i type="int" name="MAXMIX">   -45</i>
     <i name="WC">    100.00000000</i>
     <i type="int" name="INIMIX">     1</i>
     <i type="int" name="MIXPRE">     1</i>
     <i type="int" name="MREMOVE">     5</i>
    </separator>
   </separator>
   <separator name="electronic dipolcorrection" >
    <i type="logical" name="LDIPOL"> F  </i>
    <i type="logical" name="LMONO"> F  </i>
    <i type="int" name="IDIPOL">     0</i>
    <i name="EPSILON">      1.00000000</i>
    <v name="DIPOL">   -100.00000000   -100.00000000   -100.00000000</v>
    <i name="EFIELD">      0.00000000</i>
   </separator>
  </separator>
  <separator name="grids" >
   <i type="int" name="NGX">    98</i>
   <i type="int" name="NGY">    98</i>
   <i type="int" name="NGZ">    98</i>
   <i type="int" name="NGXF">   196</i>
   <i type="int" name="NGYF">   196</i>
   <i type="int" name="NGZF">   196</i>
   <i type="logical" name="ADDGRID"> F  </i>
  </separator>
  <separator name="ionic" >
   <i type="int" name="NSW">   100</i>
   <i type="int" name="IBRION">     2</i>
   <i type="int" name="MDALGO">     0</i>
   <i type="int" name="ISIF">     0</i>
   <i name="PSTRESS">      0.00000000</i>
   <i name="EDIFFG">     -0.03000000</i>
   <i type="int" name="NFREE">     5</i>
   <i name="POTIM">      0.20000000</i>
   <i name="SMASS">     -3.00000000</i>
   <i name="SCALEE">      1.00000000</i>
  </separator>
  <separator name="ionic md" >
   <i name="TEBEG">      0.00010000</i>
   <i name="TEEND">      0.00010000</i>
   <i type="int" name="NBLOCK">     1</i>
   <i type="int" name="KBLOCK">   100</i>
   <i type="int" name="NPACO">   256</i>
   <i name="APACO">     16.00000000</i>
  </separator>
  <separator name="symmetry" >
   <i type="int" name="ISYM">     2</i>
   <i name="SYMPREC">      0.00000100</i>
  </separator>
  <separator name="dos" >
   <i type="int" name="LORBIT">     0</i>
   <v name="RWIGS">     -1.00000000     -1.00000000</v>
   <i type="int" name="NEDOS">   301</i>
   <i name="EMIN">     10.00000000</i>
   <i name="EMAX">    -10.00000000</i>
   <i name="EFERMI">      0.00000000</i>
  </separator>
  <separator name="writing" >
   <i type="int" name="NWRITE">     1</i>
   <i type="logical" name="LWAVE"> F  </i>
   <i type="logical" name="LDOWNSAMPLE"> F  </i>
   <i type="logical" name="LCHARG"> F  </i>
   <i type="logical" name="LPARD"> F  </i>
   <i type="logical" name="LVTOT"> F  </i>
   <i type="logical" name="LVHAR"> F  </i>
   <i type="logical" name="LELF"> F  </i>
   <i type="logical" name="LOPTICS"> F  </i>
   <v name="STM">      0.00000000      0.00000000      0.00000000      0.00000000      0.00000000      0.00000000      0.00000000</v>
  </separator>
  <separator name="performance" >
   <i type="int" name="NPAR">    20</i>
   <i type="int" name="NSIM">     4</i>
   <i type="int" name="NBLK">    -1</i>
   <i type="logical" name="LPLANE"> T  </i>
   <i type="logical" name="LSCALAPACK"> T  </i>
   <i type="logical" name="LSCAAWARE"> F  </i>
   <i type="logical" name="LSCALU"> F  </i>
   <i type="logical" name="LASYNC"> F  </i>
   <i type="logical" name="LORBITALREAL"> F  </i>
  </separator>
  <separator name="miscellaneous" >
   <i type="int" name="IDIOT">     3</i>
   <i type="int" name="ISPECIAL">     0</i>
   <i type="logical" name="LMUSIC"> F  </i>
   <v name="POMASS">     58.69000000     32.06600000</v>
   <v name="DARWINR">      0.00000000      0.00000000</v>
   <v name="DARWINV">      1.00000000      1.00000000</v>
   <i type="logical" name="LCORR"> T  </i>
  </separator>
  <i type="logical" name="GGA_COMPAT"> T  </i>
  <i type="logical" name="LBERRY"> F  </i>
  <i type="int" name="ICORELEVEL">     0</i>
  <i type="logical" name="LDAU"> F  </i>
  <i type="int" name="I_CONSTRAINED_M">     0</i>
  <separator name="electronic exchange-correlation" >
   <i type="string" name="GGA">--</i>
   <i type="int" name="VOSKOWN">     0</i>
   <i type="logical" name="LHFCALC"> F  </i>
   <i type="string" name="PRECFOCK"></i>
   <i type="logical" name="LSYMGRAD"> F  </i>
   <i type="logical" name="LHFONE"> F  </i>
   <i type="logical" name="LRHFCALC"> F  </i>
   <i type="logical" name="LTHOMAS"> F  </i>
   <i type="logical" name="LMODELHF"> F  </i>
   <i name="ENCUT4O">     -1.00000000</i>
   <i type="int" name="EXXOEP">     0</i>
   <i type="int" name="FOURORBIT">     0</i>
   <i name="AEXX">      0.00000000</i>
   <i name="HFALPHA">      0.00000000</i>
   <i name="MCALPHA">      0.00000000</i>
   <i name="ALDAX">      1.00000000</i>
   <i name="AGGAX">      1.00000000</i>
   <i name="ALDAC">      1.00000000</i>
   <i name="AGGAC">      1.00000000</i>
   <i type="int" name="NKREDX">     1</i>
   <i type="int" name="NKREDY">     1</i>
   <i type="int" name="NKREDZ">     1</i>
   <i type="logical" name="SHIFTRED"> F  </i>
   <i type="logical" name="ODDONLY"> F  </i>
   <i type="logical" name="EVENONLY"> F  </i>
   <i type="int" name="LMAXFOCK">     0</i>
   <i type="int" name="NMAXFOCKAE">     0</i>
   <i type="logical" name="LFOCKAEDFT"> F  </i>
   <i name="HFSCREEN">      0.00000000</i>
   <i name="HFSCREENC">      0.00000000</i>
   <i type="int" name="NBANDSGWLOW">     0</i>
  </separator>
  <separator name="vdW DFT" >
   <i type="logical" name="LUSE_VDW"> F  </i>
   <i name="Zab_VDW">     -0.84910000</i>
   <i name="PARAM1">      0.12340000</i>
   <i name="PARAM2">      1.00000000</i>
   <i name="PARAM3">      0.00000000</i>
  </separator>
  <separator name="model GW" >
   <i type="int" name="MODEL_GW">     0</i>
   <i name="MODEL_EPS0">     85.71428571</i>
   <i name="MODEL_ALPHA">      1.00000000</i>
  </separator>
  <separator name="linear response parameters" >
   <i type="logical" name="LEPSILON"> F  </i>
   <i type="logical" name="LRPA"> F  </i>
   <i type="logical" name="LNABLA"> F  </i>
   <i type="logical" name="LVEL"> F  </i>
   <i type="int" name="KINTER">     0</i>
   <i name="CSHIFT">      0.10000000</i>
   <i name="OMEGAMAX">     -1.00000000</i>
   <i name="DEG_THRESHOLD">      0.00200000</i>
   <i name="RTIME">     -0.10000000</i>
   <i name="WPLASMAI">      0.00000000</i>
   <v name="DFIELD">      0.00000000      0.00000000      0.00000000</v>
   <v name="WPLASMA">      0.00000000      0.00000000      0.00000000      0.00000000      0.00000000      0.00000000      0.00000000      0.00000000      0.00000000</v>
  </separator>
  <separator name="orbital magnetization" >
   <i type="logical" name="NUCIND"> F  </i>
   <v name="MAGPOS">      0.00000000      0.00000000      0.00000000</v>
   <i type="logical" name="LNICSALL"> T  </i>
   <i type="logical" name="ORBITALMAG"> F  </i>
   <i type="logical" name="LMAGBLOCH"> F  </i>
   <i type="logical" name="LCHIMAG"> F  </i>
   <i type="logical" name="LGAUGE"> T  </i>
   <i type="int" name="MAGATOM">     0</i>
   <v name="MAGDIPOL">      0.00000000      0.00000000      0.00000000</v>
   <v name="AVECCONST">      0.00000000      0.00000000      0.00000000</v>
  </separator>
  <separator name="response functions" >
   <i type="logical" name="LADDER"> F  </i>
   <i type="logical" name="LRPAFORCE"> F  </i>
   <i type="logical" name="LFXC"> F  </i>
   <i type="logical" name="LHARTREE"> T  </i>
   <i type="int" name="IBSE">     0</i>
   <v type="int" name="KPOINT">    -1     0     0     0</v>
   <i type="logical" name="LTCTE"> F  </i>
   <i type="logical" name="LTETE"> F  </i>
   <i type="logical" name="LTRIPLET"> F  </i>
   <i type="logical" name="LFXCEPS"> F  </i>
   <i type="logical" name="LFXHEG"> F  </i>
   <i type="int" name="NATURALO">     2</i>
   <i type="logical" name="L2ORDER"> F  </i>
   <i type="logical" name="LMP2LT"> F  </i>
   <i type="logical" name="LUSEW"> F  </i>
   <i name="ENCUTGW">     -2.00000000</i>
   <i name="ENCUTGWSOFT">     -2.00000000</i>
   <i name="ENCUTLF">     -1.00000000</i>
   <i type="int" name="LMAXMP2">    -1</i>
   <i name="SCISSOR">      0.00000000</i>
   <i type="int" name="NOMEGA">     0</i>
   <i type="int" name="NOMEGAR">     0</i>
   <i type="int" name="NBANDSGW">    -1</i>
   <i type="int" name="NBANDSO">    -1</i>
   <i type="int" name="NBANDSV">    -1</i>
   <i type="int" name="NELM">   100</i>
   <i type="int" name="NELMHF">     1</i>
   <i type="int" name="DIM">     3</i>
   <i type="int" name="ANTIRES">     0</i>
   <i name="OMEGAMAX">    -30.00000000</i>
   <i name="OMEGAMIN">    -30.00000000</i>
   <i name="OMEGATL">   -200.00000000</i>
   <i type="int" name="OMEGAGRID">   140</i>
   <i name="CSHIFT">     -0.10000000</i>
   <i type="logical" name="SELFENERGY"> F  </i>
   <i type="logical" name="LSPECTRAL"> F  </i>
   <i type="logical" name="LSPECTRALGW"> F  </i>
   <i type="logical" name="LSINGLES"> F  </i>
   <i type="logical" name="LFERMIGW"> F  </i>
   <i type="logical" name="ODDONLYGW"> F  </i>
   <i type="logical" name="EVENONLYGW"> F  </i>
   <i type="int" name="NKREDLFX">     1</i>
   <i type="int" name="NKREDLFY">     1</i>
   <i type="int" name="NKREDLFZ">     1</i>
   <i type="int" name="MAXMEM">  2800</i>
   <i type="int" name="TELESCOPE">     0</i>
   <i type="int" name="TAUPAR">     1</i>
   <i type="int" name="OMEGAPAR">    -1</i>
   <i name="LAMBDA">      1.00000000</i>
  </separator>
  <separator name="External order field" >
   <i name="OFIELD_KAPPA">      0.00000000</i>
   <v name="OFIELD_K">      0.00000000      0.00000000      0.00000000</v>
   <i name="OFIELD_Q6_NEAR">      0.00000000</i>
   <i name="OFIELD_Q6_FAR">      0.00000000</i>
   <i name="OFIELD_A">      0.00000000</i>
  </separator>
 </parameters>
 <atominfo>
  <atoms>      56 </atoms>
  <types>       2 </types>
  <array name="atoms" >
   <dimension dim="1">ion</dimension>
   <field type="string">element</field>
   <field type="int">atomtype</field>
   <set>
    <rc><c>Ni</c><c>   1</c></rc>
    <rc><c>Ni</c><c>   1</c></rc>
    <rc><c>Ni</c><c>   1</c></rc>
    <rc><c>Ni</c><c>   1</c></rc>
    <rc><c>Ni</c><c>   1</c></rc>
    <rc><c>Ni</c><c>   1</c></rc>
    <rc><c>Ni</c><c>   1</c></rc>
    <rc><c>Ni</c><c>   1</c></rc>
    <rc><c>Ni</c><c>   1</c></rc>
    <rc><c>Ni</c><c>   1</c></rc>
    <rc><c>Ni</c><c>   1</c></rc>
    <rc><c>Ni</c><c>   1</c></rc>
    <rc><c>Ni</c><c>   1</c></rc>
    <rc><c>Ni</c><c>   1</c></rc>
    <rc><c>Ni</c><c>   1</c></rc>
    <rc><c>Ni</c><c>   1</c></rc>
    <rc><c>Ni</c><c>   1</c></rc>
    <rc><c>Ni</c><c>   1</c></rc>
    <rc><c>Ni</c><c>   1</c></rc>
    <rc><c>Ni</c><c>   1</c></rc>
    <rc><c>Ni</c><c>   1</c></rc>
    <rc><c>Ni</c><c>   1</c></rc>
    <rc><c>Ni</c><c>   1</c></rc>
    <rc><c>Ni</c><c>   1</c></rc>
    <rc><c>Ni</c><c>   1</c></rc>
    <rc><c>Ni</c><c>   1</c></rc>
    <rc><c>Ni</c><c>   1</c></rc>
    <rc><c>Ni</c><c>   1</c></rc>
    <rc><c>Ni</c><c>   1</c></rc>
    <rc><c>Ni</c><c>   1</c></rc>
    <rc><c>Ni</c><c>   1</c></rc>
    <rc><c>Ni</c><c>   1</c></rc>
    <rc><c>Ni</c><c>   1</c></rc>
    <rc><c>Ni</c><c>   1</c></rc>
    <rc><c>Ni</c><c>   1</c></rc>
    <rc><c>Ni</c><c>   1</c></rc>
    <rc><c>Ni</c><c>   1</c></rc>
    <rc><c>Ni</c><c>   1</c></rc>
    <rc><c>Ni</c><c>   1</c></rc>
    <rc><c>Ni</c><c>   1</c></rc>
    <rc><c>Ni</c><c>   1</c></rc>
    <rc><c>Ni</c><c>   1</c></rc>
    <rc><c>Ni</c><c>   1</c></rc>
    <rc><c>Ni</c><c>   1</c></rc>
    <rc><c>Ni</c><c>   1</c></rc>
    <rc><c>Ni</c><c>   1</c></rc>
    <rc><c>Ni</c><c>   1</c></rc>
    <rc><c>Ni</c><c>   1</c></rc>
    <rc><c>Ni</c><c>   1</c></rc>
    <rc><c>Ni</c><c>   1</c></rc>
    <rc><c>Ni</c><c>   1</c></rc>
    <rc><c>Ni</c><c>   1</c></rc>
    <rc><c>Ni</c><c>   1</c></rc>
    <rc><c>Ni</c><c>   1</c></rc>
    <rc><c>Ni</c><c>   1</c></rc>
    <rc><c>S </c><c>   2</c></rc>
   </set>
  </array>
  <array name="atomtypes" >
   <dimension dim="1">type</dimension>
   <field type="int">atomspertype</field>
   <field type="string">element</field>
   <field>mass</field>
   <field>valence</field>
   <field type="string">pseudopotential</field>
   <set>
    <rc><c>  55</c><c>Ni</c><c>     58.69000000</c><c>     10.00000000</c><c> PAW_PBE Ni 06Sep2000                   </c></rc>
    <rc><c>   1</c><c>S </c><c>     32.06600000</c><c>      6.00000000</c><c>  PAW_PBE S 17Jan2003                   </c></rc>
   </set>
  </array>
 </atominfo>
 <structure name="initialpos" >
  <crystal>
   <varray name="basis" >
    <v>      20.00000000       0.00000000       0.00000000 </v>
    <v>       0.00000000      20.00000000       0.00000000 </v>
    <v>       0.00000000       0.00000000      20.00000000 </v>
   </varray>
   <i name="volume">   8000.00000000 </i>
   <varray name="rec_basis" >
    <v>       0.05000000       0.00000000       0.00000000 </v>
    <v>       0.00000000       0.05000000       0.00000000 </v>
    <v>       0.00000000       0.00000000       0.05000000 </v>
   </varray>
  </crystal>
  <varray name="positions" >
   <v>       0.34999999       0.59609997       0.41023001 </v>
   <v>       0.45111999       0.66298002       0.37739000 </v>
   <v>       0.41144001       0.66333997       0.49592999 </v>
   <v>       0.51289999       0.72356999       0.46397001 </v>
   <v>       0.51455998       0.60857999       0.46454999 </v>
   <v>       0.57696998       0.66512001       0.37803999 </v>
   <v>       0.61531001       0.66529000       0.49739999 </v>
   <v>       0.31621998       0.59328002       0.52759999 </v>
   <v>       0.35165000       0.48844001       0.58240998 </v>
   <v>       0.41481999       0.54310000       0.49675000 </v>
   <v>       0.41226000       0.59715998       0.60433000 </v>
   <v>       0.51300001       0.66443002       0.57078999 </v>
   <v>       0.51393002       0.54326999       0.57043999 </v>
   <v>       0.61514002       0.54430997       0.49803001 </v>
   <v>       0.61504000       0.59938997       0.60447001 </v>
   <v>       0.39269999       0.59319001       0.29561001 </v>
   <v>       0.35174000       0.48896000       0.34492999 </v>
   <v>       0.45374000       0.49070001       0.27023000 </v>
   <v>       0.45361000       0.54241002       0.37911001 </v>
   <v>       0.51520002       0.59798002       0.29126000 </v>
   <v>       0.51659000       0.43858001       0.35894001 </v>
   <v>       0.57914001       0.49233002       0.27079999 </v>
   <v>       0.57756001       0.54448003       0.37959999 </v>
   <v>       0.31229001       0.48839000       0.46421999 </v>
   <v>       0.35187000       0.38130999       0.51739001 </v>
   <v>       0.41624001       0.43660000       0.43307000 </v>
   <v>       0.45506999       0.43731001       0.55010003 </v>
   <v>       0.51587999       0.49059999       0.46496999 </v>
   <v>       0.51804000       0.37242001       0.46355999 </v>
   <v>       0.61691999       0.43946001       0.43193999 </v>
   <v>       0.57789999       0.43765000       0.55014002 </v>
   <v>       0.67907000       0.59966999       0.41204000 </v>
   <v>       0.71208000       0.59684998       0.52977002 </v>
   <v>       0.68033999       0.49168000       0.58374000 </v>
   <v>       0.63770002       0.59675997       0.29679000 </v>
   <v>       0.68107003       0.49320999       0.34472001 </v>
   <v>       0.71951002       0.49331000       0.46399999 </v>
   <v>       0.68197000       0.38521001       0.51692998 </v>
   <v>       0.45265999       0.49094000       0.66323000 </v>
   <v>       0.51353002       0.59705001       0.67210001 </v>
   <v>       0.57927000       0.49200001       0.65692002 </v>
   <v>       0.39315000       0.38383001       0.63277000 </v>
   <v>       0.45515999       0.31744999       0.54939002 </v>
   <v>       0.51909000       0.38150001       0.64209998 </v>
   <v>       0.58157003       0.31762001       0.55027002 </v>
   <v>       0.64121002       0.38648999       0.63142002 </v>
   <v>       0.41586000       0.38284001       0.32444999 </v>
   <v>       0.51719999       0.38745001       0.25582999 </v>
   <v>       0.61895001       0.38558999       0.32365999 </v>
   <v>       0.31948999       0.38475001       0.39871001 </v>
   <v>       0.41635999       0.31641999       0.43090999 </v>
   <v>       0.51840001       0.31786001       0.35631999 </v>
   <v>       0.62011999       0.31862000       0.42938000 </v>
   <v>       0.71500999       0.38927999       0.39916000 </v>
   <v>       0.51953000       0.25764999       0.46280000 </v>
   <v>       0.36684999       0.46491000       0.67382997 </v>
  </varray>
 </structure>
 <calculation>
  <scstep>
   <time name="dav">   22.88   22.99</time>
   <time name="total">   23.87   23.99</time>
   <energy>
    <i name="alphaZ">    387.12086559 </i>
    <i name="ewald"> 181570.25771297 </i>
    <i name="hartreedc">-236326.25853440 </i>
    <i name="XCdc">   1725.29507291 </i>
    <i name="pawpsdc">  47977.39182462 </i>
    <i name="pawaedc"> -51648.67119642 </i>
    <i name="eentropy">     -0.38611470 </i>
    <i name="bandstr">   -396.17947539 </i>
    <i name="atom">  59560.90262231 </i>
    <i name="e_fr_energy">   2849.47277749 </i>
    <i name="e_wo_entrp">   2849.85889219 </i>
    <i name="e_0_energy">   2849.66583484 </i>
   </energy>
  </scstep>
  <scstep>
   <time name="dav">   24.31   24.40</time>
   <time name="total">   24.31   24.40</time>
   <energy>
    <i name="e_fr_energy">   -138.05567161 </i>
    <i name="e_wo_entrp">   -137.47593549 </i>
    <i name="e_0_energy">   -137.76580355 </i>
   </energy>
  </scstep>
  <scstep>
   <time name="dav">   25.89   26.02</time>
   <time name="total">   25.90   26.02</time>
   <energy>
    <i name="e_fr_energy">   -301.24585096 </i>
    <i name="e_wo_entrp">   -300.73156185 </i>
    <i name="e_0_energy">   -300.98870640 </i>
   </energy>
  </scstep>
  <scstep>
   <time name="dav">   24.55   24.64</time>
   <time name="total">   24.55   24.64</time>
   <energy>
    <i name="e_fr_energy">   -305.19471485 </i>
    <i name="e_wo_entrp">   -304.67339242 </i>
    <i name="e_0_energy">   -304.93405364 </i>
   </energy>
  </scstep>
  <scstep>
   <time name="dav">   25.22   25.35</time>
   <time name="total">   26.35   26.48</time>
   <energy>
    <i name="e_fr_energy">   -305.29336006 </i>
    <i name="e_wo_entrp">   -304.77179642 </i>
    <i name="e_0_energy">   -305.03257824 </i>
   </energy>
  </scstep>
  <scstep>
   <time name="diag">    4.83    4.85</time>
   <time name="diis">    9.43    9.47</time>
   <time name="orth">    1.66    1.66</time>
   <time name="total">   17.99   18.05</time>
   <energy>
    <i name="e_fr_energy">   -388.16742172 </i>
    <i name="e_wo_entrp">   -387.88895610 </i>
    <i name="e_0_energy">   -388.02818891 </i>
   </energy>
  </scstep>
  <scstep>
   <time name="diag">    4.82    4.84</time>
   <time name="diis">    9.44    9.52</time>
   <time name="orth">    1.66    1.66</time>
   <time name="total">   18.00   18.10</time>
   <energy>
    <i name="e_fr_energy">   -327.68272286 </i>
    <i name="e_wo_entrp">   -327.08979474 </i>
    <i name="e_0_energy">   -327.38625880 </i>
   </energy>
  </scstep>
  <scstep>
   <time name="diag">    4.83    4.85</time>
   <time name="diis">    9.47    9.51</time>
   <time name="orth">    1.66    1.66</time>
   <time name="total">   18.04   18.10</time>
   <energy>
    <i name="e_fr_energy">   -295.35838185 </i>
    <i name="e_wo_entrp">   -294.87680918 </i>
    <i name="e_0_energy">   -295.11759551 </i>
   </energy>
  </scstep>
  <scstep>
   <time name="diag">    4.84    4.86</time>
   <time name="diis">    9.46    9.50</time>
   <time name="orth">    1.66    1.66</time>
   <time name="total">   18.04   18.11</time>
   <energy>
    <i name="e_fr_energy">   -278.34224923 </i>
    <i name="e_wo_entrp">   -277.80580406 </i>
    <i name="e_0_energy">   -278.07402665 </i>
   </energy>
  </scstep>
  <scstep>
   <time name="diag">    4.83    4.86</time>
   <time name="diis">    9.44    9.50</time>
   <time name="orth">    1.66    1.66</time>
   <time name="total">   18.01   18.11</time>
   <energy>
    <i name="e_fr_energy">   -264.02761026 </i>
    <i name="e_wo_entrp">   -263.37231646 </i>
    <i name="e_0_energy">   -263.69996336 </i>
   </energy>
  </scstep>
  <scstep>
   <time name="diag">    4.85    4.87</time>
   <time name="diis">    9.48    9.52</time>
   <time name="orth">    1.66    1.67</time>
   <time name="total">   18.09   18.15</time>
   <energy>
    <i name="e_fr_energy">   -260.47336323 </i>
    <i name="e_wo_entrp">   -259.83439058 </i>
    <i name="e_0_energy">   -260.15387690 </i>
   </energy>
  </scstep>
  <scstep>
   <time name="diag">    4.85    4.86</time>
   <time name="diis">    9.42    9.49</time>
   <time name="orth">    1.66    1.66</time>
   <time name="total">   18.03   18.13</time>
   <energy>
    <i name="e_fr_energy">   -256.29903664 </i>
    <i name="e_wo_entrp">   -255.68197656 </i>
    <i name="e_0_energy">   -255.99050660 </i>
   </energy>
  </scstep>
  <scstep>
   <time name="diag">    4.84    4.86</time>
   <time name="diis">    9.46    9.50</time>
   <time name="orth">    1.65    1.66</time>
   <time name="total">   18.06   18.12</time>
   <energy>
    <i name="e_fr_energy">   -254.30810051 </i>
    <i name="e_wo_entrp">   -253.74500324 </i>
    <i name="e_0_energy">   -254.02655188 </i>
   </energy>
  </scstep>
  <scstep>
   <time name="diag">    4.84    4.85</time>
   <time name="diis">    9.46    9.50</time>
   <time name="orth">    1.65    1.66</time>
   <time name="total">   18.06   18.13</time>
   <energy>
    <i name="e_fr_energy">   -252.16985098 </i>
    <i name="e_wo_entrp">   -251.62715464 </i>
    <i name="e_0_energy">   -251.89850281 </i>
   </energy>
  </scstep>
  <scstep>
   <time name="diag">    4.91    4.96</time>
   <time name="diis">    9.49    9.53</time>
   <time name="orth">    1.66    1.66</time>
   <time name="total">   18.18   18.28</time>
   <energy>
    <i name="e_fr_energy">   -250.88495686 </i>
    <i name="e_wo_entrp">   -250.31482729 </i>
    <i name="e_0_energy">   -250.59989207 </i>
   </energy>
  </scstep>
  <scstep>
   <time name="diag">    4.84    4.86</time>
   <time name="diis">    9.49    9.53</time>
   <time name="orth">    1.66    1.66</time>
   <time name="total">   18.08   18.15</time>
   <energy>
    <i name="e_fr_energy">   -250.32651315 </i>
    <i name="e_wo_entrp">   -249.70552399 </i>
    <i name="e_0_energy">   -250.01601857 </i>
   </energy>
  </scstep>
  <scstep>
   <time name="diag">    4.85    4.86</time>
   <time name="diis">    9.39    9.47</time>
   <time name="orth">    1.65    1.66</time>
   <time name="total">   17.98   18.08</time>
   <energy>
    <i name="e_fr_energy">   -250.77337512 </i>
    <i name="e_wo_entrp">   -250.13645287 </i>
    <i name="e_0_energy">   -250.45491400 </i>
   </energy>
  </scstep>
  <scstep>
   <time name="diag">    4.84    4.86</time>
   <time name="diis">    9.45    9.49</time>
   <time name="orth">    1.66    1.66</time>
   <time name="total">   18.05   18.12</time>
   <energy>
    <i name="e_fr_energy">   -251.23121741 </i>
    <i name="e_wo_entrp">   -250.53914419 </i>
    <i name="e_0_energy">   -250.88518080 </i>
   </energy>
  </scstep>
  <scstep>
   <time name="diag">    4.85    4.86</time>
   <time name="diis">    9.50    9.54</time>
   <time name="orth">    1.65    1.66</time>
   <time name="total">   18.11   18.17</time>
   <energy>
    <i name="e_fr_energy">   -250.97245567 </i>
    <i name="e_wo_entrp">   -250.30680650 </i>
    <i name="e_0_energy">   -250.63963109 </i>
   </energy>
  </scstep>
  <scstep>
   <time name="diag">    4.83    4.88</time>
   <time name="diis">    9.47    9.51</time>
   <time name="orth">    1.66    1.66</time>
   <time name="total">   18.07   18.17</time>
   <energy>
    <i name="e_fr_energy">   -251.42176533 </i>
    <i name="e_wo_entrp">   -250.76721588 </i>
    <i name="e_0_energy">   -251.09449061 </i>
   </energy>
  </scstep>
  <scstep>
   <time name="diag">    4.82    4.84</time>
   <time name="diis">    9.48    9.51</time>
   <time name="orth">    1.65    1.66</time>
   <time name="total">   18.08   18.14</time>
   <energy>
    <i name="e_fr_energy">   -252.98856438 </i>
    <i name="e_wo_entrp">   -252.30192678 </i>
    <i name="e_0_energy">   -252.64524558 </i>
   </energy>
  </scstep>
  <scstep>
   <time name="diag">    4.82    4.84</time>
   <time name="diis">    9.42    9.51</time>
   <time name="orth">    1.66    1.66</time>
   <time name="total">   18.03   18.14</time>
   <energy>
    <i name="e_fr_energy">   -252.85494803 </i>
    <i name="e_wo_entrp">   -252.11164946 </i>
    <i name="e_0_energy">   -252.48329875 </i>
   </energy>
  </scstep>
  <scstep>
   <time name="diag">    4.81    4.83</time>
   <time name="diis">    9.45    9.49</time>
   <time name="orth">    1.65    1.66</time>
   <time name="total">   18.06   18.13</time>
   <energy>
    <i name="e_fr_energy">   -252.78300299 </i>
    <i name="e_wo_entrp">   -252.03210518 </i>
    <i name="e_0_energy">   -252.40755408 </i>
   </energy>
  </scstep>
  <scstep>
   <time name="diag">    4.84    4.86</time>
   <time name="diis">    9.48    9.52</time>
   <time name="orth">    1.66    1.66</time>
   <time name="total">   18.13   18.20</time>
   <energy>
    <i name="e_fr_energy">   -252.85859877 </i>
    <i name="e_wo_entrp">   -252.10786824 </i>
    <i name="e_0_energy">   -252.48323350 </i>
   </energy>
  </scstep>
  <scstep>
   <time name="diag">    4.81    4.86</time>
   <time name="diis">    9.43    9.47</time>
   <time name="orth">    1.66    1.66</time>
   <time name="total">   18.06   18.16</time>
   <energy>
    <i name="e_fr_energy">   -252.92653910 </i>
    <i name="e_wo_entrp">   -252.15170365 </i>
    <i name="e_0_energy">   -252.53912138 </i>
   </energy>
  </scstep>
  <scstep>
   <time name="diag">    4.83    4.85</time>
   <time name="diis">    9.49    9.53</time>
   <time name="orth">    1.65    1.66</time>
   <time name="total">   18.12   18.18</time>
   <energy>
    <i name="e_fr_energy">   -252.85849950 </i>
    <i name="e_wo_entrp">   -252.09312864 </i>
    <i name="e_0_energy">   -252.47581407 </i>
   </energy>
  </scstep>
  <scstep>
   <time name="diag">    4.83    4.85</time>
   <time name="diis">    9.41    9.49</time>
   <time name="orth">    1.66    1.66</time>
   <time name="total">   18.04   18.15</time>
   <energy>
    <i name="e_fr_energy">   -253.26339622 </i>
    <i name="e_wo_entrp">   -252.50755410 </i>
    <i name="e_0_energy">   -252.88547516 </i>
   </energy>
  </scstep>
  <scstep>
   <time name="diag">    4.83    4.85</time>
   <time name="diis">    9.45    9.49</time>
   <time name="orth">    1.66    1.66</time>
   <time name="total">   18.09   18.15</time>
   <energy>
    <i name="e_fr_energy">   -253.48480220 </i>
    <i name="e_wo_entrp">   -252.73724962 </i>
    <i name="e_0_energy">   -253.11102591 </i>
   </energy>
  </scstep>
  <scstep>
   <time name="diag">    4.84    4.85</time>
   <time name="diis">    9.44    9.48</time>
   <time name="orth">    1.66    1.67</time>
   <time name="total">   18.10   18.16</time>
   <energy>
    <i name="e_fr_energy">   -253.78155452 </i>
    <i name="e_wo_entrp">   -253.05409039 </i>
    <i name="e_0_energy">   -253.41782246 </i>
   </energy>
  </scstep>
  <scstep>
   <time name="diag">    4.83    4.88</time>
   <time name="diis">    9.44    9.48</time>
   <time name="orth">    1.66    1.66</time>
   <time name="total">   18.08   18.18</time>
   <energy>
    <i name="e_fr_energy">   -254.15620621 </i>
    <i name="e_wo_entrp">   -253.42668947 </i>
    <i name="e_0_energy">   -253.79144784 </i>
   </energy>
  </scstep>
  <scstep>
   <time name="diag">    4.85    4.87</time>
   <time name="diis">    9.48    9.52</time>
   <time name="orth">    1.65    1.66</time>
   <time name="total">   18.16   18.23</time>
   <energy>
    <i name="e_fr_energy">   -254.25540452 </i>
    <i name="e_wo_entrp">   -253.54561986 </i>
    <i name="e_0_energy">   -253.90051219 </i>
   </energy>
  </scstep>
  <scstep>
   <time name="diag">    4.84    4.86</time>
   <time name="diis">    9.36    9.44</time>
   <time name="orth">    1.65    1.66</time>
   <time name="total">   18.05   18.16</time>
   <energy>
    <i name="e_fr_energy">   -254.69804895 </i>
    <i name="e_wo_entrp">   -253.98522968 </i>
    <i name="e_0_energy">   -254.34163931 </i>
   </energy>
  </scstep>
  <scstep>
   <time name="diag">    4.86    4.87</time>
   <time name="diis">    9.42    9.46</time>
   <time name="orth">    1.66    1.66</time>
   <time name="total">   18.13   18.19</time>
   <energy>
    <i name="e_fr_energy">   -255.26109648 </i>
    <i name="e_wo_entrp">   -254.54951480 </i>
    <i name="e_0_energy">   -254.90530564 </i>
   </energy>
  </scstep>
  <scstep>
   <time name="diag">    4.84    4.86</time>
   <time name="diis">    9.40    9.44</time>
   <time name="orth">    1.66    1.66</time>
   <time name="total">   18.10   18.16</time>
   <energy>
    <i name="e_fr_energy">   -255.70140470 </i>
    <i name="e_wo_entrp">   -254.99170863 </i>
    <i name="e_0_energy">   -255.34655666 </i>
   </energy>
  </scstep>
  <scstep>
   <time name="diag">    4.84    4.87</time>
   <time name="diis">    9.37    9.41</time>
   <time name="orth">    1.65    1.66</time>
   <time name="total">   18.05   18.14</time>
   <energy>
    <i name="e_fr_energy">   -256.30621375 </i>
    <i name="e_wo_entrp">   -255.60469975 </i>
    <i name="e_0_energy">   -255.95545675 </i>
   </energy>
  </scstep>
  <scstep>
   <time name="diag">    4.83    4.85</time>
   <time name="diis">    9.40    9.44</time>
   <time name="orth">    1.65    1.66</time>
   <time name="total">   18.08   18.14</time>
   <energy>
    <i name="e_fr_energy">   -256.78648349 </i>
    <i name="e_wo_entrp">   -256.08591278 </i>
    <i name="e_0_energy">   -256.43619814 </i>
   </energy>
  </scstep>
  <scstep>
   <time name="diag">    4.83    4.85</time>
   <time name="diis">    9.42    9.49</time>
   <time name="orth">    1.65    1.66</time>
   <time name="total">   18.11   18.22</time>
   <energy>
    <i name="e_fr_energy">   -257.07681467 </i>
    <i name="e_wo_entrp">   -256.37713349 </i>
    <i name="e_0_energy">   -256.72697408 </i>
   </energy>
  </scstep>
  <scstep>
   <time name="diag">    4.83    4.84</time>
   <time name="diis">    9.44    9.48</time>
   <time name="orth">    1.65    1.66</time>
   <time name="total">   18.14   18.20</time>
   <energy>
    <i name="e_fr_energy">   -257.64453992 </i>
    <i name="e_wo_entrp">   -256.94205243 </i>
    <i name="e_0_energy">   -257.29329617 </i>
   </energy>
  </scstep>
  <scstep>
   <time name="diag">    4.82    4.84</time>
   <time name="diis">    9.39    9.43</time>
   <time name="orth">    1.66    1.67</time>
   <time name="total">   18.08   18.15</time>
   <energy>
    <i name="e_fr_energy">   -258.00704008 </i>
    <i name="e_wo_entrp">   -257.31322656 </i>
    <i name="e_0_energy">   -257.66013332 </i>
   </energy>
  </scstep>
  <scstep>
   <time name="diag">    4.82    4.85</time>
   <time name="diis">    9.47    9.52</time>
   <time name="orth">    1.66    1.67</time>
   <time name="total">   18.16   18.27</time>
   <energy>
    <i name="e_fr_energy">   -258.46298478 </i>
    <i name="e_wo_entrp">   -257.77346773 </i>
    <i name="e_0_energy">   -258.11822625 </i>
   </energy>
  </scstep>
  <scstep>
   <time name="diag">    4.83    4.85</time>
   <time name="diis">    9.40    9.44</time>
   <time name="orth">    1.65    1.66</time>
   <time name="total">   18.10   18.17</time>
   <energy>
    <i name="e_fr_energy">   -259.14707315 </i>
    <i name="e_wo_entrp">   -258.45877893 </i>
    <i name="e_0_energy">   -258.80292604 </i>
   </energy>
  </scstep>
  <scstep>
   <time name="diag">    4.83    4.85</time>
   <time name="diis">    9.46    9.51</time>
   <time name="orth">    1.66    1.66</time>
   <time name="total">   18.18   18.26</time>
   <energy>
    <i name="e_fr_energy">   -259.38119462 </i>
    <i name="e_wo_entrp">   -258.69335200 </i>
    <i name="e_0_energy">   -259.03727331 </i>
   </energy>
  </scstep>
  <scstep>
   <time name="diag">    4.85    4.86</time>
   <time name="diis">    9.44    9.47</time>
   <time name="orth">    1.65    1.66</time>
   <time name="total">   18.19   18.23</time>
   <energy>
    <i name="e_fr_energy">   -259.85197024 </i>
    <i name="e_wo_entrp">   -259.16555694 </i>
    <i name="e_0_energy">   -259.50876359 </i>
   </energy>
  </scstep>
  <scstep>
   <time name="diag">    4.84    4.85</time>
   <time name="diis">    9.50    9.52</time>
   <time name="orth">    1.66    1.66</time>
   <time name="total">   18.25   18.29</time>
   <energy>
    <i name="e_fr_energy">   -260.05009292 </i>
    <i name="e_wo_entrp">   -259.36473746 </i>
    <i name="e_0_energy">   -259.70741519 </i>
   </energy>
  </scstep>
  <scstep>
   <time name="diag">    4.84    4.85</time>
   <time name="diis">    9.44    9.46</time>
   <time name="orth">    1.66    1.66</time>
   <time name="total">   18.20   18.24</time>
   <energy>
    <i name="e_fr_energy">   -260.18559423 </i>
    <i name="e_wo_entrp">   -259.49942761 </i>
    <i name="e_0_energy">   -259.84251092 </i>
   </energy>
  </scstep>
  <scstep>
   <time name="diag">    4.84    4.85</time>
   <time name="diis">    9.46    9.49</time>
   <time name="orth">    1.66    1.66</time>
   <time name="total">   18.26   18.31</time>
   <energy>
    <i name="e_fr_energy">   -260.36374987 </i>
    <i name="e_wo_entrp">   -259.67695120 </i>
    <i name="e_0_energy">   -260.02035054 </i>
   </energy>
  </scstep>
  <scstep>
   <time name="diag">    4.84    4.85</time>
   <time name="diis">    9.40    9.42</time>
   <time name="orth">    1.66    1.66</time>
   <time name="total">   18.19   18.24</time>
   <energy>
    <i name="e_fr_energy">   -260.44041645 </i>
    <i name="e_wo_entrp">   -259.75437171 </i>
    <i name="e_0_energy">   -260.09739408 </i>
   </energy>
  </scstep>
  <scstep>
   <time name="diag">    4.93    4.97</time>
   <time name="diis">    9.45    9.48</time>
   <time name="orth">    1.66    1.67</time>
   <time name="total">   18.35   18.42</time>
   <energy>
    <i name="e_fr_energy">   -260.55528371 </i>
    <i name="e_wo_entrp">   -259.86910581 </i>
    <i name="e_0_energy">   -260.21219476 </i>
   </energy>
  </scstep>
  <scstep>
   <time name="diag">    4.84    4.85</time>
   <time name="diis">    9.45    9.48</time>
   <time name="orth">    1.65    1.68</time>
   <time name="total">   18.25   18.32</time>
   <energy>
    <i name="e_fr_energy">   -260.58458594 </i>
    <i name="e_wo_entrp">   -259.89899837 </i>
    <i name="e_0_energy">   -260.24179215 </i>
   </energy>
  </scstep>
  <scstep>
   <time name="diag">    4.83    4.84</time>
   <time name="diis">    9.39    9.43</time>
   <time name="orth">    1.66    1.66</time>
   <time name="total">   18.17   18.23</time>
   <energy>
    <i name="e_fr_energy">   -260.60963317 </i>
    <i name="e_wo_entrp">   -259.92370495 </i>
    <i name="e_0_energy">   -260.26666906 </i>
   </energy>
  </scstep>
  <scstep>
   <time name="diag">    4.84    4.86</time>
   <time name="diis">    9.47    9.51</time>
   <time name="orth">    1.66    1.66</time>
   <time name="total">   18.25   18.32</time>
   <energy>
    <i name="e_fr_energy">   -260.65825772 </i>
    <i name="e_wo_entrp">   -259.97284507 </i>
    <i name="e_0_energy">   -260.31555139 </i>
   </energy>
  </scstep>
  <scstep>
   <time name="diag">    4.84    4.85</time>
   <time name="diis">    9.39    9.47</time>
   <time name="orth">    1.66    1.67</time>
   <time name="total">   18.17   18.28</time>
   <energy>
    <i name="e_fr_energy">   -260.67443284 </i>
    <i name="e_wo_entrp">   -259.98954500 </i>
    <i name="e_0_energy">   -260.33198892 </i>
   </energy>
  </scstep>
  <scstep>
   <time name="diag">    4.82    4.84</time>
   <time name="diis">    9.41    9.44</time>
   <time name="orth">    1.65    1.66</time>
   <time name="total">   18.19   18.26</time>
   <energy>
    <i name="e_fr_energy">   -260.70469269 </i>
    <i name="e_wo_entrp">   -260.01860695 </i>
    <i name="e_0_energy">   -260.36164982 </i>
   </energy>
  </scstep>
  <scstep>
   <time name="diag">    4.83    4.85</time>
   <time name="diis">    9.46    9.52</time>
   <time name="orth">    1.65    1.67</time>
   <time name="total">   18.24   18.35</time>
   <energy>
    <i name="e_fr_energy">   -260.71061378 </i>
    <i name="e_wo_entrp">   -260.02444556 </i>
    <i name="e_0_energy">   -260.36752967 </i>
   </energy>
  </scstep>
  <scstep>
   <time name="diag">    4.83    4.85</time>
   <time name="diis">    9.43    9.47</time>
   <time name="orth">    1.66    1.66</time>
   <time name="total">   18.20   18.27</time>
   <energy>
    <i name="e_fr_energy">   -260.71955165 </i>
    <i name="e_wo_entrp">   -260.03383078 </i>
    <i name="e_0_energy">   -260.37669122 </i>
   </energy>
  </scstep>
  <scstep>
   <time name="diag">    4.84    4.86</time>
   <time name="diis">    9.41    9.44</time>
   <time name="orth">    1.66    1.67</time>
   <time name="total">   18.19   18.25</time>
   <energy>
    <i name="e_fr_energy">   -260.71804341 </i>
    <i name="e_wo_entrp">   -260.03223951 </i>
    <i name="e_0_energy">   -260.37514146 </i>
   </energy>
  </scstep>
  <scstep>
   <time name="diag">    4.83    4.88</time>
   <time name="diis">    9.45    9.49</time>
   <time name="orth">    1.66    1.66</time>
   <time name="total">   18.23   18.33</time>
   <energy>
    <i name="e_fr_energy">   -260.72164190 </i>
    <i name="e_wo_entrp">   -260.03592591 </i>
    <i name="e_0_energy">   -260.37878390 </i>
   </energy>
  </scstep>
  <scstep>
   <time name="diag">    4.85    4.88</time>
   <time name="diis">    9.40    9.44</time>
   <time name="orth">    1.66    1.67</time>
   <time name="total">   18.22   18.31</time>
   <energy>
    <i name="e_fr_energy">   -260.72297573 </i>
    <i name="e_wo_entrp">   -260.03722470 </i>
    <i name="e_0_energy">   -260.38010021 </i>
   </energy>
  </scstep>
  <scstep>
   <time name="diag">    4.84    4.85</time>
   <time name="diis">    9.42    9.50</time>
   <time name="orth">    1.65    1.66</time>
   <time name="total">   18.21   18.31</time>
   <energy>
    <i name="e_fr_energy">   -260.72453075 </i>
    <i name="e_wo_entrp">   -260.03876529 </i>
    <i name="e_0_energy">   -260.38164802 </i>
   </energy>
  </scstep>
  <scstep>
   <time name="diag">    4.83    4.85</time>
   <time name="diis">    9.42    9.46</time>
   <time name="orth">    1.65    1.66</time>
   <time name="total">   18.19   18.25</time>
   <energy>
    <i name="e_fr_energy">   -260.72643706 </i>
    <i name="e_wo_entrp">   -260.04083341 </i>
    <i name="e_0_energy">   -260.38363524 </i>
   </energy>
  </scstep>
  <scstep>
   <time name="diag">    4.84    4.85</time>
   <time name="diis">    9.43    9.47</time>
   <time name="orth">    1.66    1.67</time>
   <time name="total">   18.21   18.28</time>
   <energy>
    <i name="e_fr_energy">   -260.72780522 </i>
    <i name="e_wo_entrp">   -260.04223272 </i>
    <i name="e_0_energy">   -260.38501897 </i>
   </energy>
  </scstep>
  <scstep>
   <time name="diag">    4.81    4.86</time>
   <time name="diis">    9.36    9.39</time>
   <time name="orth">    1.66    1.66</time>
   <time name="total">   18.12   18.21</time>
   <energy>
    <i name="e_fr_energy">   -260.72881304 </i>
    <i name="e_wo_entrp">   -260.04313990 </i>
    <i name="e_0_energy">   -260.38597647 </i>
   </energy>
  </scstep>
  <scstep>
   <time name="diag">    4.84    4.85</time>
   <time name="diis">    9.37    9.41</time>
   <time name="orth">    1.66    1.66</time>
   <time name="total">   18.16   18.22</time>
   <energy>
    <i name="e_fr_energy">   -260.72963287 </i>
    <i name="e_wo_entrp">   -260.04379401 </i>
    <i name="e_0_energy">   -260.38671344 </i>
   </energy>
  </scstep>
  <scstep>
   <time name="diag">    4.83    4.84</time>
   <time name="diis">    9.27    9.40</time>
   <time name="orth">    1.65    1.66</time>
   <time name="total">   18.06   18.22</time>
   <energy>
    <i name="e_fr_energy">   -260.73074712 </i>
    <i name="e_wo_entrp">   -260.04484625 </i>
    <i name="e_0_energy">   -260.38779669 </i>
   </energy>
  </scstep>
  <scstep>
   <time name="diag">    4.84    4.86</time>
   <time name="diis">    9.36    9.39</time>
   <time name="orth">    1.66    1.67</time>
   <time name="total">   18.14   18.21</time>
   <energy>
    <i name="e_fr_energy">   -260.73133266 </i>
    <i name="e_wo_entrp">   -260.04544117 </i>
    <i name="e_0_energy">   -260.38838692 </i>
   </energy>
  </scstep>
  <scstep>
   <time name="diag">    4.83    4.85</time>
   <time name="diis">    9.38    9.42</time>
   <time name="orth">    1.65    1.66</time>
   <time name="total">   18.16   18.22</time>
   <energy>
    <i name="e_fr_energy">   -260.73175443 </i>
    <i name="e_wo_entrp">   -260.04580729 </i>
    <i name="e_0_energy">   -260.38878086 </i>
   </energy>
  </scstep>
  <scstep>
   <time name="diag">    4.81    4.86</time>
   <time name="diis">    9.39    9.43</time>
   <time name="orth">    1.66    1.67</time>
   <time name="total">   18.15   18.25</time>
   <energy>
    <i name="e_fr_energy">   -260.73219101 </i>
    <i name="e_wo_entrp">   -260.04626254 </i>
    <i name="e_0_energy">   -260.38922677 </i>
   </energy>
  </scstep>
  <scstep>
   <time name="diag">    4.84    4.85</time>
   <time name="diis">    9.22    9.26</time>
   <time name="orth">    1.66    1.66</time>
   <time name="total">   18.02   18.08</time>
   <energy>
    <i name="e_fr_energy">   -260.73267703 </i>
    <i name="e_wo_entrp">   -260.04682397 </i>
    <i name="e_0_energy">   -260.38975050 </i>
   </energy>
  </scstep>
  <scstep>
   <time name="diag">    4.83    4.85</time>
   <time name="diis">    8.44    8.51</time>
   <time name="orth">    1.66    1.67</time>
   <time name="total">   17.24   17.34</time>
   <energy>
    <i name="e_fr_energy">   -260.73277761 </i>
    <i name="e_wo_entrp">   -260.04687404 </i>
    <i name="e_0_energy">   -260.38982582 </i>
   </energy>
  </scstep>
  <scstep>
   <time name="diag">    4.83    4.85</time>
   <time name="diis">    6.88    6.90</time>
   <time name="orth">    1.66    1.66</time>
   <time name="total">   15.65   15.71</time>
   <energy>
    <i name="e_fr_energy">   -260.73293840 </i>
    <i name="e_wo_entrp">   -260.04700981 </i>
    <i name="e_0_energy">   -260.38997410 </i>
   </energy>
  </scstep>
  <scstep>
   <time name="diag">    4.83    4.85</time>
   <time name="diis">    8.19    8.22</time>
   <time name="orth">    1.66    1.66</time>
   <time name="total">   16.95   17.01</time>
   <energy>
    <i name="e_fr_energy">   -260.73316655 </i>
    <i name="e_wo_entrp">   -260.04724328 </i>
    <i name="e_0_energy">   -260.39020491 </i>
   </energy>
  </scstep>
  <scstep>
   <time name="diag">    4.83    4.86</time>
   <time name="diis">    7.02    7.06</time>
   <time name="orth">    1.65    1.66</time>
   <time name="total">   15.79   15.88</time>
   <energy>
    <i name="e_fr_energy">   -260.73319350 </i>
    <i name="e_wo_entrp">   -260.04728274 </i>
    <i name="e_0_energy">   -260.39023812 </i>
   </energy>
  </scstep>
  <scstep>
   <time name="diag">    4.83    4.85</time>
   <time name="diis">    7.33    7.36</time>
   <time name="orth">    1.65    1.66</time>
   <time name="total">   16.11   16.17</time>
   <energy>
    <i name="e_fr_energy">   -260.73327515 </i>
    <i name="e_wo_entrp">   -260.04731836 </i>
    <i name="e_0_energy">   -260.39029675 </i>
   </energy>
  </scstep>
  <scstep>
   <time name="diag">    4.82    4.84</time>
   <time name="diis">    6.15    6.18</time>
   <time name="orth">    1.66    1.66</time>
   <time name="total">   14.93   14.98</time>
   <energy>
    <i name="e_fr_energy">   -260.73332359 </i>
    <i name="e_wo_entrp">   -260.04739362 </i>
    <i name="e_0_energy">   -260.39035861 </i>
   </energy>
  </scstep>
  <scstep>
   <time name="diag">    4.81    4.86</time>
   <time name="diis">    6.94    6.97</time>
   <time name="orth">    1.66    1.66</time>
   <time name="total">   15.70   15.79</time>
   <energy>
    <i name="e_fr_energy">   -260.73351364 </i>
    <i name="e_wo_entrp">   -260.04761853 </i>
    <i name="e_0_energy">   -260.39056609 </i>
   </energy>
  </scstep>
  <scstep>
   <time name="diag">    4.83    4.84</time>
   <time name="diis">    6.08    6.10</time>
   <time name="orth">    1.66    1.66</time>
   <time name="total">   14.84   14.89</time>
   <energy>
    <i name="e_fr_energy">   -260.73353736 </i>
    <i name="e_wo_entrp">   -260.04763877 </i>
    <i name="e_0_energy">   -260.39058806 </i>
   </energy>
  </scstep>
  <scstep>
   <time name="diag">    4.83    4.85</time>
   <time name="diis">    6.24    6.26</time>
   <time name="orth">    1.66    1.66</time>
   <time name="total">   15.01   15.06</time>
   <energy>
    <i name="e_fr_energy">   -260.73356867 </i>
    <i name="e_wo_entrp">   -260.04765597 </i>
    <i name="e_0_energy">   -260.39061232 </i>
   </energy>
  </scstep>
  <scstep>
   <time name="diag">    4.83    4.88</time>
   <time name="diis">    6.13    6.16</time>
   <time name="orth">    1.66    1.66</time>
   <time name="total">   14.92   15.01</time>
   <energy>
    <i name="e_fr_energy">   -260.73360817 </i>
    <i name="e_wo_entrp">   -260.04767469 </i>
    <i name="e_0_energy">   -260.39064143 </i>
   </energy>
  </scstep>
  <scstep>
   <time name="diag">    4.83    4.85</time>
   <time name="diis">    6.38    6.40</time>
   <time name="orth">    1.66    1.66</time>
   <time name="total">   15.20   15.25</time>
   <energy>
    <i name="e_fr_energy">   -260.73367801 </i>
    <i name="e_wo_entrp">   -260.04773809 </i>
    <i name="e_0_energy">   -260.39070805 </i>
   </energy>
  </scstep>
  <scstep>
   <time name="diag">    4.82    4.84</time>
   <time name="diis">    6.03    6.05</time>
   <time name="orth">    1.66    1.66</time>
   <time name="total">   14.79   14.84</time>
   <energy>
    <i name="e_fr_energy">   -260.73369481 </i>
    <i name="e_wo_entrp">   -260.04777619 </i>
    <i name="e_0_energy">   -260.39073550 </i>
   </energy>
  </scstep>
  <scstep>
   <time name="diag">    4.81    4.87</time>
   <time name="diis">    5.90    5.92</time>
   <time name="orth">    1.65    1.66</time>
   <time name="total">   14.64   14.73</time>
   <energy>
    <i name="e_fr_energy">   -260.73370307 </i>
    <i name="e_wo_entrp">   -260.04780297 </i>
    <i name="e_0_energy">   -260.39075302 </i>
   </energy>
  </scstep>
  <scstep>
   <time name="diag">    4.84    4.86</time>
   <time name="diis">    5.99    6.01</time>
   <time name="orth">    1.66    1.66</time>
   <time name="total">   14.77   14.82</time>
   <energy>
    <i name="e_fr_energy">   -260.73370716 </i>
    <i name="e_wo_entrp">   -260.04780625 </i>
    <i name="e_0_energy">   -260.39075671 </i>
   </energy>
  </scstep>
  <scstep>
   <time name="diag">    4.92    4.94</time>
   <time name="diis">    5.66    5.68</time>
   <time name="orth">    1.65    1.66</time>
   <time name="total">   13.19   13.24</time>
   <energy>
    <i name="alphaZ">    387.12086559 </i>
    <i name="ewald"> 181570.25771297 </i>
    <i name="hartreedc">-236461.51622803 </i>
    <i name="XCdc">   1682.93592889 </i>
    <i name="pawpsdc">  50168.40917471 </i>
    <i name="pawaedc"> -53925.19644669 </i>
    <i name="eentropy">     -0.68590867 </i>
    <i name="bandstr">  -3242.96142754 </i>
    <i name="atom">  59560.90262231 </i>
    <i name="e_fr_energy">   -260.73370647 </i>
    <i name="e_wo_entrp">   -260.04779780 </i>
    <i name="e_0_energy">   -260.39075213 </i>
   </energy>
  </scstep>
  <structure>
   <crystal>
    <varray name="basis" >
     <v>      20.00000000       0.00000000       0.00000000 </v>
     <v>       0.00000000      20.00000000       0.00000000 </v>
     <v>       0.00000000       0.00000000      20.00000000 </v>
    </varray>
    <i name="volume">   8000.00000000 </i>
    <varray name="rec_basis" >
     <v>       0.05000000       0.00000000       0.00000000 </v>
     <v>       0.00000000       0.05000000       0.00000000 </v>
     <v>       0.00000000       0.00000000       0.05000000 </v>
    </varray>
   </crystal>
   <varray name="positions" >
    <v>       0.34999999       0.59609997       0.41023001 </v>
    <v>       0.45111999       0.66298002       0.37739000 </v>
    <v>       0.41144001       0.66333997       0.49592999 </v>
    <v>       0.51289999       0.72356999       0.46397001 </v>
    <v>       0.51455998       0.60857999       0.46454999 </v>
    <v>       0.57696998       0.66512001       0.37803999 </v>
    <v>       0.61531001       0.66529000       0.49739999 </v>
    <v>       0.31621998       0.59328002       0.52759999 </v>
    <v>       0.35165000       0.48844001       0.58240998 </v>
    <v>       0.41481999       0.54310000       0.49675000 </v>
    <v>       0.41226000       0.59715998       0.60433000 </v>
    <v>       0.51300001       0.66443002       0.57078999 </v>
    <v>       0.51393002       0.54326999       0.57043999 </v>
    <v>       0.61514002       0.54430997       0.49803001 </v>
    <v>       0.61504000       0.59938997       0.60447001 </v>
    <v>       0.39269999       0.59319001       0.29561001 </v>
    <v>       0.35174000       0.48896000       0.34492999 </v>
    <v>       0.45374000       0.49070001       0.27023000 </v>
    <v>       0.45361000       0.54241002       0.37911001 </v>
    <v>       0.51520002       0.59798002       0.29126000 </v>
    <v>       0.51659000       0.43858001       0.35894001 </v>
    <v>       0.57914001       0.49233002       0.27079999 </v>
    <v>       0.57756001       0.54448003       0.37959999 </v>
    <v>       0.31229001       0.48839000       0.46421999 </v>
    <v>       0.35187000       0.38130999       0.51739001 </v>
    <v>       0.41624001       0.43660000       0.43307000 </v>
    <v>       0.45506999       0.43731001       0.55010003 </v>
    <v>       0.51587999       0.49059999       0.46496999 </v>
    <v>       0.51804000       0.37242001       0.46355999 </v>
    <v>       0.61691999       0.43946001       0.43193999 </v>
    <v>       0.57789999       0.43765000       0.55014002 </v>
    <v>       0.67907000       0.59966999       0.41204000 </v>
    <v>       0.71208000       0.59684998       0.52977002 </v>
    <v>       0.68033999       0.49168000       0.58374000 </v>
    <v>       0.63770002       0.59675997       0.29679000 </v>
    <v>       0.68107003       0.49320999       0.34472001 </v>
    <v>       0.71951002       0.49331000       0.46399999 </v>
    <v>       0.68197000       0.38521001       0.51692998 </v>
    <v>       0.45265999       0.49094000       0.66323000 </v>
    <v>       0.51353002       0.59705001       0.67210001 </v>
    <v>       0.57927000       0.49200001       0.65692002 </v>
    <v>       0.39315000       0.38383001       0.63277000 </v>
    <v>       0.45515999       0.31744999       0.54939002 </v>
    <v>       0.51909000       0.38150001       0.64209998 </v>
    <v>       0.58157003       0.31762001       0.55027002 </v>
    <v>       0.64121002       0.38648999       0.63142002 </v>
    <v>       0.41586000       0.38284001       0.32444999 </v>
    <v>       0.51719999       0.38745001       0.25582999 </v>
    <v>       0.61895001       0.38558999       0.32365999 </v>
    <v>       0.31948999       0.38475001       0.39871001 </v>
    <v>       0.41635999       0.31641999       0.43090999 </v>
    <v>       0.51840001       0.31786001       0.35631999 </v>
    <v>       0.62011999       0.31862000       0.42938000 </v>
    <v>       0.71500999       0.38927999       0.39916000 </v>
    <v>       0.51953000       0.25764999       0.46280000 </v>
    <v>       0.36684999       0.46491000       0.67382997 </v>
   </varray>
  </structure>
  <varray name="forces" >
   <v>      -0.01048807       0.00011076       0.01779780 </v>
   <v>       0.03296712       0.00640401      -0.03785319 </v>
   <v>       0.00345458      -0.04485356       0.11828488 </v>
   <v>      -0.00139220      -0.02014852      -0.00981219 </v>
   <v>       0.02549489      -0.00785084      -0.06229902 </v>
   <v>      -0.01317712      -0.01386315      -0.00817581 </v>
   <v>       0.05302365      -0.01805729      -0.00710016 </v>
   <v>      -0.02813405       0.01323887      -0.06494886 </v>
   <v>      -1.26813502       1.16423181      -3.03755596 </v>
   <v>       0.14702869       0.03750536      -0.18481377 </v>
   <v>       0.06220015       0.10063930      -0.12463241 </v>
   <v>      -0.02477408      -0.03909206       0.01917384 </v>
   <v>       0.08062933       0.04113175      -0.06287369 </v>
   <v>      -0.02870816       0.00852636      -0.00738241 </v>
   <v>       0.03914239      -0.00176356       0.01646756 </v>
   <v>      -0.00482864       0.00605615       0.01156896 </v>
   <v>       0.04132799      -0.00245444      -0.06864840 </v>
   <v>      -0.06058860       0.00399985       0.03286222 </v>
   <v>      -0.00834147       0.05271641       0.00913837 </v>
   <v>      -0.00249974       0.00348541       0.01446932 </v>
   <v>      -0.01586439      -0.02390656       0.03579703 </v>
   <v>       0.03852950      -0.00249914       0.00392159 </v>
   <v>      -0.02065466      -0.01974887       0.00684804 </v>
   <v>      -0.09359984       0.02751318      -0.13630976 </v>
   <v>       0.08978714      -0.16447981      -0.16049159 </v>
   <v>       0.01139261       0.01108809      -0.12342851 </v>
   <v>       0.54922462      -0.27147557      -0.29694818 </v>
   <v>      -0.04008447       0.03889121       0.01895196 </v>
   <v>      -0.06577060       0.05186747       0.07466761 </v>
   <v>      -0.03442811      -0.00410047      -0.00134801 </v>
   <v>      -0.00071432      -0.06185013       0.09011778 </v>
   <v>       0.02867358       0.01257744      -0.04133092 </v>
   <v>       0.00934159      -0.00709975       0.00147020 </v>
   <v>       0.07345831       0.04093006      -0.04571464 </v>
   <v>      -0.00584331      -0.00996900      -0.03139487 </v>
   <v>      -0.03506700       0.00279816      -0.02744087 </v>
   <v>      -0.01862950       0.01676293       0.07206617 </v>
   <v>       0.00440737      -0.00802735       0.00965255 </v>
   <v>       6.51249294       2.05466300      -0.59694240 </v>
   <v>       0.17353527      -0.05613484       0.05685209 </v>
   <v>       0.05554508      -0.05339019       0.12981061 </v>
   <v>       1.05776811      -3.57088304      -1.30551951 </v>
   <v>       0.15065489      -0.08014798       0.02109728 </v>
   <v>      -0.07953834       0.10804560      -0.60523724 </v>
   <v>      -0.10228065       0.03034377       0.02636974 </v>
   <v>      -0.11716872       0.08888109       0.06529219 </v>
   <v>      -0.01150854       0.01670745      -0.01636838 </v>
   <v>       0.00754982       0.00970613      -0.00632485 </v>
   <v>       0.02009517       0.04199807      -0.00985116 </v>
   <v>      -0.00055828      -0.01483677       0.07573061 </v>
   <v>      -0.01133236       0.00307978       0.00538805 </v>
   <v>      -0.00888674      -0.02359465       0.00382870 </v>
   <v>      -0.01054587      -0.01870273       0.06427773 </v>
   <v>       0.03495638       0.00900759       0.00736612 </v>
   <v>       0.02767405       0.05357387      -0.03511343 </v>
   <v>      -7.20681237       0.48244937       6.10659119 </v>
  </varray>
  <energy>
   <i name="e_fr_energy">   -260.73370647 </i>
   <i name="e_wo_entrp">   -260.39075213 </i>
   <i name="e_0_energy">     -0.68590867 </i>
  </energy>
  <time name="totalsc"> 1506.15 1512.64</time>
 </calculation>
 <calculation>
  <scstep>
   <time name="dav">   23.67   23.75</time>
   <time name="total">   25.77   25.87</time>
   <energy>
    <i name="alphaZ">    387.12086559 </i>
    <i name="ewald"> 181435.35269717 </i>
    <i name="hartreedc">-236340.45376869 </i>
    <i name="XCdc">   1681.97408282 </i>
    <i name="pawpsdc">  50168.39783791 </i>
    <i name="pawaedc"> -53925.18404613 </i>
    <i name="eentropy">     -0.71165098 </i>
    <i name="bandstr">  -3229.20356673 </i>
    <i name="atom">  59560.90262231 </i>
    <i name="e_fr_energy">   -261.80492673 </i>
    <i name="e_wo_entrp">   -261.09327575 </i>
    <i name="e_0_energy">   -261.44910124 </i>
   </energy>
  </scstep>
  <scstep>
   <time name="diag">    4.82    4.84</time>
   <time name="diis">    9.41    9.47</time>
   <time name="orth">    1.66    1.68</time>
   <time name="total">   17.98   18.08</time>
   <energy>
    <i name="e_fr_energy">   -264.52090963 </i>
    <i name="e_wo_entrp">   -263.91261422 </i>
    <i name="e_0_energy">   -264.21676192 </i>
   </energy>
  </scstep>
  <scstep>
   <time name="diag">    4.82    4.84</time>
   <time name="diis">    9.44    9.47</time>
   <time name="orth">    1.66    1.67</time>
   <time name="total">   18.00   18.06</time>
   <energy>
    <i name="e_fr_energy">   -262.95981020 </i>
    <i name="e_wo_entrp">   -262.21837693 </i>
    <i name="e_0_energy">   -262.58909357 </i>
   </energy>
  </scstep>
  <scstep>
   <time name="diag">    4.82    4.83</time>
   <time name="diis">    9.45    9.48</time>
   <time name="orth">    1.66    1.66</time>
   <time name="total">   18.00   18.07</time>
   <energy>
    <i name="e_fr_energy">   -262.33935822 </i>
    <i name="e_wo_entrp">   -261.64102223 </i>
    <i name="e_0_energy">   -261.99019022 </i>
   </energy>
  </scstep>
  <scstep>
   <time name="diag">    4.80    4.84</time>
   <time name="diis">    9.41    9.47</time>
   <time name="orth">    1.66    1.66</time>
   <time name="total">   17.95   18.05</time>
   <energy>
    <i name="e_fr_energy">   -262.36603849 </i>
    <i name="e_wo_entrp">   -261.64088582 </i>
    <i name="e_0_energy">   -262.00346215 </i>
   </energy>
  </scstep>
  <scstep>
   <time name="diag">    4.82    4.84</time>
   <time name="diis">    9.44    9.47</time>
   <time name="orth">    1.66    1.66</time>
   <time name="total">   18.00   18.07</time>
   <energy>
    <i name="e_fr_energy">   -262.32483219 </i>
    <i name="e_wo_entrp">   -261.62119394 </i>
    <i name="e_0_energy">   -261.97301306 </i>
   </energy>
  </scstep>
  <scstep>
   <time name="diag">    4.80    4.82</time>
   <time name="diis">    9.39    9.47</time>
   <time name="orth">    1.66    1.66</time>
   <time name="total">   17.93   18.04</time>
   <energy>
    <i name="e_fr_energy">   -262.22367248 </i>
    <i name="e_wo_entrp">   -261.53595391 </i>
    <i name="e_0_energy">   -261.87981319 </i>
   </energy>
  </scstep>
  <scstep>
   <time name="diag">    4.81    4.82</time>
   <time name="diis">    9.43    9.47</time>
   <time name="orth">    1.66    1.66</time>
   <time name="total">   17.98   18.04</time>
   <energy>
    <i name="e_fr_energy">   -262.24390133 </i>
    <i name="e_wo_entrp">   -261.54850353 </i>
    <i name="e_0_energy">   -261.89620243 </i>
   </energy>
  </scstep>
  <scstep>
   <time name="diag">    4.81    4.82</time>
   <time name="diis">    9.44    9.48</time>
   <time name="orth">    1.65    1.66</time>
   <time name="total">   17.99   18.05</time>
   <energy>
    <i name="e_fr_energy">   -262.17839486 </i>
    <i name="e_wo_entrp">   -261.47458080 </i>
    <i name="e_0_energy">   -261.82648783 </i>
   </energy>
  </scstep>
  <scstep>
   <time name="diag">    4.81    4.85</time>
   <time name="diis">    9.40    9.46</time>
   <time name="orth">    1.66    1.66</time>
   <time name="total">   17.98   18.09</time>
   <energy>
    <i name="e_fr_energy">   -262.13662466 </i>
    <i name="e_wo_entrp">   -261.43690059 </i>
    <i name="e_0_energy">   -261.78676262 </i>
   </energy>
  </scstep>
  <scstep>
   <time name="diag">    4.80    4.81</time>
   <time name="diis">    9.41    9.44</time>
   <time name="orth">    1.65    1.66</time>
   <time name="total">   17.95   18.02</time>
   <energy>
    <i name="e_fr_energy">   -262.14223662 </i>
    <i name="e_wo_entrp">   -261.45107575 </i>
    <i name="e_0_energy">   -261.79665618 </i>
   </energy>
  </scstep>
  <scstep>
   <time name="diag">    4.83    4.84</time>
   <time name="diis">    9.40    9.47</time>
   <time name="orth">    1.66    1.66</time>
   <time name="total">   17.97   18.07</time>
   <energy>
    <i name="e_fr_energy">   -262.12279997 </i>
    <i name="e_wo_entrp">   -261.42667833 </i>
    <i name="e_0_energy">   -261.77473915 </i>
   </energy>
  </scstep>
  <scstep>
   <time name="diag">    4.85    4.86</time>
   <time name="diis">    9.44    9.48</time>
   <time name="orth">    1.66    1.66</time>
   <time name="total">   18.04   18.10</time>
   <energy>
    <i name="e_fr_energy">   -262.11527118 </i>
    <i name="e_wo_entrp">   -261.42141327 </i>
    <i name="e_0_energy">   -261.76834223 </i>
   </energy>
  </scstep>
  <scstep>
   <time name="diag">    4.84    4.85</time>
   <time name="diis">    9.46    9.49</time>
   <time name="orth">    1.65    1.66</time>
   <time name="total">   18.04   18.10</time>
   <energy>
    <i name="e_fr_energy">   -262.11831216 </i>
    <i name="e_wo_entrp">   -261.42011412 </i>
    <i name="e_0_energy">   -261.76921314 </i>
   </energy>
  </scstep>
  <scstep>
   <time name="diag">    4.83    4.88</time>
   <time name="diis">    9.42    9.45</time>
   <time name="orth">    1.66    1.66</time>
   <time name="total">   18.05   18.15</time>
   <energy>
    <i name="e_fr_energy">   -262.11933469 </i>
    <i name="e_wo_entrp">   -261.42239731 </i>
    <i name="e_0_energy">   -261.77086600 </i>
   </energy>
  </scstep>
  <scstep>
   <time name="diag">    4.84    4.86</time>
   <time name="diis">    9.43    9.47</time>
   <time name="orth">    1.65    1.66</time>
   <time name="total">   18.03   18.09</time>
   <energy>
    <i name="e_fr_energy">   -262.11961794 </i>
    <i name="e_wo_entrp">   -261.42442533 </i>
    <i name="e_0_energy">   -261.77202164 </i>
   </energy>
  </scstep>
  <scstep>
   <time name="diag">    4.86    4.88</time>
   <time name="diis">    9.39    9.47</time>
   <time name="orth">    1.66    1.66</time>
   <time name="total">   18.06   18.16</time>
   <energy>
    <i name="e_fr_energy">   -262.12818152 </i>
    <i name="e_wo_entrp">   -261.43304632 </i>
    <i name="e_0_energy">   -261.78061392 </i>
   </energy>
  </scstep>
  <scstep>
   <time name="diag">    4.84    4.85</time>
   <time name="diis">    9.43    9.46</time>
   <time name="orth">    1.66    1.66</time>
   <time name="total">   18.06   18.12</time>
   <energy>
    <i name="e_fr_energy">   -262.14168693 </i>
    <i name="e_wo_entrp">   -261.44675462 </i>
    <i name="e_0_energy">   -261.79422078 </i>
   </energy>
  </scstep>
  <scstep>
   <time name="diag">    4.85    4.86</time>
   <time name="diis">    9.42    9.46</time>
   <time name="orth">    1.66    1.66</time>
   <time name="total">   18.07   18.14</time>
   <energy>
    <i name="e_fr_energy">   -262.15283558 </i>
    <i name="e_wo_entrp">   -261.45923259 </i>
    <i name="e_0_energy">   -261.80603408 </i>
   </energy>
  </scstep>
  <scstep>
   <time name="diag">    4.83    4.88</time>
   <time name="diis">    9.47    9.50</time>
   <time name="orth">    1.65    1.66</time>
   <time name="total">   18.10   18.20</time>
   <energy>
    <i name="e_fr_energy">   -262.16075626 </i>
    <i name="e_wo_entrp">   -261.46653236 </i>
    <i name="e_0_energy">   -261.81364431 </i>
   </energy>
  </scstep>
  <scstep>
   <time name="diag">    4.84    4.86</time>
   <time name="diis">    9.44    9.48</time>
   <time name="orth">    1.66    1.66</time>
   <time name="total">   18.10   18.16</time>
   <energy>
    <i name="e_fr_energy">   -262.18278876 </i>
    <i name="e_wo_entrp">   -261.48775951 </i>
    <i name="e_0_energy">   -261.83527414 </i>
   </energy>
  </scstep>
  <scstep>
   <time name="diag">    4.82    4.84</time>
   <time name="diis">    9.43    9.47</time>
   <time name="orth">    1.66    1.66</time>
   <time name="total">   18.04   18.11</time>
   <energy>
    <i name="e_fr_energy">   -262.19300434 </i>
    <i name="e_wo_entrp">   -261.49867631 </i>
    <i name="e_0_energy">   -261.84584033 </i>
   </energy>
  </scstep>
  <scstep>
   <time name="diag">    4.83    4.84</time>
   <time name="diis">    9.44    9.46</time>
   <time name="orth">    1.66    1.66</time>
   <time name="total">   18.07   18.11</time>
   <energy>
    <i name="e_fr_energy">   -262.19857998 </i>
    <i name="e_wo_entrp">   -261.50465463 </i>
    <i name="e_0_energy">   -261.85161731 </i>
   </energy>
  </scstep>
  <scstep>
   <time name="diag">    4.83    4.84</time>
   <time name="diis">    9.46    9.49</time>
   <time name="orth">    1.65    1.66</time>
   <time name="total">   18.10   18.14</time>
   <energy>
    <i name="e_fr_energy">   -262.21738992 </i>
    <i name="e_wo_entrp">   -261.52353346 </i>
    <i name="e_0_energy">   -261.87046169 </i>
   </energy>
  </scstep>
  <scstep>
   <time name="diag">    4.86    4.87</time>
   <time name="diis">    9.44    9.47</time>
   <time name="orth">    1.66    1.66</time>
   <time name="total">   18.11   18.15</time>
   <energy>
    <i name="e_fr_energy">   -262.22626990 </i>
    <i name="e_wo_entrp">   -261.53256556 </i>
    <i name="e_0_energy">   -261.87941773 </i>
   </energy>
  </scstep>
  <scstep>
   <time name="diag">    4.84    4.85</time>
   <time name="diis">    9.44    9.46</time>
   <time name="orth">    1.65    1.66</time>
   <time name="total">   18.10   18.14</time>
   <energy>
    <i name="e_fr_energy">   -262.24111995 </i>
    <i name="e_wo_entrp">   -261.54713149 </i>
    <i name="e_0_energy">   -261.89412572 </i>
   </energy>
  </scstep>
  <scstep>
   <time name="diag">    4.84    4.85</time>
   <time name="diis">    9.47    9.50</time>
   <time name="orth">    1.65    1.65</time>
   <time name="total">   18.15   18.20</time>
   <energy>
    <i name="e_fr_energy">   -262.26233858 </i>
    <i name="e_wo_entrp">   -261.56870446 </i>
    <i name="e_0_energy">   -261.91552152 </i>
   </energy>
  </scstep>
  <scstep>
   <time name="diag">    4.83    4.84</time>
   <time name="diis">    9.44    9.46</time>
   <time name="orth">    1.66    1.66</time>
   <time name="total">   18.11   18.15</time>
   <energy>
    <i name="e_fr_energy">   -262.26645283 </i>
    <i name="e_wo_entrp">   -261.57216436 </i>
    <i name="e_0_energy">   -261.91930860 </i>
   </energy>
  </scstep>
  <scstep>
   <time name="diag">    4.84    4.85</time>
   <time name="diis">    9.44    9.46</time>
   <time name="orth">    1.66    1.66</time>
   <time name="total">   18.13   18.17</time>
   <energy>
    <i name="e_fr_energy">   -262.27437390 </i>
    <i name="e_wo_entrp">   -261.58004985 </i>
    <i name="e_0_energy">   -261.92721188 </i>
   </energy>
  </scstep>
  <scstep>
   <time name="diag">    4.86    4.87</time>
   <time name="diis">    9.43    9.45</time>
   <time name="orth">    1.66    1.66</time>
   <time name="total">   18.14   18.19</time>
   <energy>
    <i name="e_fr_energy">   -262.27988232 </i>
    <i name="e_wo_entrp">   -261.58600372 </i>
    <i name="e_0_energy">   -261.93294302 </i>
   </energy>
  </scstep>
  <scstep>
   <time name="diag">    4.83    4.84</time>
   <time name="diis">    9.40    9.43</time>
   <time name="orth">    1.65    1.66</time>
   <time name="total">   18.09   18.14</time>
   <energy>
    <i name="e_fr_energy">   -262.28179365 </i>
    <i name="e_wo_entrp">   -261.58786116 </i>
    <i name="e_0_energy">   -261.93482740 </i>
   </energy>
  </scstep>
  <scstep>
   <time name="diag">    4.83    4.84</time>
   <time name="diis">    9.37    9.40</time>
   <time name="orth">    1.66    1.66</time>
   <time name="total">   18.05   18.10</time>
   <energy>
    <i name="e_fr_energy">   -262.28727280 </i>
    <i name="e_wo_entrp">   -261.59364753 </i>
    <i name="e_0_energy">   -261.94046017 </i>
   </energy>
  </scstep>
  <scstep>
   <time name="diag">    4.83    4.84</time>
   <time name="diis">    9.36    9.39</time>
[...]
       <r>     1.5826    31.2719   372.6506 </r>
       <r>     1.6514    34.4130   375.0170 </r>
       <r>     1.7201    33.7558   377.3383 </r>
       <r>     1.7889    25.1061   379.0647 </r>
       <r>     1.8577    11.0360   379.8236 </r>
       <r>     1.9264     2.3383   379.9844 </r>
       <r>     1.9952     0.2179   379.9994 </r>
       <r>     2.0640     0.0086   380.0000 </r>
       <r>     2.1327     0.0001   380.0000 </r>
       <r>     2.2015     0.0000   380.0000 </r>
       <r>     2.2703     0.0000   380.0000 </r>
       <r>     2.3390     0.0000   380.0000 </r>
       <r>     2.4078     0.0000   380.0000 </r>
       <r>     2.4766     0.0000   380.0000 </r>
       <r>     2.5453     0.0000   380.0000 </r>
       <r>     2.6141     0.0000   380.0000 </r>
       <r>     2.6829     0.0000   380.0000 </r>
       <r>     2.7516     0.0000   380.0000 </r>
       <r>     2.8204     0.0000   380.0000 </r>
      </set>
      <set comment="spin 2">
       <r>   -17.8094     0.0000     0.0000 </r>
       <r>   -17.7407     0.0000     0.0000 </r>
       <r>   -17.6719     0.0000     0.0000 </r>
       <r>   -17.6031     0.0000     0.0000 </r>
       <r>   -17.5344     0.0000     0.0000 </r>
       <r>   -17.4656     0.0000     0.0000 </r>
       <r>   -17.3968     0.0000     0.0000 </r>
       <r>   -17.3281     0.0000     0.0000 </r>
       <r>   -17.2593     0.0000     0.0000 </r>
       <r>   -17.1906     0.0000     0.0000 </r>
       <r>   -17.1218     0.0000     0.0000 </r>
       <r>   -17.0530     0.0000     0.0000 </r>
       <r>   -16.9843     0.0002     0.0000 </r>
       <r>   -16.9155     0.0084     0.0006 </r>
       <r>   -16.8467     0.1601     0.0116 </r>
       <r>   -16.7780     1.2453     0.0972 </r>
       <r>   -16.7092     4.0045     0.3726 </r>
       <r>   -16.6404     5.3624     0.7414 </r>
       <r>   -16.5717     2.9961     0.9474 </r>
       <r>   -16.5029     0.6958     0.9952 </r>
       <r>   -16.4341     0.0666     0.9998 </r>
       <r>   -16.3654     0.0026     1.0000 </r>
       <r>   -16.2966     0.0000     1.0000 </r>
       <r>   -16.2278     0.0000     1.0000 </r>
       <r>   -16.1591     0.0000     1.0000 </r>
       <r>   -16.0903     0.0000     1.0000 </r>
       <r>   -16.0215     0.0000     1.0000 </r>
       <r>   -15.9528     0.0000     1.0000 </r>
       <r>   -15.8840     0.0000     1.0000 </r>
       <r>   -15.8152     0.0000     1.0000 </r>
       <r>   -15.7465     0.0000     1.0000 </r>
       <r>   -15.6777     0.0000     1.0000 </r>
       <r>   -15.6089     0.0000     1.0000 </r>
       <r>   -15.5402     0.0000     1.0000 </r>
       <r>   -15.4714     0.0000     1.0000 </r>
       <r>   -15.4026     0.0000     1.0000 </r>
       <r>   -15.3339     0.0000     1.0000 </r>
       <r>   -15.2651     0.0000     1.0000 </r>
       <r>   -15.1963     0.0000     1.0000 </r>
       <r>   -15.1276     0.0000     1.0000 </r>
       <r>   -15.0588     0.0000     1.0000 </r>
       <r>   -14.9900     0.0000     1.0000 </r>
       <r>   -14.9213     0.0000     1.0000 </r>
       <r>   -14.8525     0.0000     1.0000 </r>
       <r>   -14.7837     0.0000     1.0000 </r>
       <r>   -14.7150     0.0000     1.0000 </r>
       <r>   -14.6462     0.0000     1.0000 </r>
       <r>   -14.5774     0.0000     1.0000 </r>
       <r>   -14.5087     0.0000     1.0000 </r>
       <r>   -14.4399     0.0000     1.0000 </r>
       <r>   -14.3711     0.0000     1.0000 </r>
       <r>   -14.3024     0.0000     1.0000 </r>
       <r>   -14.2336     0.0000     1.0000 </r>
       <r>   -14.1648     0.0000     1.0000 </r>
       <r>   -14.0961     0.0000     1.0000 </r>
       <r>   -14.0273     0.0000     1.0000 </r>
       <r>   -13.9585     0.0000     1.0000 </r>
       <r>   -13.8898     0.0000     1.0000 </r>
       <r>   -13.8210     0.0000     1.0000 </r>
       <r>   -13.7522     0.0000     1.0000 </r>
       <r>   -13.6835     0.0000     1.0000 </r>
       <r>   -13.6147     0.0000     1.0000 </r>
       <r>   -13.5459     0.0000     1.0000 </r>
       <r>   -13.4772     0.0000     1.0000 </r>
       <r>   -13.4084     0.0000     1.0000 </r>
       <r>   -13.3396     0.0000     1.0000 </r>
       <r>   -13.2709     0.0000     1.0000 </r>
       <r>   -13.2021     0.0000     1.0000 </r>
       <r>   -13.1333     0.0000     1.0000 </r>
       <r>   -13.0646     0.0000     1.0000 </r>
       <r>   -12.9958     0.0000     1.0000 </r>
       <r>   -12.9271     0.0000     1.0000 </r>
       <r>   -12.8583     0.0000     1.0000 </r>
       <r>   -12.7895     0.0000     1.0000 </r>
       <r>   -12.7208     0.0000     1.0000 </r>
       <r>   -12.6520     0.0000     1.0000 </r>
       <r>   -12.5832     0.0000     1.0000 </r>
       <r>   -12.5145     0.0000     1.0000 </r>
       <r>   -12.4457     0.0000     1.0000 </r>
       <r>   -12.3769     0.0000     1.0000 </r>
       <r>   -12.3082     0.0001     1.0000 </r>
       <r>   -12.2394     0.0053     1.0004 </r>
       <r>   -12.1706     0.1142     1.0082 </r>
       <r>   -12.1019     0.9985     1.0769 </r>
       <r>   -12.0331     3.6078     1.3250 </r>
       <r>   -11.9643     5.4246     1.6980 </r>
       <r>   -11.8956     3.4033     1.9320 </r>
       <r>   -11.8268     0.8882     1.9931 </r>
       <r>   -11.7580     0.0957     1.9997 </r>
       <r>   -11.6893     0.0042     2.0000 </r>
       <r>   -11.6205     0.0001     2.0000 </r>
       <r>   -11.5517     0.0000     2.0000 </r>
       <r>   -11.4830     0.0000     2.0000 </r>
       <r>   -11.4142     0.0000     2.0000 </r>
       <r>   -11.3454     0.0000     2.0000 </r>
       <r>   -11.2767     0.0000     2.0000 </r>
       <r>   -11.2079     0.0000     2.0000 </r>
       <r>   -11.1391     0.0000     2.0000 </r>
       <r>   -11.0704     0.0000     2.0000 </r>
       <r>   -11.0016     0.0000     2.0000 </r>
       <r>   -10.9328     0.0016     2.0001 </r>
       <r>   -10.8641     0.0551     2.0039 </r>
       <r>   -10.7953     0.7810     2.0576 </r>
       <r>   -10.7265     4.6882     2.3800 </r>
       <r>   -10.6578    12.3304     3.2279 </r>
       <r>   -10.5890    14.7995     4.2456 </r>
       <r>   -10.5202     8.3963     4.8230 </r>
       <r>   -10.4515     2.2721     4.9792 </r>
       <r>   -10.3827     0.2857     4.9989 </r>
       <r>   -10.3139     0.0159     5.0000 </r>
       <r>   -10.2452     0.0004     5.0000 </r>
       <r>   -10.1764     0.0000     5.0000 </r>
       <r>   -10.1076     0.0000     5.0000 </r>
       <r>   -10.0389     0.0000     5.0000 </r>
       <r>    -9.9701     0.0000     5.0000 </r>
       <r>    -9.9013     0.0000     5.0000 </r>
       <r>    -9.8326     0.0000     5.0000 </r>
       <r>    -9.7638     0.0000     5.0000 </r>
       <r>    -9.6950     0.0000     5.0000 </r>
       <r>    -9.6263     0.0019     5.0001 </r>
       <r>    -9.5575     0.0726     5.0051 </r>
       <r>    -9.4887     1.1303     5.0829 </r>
       <r>    -9.4200     7.4076     5.5922 </r>
       <r>    -9.3512    20.8157     7.0237 </r>
       <r>    -9.2824    25.5753     8.7824 </r>
       <r>    -9.2137    14.2574     9.7628 </r>
       <r>    -9.1449     5.3533    10.1309 </r>
       <r>    -9.0761     5.1713    10.4865 </r>
       <r>    -9.0074     4.9491    10.8269 </r>
       <r>    -8.9386     2.1138    10.9722 </r>
       <r>    -8.8698     0.3757    10.9981 </r>
       <r>    -8.8011     0.0275    10.9999 </r>
       <r>    -8.7323     0.0013    11.0000 </r>
       <r>    -8.6636     0.0221    11.0016 </r>
       <r>    -8.5948     0.3973    11.0289 </r>
       <r>    -8.5260     3.0115    11.2360 </r>
       <r>    -8.4573     9.9511    11.9203 </r>
       <r>    -8.3885    15.2642    12.9699 </r>
       <r>    -8.3197    12.7281    13.8452 </r>
       <r>    -8.2510     8.7496    14.4469 </r>
       <r>    -8.1822     6.8817    14.9201 </r>
       <r>    -8.1134     8.8531    15.5289 </r>
       <r>    -8.0447    22.2838    17.0613 </r>
       <r>    -7.9759    43.7019    20.0665 </r>
       <r>    -7.9071    48.1893    23.3803 </r>
       <r>    -7.8384    32.6598    25.6261 </r>
       <r>    -7.7696    16.5633    26.7651 </r>
       <r>    -7.7008     9.3458    27.4078 </r>
       <r>    -7.6321    10.4192    28.1243 </r>
       <r>    -7.5633    12.0689    28.9542 </r>
       <r>    -7.4945    14.8252    29.9737 </r>
       <r>    -7.4258    21.2628    31.4359 </r>
       <r>    -7.3570    31.6956    33.6155 </r>
       <r>    -7.2882    41.1400    36.4445 </r>
       <r>    -7.2195    34.0476    38.7858 </r>
       <r>    -7.1507    19.7607    40.1447 </r>
       <r>    -7.0819    21.2311    41.6047 </r>
       <r>    -7.0132    33.8613    43.9332 </r>
       <r>    -6.9444    44.7674    47.0117 </r>
       <r>    -6.8756    49.4708    50.4136 </r>
       <r>    -6.8069    47.3261    53.6680 </r>
       <r>    -6.7381    40.8638    56.4781 </r>
       <r>    -6.6693    31.4173    58.6385 </r>
       <r>    -6.6006    27.7386    60.5460 </r>
       <r>    -6.5318    28.5621    62.5101 </r>
       <r>    -6.4630    28.1162    64.4435 </r>
       <r>    -6.3943    21.7052    65.9361 </r>
       <r>    -6.3255    14.9669    66.9653 </r>
       <r>    -6.2567    21.2433    68.4261 </r>
       <r>    -6.1880    40.1929    71.1901 </r>
       <r>    -6.1192    50.3460    74.6522 </r>
       <r>    -6.0504    48.3794    77.9790 </r>
       <r>    -5.9817    45.5207    81.1093 </r>
       <r>    -5.9129    56.1311    84.9692 </r>
       <r>    -5.8441    74.2389    90.0743 </r>
       <r>    -5.7754    66.2843    94.6325 </r>
       <r>    -5.7066    46.8186    97.8520 </r>
       <r>    -5.6378    53.6103   101.5386 </r>
       <r>    -5.5691    68.6131   106.2568 </r>
       <r>    -5.5003    72.6476   111.2525 </r>
       <r>    -5.4315    86.6138   117.2086 </r>
       <r>    -5.3628    96.5848   123.8504 </r>
       <r>    -5.2940    69.6316   128.6387 </r>
       <r>    -5.2252    39.9389   131.3851 </r>
       <r>    -5.1565    46.1389   134.5579 </r>
       <r>    -5.0877    72.7470   139.5605 </r>
       <r>    -5.0189    80.6110   145.1038 </r>
       <r>    -4.9502    69.2239   149.8640 </r>
       <r>    -4.8814    81.3034   155.4549 </r>
       <r>    -4.8126   111.0543   163.0917 </r>
       <r>    -4.7439   108.4498   170.5494 </r>
       <r>    -4.6751    83.3931   176.2840 </r>
       <r>    -4.6063    74.7105   181.4216 </r>
       <r>    -4.5376    74.8830   186.5710 </r>
       <r>    -4.4688    60.3010   190.7176 </r>
       <r>    -4.4001    52.0246   194.2952 </r>
       <r>    -4.3313    71.3212   199.1997 </r>
       <r>    -4.2625   102.6535   206.2587 </r>
       <r>    -4.1938   115.0615   214.1711 </r>
       <r>    -4.1250   102.1967   221.1987 </r>
       <r>    -4.0562    96.9549   227.8660 </r>
       <r>    -3.9875   112.5417   235.6050 </r>
       <r>    -3.9187   117.9154   243.7136 </r>
       <r>    -3.8499   110.6814   251.3247 </r>
       <r>    -3.7812   116.4946   259.3356 </r>
       <r>    -3.7124   133.9397   268.5461 </r>
       <r>    -3.6436   128.9492   277.4135 </r>
       <r>    -3.5749    90.8804   283.6630 </r>
       <r>    -3.5061    65.6953   288.1806 </r>
       <r>    -3.4373    54.4127   291.9223 </r>
       <r>    -3.3686    39.6278   294.6474 </r>
       <r>    -3.2998    28.6752   296.6192 </r>
       <r>    -3.2310    22.1255   298.1407 </r>
       <r>    -3.1623    17.7096   299.3586 </r>
       <r>    -3.0935    18.0710   300.6012 </r>
       <r>    -3.0247    17.8446   301.8283 </r>
       <r>    -2.9560    12.0342   302.6559 </r>
       <r>    -2.8872     4.8315   302.9881 </r>
       <r>    -2.8184     3.4200   303.2233 </r>
       <r>    -2.7497     6.4545   303.6671 </r>
       <r>    -2.6809     9.0204   304.2874 </r>
       <r>    -2.6121    11.1954   305.0573 </r>
       <r>    -2.5434    13.3330   305.9742 </r>
       <r>    -2.4746    11.9308   306.7946 </r>
       <r>    -2.4058     9.1872   307.4264 </r>
       <r>    -2.3371     9.2430   308.0620 </r>
       <r>    -2.2683    10.6429   308.7939 </r>
       <r>    -2.1995    13.1600   309.6988 </r>
       <r>    -2.1308    15.1900   310.7434 </r>
       <r>    -2.0620    18.2344   311.9973 </r>
       <r>    -1.9932    22.9445   313.5751 </r>
       <r>    -1.9245    19.8310   314.9388 </r>
       <r>    -1.8557    10.9094   315.6890 </r>
       <r>    -1.7869     3.8120   315.9511 </r>
       <r>    -1.7182     1.2254   316.0354 </r>
       <r>    -1.6494     2.6370   316.2167 </r>
       <r>    -1.5806     5.2237   316.5759 </r>
       <r>    -1.5119     4.6024   316.8924 </r>
       <r>    -1.4431     3.3077   317.1199 </r>
       <r>    -1.3743     6.7338   317.5829 </r>
       <r>    -1.3056    10.9848   318.3383 </r>
       <r>    -1.2368    11.1738   319.1067 </r>
       <r>    -1.1680    14.9512   320.1348 </r>
       <r>    -1.0993    20.7522   321.5619 </r>
       <r>    -1.0305    16.4995   322.6965 </r>
       <r>    -0.9617    10.0548   323.3879 </r>
       <r>    -0.8930    11.6454   324.1887 </r>
       <r>    -0.8242    18.2282   325.4422 </r>
       <r>    -0.7554    23.3219   327.0460 </r>
       <r>    -0.6867    27.0667   328.9072 </r>
       <r>    -0.6179    33.8587   331.2356 </r>
       <r>    -0.5491    32.4219   333.4651 </r>
       <r>    -0.4804    20.0766   334.8457 </r>
       <r>    -0.4116    12.9505   335.7362 </r>
       <r>    -0.3428    10.9948   336.4923 </r>
       <r>    -0.2741     5.8176   336.8924 </r>
       <r>    -0.2053     1.4105   336.9894 </r>
       <r>    -0.1365     0.1480   336.9995 </r>
       <r>    -0.0678     0.0068   337.0000 </r>
       <r>     0.0010     0.0102   337.0007 </r>
       <r>     0.0697     0.1840   337.0134 </r>
       <r>     0.1385     1.3983   337.1095 </r>
       <r>     0.2073     4.8517   337.4432 </r>
       <r>     0.2760    10.4359   338.1608 </r>
       <r>     0.3448    20.5253   339.5722 </r>
       <r>     0.4136    30.2284   341.6509 </r>
       <r>     0.4823    26.4268   343.4682 </r>
       <r>     0.5511    17.9522   344.7027 </r>
       <r>     0.6199    14.2059   345.6796 </r>
       <r>     0.6886    10.5943   346.4081 </r>
       <r>     0.7574     6.4363   346.8507 </r>
       <r>     0.8262     4.9060   347.1881 </r>
       <r>     0.8949    11.2011   347.9583 </r>
       <r>     0.9637    21.7529   349.4542 </r>
       <r>     1.0325    26.9849   351.3098 </r>
       <r>     1.1012    25.0159   353.0301 </r>
       <r>     1.1700    25.0866   354.7552 </r>
       <r>     1.2388    37.4289   357.3290 </r>
       <r>     1.3075    50.5045   360.8020 </r>
       <r>     1.3763    44.0281   363.8297 </r>
       <r>     1.4451    31.2783   365.9806 </r>
       <r>     1.5138    31.1373   368.1218 </r>
       <r>     1.5826    33.5871   370.4314 </r>
       <r>     1.6514    34.1062   372.7768 </r>
       <r>     1.7201    36.9143   375.3152 </r>
       <r>     1.7889    34.9257   377.7169 </r>
       <r>     1.8577    22.9006   379.2917 </r>
       <r>     1.9264     8.5608   379.8804 </r>
       <r>     1.9952     1.5962   379.9902 </r>
       <r>     2.0640     0.1376   379.9996 </r>
       <r>     2.1327     0.0052   380.0000 </r>
       <r>     2.2015     0.0001   380.0000 </r>
       <r>     2.2703     0.0000   380.0000 </r>
       <r>     2.3390     0.0000   380.0000 </r>
       <r>     2.4078     0.0000   380.0000 </r>
       <r>     2.4766     0.0000   380.0000 </r>
       <r>     2.5453     0.0000   380.0000 </r>
       <r>     2.6141     0.0000   380.0000 </r>
       <r>     2.6829     0.0000   380.0000 </r>
       <r>     2.7516     0.0000   380.0000 </r>
       <r>     2.8204     0.0000   380.0000 </r>
      </set>
     </set>
    </array>
   </total>
  </dos>
 </calculation>
 <structure name="finalpos" >
  <crystal>
   <varray name="basis" >
    <v>      20.00000000       0.00000000       0.00000000 </v>
    <v>       0.00000000      20.00000000       0.00000000 </v>
    <v>       0.00000000       0.00000000      20.00000000 </v>
   </varray>
   <i name="volume">   8000.00000000 </i>
   <varray name="rec_basis" >
    <v>       0.05000000       0.00000000       0.00000000 </v>
    <v>       0.00000000       0.05000000       0.00000000 </v>
    <v>       0.00000000       0.00000000       0.05000000 </v>
   </varray>
  </crystal>
  <varray name="positions" >
   <v>       0.35047927       0.59572285       0.41047059 </v>
   <v>       0.45183421       0.66343204       0.37685036 </v>
   <v>       0.41233983       0.66224754       0.49687541 </v>
   <v>       0.51331930       0.72306129       0.46420589 </v>
   <v>       0.51486849       0.60848216       0.46404300 </v>
   <v>       0.57729647       0.66500759       0.37751882 </v>
   <v>       0.61629413       0.66531819       0.49684907 </v>
   <v>       0.31613050       0.59323503       0.52680168 </v>
   <v>       0.34669267       0.49055733       0.58572234 </v>
   <v>       0.41480175       0.54167783       0.49716784 </v>
   <v>       0.41359401       0.59758432       0.60337468 </v>
   <v>       0.51412945       0.66339796       0.57106941 </v>
   <v>       0.51514882       0.54284764       0.57005006 </v>
   <v>       0.61573786       0.54486616       0.49689696 </v>
   <v>       0.61662172       0.59870704       0.60432155 </v>
   <v>       0.39270144       0.59363049       0.29546525 </v>
   <v>       0.35154717       0.48879987       0.34378772 </v>
   <v>       0.45350955       0.49048554       0.27051884 </v>
   <v>       0.45364105       0.54301096       0.37883688 </v>
   <v>       0.51514821       0.59813778       0.29083010 </v>
   <v>       0.51702422       0.43827571       0.35866632 </v>
   <v>       0.57937328       0.49220113       0.27046771 </v>
   <v>       0.57757967       0.54448447       0.37897676 </v>
   <v>       0.31271042       0.48798432       0.46422305 </v>
   <v>       0.35416176       0.38092134       0.51677930 </v>
   <v>       0.41663075       0.43691654       0.43070230 </v>
   <v>       0.45462396       0.43762068       0.54951970 </v>
   <v>       0.51598421       0.49078328       0.46435482 </v>
   <v>       0.51702647       0.37283062       0.46460702 </v>
   <v>       0.61693561       0.43934569       0.43132288 </v>
   <v>       0.57926753       0.43872032       0.54896680 </v>
   <v>       0.67973716       0.60003881       0.41089845 </v>
   <v>       0.71297011       0.59705068       0.52887859 </v>
   <v>       0.68122808       0.49227842       0.58363717 </v>
   <v>       0.63755488       0.59658024       0.29582610 </v>
   <v>       0.68099561       0.49330160       0.34440742 </v>
   <v>       0.71954711       0.49328693       0.46422324 </v>
   <v>       0.68245835       0.38544842       0.51725727 </v>
   <v>       0.45251915       0.49188091       0.66262500 </v>
   <v>       0.51634201       0.59536302       0.67263579 </v>
   <v>       0.57869929       0.49097498       0.65763388 </v>
   <v>       0.39453674       0.38321547       0.63331933 </v>
   <v>       0.45551324       0.31564578       0.55024297 </v>
   <v>       0.51754207       0.38259375       0.63564927 </v>
   <v>       0.58119963       0.31795609       0.54995321 </v>
   <v>       0.63986281       0.38793427       0.63217921 </v>
   <v>       0.41578305       0.38263173       0.32318003 </v>
   <v>       0.51748248       0.38737634       0.25536179 </v>
   <v>       0.61977039       0.38627421       0.32323593 </v>
   <v>       0.31955563       0.38447875       0.39910664 </v>
   <v>       0.41684228       0.31624925       0.43058470 </v>
   <v>       0.51867404       0.31838532       0.35639636 </v>
   <v>       0.62014003       0.31939923       0.43006432 </v>
   <v>       0.71575554       0.38943372       0.39960237 </v>
   <v>       0.52015540       0.25792918       0.46200880 </v>
   <v>       0.35198120       0.46366923       0.69028898 </v>
  </varray>
 </structure>
</modeling>
