1x1_001_aAl2O3                          
           1
    20.000000    0.000000    0.000000
     0.000000   20.000000    0.000000
     0.000000    0.000000   20.000000
   Ni   S 
  55   1
Direct configuration=     1
   0.34999999  0.59609997  0.41023001
   0.45111999  0.66298002  0.37739000
   0.41144001  0.66333997  0.49592999
   0.51289999  0.72356999  0.46397001
   0.51455998  0.60857999  0.46454999
   0.57696998  0.66512001  0.37803999
   0.61531001  0.66529000  0.49739999
   0.31621998  0.59328002  0.52759999
   0.35165000  0.48844001  0.58240998
   0.41481999  0.54310000  0.49675000
   0.41226000  0.59715998  0.60433000
   0.51300001  0.66443002  0.57078999
   0.51393002  0.54326999  0.57043999
   0.61514002  0.54430997  0.49803001
   0.61504000  0.59938997  0.60447001
   0.39269999  0.59319001  0.29561001
   0.35174000  0.48896000  0.34492999
   0.45374000  0.49070001  0.27023000
   0.45361000  0.54241002  0.37911001
   0.51520002  0.59798002  0.29126000
   0.51659000  0.43858001  0.35894001
   0.57914001  0.49233002  0.27079999
   0.57756001  0.54448003  0.37959999
   0.31229001  0.48839000  0.46421999
   0.35187000  0.38130999  0.51739001
   0.41624001  0.43660000  0.43307000
   0.45506999  0.43731001  0.55010003
   0.51587999  0.49059999  0.46496999
   0.51804000  0.37242001  0.46355999
   0.61691999  0.43946001  0.43193999
   0.57789999  0.43765000  0.55014002
   0.67907000  0.59966999  0.41204000
   0.71208000  0.59684998  0.52977002
   0.68033999  0.49168000  0.58374000
   0.63770002  0.59675997  0.29679000
   0.68107003  0.49320999  0.34472001
   0.71951002  0.49331000  0.46399999
   0.68197000  0.38521001  0.51692998
   0.45265999  0.49094000  0.66323000
   0.51353002  0.59705001  0.67210001
   0.57927000  0.49200001  0.65692002
   0.39315000  0.38383001  0.63277000
   0.45515999  0.31744999  0.54939002
   0.51909000  0.38150001  0.64209998
   0.58157003  0.31762001  0.55027002
   0.64121002  0.38648999  0.63142002
   0.41586000  0.38284001  0.32444999
   0.51719999  0.38745001  0.25582999
   0.61895001  0.38558999  0.32365999
   0.31948999  0.38475001  0.39871001
   0.41635999  0.31641999  0.43090999
   0.51840001  0.31786001  0.35631999
   0.62011999  0.31862000  0.42938000
   0.71500999  0.38927999  0.39916000
   0.51953000  0.25764999  0.46280000
   0.36684999  0.46491000  0.67382997
Direct configuration=     2
   0.34998987  0.59610008  0.41024718
   0.45115180  0.66298620  0.37735347
   0.41144335  0.66329669  0.49604411
   0.51289865  0.72355055  0.46396054
   0.51458458  0.60857242  0.46448988
   0.57695727  0.66510663  0.37803210
   0.61536117  0.66527258  0.49739314
   0.31619284  0.59329279  0.52753732
   0.35042644  0.48956332  0.57947918
   0.41496185  0.54313619  0.49657168
   0.41232001  0.59725708  0.60420975
   0.51297611  0.66439230  0.57080849
   0.51400782  0.54330968  0.57037933
   0.61511232  0.54431820  0.49802288
   0.61507777  0.59938827  0.60448590
   0.39269533  0.59319586  0.29562117
   0.35177988  0.48895763  0.34486376
   0.45368154  0.49070387  0.27026170
   0.45360195  0.54246088  0.37911883
   0.51519761  0.59798338  0.29127396
   0.51657469  0.43855694  0.35897454
   0.57917718  0.49232760  0.27080378
   0.57754008  0.54446097  0.37960660
   0.31219970  0.48841655  0.46408847
   0.35195663  0.38115129  0.51723516
   0.41625100  0.43661070  0.43295091
   0.45559991  0.43704808  0.54981352
   0.51584131  0.49063751  0.46498828
   0.51797654  0.37247006  0.46363203
   0.61688678  0.43945605  0.43193869
   0.57789930  0.43759032  0.55022697
   0.67909766  0.59968213  0.41200012
   0.71208902  0.59684313  0.52977144
   0.68041087  0.49171949  0.58369589
   0.63769438  0.59675036  0.29675971
   0.68103620  0.49321269  0.34469353
   0.71949204  0.49332618  0.46406952
   0.68197425  0.38520226  0.51693930
   0.45894359  0.49292245  0.66265404
   0.51369745  0.59699585  0.67215486
   0.57932360  0.49194850  0.65704526
   0.39417059  0.38038463  0.63151037
   0.45530535  0.31737266  0.54941037
   0.51901325  0.38160425  0.64151601
   0.58147134  0.31764929  0.55029546
   0.64109697  0.38657574  0.63148301
   0.41584889  0.38285613  0.32443419
   0.51720728  0.38745937  0.25582389
   0.61896940  0.38563051  0.32365048
   0.31948945  0.38473569  0.39878308
   0.41634906  0.31642296  0.43091519
   0.51839144  0.31783724  0.35632369
   0.62010981  0.31860195  0.42944202
   0.71504371  0.38928868  0.39916711
   0.51955670  0.25770168  0.46276612
   0.35989647  0.46537549  0.67972194
Direct configuration=     3
   0.34998645  0.59610012  0.41025300
   0.45116257  0.66298829  0.37734111
   0.41144448  0.66328204  0.49608275
   0.51289820  0.72354397  0.46395733
   0.51459291  0.60856985  0.46446953
   0.57695296  0.66510210  0.37802943
   0.61537849  0.66526668  0.49739082
   0.31618365  0.59329711  0.52751611
   0.35001220  0.48994361  0.57848698
   0.41500987  0.54314844  0.49651131
   0.41234033  0.59728996  0.60416904
   0.51296802  0.66437953  0.57081476
   0.51403416  0.54332311  0.57035879
   0.61510294  0.54432099  0.49802047
   0.61509056  0.59938769  0.60449128
   0.39269375  0.59319784  0.29562495
   0.35179338  0.48895683  0.34484133
   0.45366175  0.49070517  0.27027244
   0.45359923  0.54247810  0.37912181
   0.51519679  0.59798452  0.29127869
   0.51656951  0.43854913  0.35898624
   0.57918977  0.49232679  0.27080506
   0.57753333  0.54445452  0.37960883
   0.31216913  0.48842553  0.46404394
   0.35198596  0.38109756  0.51718274
   0.41625472  0.43661432  0.43291060
   0.45577931  0.43695940  0.54971652
   0.51582822  0.49065022  0.46499447
   0.51795506  0.37248700  0.46365642
   0.61687553  0.43945471  0.43193825
   0.57789907  0.43757012  0.55025641
   0.67910703  0.59968624  0.41198662
   0.71209207  0.59684081  0.52977192
   0.68043486  0.49173286  0.58368096
   0.63769247  0.59674710  0.29674946
   0.68102474  0.49321360  0.34468457
   0.71948596  0.49333165  0.46409306
   0.68197569  0.38519964  0.51694245
   0.46107088  0.49359360  0.66245905
   0.51375414  0.59697751  0.67217343
   0.57934174  0.49193106  0.65708767
   0.39451611  0.37921822  0.63108392
   0.45535456  0.31734648  0.54941727
   0.51898727  0.38163955  0.64131831
   0.58143793  0.31765920  0.55030408
   0.64105870  0.38660478  0.63150434
   0.41584513  0.38286159  0.32442885
   0.51720974  0.38746255  0.25582182
   0.61897596  0.38564423  0.32364726
   0.31948926  0.38473085  0.39880782
   0.41634536  0.31642397  0.43091695
   0.51838854  0.31782953  0.35632494
   0.62010637  0.31859584  0.42946301
   0.71505513  0.38929162  0.39916951
   0.51956574  0.25771918  0.46275465
   0.35754239  0.46553308  0.68171663
Direct configuration=     4
   0.34998738  0.59610011  0.41025142
   0.45115965  0.66298772  0.37734446
   0.41144417  0.66328601  0.49607230
   0.51289832  0.72354575  0.46395820
   0.51459066  0.60857055  0.46447504
   0.57695413  0.66510333  0.37803015
   0.61537381  0.66526827  0.49739144
   0.31618614  0.59329594  0.52752185
   0.35012430  0.48984070  0.57875547
   0.41499688  0.54314512  0.49652765
   0.41233483  0.59728106  0.60418006
   0.51297021  0.66438299  0.57081306
   0.51402703  0.54331948  0.57036435
   0.61510548  0.54432023  0.49802113
   0.61508710  0.59938785  0.60448983
   0.39269418  0.59319730  0.29562393
   0.35178973  0.48895705  0.34484740
   0.45366711  0.49070482  0.27026953
   0.45359997  0.54247344  0.37912100
   0.51519701  0.59798422  0.29127741
   0.51657091  0.43855124  0.35898307
   0.57918636  0.49232701  0.27080471
   0.57753516  0.54445627  0.37960823
   0.31217740  0.48842310  0.46405599
   0.35197802  0.38111210  0.51719692
   0.41625371  0.43661334  0.43292151
   0.45573077  0.43698340  0.54974277
   0.51583176  0.49064678  0.46499279
   0.51796087  0.37248242  0.46364982
   0.61687857  0.43945508  0.43193837
   0.57789913  0.43757558  0.55024844
   0.67910449  0.59968513  0.41199027
   0.71209124  0.59684144  0.52977179
   0.68042837  0.49172924  0.58368500
   0.63769299  0.59674798  0.29675223
   0.68102784  0.49321335  0.34468699
   0.71948761  0.49333017  0.46408669
   0.68197530  0.38520035  0.51694160
   0.46049523  0.49341199  0.66251182
   0.51373880  0.59698247  0.67216841
   0.57933683  0.49193578  0.65707619
   0.39442261  0.37953385  0.63119932
   0.45534125  0.31735356  0.54941540
   0.51899430  0.38163000  0.64137181
   0.58144697  0.31765652  0.55030175
   0.64106905  0.38659692  0.63149857
   0.41584615  0.38286011  0.32443029
   0.51720908  0.38746169  0.25582238
   0.61897419  0.38564052  0.32364813
   0.31948931  0.38473216  0.39880112
   0.41634636  0.31642369  0.43091647
   0.51838932  0.31783162  0.35632460
   0.62010730  0.31859749  0.42945733
   0.71505204  0.38929083  0.39916886
   0.51956329  0.25771444  0.46275775
   0.35817941  0.46549044  0.68117686
Direct configuration=     5
   0.34998746  0.59610011  0.41025127
   0.45115937  0.66298767  0.37734478
   0.41144414  0.66328639  0.49607129
   0.51289833  0.72354592  0.46395828
   0.51459044  0.60857061  0.46447557
   0.57695424  0.66510344  0.37803022
   0.61537336  0.66526843  0.49739150
   0.31618638  0.59329583  0.52752240
   0.35013506  0.48983083  0.57878124
   0.41499563  0.54314480  0.49652921
   0.41233430  0.59728021  0.60418111
   0.51297042  0.66438332  0.57081290
   0.51402634  0.54331913  0.57036488
   0.61510573  0.54432016  0.49802119
   0.61508676  0.59938786  0.60448969
   0.39269422  0.59319725  0.29562383
   0.35178937  0.48895707  0.34484798
   0.45366762  0.49070478  0.27026925
   0.45360004  0.54247299  0.37912092
   0.51519703  0.59798419  0.29127729
   0.51657105  0.43855145  0.35898277
   0.57918604  0.49232703  0.27080468
   0.57753533  0.54445643  0.37960817
   0.31217820  0.48842287  0.46405715
   0.35197726  0.38111349  0.51719829
   0.41625362  0.43661325  0.43292255
   0.45572611  0.43698570  0.54974529
   0.51583210  0.49064645  0.46499263
   0.51796143  0.37248198  0.46364918
   0.61687887  0.43945511  0.43193838
   0.57789914  0.43757611  0.55024768
   0.67910425  0.59968502  0.41199062
   0.71209116  0.59684150  0.52977177
   0.68042775  0.49172889  0.58368538
   0.63769304  0.59674807  0.29675250
   0.68102814  0.49321333  0.34468722
   0.71948776  0.49333003  0.46408608
   0.68197527  0.38520042  0.51694152
   0.46043997  0.49339455  0.66251688
   0.51373733  0.59698295  0.67216792
   0.57933636  0.49193623  0.65707509
   0.39441364  0.37956415  0.63121040
   0.45533997  0.31735424  0.54941522
   0.51899498  0.38162908  0.64137695
   0.58144784  0.31765626  0.55030152
   0.64107005  0.38659617  0.63149802
   0.41584625  0.38285997  0.32443043
   0.51720901  0.38746161  0.25582243
   0.61897402  0.38564016  0.32364822
   0.31948932  0.38473228  0.39880048
   0.41634645  0.31642367  0.43091643
   0.51838940  0.31783182  0.35632457
   0.62010739  0.31859765  0.42945679
   0.71505175  0.38929075  0.39916880
   0.51956306  0.25771399  0.46275805
   0.35824056  0.46548635  0.68112505
Direct configuration=     6
   0.34997185  0.59610433  0.41026566
   0.45119012  0.66299938  0.37731574
   0.41147146  0.66326101  0.49616864
   0.51289649  0.72352048  0.46395677
   0.51462337  0.60860585  0.46442165
   0.57695493  0.66509722  0.37800668
   0.61541390  0.66524963  0.49739745
   0.31610840  0.59343418  0.52739185
   0.34979128  0.48977289  0.57911285
   0.41518460  0.54319261  0.49631335
   0.41235373  0.59735495  0.60410291
   0.51295603  0.66437380  0.57080138
   0.51416917  0.54342618  0.57008106
   0.61509490  0.54431225  0.49800308
   0.61515020  0.59940111  0.60449732
   0.39267636  0.59321265  0.29562791
   0.35181243  0.48893949  0.34478475
   0.45363662  0.49068046  0.27029799
   0.45360768  0.54250892  0.37910876
   0.51519423  0.59799426  0.29129231
   0.51658384  0.43853239  0.35898609
   0.57922199  0.49231362  0.27081539
   0.57753044  0.54444972  0.37959904
   0.31207951  0.48844463  0.46383845
   0.35209168  0.38095455  0.51701204
   0.41626996  0.43664484  0.43280389
   0.45581572  0.43681419  0.54985841
   0.51584304  0.49065715  0.46495495
   0.51792433  0.37251880  0.46368009
   0.61687260  0.43944804  0.43191254
   0.57794252  0.43756352  0.55027655
   0.67911897  0.59970333  0.41195194
   0.71210254  0.59684548  0.52978402
   0.68049593  0.49174649  0.58365826
   0.63768741  0.59674959  0.29672723
   0.68098822  0.49320446  0.34465892
   0.71946659  0.49331710  0.46412848
   0.68199053  0.38520810  0.51693728
   0.45978567  0.49290187  0.66263269
   0.51406627  0.59722858  0.67228393
   0.57964423  0.49188241  0.65721769
   0.39458268  0.37971579  0.63126335
   0.45549854  0.31713047  0.54940462
   0.51896176  0.38168027  0.64084117
   0.58134950  0.31765374  0.55030153
   0.64100207  0.38667327  0.63157368
   0.41585013  0.38288638  0.32438833
   0.51720534  0.38745706  0.25579813
   0.61899667  0.38570553  0.32364325
   0.31945184  0.38470747  0.39885474
   0.41636365  0.31641060  0.43093067
   0.51837375  0.31783160  0.35633763
   0.62008906  0.31860364  0.42953079
   0.71509489  0.38929468  0.39917985
   0.51959354  0.25773914  0.46271052
   0.35780694  0.46560983  0.68201568
Direct configuration=     7
   0.34992499  0.59611699  0.41030883
   0.45128237  0.66303450  0.37722864
   0.41155343  0.66318486  0.49646070
   0.51289095  0.72344417  0.46395224
   0.51472216  0.60871154  0.46425992
   0.57695699  0.66507856  0.37793605
   0.61553554  0.66519324  0.49741528
   0.31587447  0.59384922  0.52700022
   0.34875994  0.48959909  0.58010768
   0.41575152  0.54333604  0.49566576
   0.41241202  0.59757918  0.60386828
   0.51291287  0.66434523  0.57076682
   0.51459763  0.54374734  0.56922961
   0.61506242  0.54428853  0.49794876
   0.61534050  0.59944084  0.60452023
   0.39262277  0.59325886  0.29564013
   0.35188160  0.48888676  0.34459505
   0.45354360  0.49060750  0.27038419
   0.45363061  0.54261668  0.37907227
   0.51518582  0.59802450  0.29133738
   0.51662220  0.43847523  0.35899604
   0.57932984  0.49227339  0.27084754
   0.57751575  0.54442959  0.37957166
   0.31178345  0.48850992  0.46318234
   0.35243493  0.38047773  0.51645332
   0.41631898  0.43673963  0.43244789
   0.45608458  0.43629968  0.55019776
   0.51587587  0.49068923  0.46484188
   0.51781301  0.37262928  0.46377280
   0.61685382  0.43942681  0.43183503
   0.57807266  0.43752576  0.55036315
   0.67916315  0.59975827  0.41183589
   0.71213666  0.59685743  0.52982077
   0.68070048  0.49179927  0.58357689
   0.63767052  0.59675418  0.29665141
   0.68086845  0.49317785  0.34457402
   0.71940308  0.49327831  0.46425570
   0.68203634  0.38523114  0.51692456
   0.45782275  0.49142382  0.66298010
   0.51505309  0.59796545  0.67263193
   0.58056783  0.49172095  0.65764547
   0.39508980  0.38017069  0.63142221
   0.45597425  0.31645916  0.54937280
   0.51886212  0.38183385  0.63923384
   0.58105447  0.31764617  0.55030156
   0.64079813  0.38690459  0.63180067
   0.41586176  0.38296562  0.32426202
   0.51719433  0.38744342  0.25572523
   0.61906465  0.38590165  0.32362833
   0.31933942  0.38463303  0.39901753
   0.41641522  0.31637140  0.43097339
   0.51832681  0.31783093  0.35637680
   0.62003408  0.31862162  0.42975281
   0.71522433  0.38930645  0.39921301
   0.51968499  0.25781458  0.46256794
   0.35650606  0.46598027  0.68468759
Direct configuration=     8
   0.34990791  0.59612161  0.41032456
   0.45131598  0.66304729  0.37719690
   0.41158330  0.66315711  0.49656713
   0.51288893  0.72341636  0.46395059
   0.51475815  0.60875006  0.46420099
   0.57695775  0.66507176  0.37791031
   0.61557987  0.66517269  0.49742177
   0.31578922  0.59400046  0.52685750
   0.34838412  0.48953576  0.58047020
   0.41595810  0.54338830  0.49542978
   0.41243326  0.59766089  0.60378279
   0.51289715  0.66433482  0.57075423
   0.51475377  0.54386437  0.56891933
   0.61505058  0.54427988  0.49792896
   0.61540985  0.59945532  0.60452858
   0.39260324  0.59327569  0.29564459
   0.35190680  0.48886755  0.34452593
   0.45350971  0.49058092  0.27041561
   0.45363897  0.54265595  0.37905897
   0.51518276  0.59803552  0.29135380
   0.51663618  0.43845440  0.35899967
   0.57936914  0.49225874  0.27085925
   0.57751039  0.54442225  0.37956168
   0.31167557  0.48853372  0.46294326
   0.35256002  0.38030398  0.51624972
   0.41633684  0.43677417  0.43231817
   0.45618255  0.43611219  0.55032142
   0.51588783  0.49070092  0.46480068
   0.51777245  0.37266954  0.46380659
   0.61684698  0.43941907  0.43180678
   0.57812009  0.43751200  0.55039471
   0.67917925  0.59977829  0.41179360
   0.71214910  0.59686179  0.52983416
   0.68077502  0.49181850  0.58354724
   0.63766437  0.59675585  0.29662378
   0.68082481  0.49316815  0.34454308
   0.71937994  0.49326417  0.46430206
   0.68205303  0.38523953  0.51691993
   0.45710745  0.49088521  0.66310670
   0.51541270  0.59823397  0.67275874
   0.58090440  0.49166211  0.65780136
   0.39527460  0.38033646  0.63148010
   0.45614761  0.31621454  0.54936120
   0.51882581  0.38188981  0.63864812
   0.58094696  0.31764342  0.55030157
   0.64072381  0.38698888  0.63188339
   0.41586600  0.38299449  0.32421599
   0.51719032  0.38743845  0.25569866
   0.61908942  0.38597312  0.32362290
   0.31929845  0.38460590  0.39907685
   0.41643402  0.31635711  0.43098895
   0.51830970  0.31783069  0.35639107
   0.62001404  0.31862817  0.42983371
   0.71527149  0.38931074  0.39922509
   0.51971831  0.25784207  0.46251598
   0.35603202  0.46611526  0.68566123
Direct configuration=     9
   0.34988532  0.59615105  0.41029801
   0.45134158  0.66310244  0.37715265
   0.41161641  0.66315089  0.49669822
   0.51290135  0.72341305  0.46394986
   0.51490571  0.60884007  0.46399637
   0.57699822  0.66508269  0.37784666
   0.61564952  0.66516294  0.49740417
   0.31586355  0.59396074  0.52663011
   0.34815369  0.48941000  0.58129039
   0.41556832  0.54323125  0.49566633
   0.41264229  0.59755367  0.60359801
   0.51292312  0.66432972  0.57081528
   0.51477745  0.54388322  0.56950542
   0.61517329  0.54427215  0.49783134
   0.61553474  0.59945555  0.60455529
   0.39257942  0.59331338  0.29564799
   0.35189247  0.48883957  0.34438129
   0.45347595  0.49052802  0.27045094
   0.45368373  0.54270189  0.37891283
   0.51517478  0.59805204  0.29135055
   0.51667105  0.43841055  0.35896460
   0.57939370  0.49223144  0.27084617
   0.57754874  0.54444513  0.37949749
   0.31175209  0.48863958  0.46283364
   0.35284569  0.38020815  0.51613851
   0.41632264  0.43684766  0.43225121
   0.45606665  0.43629650  0.55016879
   0.51594818  0.49055490  0.46471752
   0.51769946  0.37271916  0.46380724
   0.61685985  0.43937130  0.43179558
   0.57829591  0.43774730  0.55028082
   0.67918927  0.59979512  0.41174482
   0.71218278  0.59687168  0.52981304
   0.68091177  0.49185080  0.58351973
   0.63765125  0.59675292  0.29657769
   0.68079424  0.49315876  0.34450879
   0.71934741  0.49325419  0.46434412
   0.68207497  0.38524790  0.51692791
   0.45662254  0.49068195  0.66290938
   0.51573011  0.59795383  0.67255204
   0.58084009  0.49177651  0.65784120
   0.39518173  0.38115962  0.63192036
   0.45618606  0.31581949  0.54946528
   0.51876392  0.38187606  0.63803379
   0.58091686  0.31757552  0.55028708
   0.64069105  0.38708158  0.63200992
   0.41584803  0.38300360  0.32411766
   0.51720545  0.38743291  0.25566303
   0.61914130  0.38604882  0.32361341
   0.31925705  0.38455739  0.39907726
   0.41648465  0.31630385  0.43095885
   0.51829071  0.31786529  0.35639380
   0.62002974  0.31869549  0.42993668
   0.71532876  0.38932227  0.39925741
   0.51980154  0.25782282  0.46236408
   0.35538393  0.46585563  0.68631937
Direct configuration=    10
   0.34984475  0.59620392  0.41025033
   0.45138755  0.66320145  0.37707319
   0.41167585  0.66313972  0.49693358
   0.51292363  0.72340711  0.46394855
   0.51517065  0.60900168  0.46362897
   0.57707089  0.66510233  0.37773238
   0.61577457  0.66514542  0.49737257
   0.31599701  0.59388942  0.52622182
   0.34773997  0.48918421  0.58276304
   0.41486845  0.54294925  0.49609107
   0.41301761  0.59736115  0.60326623
   0.51296975  0.66432058  0.57092489
   0.51481998  0.54391705  0.57055775
   0.61539361  0.54425826  0.49765607
   0.61575898  0.59945597  0.60460325
   0.39253666  0.59338104  0.29565410
   0.35186674  0.48878934  0.34412160
   0.45341534  0.49043303  0.27051439
   0.45376409  0.54278437  0.37865044
   0.51516045  0.59808172  0.29134470
   0.51673366  0.43833184  0.35890163
   0.57943781  0.49218242  0.27082267
   0.57761759  0.54448620  0.37938222
   0.31188949  0.48882967  0.46263681
   0.35335861  0.38003610  0.51593883
   0.41629715  0.43697963  0.43213098
   0.45585854  0.43662744  0.54989473
   0.51605654  0.49029272  0.46456821
   0.51756841  0.37280827  0.46380840
   0.61688296  0.43928552  0.43177547
   0.57861161  0.43816978  0.55007633
   0.67920726  0.59982534  0.41165723
   0.71224326  0.59688943  0.52977511
   0.68115731  0.49190878  0.58347034
   0.63762769  0.59674766  0.29649495
   0.68073936  0.49314191  0.34444721
   0.71928901  0.49323626  0.46441965
   0.68211437  0.38526293  0.51694222
   0.45575187  0.49031698  0.66255508
   0.51630002  0.59745082  0.67218092
   0.58072463  0.49198192  0.65791272
   0.39501499  0.38263760  0.63271086
   0.45625510  0.31511018  0.54965215
   0.51865278  0.38185137  0.63693074
   0.58086281  0.31745361  0.55026106
   0.64063223  0.38724802  0.63223709
   0.41581575  0.38301995  0.32394111
   0.51723262  0.38742295  0.25559906
   0.61923445  0.38618474  0.32359637
   0.31918272  0.38447027  0.39907798
   0.41657556  0.31620821  0.43090479
   0.51825662  0.31792741  0.35639869
   0.62005792  0.31881637  0.43012155
   0.71543158  0.38934298  0.39931543
   0.51995098  0.25778824  0.46209133
   0.35422029  0.46538946  0.68750107
Direct configuration=    11
   0.34983951  0.59621075  0.41024417
   0.45139349  0.66321425  0.37706292
   0.41168353  0.66313827  0.49696401
   0.51292651  0.72340634  0.46394838
   0.51520489  0.60902257  0.46358149
   0.57708029  0.66510486  0.37771761
   0.61579073  0.66514316  0.49736849
   0.31601426  0.59388020  0.52616905
   0.34768649  0.48915503  0.58295338
   0.41477799  0.54291280  0.49614597
   0.41306612  0.59733626  0.60322335
   0.51297578  0.66431940  0.57093906
   0.51482548  0.54392142  0.57069376
   0.61542209  0.54425647  0.49763342
   0.61578797  0.59945603  0.60460945
   0.39253114  0.59338978  0.29565489
   0.35186342  0.48878285  0.34408803
   0.45340750  0.49042076  0.27052259
   0.45377447  0.54279503  0.37861653
   0.51515860  0.59808555  0.29134395
   0.51674175  0.43832166  0.35889349
   0.57944351  0.49217608  0.27081964
   0.57762649  0.54449151  0.37936732
   0.31190725  0.48885423  0.46261137
   0.35342491  0.38001386  0.51591302
   0.41629385  0.43699668  0.43211544
   0.45583164  0.43667022  0.54985931
   0.51607054  0.49025883  0.46454891
   0.51755147  0.37281979  0.46380855
   0.61688595  0.43927443  0.43177287
   0.57865242  0.43822439  0.55004990
   0.67920959  0.59982925  0.41164591
   0.71225108  0.59689173  0.52977021
   0.68118904  0.49191627  0.58346395
   0.63762465  0.59674698  0.29648425
   0.68073226  0.49313974  0.34443925
   0.71928146  0.49323395  0.46442941
   0.68211946  0.38526487  0.51694408
   0.45563934  0.49026981  0.66250928
   0.51637368  0.59738580  0.67213295
   0.58070970  0.49200846  0.65792197
   0.39499343  0.38282863  0.63281303
   0.45626402  0.31501850  0.54967630
   0.51863842  0.38184818  0.63678817
   0.58085583  0.31743785  0.55025769
   0.64062463  0.38726954  0.63226645
   0.41581158  0.38302206  0.32391829
   0.51723614  0.38742166  0.25559079
   0.61924649  0.38620231  0.32359416
   0.31917312  0.38445901  0.39907808
   0.41658731  0.31619585  0.43089780
   0.51825221  0.31793544  0.35639932
   0.62006156  0.31883199  0.43014545
   0.71544487  0.38934565  0.39932293
   0.51997029  0.25778377  0.46205608
   0.35406989  0.46532921  0.68765380
Direct configuration=    12
   0.34993872  0.59624712  0.41011370
   0.45137853  0.66330681  0.37703187
   0.41183402  0.66305646  0.49698668
   0.51296172  0.72343915  0.46397397
   0.51512909  0.60867454  0.46369458
   0.57718923  0.66522056  0.37758805
   0.61585748  0.66518249  0.49735434
   0.31600186  0.59368984  0.52615009
   0.34750883  0.48932924  0.58346739
   0.41476145  0.54252232  0.49642813
   0.41316358  0.59723965  0.60317006
   0.51309734  0.66432822  0.57088925
   0.51485527  0.54351909  0.57057151
   0.61537719  0.54433261  0.49754605
   0.61609531  0.59946122  0.60453161
   0.39249976  0.59345222  0.29561038
   0.35180390  0.48875153  0.34394938
   0.45338623  0.49038083  0.27047270
   0.45379634  0.54278922  0.37875464
   0.51515298  0.59812923  0.29124550
   0.51676419  0.43827942  0.35880124
   0.57942623  0.49216265  0.27076038
   0.57763966  0.54442996  0.37933630
   0.31205041  0.48884874  0.46273612
   0.35381847  0.38007568  0.51613003
   0.41625854  0.43707483  0.43192031
   0.45552953  0.43696121  0.54953579
   0.51593640  0.49075957  0.46473752
   0.51741437  0.37265187  0.46401176
   0.61694290  0.43921794  0.43170570
   0.57887306  0.43846889  0.54988797
   0.67926840  0.59985441  0.41156897
   0.71236592  0.59693992  0.52968723
   0.68133116  0.49195265  0.58355162
   0.63763452  0.59673920  0.29637450
   0.68076440  0.49314159  0.34442258
   0.71933322  0.49322498  0.46440702
   0.68214144  0.38523900  0.51705590
   0.45520951  0.49044610  0.66238546
   0.51647529  0.59692229  0.67221910
   0.58042894  0.49201014  0.65791328
   0.39499389  0.38314378  0.63299254
   0.45605596  0.31499355  0.54993550
   0.51848327  0.38182523  0.63634301
   0.58094381  0.31747416  0.55019765
   0.64055414  0.38741678  0.63228032
   0.41575796  0.38299509  0.32383225
   0.51727651  0.38741056  0.25556445
   0.61932658  0.38621279  0.32356486
   0.31923053  0.38444722  0.39901065
   0.41665551  0.31614183  0.43081951
   0.51826608  0.31799428  0.35634113
   0.62011992  0.31893285  0.43020399
   0.71550014  0.38936494  0.39935998
   0.52006239  0.25772774  0.46188498
   0.35337798  0.46513581  0.68843044
Direct configuration=    13
   0.35002317  0.59627807  0.41000264
   0.45136580  0.66338560  0.37700544
   0.41196211  0.66298683  0.49700598
   0.51299170  0.72346706  0.46399576
   0.51506458  0.60837830  0.46379083
   0.57728197  0.66531904  0.37747778
   0.61591429  0.66521596  0.49734229
   0.31599131  0.59352781  0.52613395
   0.34735761  0.48947752  0.58390490
   0.41474738  0.54218995  0.49666830
   0.41324654  0.59715742  0.60312470
   0.51320081  0.66433573  0.57084685
   0.51488063  0.54317664  0.57046745
   0.61533898  0.54439742  0.49747169
   0.61635691  0.59946564  0.60446536
   0.39247305  0.59350537  0.29557250
   0.35175323  0.48872488  0.34383136
   0.45336811  0.49034685  0.27043023
   0.45381494  0.54278427  0.37887220
   0.51514819  0.59816641  0.29116171
   0.51678329  0.43824346  0.35872271
   0.57941152  0.49215122  0.27070995
   0.57765086  0.54437757  0.37930990
   0.31217227  0.48884405  0.46284230
   0.35415345  0.38012829  0.51631474
   0.41622848  0.43714135  0.43175423
   0.45527238  0.43720890  0.54926042
   0.51582223  0.49118578  0.46489807
   0.51729766  0.37250895  0.46418472
   0.61699137  0.43916986  0.43164853
   0.57906087  0.43867700  0.54975014
   0.67931846  0.59987583  0.41150347
   0.71246367  0.59698093  0.52961661
   0.68145213  0.49198361  0.58362624
   0.63764292  0.59673258  0.29628108
   0.68079175  0.49314317  0.34440840
   0.71937728  0.49321734  0.46438796
   0.68216016  0.38521698  0.51715109
   0.45484366  0.49059615  0.66228006
   0.51656177  0.59652777  0.67229243
   0.58018997  0.49201156  0.65790588
   0.39499429  0.38341204  0.63314533
   0.45587886  0.31497230  0.55015612
   0.51835121  0.38180569  0.63596410
   0.58101869  0.31750507  0.55014654
   0.64049414  0.38754210  0.63229212
   0.41571233  0.38297213  0.32375902
   0.51731088  0.38740112  0.25554203
   0.61939474  0.38622171  0.32353993
   0.31927940  0.38443718  0.39895326
   0.41671357  0.31609586  0.43075287
   0.51827789  0.31804437  0.35629159
   0.62016960  0.31901870  0.43025382
   0.71554719  0.38938135  0.39939151
   0.52014078  0.25768004  0.46173935
   0.35278905  0.46497120  0.68909149
Direct configuration=    14
   0.35023774  0.59622666  0.40997510
   0.45143222  0.66339548  0.37701857
   0.41215652  0.66275147  0.49692400
   0.51307013  0.72332903  0.46400409
   0.51489334  0.60856072  0.46398551
   0.57730868  0.66529732  0.37745237
   0.61590803  0.66524621  0.49725263
   0.31594992  0.59334449  0.52625733
   0.34716778  0.48977402  0.58445316
   0.41469986  0.54200307  0.49689329
   0.41331260  0.59717007  0.60317927
   0.51341673  0.66412474  0.57077605
   0.51501022  0.54299643  0.57031607
   0.61546245  0.54460906  0.49743750
   0.61655817  0.59937917  0.60434699
   0.39252278  0.59354041  0.29554861
   0.35171015  0.48872838  0.34373933
   0.45337703  0.49038619  0.27039034
   0.45368015  0.54287797  0.37891768
   0.51512939  0.59818192  0.29109321
   0.51679965  0.43828749  0.35888656
   0.57937585  0.49216666  0.27062630
   0.57766228  0.54437751  0.37922013
   0.31230299  0.48871574  0.46308642
   0.35438302  0.38026266  0.51659315
   0.41630335  0.43712712  0.43138049
   0.45498252  0.43728310  0.54918844
   0.51590519  0.49093363  0.46466417
   0.51715588  0.37262468  0.46444179
   0.61684478  0.43922528  0.43162117
   0.57916529  0.43875764  0.54955052
   0.67938430  0.59991075  0.41142687
   0.71259239  0.59701156  0.52944101
   0.68153244  0.49204496  0.58374666
   0.63763454  0.59669716  0.29618570
   0.68087112  0.49317319  0.34440172
   0.71943580  0.49322959  0.46433648
   0.68222409  0.38519787  0.51728001
   0.45415020  0.49088633  0.66235507
   0.51653171  0.59607853  0.67242132
   0.57983935  0.49185374  0.65783613
   0.39499883  0.38345897  0.63321226
   0.45565733  0.31517337  0.55036236
   0.51814289  0.38190434  0.63564539
   0.58113475  0.31760675  0.55004490
   0.64036788  0.38771030  0.63224630