 vasp.6.3.2 27Jun22 (build Aug 05 2024 15:42:26) complex                        
  
 executed on             LinuxIFC date 2025.06.04  20:33:56
 running  294 mpi-ranks, with    1 threads/rank
 each image running on   42 cores
 distrk:  each k-point on   42 cores,    1 groups
 distr:  one band on NCORE=   1 cores,   42 groups


--------------------------------------------------------------------------------------------------------


 INCAR:
   ADDGRID = True
   ALGO = Fast
   EDIFF = 1e-06
   EDIFFG = -0.05
   ENCUT = 520.0
   IBRION = 1
   ISIF = 2
   ISMEAR = 0
   ISPIN = 2
   ISYM = 0
   LASPH = True
   LDAU = True
   LDAUJ = 0 0 0 0
   LDAUL = 0 0 2 0
   LDAUPRINT = 1
   LDAUTYPE = 2
   LDAUU = 0 0 4.38 0
   LMAXMIX = 4
   LORBIT = 11
   LREAL = False
   LWAVE = False
   MAGMOM = 93*0.6
   NELM = 100
   NELMIN = 3
   NSW = 450
   POTIM = 0.2
   PREC = Accurate
   SIGMA = 0.05
   IMAGES = 7
   SPRING = -5.0
   ICHAIN = 0
   LCLIMB = .TRUE.
   LNEBCELL = .FALSE.
   IOPT = 3

 POTCAR:   PAW_PBE Li_sv 23Jan2001                
 POTCAR:   PAW_PBE Nb_pv 08Apr2002                
 POTCAR:   PAW_PBE Mo_pv 08Apr2002                
 POTCAR:   PAW_PBE O 08Apr2002                    
 POTCAR:   PAW_PBE Li_sv 23Jan2001                
   VRHFIN =Li: 1s2s2p                                                                               
   LEXCH  = PE                                                                                      
   EATOM  =   202.7858 eV,   14.9043 Ry                                                             
                                                                                                    
   TITEL  = PAW_PBE Li_sv 23Jan2001                                                                 
   LULTRA =        F    use ultrasoft PP ?                                                          
   IUNSCR =        0    unscreen: 0-lin 1-nonlin 2-no                                               
   RPACOR =     .000    partial core radius                                                         
   POMASS =    7.010; ZVAL   =    3.000    mass and valenz                                          
   RCORE  =    2.050    outmost cutoff radius                                                       
   RWIGS  =    2.050; RWIGS  =    1.085    wigner-seitz radius (au A)                               
   ENMAX  =  271.649; ENMIN  =  203.737 eV                                                          
   ICORE  =        2    local potential                                                             
   LCOR   =        T    correct aug charges                                                         
   LPAW   =        T    paw PP                                                                      
   EAUG   =  428.394                                                                                
   RMAX   =    2.797    core radius for proj-oper                                                   
   RAUG   =    1.300    factor for augmentation sphere                                              
   RDEP   =    2.094    radius for radial grids                                                     
   RDEPT  =    1.550    core radius for aug-charge                                                  
   QCUT   =   -4.468; QGAM   =    8.937    optimization parameters                                  
                                                                                                    
   Description                                                                                      
     l     E      TYP  RCUT    TYP  RCUT                                                            
     0   .000     23  1.550                                                                         
     0   .000     23  2.050                                                                         
     0   .000     23  1.550                                                                         
     0   .000     23  2.050                                                                         
     1  -.200     23  2.050                                                                         
     1  1.500     23  2.050                                                                         
     2   .000      7  1.550                                                                         
  local pseudopotential read in
  atomic valenz-charges read in
  non local Contribution for L=           0  read in
    real space projection operators read in
  non local Contribution for L=           0  read in
    real space projection operators read in
  non local Contribution for L=           1  read in
    real space projection operators read in
  non local Contribution for L=           1  read in
    real space projection operators read in
    PAW grid and wavefunctions read in
 
   number of l-projection  operators is LMAX  =           4
   number of lm-projection operators is LMMAX =           8
 
 POTCAR:   PAW_PBE Nb_pv 08Apr2002                
   VRHFIN =Nb: 4p5s4d                                                                               
   LEXCH  = PE                                                                                      
   EATOM  =  1043.3919 eV,   76.6871 Ry                                                             
                                                                                                    
   TITEL  = PAW_PBE Nb_pv 08Apr2002                                                                 
   LULTRA =        F    use ultrasoft PP ?                                                          
   IUNSCR =        1    unscreen: 0-lin 1-nonlin 2-no                                               
   RPACOR =    2.200    partial core radius                                                         
   POMASS =   92.000; ZVAL   =   11.000    mass and valenz                                          
   RCORE  =    2.750    outmost cutoff radius                                                       
   RWIGS  =    2.840; RWIGS  =    1.503    wigner-seitz radius (au A)                               
   ENMAX  =  208.608; ENMIN  =  156.456 eV                                                          
   RCLOC  =    2.201    cutoff for local pot                                                        
   LCOR   =        T    correct aug charges                                                         
   LPAW   =        T    paw PP                                                                      
   EAUG   =  355.067                                                                                
   DEXC   =    -.005                                                                                
   RMAX   =    3.192    core radius for proj-oper                                                   
   RAUG   =    1.300    factor for augmentation sphere                                              
   RDEP   =    2.776    radius for radial grids                                                     
   QCUT   =   -3.916; QGAM   =    7.831    optimization parameters                                  
                                                                                                    
   Description                                                                                      
     l     E      TYP  RCUT    TYP  RCUT                                                            
     1   .000     23  2.600                                                                         
     1  -.100     23  2.600                                                                         
     2   .000     23  2.600                                                                         
     2   .000     23  2.600                                                                         
     0   .000     23  2.750                                                                         
     0  1.500     23  2.750                                                                         
     3   .000      7   .000                                                                         
  local pseudopotential read in
  partial core-charges read in
  atomic valenz-charges read in
  non local Contribution for L=           1  read in
    real space projection operators read in
  non local Contribution for L=           1  read in
    real space projection operators read in
  non local Contribution for L=           2  read in
    real space projection operators read in
  non local Contribution for L=           2  read in
    real space projection operators read in
  non local Contribution for L=           0  read in
    real space projection operators read in
  non local Contribution for L=           0  read in
    real space projection operators read in
    PAW grid and wavefunctions read in
 
   number of l-projection  operators is LMAX  =           6
   number of lm-projection operators is LMMAX =          18
 
 POTCAR:   PAW_PBE Mo_pv 08Apr2002                
   VRHFIN =Mo: 4p5s4d                                                                               
   LEXCH  = PE                                                                                      
   EATOM  =  1284.3009 eV,   94.3935 Ry                                                             
                                                                                                    
   TITEL  = PAW_PBE Mo_pv 08Apr2002                                                                 
   LULTRA =        F    use ultrasoft PP ?                                                          
   IUNSCR =        1    unscreen: 0-lin 1-nonlin 2-no                                               
   RPACOR =    2.200    partial core radius                                                         
   POMASS =   95.940; ZVAL   =   12.000    mass and valenz                                          
   RCORE  =    2.600    outmost cutoff radius                                                       
   RWIGS  =    2.750; RWIGS  =    1.455    wigner-seitz radius (au A)                               
   ENMAX  =  224.584; ENMIN  =  168.438 eV                                                          
   RCLOC  =    1.902    cutoff for local pot                                                        
   LCOR   =        T    correct aug charges                                                         
   LPAW   =        T    paw PP                                                                      
   EAUG   =  392.427                                                                                
   DEXC   =    -.006                                                                                
   RMAX   =    3.077    core radius for proj-oper                                                   
   RAUG   =    1.300    factor for augmentation sphere                                              
   RDEP   =    2.641    radius for radial grids                                                     
   QCUT   =   -4.063; QGAM   =    8.126    optimization parameters                                  
                                                                                                    
   Description                                                                                      
     l     E      TYP  RCUT    TYP  RCUT                                                            
     1   .000     23  2.500                                                                         
     1  -.200     23  2.500                                                                         
     2   .000     23  2.500                                                                         
     2   .000     23  2.500                                                                         
     0   .000     23  2.600                                                                         
     0  1.000     23  2.600                                                                         
     3   .000      7   .000                                                                         
  local pseudopotential read in
  partial core-charges read in
  atomic valenz-charges read in
  non local Contribution for L=           1  read in
    real space projection operators read in
  non local Contribution for L=           1  read in
    real space projection operators read in
  non local Contribution for L=           2  read in
    real space projection operators read in
  non local Contribution for L=           2  read in
    real space projection operators read in
  non local Contribution for L=           0  read in
    real space projection operators read in
  non local Contribution for L=           0  read in
    real space projection operators read in
    PAW grid and wavefunctions read in
 
   number of l-projection  operators is LMAX  =           6
   number of lm-projection operators is LMMAX =          18
 
 POTCAR:   PAW_PBE O 08Apr2002                    
   VRHFIN =O: s2p4                                                                                  
   LEXCH  = PE                                                                                      
   EATOM  =   432.3788 eV,   31.7789 Ry                                                             
                                                                                                    
   TITEL  = PAW_PBE O 08Apr2002                                                                     
   LULTRA =        F    use ultrasoft PP ?                                                          
   IUNSCR =        0    unscreen: 0-lin 1-nonlin 2-no                                               
   RPACOR =     .000    partial core radius                                                         
   POMASS =   16.000; ZVAL   =    6.000    mass and valenz                                          
   RCORE  =    1.520    outmost cutoff radius                                                       
   RWIGS  =    1.550; RWIGS  =     .820    wigner-seitz radius (au A)                               
   ENMAX  =  400.000; ENMIN  =  300.000 eV                                                          
   ICORE  =        2    local potential                                                             
   LCOR   =        T    correct aug charges                                                         
   LPAW   =        T    paw PP                                                                      
   EAUG   =  605.392                                                                                
   DEXC   =     .000                                                                                
   RMAX   =    2.264    core radius for proj-oper                                                   
   RAUG   =    1.300    factor for augmentation sphere                                              
   RDEP   =    1.550    radius for radial grids                                                     
   QCUT   =   -5.520; QGAM   =   11.041    optimization parameters                                  
                                                                                                    
   Description                                                                                      
     l     E      TYP  RCUT    TYP  RCUT                                                            
     0   .000     23  1.200                                                                         
     0  -.700     23  1.200                                                                         
     1   .000     23  1.520                                                                         
     1   .600     23  1.520                                                                         
     2   .000      7  1.500                                                                         
  local pseudopotential read in
  atomic valenz-charges read in
  non local Contribution for L=           0  read in
    real space projection operators read in
  non local Contribution for L=           0  read in
    real space projection operators read in
  non local Contribution for L=           1  read in
    real space projection operators read in
  non local Contribution for L=           1  read in
    real space projection operators read in
    PAW grid and wavefunctions read in
 
   number of l-projection  operators is LMAX  =           4
   number of lm-projection operators is LMMAX =           8
 
 -----------------------------------------------------------------------------
|                                                                             |
|               ----> ADVICE to this user running VASP <----                  |
|                                                                             |
|     You have a (more or less) 'large supercell' and for larger cells it     |
|     might be more efficient to use real-space projection operators.         |
|     Therefore, try LREAL= Auto in the INCAR file.                           |
|     Mind: If you want to do very accurate calculations, keep the            |
|     reciprocal projection scheme (i.e. LREAL=.FALSE.).                      |
|                                                                             |
 -----------------------------------------------------------------------------

 PAW_PBE Li_sv 23Jan2001                :
 energy of atom  1       EATOM= -202.7858
 kinetic energy error for atom=    0.0020 (will be added to EATOM!!)
 PAW_PBE Nb_pv 08Apr2002                :
 energy of atom  2       EATOM=-1043.3919
 kinetic energy error for atom=    0.0011 (will be added to EATOM!!)
 PAW_PBE Mo_pv 08Apr2002                :
 energy of atom  3       EATOM=-1284.3009
 kinetic energy error for atom=    0.0019 (will be added to EATOM!!)
 PAW_PBE O 08Apr2002                    :
 energy of atom  4       EATOM= -432.3788
 kinetic energy error for atom=    0.0208 (will be added to EATOM!!)
 
 
 POSCAR: Li   Nb   Mo   O
  positions in direct lattice
  No initial velocities read in
 exchange correlation table for  LEXCH =        8
   RHO(1)=    0.500       N(1)  =     2000
   RHO(2)=  100.500       N(2)  =     4000
 
 POSCAR: Li   Nb   Mo   O
  positions in direct lattice
  No initial velocities read in
 
 POSCAR: Li   Nb   Mo   O
  positions in direct lattice
  No initial velocities read in
 


--------------------------------------------------------------------------------------------------------


 ion  position               nearest neighbor table
   1  0.341  0.689  0.619-  65 1.60  74 1.62  73 2.20  53 2.27  13 2.62  18 2.66  22 2.70  21 2.80

   2  0.367  0.008  0.046-  42 1.84  34 1.89  33 2.00  33 2.03  90 2.19  86 2.33   9 3.46   9 3.48

   3  0.634  0.008  0.955-  43 1.87  35 1.87  32 2.00  32 2.03  91 2.20  87 2.31   8 3.46   8 3.48

   4  0.866  0.508  0.045-  44 1.85  36 1.87  31 2.00  31 2.03  92 2.19  88 2.32   7 3.46   7 3.48

   5  0.131  0.509  0.955-  45 1.83  37 1.90  30 2.00  30 2.03  93 2.15  89 2.34   6 3.46   6 3.49

   6  0.249  0.004  0.137-  54 1.81  34 1.98  89 2.02  89 2.02  46 2.07  30 2.36   5 3.46   5 3.49

   7  0.752  0.003  0.862-  55 1.81  88 2.02  88 2.02  35 2.02  47 2.02  31 2.35   4 3.46   4 3.48

   8  0.748  0.503  0.138-  56 1.81  36 2.01  87 2.02  87 2.02  48 2.03  32 2.36   3 3.46   3 3.48

   9  0.250  0.503  0.865-  57 1.81  37 1.95  86 2.02  86 2.02  49 2.09  33 2.35   2 3.46   2 3.48

  10  0.129  0.997  0.229-  46 1.84  62 1.89  85 2.01  85 2.03  38 2.16  50 2.32  25 3.44  25 3.46

  11  0.869  0.999  0.767-  63 1.85  47 1.87  84 2.01  84 2.03  39 2.22  51 2.29  24 3.42  24 3.43

  12  0.631  0.499  0.233-  64 1.85  48 1.86  83 2.01  83 2.03  40 2.21  52 2.30  23 3.42  23 3.43

  13  0.371  0.496  0.774-  49 1.82  65 1.91  82 2.01  82 2.04  41 2.13  53 2.39   1 2.62  22 3.52
                            22 3.54
  14  0.419  0.967  0.380-  81 1.85  29 1.93  58 2.02  81 2.05  66 2.07  54 2.14
  15  0.584  0.967  0.618-  80 1.85  29 1.93  67 2.01  80 2.05  59 2.09  55 2.14
  16  0.918  0.467  0.382-  79 1.85  28 1.93  68 2.03  79 2.05  60 2.06  56 2.15
  17  0.082  0.467  0.620-  78 1.85  28 1.93  61 2.03  78 2.05  69 2.07  57 2.14
  18  0.296  0.003  0.466-  66 1.83  62 1.98  73 2.02  73 2.02  74 2.05  70 2.38   1 2.66  21 3.51
                            21 3.52
  19  0.702  0.004  0.526-  67 1.86  75 1.95  72 2.01  72 2.01  63 2.06  71 2.29  20 3.44  20 3.44

  20  0.799  0.504  0.473-  68 1.85  76 1.96  71 2.01  71 2.02  64 2.05  72 2.31  19 3.44  19 3.44

  21  0.199  0.503  0.525-  69 1.83  77 1.91  70 2.02  70 2.02  65 2.15  73 2.38   1 2.80  18 3.51
                            18 3.52
  22  0.468  0.001  0.715-  59 1.83  74 2.00  53 2.02  53 2.02  43 2.04  82 2.39   1 2.70  13 3.52
                            13 3.54
  23  0.537  0.002  0.287-  58 1.86  75 1.93  52 2.01  52 2.01  42 2.10  83 2.29  12 3.42  12 3.43

  24  0.963  0.502  0.712-  61 1.86  76 1.92  51 2.01  51 2.02  45 2.11  84 2.29  11 3.42  11 3.43

  25  0.034  0.501  0.286-  60 1.84  77 1.98  50 2.01  50 2.01  44 2.06  85 2.32  10 3.44  10 3.46

  26  0.999  0.252  1.000-  39 1.79  92 1.79  38 1.80  93 1.80
  27  0.501  0.753  0.001-  40 1.78  91 1.79  90 1.79  41 1.81
  28  0.000  0.491  0.500-  16 1.93  17 1.93
  29  0.501  0.991  0.499-  15 1.93  14 1.93
  30  0.149  0.004  0.991-   5 2.00   5 2.03   6 2.36
  31  0.850  0.004  0.009-   4 2.00   4 2.03   7 2.35
  32  0.649  0.504  0.991-   3 2.00   3 2.03   8 2.36
  33  0.351  0.504  0.009-   2 2.00   2 2.03   9 2.35
  34  0.303  0.003  0.081-   2 1.89   6 1.98
  35  0.696  0.004  0.918-   3 1.87   7 2.02
  36  0.803  0.503  0.082-   4 1.87   8 2.01
  37  0.196  0.502  0.920-   5 1.90   9 1.95
  38  0.034  0.999  0.099-  26 1.80  10 2.16
  39  0.966  0.000  0.902-  26 1.79  11 2.22
  40  0.534  0.502  0.098-  27 1.78  12 2.21
  41  0.466  0.500  0.901-  27 1.81  13 2.13
  42  0.450  0.004  0.156-   2 1.84  23 2.10
  43  0.550  0.003  0.844-   3 1.87  22 2.04
  44  0.949  0.503  0.156-   4 1.85  25 2.06
  45  0.050  0.505  0.845-   5 1.83  24 2.11
  46  0.180  0.002  0.177-  10 1.84   6 2.07
  47  0.820  0.003  0.823-  11 1.87   7 2.02
  48  0.680  0.503  0.177-  12 1.86   8 2.03
  49  0.319  0.500  0.823-  13 1.82   9 2.09
  50  0.049  0.001  0.271-  25 2.01  25 2.01  10 2.32
  51  0.950  0.002  0.730-  24 2.01  24 2.02  11 2.29
  52  0.550  0.502  0.270-  23 2.01  23 2.01  12 2.30
  53  0.450  0.501  0.727-  22 2.02  22 2.02   1 2.27  13 2.39
  54  0.325  1.000  0.250-   6 1.81  14 2.14
  55  0.675  0.999  0.750-   7 1.81  15 2.14
  56  0.825  0.499  0.250-   8 1.81  16 2.15
  57  0.174  0.500  0.751-   9 1.81  17 2.14
  58  0.476  0.999  0.326-  23 1.86  14 2.02
  59  0.524  0.999  0.672-  22 1.83  15 2.09
  60  0.976  0.499  0.327-  25 1.84  16 2.06
  61  0.024  0.498  0.674-  24 1.86  17 2.03
  62  0.206  0.002  0.349-  10 1.89  18 1.98
  63  0.793  0.002  0.651-  11 1.85  19 2.06
  64  0.708  0.502  0.349-  12 1.85  20 2.05
  65  0.297  0.502  0.652-   1 1.60  13 1.91  21 2.15
  66  0.353  0.001  0.425-  18 1.83  14 2.07
  67  0.648  0.999  0.574-  19 1.86  15 2.01
  68  0.853  0.500  0.426-  20 1.85  16 2.03
  69  0.149  0.500  0.577-  21 1.83  17 2.07
  70  0.222  0.003  0.522-  21 2.02  21 2.02  18 2.38
  71  0.779  0.003  0.481-  20 2.01  20 2.02  19 2.29
  72  0.722  0.503  0.518-  19 2.01  19 2.01  20 2.31
  73  0.281  0.503  0.482-  18 2.02  18 2.02   1 2.20  21 2.38
  74  0.376  0.002  0.597-   1 1.62  22 2.00  18 2.05
  75  0.622  0.003  0.404-  23 1.93  19 1.95
  76  0.878  0.503  0.596-  24 1.92  20 1.96
  77  0.122  0.502  0.405-  21 1.91  25 1.98
  78  0.091  0.993  0.631-  17 1.85  17 2.05
  79  0.910  0.993  0.369-  16 1.85  16 2.05
  80  0.590  0.493  0.631-  15 1.85  15 2.05
  81  0.410  0.492  0.369-  14 1.85  14 2.05
  82  0.393  1.000  0.769-  13 2.01  13 2.04  22 2.39
  83  0.606  0.001  0.232-  12 2.01  12 2.03  23 2.29
  84  0.895  0.501  0.768-  11 2.01  11 2.03  24 2.29
  85  0.106  0.500  0.232-  10 2.01  10 2.03  25 2.32
  86  0.275  0.003  0.897-   9 2.02   9 2.02   2 2.33
  87  0.724  0.004  0.103-   8 2.02   8 2.02   3 2.31
  88  0.775  0.504  0.897-   7 2.02   7 2.02   4 2.32
  89  0.224  0.504  0.104-   6 2.02   6 2.02   5 2.34
  90  0.429  0.004  0.987-  27 1.79   2 2.19
  91  0.571  0.005  0.013-  27 1.79   3 2.20
  92  0.928  0.503  0.987-  26 1.79   4 2.19
  93  0.071  0.504  0.013-  26 1.80   5 2.15
 

IMPORTANT INFORMATION: All symmetrisations will be switched off!
NOSYMM: (Re-)initialisation of all symmetry stuff for point group C_1.


----------------------------------------------------------------------------------------

                                     Primitive cell                                     

  volume of cell :    1336.3476

  direct lattice vectors                    reciprocal lattice vectors
    22.785142899  0.000000000  0.000000000     0.043888248  0.000000000  0.028932614
     0.000000000  3.876850367  0.000000000     0.000000000  0.257941346 -0.000000041
    -9.973051630  0.000002413 15.128248185     0.000000000  0.000000000  0.066101507

  length of vectors
    22.785142899  3.876850367 18.119758606     0.052566857  0.257941346  0.066101507

  position of ions in fractional coordinates (direct lattice)
     0.341368069  0.689423261  0.618782970
     0.367129627  0.007712915  0.045801068
     0.634474924  0.008027800  0.954803099
     0.865843811  0.507919982  0.045414742
     0.131387307  0.509332172  0.955005804
     0.248807120  0.003547598  0.137163458
     0.752410633  0.003155057  0.861776689
     0.748081386  0.503181887  0.138077559
     0.249618506  0.503438190  0.864607111
     0.129125041  0.997037101  0.229190562
     0.868943218  0.998670325  0.767074934
     0.631411261  0.498605694  0.232733914
     0.370627599  0.495775377  0.774228022
     0.418976173  0.966649138  0.379637007
     0.584147525  0.967138551  0.617648108
     0.917701946  0.466974091  0.381647585
     0.082120954  0.466721100  0.620364737
     0.295751843  0.003319611  0.465993402
     0.702340360  0.003533074  0.526012957
     0.798500531  0.503651000  0.472729504
     0.199245636  0.503023719  0.525399954
     0.467750491  0.001422656  0.714667749
     0.536621887  0.001859819  0.286884958
     0.963391133  0.501653838  0.712123898
     0.034165248  0.501285407  0.285618380
     0.999182982  0.252153813  0.999925365
     0.500623089  0.752992677  0.000606062
     0.000478526  0.491052664  0.500432472
     0.500575554  0.991014335  0.499425172
     0.148526641  0.004467269  0.991215414
     0.850165682  0.004061015  0.008994876
     0.649205661  0.504353508  0.990584072
     0.350817952  0.504026642  0.009079235
     0.303213874  0.002955922  0.081410644
     0.696326429  0.003792011  0.917703571
     0.803031370  0.503361027  0.081661640
     0.196383384  0.502081843  0.920035265
     0.033534195  0.998928559  0.098613899
     0.965622267  0.000223839  0.902143213
     0.534390334  0.501652282  0.098461736
     0.466285883  0.499905826  0.901190957
     0.449674957  0.003988473  0.155599002
     0.550100065  0.003252660  0.843961500
     0.949372964  0.503492012  0.155783707
     0.050069857  0.505098000  0.844508628
     0.179690581  0.001712738  0.177382438
     0.820194676  0.003193677  0.822751919
     0.679894079  0.502996906  0.177052497
     0.318667384  0.500120361  0.822921618
     0.049081428  0.001161503  0.270507852
     0.950406704  0.001849543  0.730133027
     0.549815560  0.501778622  0.269580502
     0.450084377  0.501303489  0.726797202
     0.325443251  0.999525860  0.249672758
     0.674805560  0.999306469  0.749978998
     0.825448402  0.499197799  0.249876214
     0.173937005  0.499859828  0.751302301
     0.476361060  0.998640812  0.326027547
     0.523869125  0.999474354  0.671791854
     0.976373649  0.499308109  0.327140809
     0.023933753  0.498230289  0.673525612
     0.206387551  0.001804410  0.348560193
     0.792862621  0.001941150  0.651056034
     0.707559879  0.502184032  0.348923232
     0.297104985  0.501855788  0.651973920
     0.353231542  0.000605904  0.424850613
     0.648119993  0.999316119  0.574186653
     0.852891033  0.500222957  0.425568135
     0.148701372  0.500076675  0.576657491
     0.222438457  0.002644403  0.521569934
     0.778772465  0.003085498  0.481094823
     0.721922453  0.502946192  0.518470347
     0.280524678  0.502812099  0.481789520
     0.376484263  0.002265628  0.596779091
     0.621861567  0.002651078  0.403823382
     0.878379717  0.502785571  0.595931075
     0.122063974  0.502270696  0.404513881
     0.091041394  0.992533238  0.631019750
     0.910074627  0.992857024  0.368932462
     0.590104643  0.492748802  0.631052915
     0.409705591  0.492479104  0.368932265
     0.393340365  0.999939914  0.769156055
     0.605864387  0.001207461  0.231744404
     0.894501659  0.501052810  0.768229109
     0.105767756  0.500175637  0.231768007
     0.275331968  0.003044092  0.896959314
     0.724018707  0.003651388  0.102736934
     0.775499748  0.503637319  0.896675552
     0.224219094  0.503594249  0.104017083
     0.429206310  0.004278235  0.987192928
     0.571404162  0.004507176  0.013174738
     0.927966715  0.502880167  0.986758677
     0.070865742  0.503996141  0.013483590

  ion indices of the primitive-cell ions
   primitive index   ion index
                 1           1
                 2           2
                 3           3
                 4           4
                 5           5
                 6           6
                 7           7
                 8           8
                 9           9
                10          10
                11          11
                12          12
                13          13
                14          14
                15          15
                16          16
                17          17
                18          18
                19          19
                20          20
                21          21
                22          22
                23          23
                24          24
                25          25
                26          26
                27          27
                28          28
                29          29
                30          30
                31          31
                32          32
                33          33
                34          34
                35          35
                36          36
                37          37
                38          38
                39          39
                40          40
                41          41
                42          42
                43          43
                44          44
                45          45
                46          46
                47          47
                48          48
                49          49
                50          50
                51          51
                52          52
                53          53
                54          54
                55          55
                56          56
                57          57
                58          58
                59          59
                60          60
                61          61
                62          62
                63          63
                64          64
                65          65
                66          66
                67          67
                68          68
                69          69
                70          70
                71          71
                72          72
                73          73
                74          74
                75          75
                76          76
                77          77
                78          78
                79          79
                80          80
                81          81
                82          82
                83          83
                84          84
                85          85
                86          86
                87          87
                88          88
                89          89
                90          90
                91          91
                92          92
                93          93

----------------------------------------------------------------------------------------

 
 
 KPOINTS: pymatgen with grid density = 1000 / numb

Automatic generation of k-mesh.
 Grid dimensions read from file:
 generate k-points for:    1    6    1

 Generating k-lattice:

  Cartesian coordinates                     Fractional coordinates (reciprocal lattice)
     0.043888248  0.000000000  0.028932614     1.000000000  0.000000000 -0.000000000
     0.000000000  0.042990224 -0.000000007     0.000000000  0.166666667  0.000000000
     0.000000000  0.000000000  0.066101507     0.000000000  0.000000000  1.000000000

  Length of vectors
     0.052566857  0.042990224  0.066101507

  Shift w.r.t. Gamma in fractional coordinates (k-lattice)
     0.000000000  0.000000000  0.000000000

 
 Subroutine IBZKPT returns following result:
 ===========================================
 
 Found      4 irreducible k-points:
 
 Following reciprocal coordinates:
            Coordinates               Weight
  0.000000  0.000000  0.000000      1.000000
  0.000000  0.166667  0.000000      2.000000
  0.000000  0.333333  0.000000      2.000000
  0.000000  0.500000  0.000000      1.000000
 
 Following cartesian coordinates:
            Coordinates               Weight
  0.000000  0.000000  0.000000      1.000000
  0.000000  0.042990 -0.000000      2.000000
  0.000000  0.085980 -0.000000      2.000000
  0.000000  0.128971 -0.000000      1.000000
 


--------------------------------------------------------------------------------------------------------




 Dimension of arrays:
   k-points           NKPTS =      4   k-points in BZ     NKDIM =      4   number of bands    NBANDS=    462
   number of dos      NEDOS =    301   number of ions     NIONS =     93
   non local maximal  LDIM  =      6   non local SUM 2l+1 LMDIM =     18
   total plane-waves  NPLWV = 756000
   max r-space proj   IRMAX =      1   max aug-charges    IRDMAX= 278808
   dimension x,y,z NGX =   180 NGY =   30 NGZ =  140
   dimension x,y,z NGXF=   360 NGYF=   60 NGZF=  280
   support grid    NGXF=   720 NGYF=  120 NGZF=  560
   ions per type =               1  24   2  66
   NGX,Y,Z   is equivalent  to a cutoff of  13.13, 12.86, 12.84 a.u.
   NGXF,Y,Z  is equivalent  to a cutoff of  26.27, 25.73, 25.69 a.u.

 SYSTEM =  unknown system                          
 POSCAR =  Li   Nb   Mo   O                        

 Startparameter for this run:
   NWRITE =      2    write-flag & timer
   PREC   = accura    normal or accurate (medium, high low for compatibility)
   ISTART =      0    job   : 0-new  1-cont  2-samecut
   ICHARG =      2    charge: 1-file 2-atom 10-const
   ISPIN  =      2    spin polarized calculation?
   LNONCOLLINEAR =      F non collinear calculations
   LSORBIT =      F    spin-orbit coupling
   INIWAV =      1    electr: 0-lowe 1-rand  2-diag
   LASPH  =      T    aspherical Exc in radial PAW
 Electronic Relaxation 1
   ENCUT  =  520.0 eV  38.22 Ry    6.18 a.u.  42.37  7.21 33.69*2*pi/ulx,y,z
   ENINI  =  520.0     initial cutoff
   ENAUG  =  605.4 eV  augmentation charge cutoff
   NELM   =    100;   NELMIN=  3; NELMDL= -5     # of ELM steps 
   EDIFF  = 0.1E-05   stopping-criterion for ELM
   LREAL  =      F    real-space projection
   NLSPLINE    = F    spline interpolate recip. space projectors
   LCOMPAT=      F    compatible to vasp.4.4
   GGA_COMPAT  = T    GGA compatible to vasp.4.4-vasp.4.6
   LMAXPAW     = -100 max onsite density
   LMAXMIX     =    4 max onsite mixed and CHGCAR
   VOSKOWN=      0    Vosko Wilk Nusair interpolation
   ROPT   =    0.00000   0.00000   0.00000   0.00000
 Ionic relaxation
   EDIFFG = -.5E-01   stopping-criterion for IOM
   NSW    =    450    number of steps for IOM
   NBLOCK =      1;   KBLOCK =    450    inner block; outer block 
   IBRION =      1    ionic relax: 0-MD 1-quasi-New 2-CG
   NFREE  =      0    steps in history (QN), initial steepest desc. (CG)
   ISIF   =      2    stress and relaxation
   IWAVPR =     11    prediction:  0-non 1-charg 2-wave 3-comb
   ISYM   =      0    0-nonsym 1-usesym 2-fastsym
   LCORR  =      T    Harris-Foulkes like correction to forces

   POTIM  = 0.2000    time-step for ionic-motion
   TEIN   =    0.0    initial temperature
   TEBEG  =    0.0;   TEEND  =   0.0 temperature during run
   SMASS  =  -3.00    Nose mass-parameter (am)
   estimated Nose-frequenzy (Omega)   =  0.10E-29 period in steps = 0.31E+47 mass=  -0.119E-25a.u.
   SCALEE = 1.0000    scale energy and forces
   NPACO  =    256;   APACO  = 10.0  distance and # of slots for P.C.
   PSTRESS=    0.0 pullay stress

  Mass of Ions in am
   POMASS =   7.01 92.00 95.94 16.00
  Ionic Valenz
   ZVAL   =   3.00 11.00 12.00  6.00
  Atomic Wigner-Seitz radii
   RWIGS  =  -1.00 -1.00 -1.00 -1.00
  virtual crystal weights 
   VCA    =   1.00  1.00  1.00  1.00
   NELECT =     687.0000    total number of electrons
   NUPDOWN=      -1.0000    fix difference up-down

 DOS related values:
   EMIN   =  10.00;   EMAX   =-10.00  energy-range for DOS
   EFERMI =   0.00
   ISMEAR =     0;   SIGMA  =   0.05  broadening in eV -4-tet -1-fermi 0-gaus

 Electronic relaxation 2 (details)
   IALGO  =     68    algorithm
   LDIAG  =      T    sub-space diagonalisation (order eigenvalues)
   LSUBROT=      F    optimize rotation matrix (better conditioning)
   TURBO    =      0    0=normal 1=particle mesh
   IRESTART =      0    0=no restart 2=restart with 2 vectors
   NREBOOT  =      0    no. of reboots
   NMIN     =      0    reboot dimension
   EREF     =   0.00    reference energy to select bands
   IMIX   =      4    mixing-type and parameters
     AMIX     =   0.40;   BMIX     =  1.00
     AMIX_MAG =   1.60;   BMIX_MAG =  1.00
     AMIN     =   0.10
     WC   =   100.;   INIMIX=   1;  MIXPRE=   1;  MAXMIX= -45

 Intra band minimization:
   WEIMIN = 0.0010     energy-eigenvalue tresh-hold
   EBREAK =  0.54E-09  absolut break condition
   DEPER  =   0.30     relativ break condition  

   TIME   =   0.40     timestep for ELM

  volume/ion in A,a.u.               =      14.37        96.97
  Fermi-wavevector in a.u.,A,eV,Ry     =   1.311457  2.478294 23.400912  1.719918
  Thomas-Fermi vector in A             =   2.441917
 
 Write flags
   LWAVE        =      F    write WAVECAR
   LDOWNSAMPLE  =      F    k-point downsampling of WAVECAR
   LCHARG       =      T    write CHGCAR
   LVTOT        =      F    write LOCPOT, total local potential
   LVHAR        =      F    write LOCPOT, Hartree potential only
   LELF         =      F    write electronic localiz. function (ELF)
   LORBIT       =     11    0 simple, 1 ext, 2 COOP (PROOUT), +10 PAW based schemes


 Dipole corrections
   LMONO  =      F    monopole corrections only (constant potential shift)
   LDIPOL =      F    correct potential (dipole corrections)
   IDIPOL =      0    1-x, 2-y, 3-z, 4-all directions 
   EPSILON=  1.0000000 bulk dielectric constant

 LDA+U is selected, type is set to LDAUTYPE =  2
   angular momentum for each species LDAUL =     0    0    2    0
   U (eV)           for each species LDAUU =   0.0  0.0  4.4  0.0
   J (eV)           for each species LDAUJ =   0.0  0.0  0.0  0.0
 Exchange correlation treatment:
   GGA     =    --    GGA type
   LEXCH   =     8    internal setting for exchange type
   LIBXC   =     F    Libxc                    
   VOSKOWN =     0    Vosko Wilk Nusair interpolation
   LHFCALC =     F    Hartree Fock is set to
   LHFONE  =     F    Hartree Fock one center treatment
   AEXX    =    0.0000 exact exchange contribution

 Linear response parameters
   LEPSILON=     F    determine dielectric tensor
   LRPA    =     F    only Hartree local field effects (RPA)
   LNABLA  =     F    use nabla operator in PAW spheres
   LVEL    =     F    velocity operator in full k-point grid
   CSHIFT  =0.1000    complex shift for real part using Kramers Kronig
   OMEGAMAX=  -1.0    maximum frequency
   DEG_THRESHOLD= 0.2000000E-02 threshold for treating states as degnerate
   RTIME   =   -0.100 relaxation time in fs
  (WPLASMAI=    0.000 imaginary part of plasma frequency in eV, 0.658/RTIME)
   DFIELD  = 0.0000000 0.0000000 0.0000000 field for delta impulse in time
 
  Optional k-point grid parameters
   LKPOINTS_OPT  =     F    use optional k-point grid
   KPOINTS_OPT_MODE=     1    mode for optional k-point grid
 
 Orbital magnetization related:
   ORBITALMAG=     F  switch on orbital magnetization
   LCHIMAG   =     F  perturbation theory with respect to B field
   DQ        =  0.001000  dq finite difference perturbation B field
   LLRAUG    =     F  two centre corrections for induced B field



--------------------------------------------------------------------------------------------------------


 quasi-Newton-method for relaxation of ions
 charge density and potential will be updated during run
 spin polarized calculation
 RMM-DIIS sequential band-by-band and
  variant of blocked Davidson during initial phase
 perform sub-space diagonalisation
    before iterative eigenvector-optimisation
 modified Broyden-mixing scheme, WC =      100.0
 initial mixing is a Kerker type mixing with AMIX =  0.4000 and BMIX =      1.0000
 Hartree-type preconditioning will be used
 using additional bands          118
 reciprocal scheme for non local part
 use partial core corrections
 calculate Harris-corrections to forces 
   (improved forces if not selfconsistent)
 use gradient corrections 
 use of overlap-Matrix (Vanderbilt PP)
 Gauss-broadening in eV      SIGMA  =   0.05


--------------------------------------------------------------------------------------------------------


  energy-cutoff  :      520.00
  volume of cell :     1336.35
      direct lattice vectors                 reciprocal lattice vectors
    22.785142899  0.000000000  0.000000000     0.043888248  0.000000000  0.028932614
     0.000000000  3.876850367  0.000000000     0.000000000  0.257941346 -0.000000041
    -9.973051630  0.000002413 15.128248185     0.000000000  0.000000000  0.066101507

  length of vectors
    22.785142899  3.876850367 18.119758606     0.052566857  0.257941346  0.066101507


 
 k-points in units of 2pi/SCALE and weight: pymatgen with grid density = 1000 / numb
   0.00000000  0.00000000  0.00000000       0.167
   0.00000000  0.04299022 -0.00000001       0.333
   0.00000000  0.08598045 -0.00000001       0.333
   0.00000000  0.12897067 -0.00000002       0.167
 
 k-points in reciprocal lattice and weights: pymatgen with grid density = 1000 / numb
   0.00000000  0.00000000  0.00000000       0.167
   0.00000000  0.16666667  0.00000000       0.333
   0.00000000  0.33333333  0.00000000       0.333
   0.00000000  0.50000000  0.00000000       0.167
 
 position of ions in fractional coordinates (direct lattice) 
   0.34136807  0.68942326  0.61878297
   0.36712963  0.00771292  0.04580107
   0.63447492  0.00802780  0.95480310
   0.86584381  0.50791998  0.04541474
   0.13138731  0.50933217  0.95500580
   0.24880712  0.00354760  0.13716346
   0.75241063  0.00315506  0.86177669
   0.74808139  0.50318189  0.13807756
   0.24961851  0.50343819  0.86460711
   0.12912504  0.99703710  0.22919056
   0.86894322  0.99867032  0.76707493
   0.63141126  0.49860569  0.23273391
   0.37062760  0.49577538  0.77422802
   0.41897617  0.96664914  0.37963701
   0.58414753  0.96713855  0.61764811
   0.91770195  0.46697409  0.38164759
   0.08212095  0.46672110  0.62036474
   0.29575184  0.00331961  0.46599340
   0.70234036  0.00353307  0.52601296
   0.79850053  0.50365100  0.47272950
   0.19924564  0.50302372  0.52539995
   0.46775049  0.00142266  0.71466775
   0.53662189  0.00185982  0.28688496
   0.96339113  0.50165384  0.71212390
   0.03416525  0.50128541  0.28561838
   0.99918298  0.25215381  0.99992537
   0.50062309  0.75299268  0.00060606
   0.00047853  0.49105266  0.50043247
   0.50057555  0.99101434  0.49942517
   0.14852664  0.00446727  0.99121541
   0.85016568  0.00406102  0.00899488
   0.64920566  0.50435351  0.99058407
   0.35081795  0.50402664  0.00907923
   0.30321387  0.00295592  0.08141064
   0.69632643  0.00379201  0.91770357
   0.80303137  0.50336103  0.08166164
   0.19638338  0.50208184  0.92003527
   0.03353420  0.99892856  0.09861390
   0.96562227  0.00022384  0.90214321
   0.53439033  0.50165228  0.09846174
   0.46628588  0.49990583  0.90119096
   0.44967496  0.00398847  0.15559900
   0.55010007  0.00325266  0.84396150
   0.94937296  0.50349201  0.15578371
   0.05006986  0.50509800  0.84450863
   0.17969058  0.00171274  0.17738244
   0.82019468  0.00319368  0.82275192
   0.67989408  0.50299691  0.17705250
   0.31866738  0.50012036  0.82292162
   0.04908143  0.00116150  0.27050785
   0.95040670  0.00184954  0.73013303
   0.54981556  0.50177862  0.26958050
   0.45008438  0.50130349  0.72679720
   0.32544325  0.99952586  0.24967276
   0.67480556  0.99930647  0.74997900
   0.82544840  0.49919780  0.24987621
   0.17393700  0.49985983  0.75130230
   0.47636106  0.99864081  0.32602755
   0.52386913  0.99947435  0.67179185
   0.97637365  0.49930811  0.32714081
   0.02393375  0.49823029  0.67352561
   0.20638755  0.00180441  0.34856019
   0.79286262  0.00194115  0.65105603
   0.70755988  0.50218403  0.34892323
   0.29710498  0.50185579  0.65197392
   0.35323154  0.00060590  0.42485061
   0.64811999  0.99931612  0.57418665
   0.85289103  0.50022296  0.42556813
   0.14870137  0.50007667  0.57665749
   0.22243846  0.00264440  0.52156993
   0.77877247  0.00308550  0.48109482
   0.72192245  0.50294619  0.51847035
   0.28052468  0.50281210  0.48178952
   0.37648426  0.00226563  0.59677909
   0.62186157  0.00265108  0.40382338
   0.87837972  0.50278557  0.59593107
   0.12206397  0.50227070  0.40451388
   0.09104139  0.99253324  0.63101975
   0.91007463  0.99285702  0.36893246
   0.59010464  0.49274880  0.63105292
   0.40970559  0.49247910  0.36893227
   0.39334036  0.99993991  0.76915605
   0.60586439  0.00120746  0.23174440
   0.89450166  0.50105281  0.76822911
   0.10576776  0.50017564  0.23176801
   0.27533197  0.00304409  0.89695931
   0.72401871  0.00365139  0.10273693
   0.77549975  0.50363732  0.89667555
   0.22421909  0.50359425  0.10401708
   0.42920631  0.00427824  0.98719293
   0.57140416  0.00450718  0.01317474
   0.92796672  0.50288017  0.98675868
   0.07086574  0.50399614  0.01348359
 
 position of ions in cartesian coordinates  (Angst):
   1.60696573  2.67279232  9.36110234
   7.90832460  0.02990193  0.69288993
   4.93430121  0.03112488 14.44449825
  19.27545138  1.96912988  0.68704549
  -6.53064362  1.97460692 14.44756483
   4.30116754  0.01375384  2.07504283
   8.54924038  0.01223376 13.03717164
  15.66808666  1.95076121  2.08887159
  -2.93517803  1.95175662 13.07999096
   0.65640321  3.86536420  3.46725170
  12.14891747  3.87169727 11.60449997
  12.06572846  1.93302023  3.52085641
   0.72338677  1.92204882 11.71271367
   5.76029250  3.74755498  5.74324286
   7.15004837  3.74945293  9.34393386
  17.10377890  1.81038960  5.77365939
  -4.31579187  1.80940937  9.38503170
   2.09137176  0.01287076  7.04966383
  10.75697108  0.01369847  7.95765456
  13.47939295  1.95258070  7.15156926
  -0.70000059  1.95014896  7.94838090
   3.53034342  0.00551715 10.81167107
   9.36588788  0.00721093  4.34006685
  14.84895623  1.94483858 10.77318707
  -2.07002678  1.94340920  4.32090573
  12.79421972  0.97756502 15.12711909
  11.40072433  2.91923994  0.00916866
  -4.97993559  1.90373891  7.57066663
   6.42489250  3.84201549  7.55542795
  -6.50124176  0.01732133 14.99535278
  19.28144020  0.01574397  0.13607672
   4.91309766  1.95530547 14.98580169
   7.90288949  1.95403589  0.13735292
   6.09685888  0.01145986  1.23160043
   6.71359210  0.01470327 13.88324739
  17.48276877  1.95145558  1.23539756
  -4.70093574  1.94649840 13.91852183
  -0.21940007  3.87269679  1.49185554
  13.00472051  0.00086997 13.64784643
  11.19419614  1.94483107  1.48955358
   1.63676653  1.93806226 13.63344046
   8.69411127  0.01546309  2.35394032
   4.11723699  0.01261211 12.76765902
  20.07795968  1.95196357  2.35673458
  -7.28147931  1.95819140 12.77593612
   2.32523134  0.00664046  2.68348555
  10.48290554  0.01238339 12.44679522
  13.72573005  1.95004416  2.67849412
  -0.94615791  1.93889379 12.44936248
  -1.57946141  0.00450363  4.09230991
  14.37349820  0.00717216 11.04563364
   9.83908585  1.94532128  4.07828073
   3.00685082  1.94348037 10.99516846
   4.92527166  3.87501280  3.77711146
   7.89596184  3.87416346 11.34586842
  16.31593141  1.93531577  3.78018938
  -3.52959713  1.93788357 11.36588767
   7.60246526  3.87158179  4.93222564
   5.23661804  3.87481414 10.16303390
  18.98422094  1.93574362  4.94906736
  -6.17177172  1.93156590 10.18926262
   1.22636104  0.00699627  5.27310510
  11.57247267  0.00752712  9.84933727
  12.64202354  1.94689319  5.27859726
   0.26740997  1.94562137  9.86322327
   3.81137405  0.00235002  6.42724552
   9.04111353  3.87420045  8.68643819
  15.18903109  1.93929058  6.43810036
  -2.36285292  1.93872383  8.72381763
  -0.13335185  0.01025321  7.89043940
  12.94645840  0.01196318  7.27812188
  11.27837472  1.94984838  7.84354808
   1.58688313  1.94932843  7.28863143
   2.62653903  0.00878494  9.02822221
  10.14185322  0.01027881  6.10914035
  14.07075600  1.94922586  9.01539320
  -1.25299272  1.94722931  6.11958638
  -4.21880138  3.84790437  9.54622338
  17.05679794  3.84915901  5.58130185
   7.15209532  1.91031489  9.54672512
   5.65581991  1.90926868  5.58129887
   1.29148337  3.87661928 11.63598369
  11.49350773  0.00468171  3.50588685
  12.71975956  1.94250863 11.62196062
   0.09849913  1.93910666  3.50624394
  -2.67194332  0.01180365 13.56942312
  15.47226895  0.01415613  1.55422983
   8.72728099  1.95252869 13.56513030
   4.07149637  1.95235980  1.57359624
  -0.06579892  0.01658846 14.93449961
  12.88813314  0.01747368  0.19931071
  11.30285898  1.94959354 14.92793017
   1.48021352  1.95391766  0.20398310
 


--------------------------------------------------------------------------------------------------------


 k-point   1 :   0.0000 0.0000 0.0000  plane waves:   36029
 k-point   2 :   0.0000 0.1667 0.0000  plane waves:   35947
 k-point   3 :   0.0000 0.3333 0.0000  plane waves:   35982
 k-point   4 :   0.0000 0.5000 0.0000  plane waves:   36018

 maximum and minimum number of plane-waves per node :     36029    35947

 maximum number of plane-waves:     36029
 maximum index in each direction: 
   IXMAX=   42   IYMAX=    7   IZMAX=   33
   IXMIN=  -42   IYMIN=   -7   IZMIN=  -33


 serial   3D FFT for wavefunctions
 parallel 3D FFT for charge:
    minimum data exchange during FFTs selected (reduces bandwidth)


 total amount of memory used by VASP MPI-rank0   321868. kBytes
=======================================================================

   base      :      30000. kBytes
   nonl-proj :     136648. kBytes
   fftplans  :      24917. kBytes
   grid      :      75254. kBytes
   one-center:       2892. kBytes
   wavefun   :      52157. kBytes
 
     INWAV:  cpu time      0.0001: real time      0.0001
 Broyden mixing: mesh for mixing (old mesh)
   NGX = 85   NGY = 15   NGZ = 67
  (NGX  =360   NGY  = 60   NGZ  =280)
  gives a total of  85425 points

 initial charge density was supplied:
 charge density of overlapping atoms calculated
 number of electron     687.0000000 magnetization      55.8000000
 keeping initial charge density in first step


--------------------------------------------------------------------------------------------------------


 Maximum index for augmentation-charges         9944 (set IRDMAX)


--------------------------------------------------------------------------------------------------------


 First call to EWALD:  gamma=   0.161
 Maximum number of real-space cells 2x 7x 2
 Maximum number of reciprocal cells 5x 1x 4

    FEWALD:  cpu time      0.0030: real time      0.0031


--------------------------------------- Iteration      1(   1)  ---------------------------------------


    POTLOK:  cpu time      0.2167: real time      0.2183
    SETDIJ:  cpu time      1.0804: real time      1.0860
atom =   1  type =  1  l = 0
 
 onsite density matrix
 
spin component  1
 
  1.2642
 
spin component  2
 
  0.8428
 
 occupancies and eigenvectors
 
  o =  0.8428  v =  0.0000  1.0000      0.0000  0.0000
  o =  1.2642  v =  1.0000  0.0000      0.0000  0.0000
 
atom =   2  type =  2  l = 0
 
 onsite density matrix
 
spin component  1
 
  0.1347
 
spin component  2
 
  0.1207
 
 occupancies and eigenvectors
 
  o =  0.1207  v =  0.0000  1.0000      0.0000  0.0000
  o =  0.1347  v =  1.0000  0.0000      0.0000  0.0000
 
atom =   3  type =  2  l = 0
 
 onsite density matrix
 
spin component  1
 
  0.1347
 
spin component  2
 
  0.1207
 
 occupancies and eigenvectors
 
  o =  0.1207  v =  0.0000  1.0000      0.0000  0.0000
  o =  0.1347  v =  1.0000  0.0000      0.0000  0.0000
 
atom =   4  type =  2  l = 0
 
 onsite density matrix
 
spin component  1
 
  0.1347
 
spin component  2
 
  0.1207
 
 occupancies and eigenvectors
 
  o =  0.1207  v =  0.0000  1.0000      0.0000  0.0000
  o =  0.1347  v =  1.0000  0.0000      0.0000  0.0000
 
atom =   5  type =  2  l = 0
 
 onsite density matrix
 
spin component  1
 
  0.1347
 
spin component  2
 
  0.1207
 
 occupancies and eigenvectors
 
  o =  0.1207  v =  0.0000  1.0000      0.0000  0.0000
  o =  0.1347  v =  1.0000  0.0000      0.0000  0.0000
 
atom =   6  type =  2  l = 0
 
 onsite density matrix
 
spin component  1
 
  0.1347
 
spin component  2
 
  0.1207
 
 occupancies and eigenvectors
 
  o =  0.1207  v =  0.0000  1.0000      0.0000  0.0000
  o =  0.1347  v =  1.0000  0.0000      0.0000  0.0000
 
atom =   7  type =  2  l = 0
 
 onsite density matrix
 
spin component  1
 
  0.1347
 
spin component  2
 
  0.1207
 
 occupancies and eigenvectors
 
  o =  0.1207  v =  0.0000  1.0000      0.0000  0.0000
  o =  0.1347  v =  1.0000  0.0000      0.0000  0.0000
 
atom =   8  type =  2  l = 0
 
 onsite density matrix
 
spin component  1
 
  0.1347
 
spin component  2
 
  0.1207
 
 occupancies and eigenvectors
 
  o =  0.1207  v =  0.0000  1.0000      0.0000  0.0000
  o =  0.1347  v =  1.0000  0.0000      0.0000  0.0000
 
atom =   9  type =  2  l = 0
 
 onsite density matrix
 
spin component  1
 
  0.1347
 
spin component  2
 
  0.1207
 
 occupancies and eigenvectors
 
  o =  0.1207  v =  0.0000  1.0000      0.0000  0.0000
  o =  0.1347  v =  1.0000  0.0000      0.0000  0.0000
 
atom =  10  type =  2  l = 0
 
 onsite density matrix
 
spin component  1
 
  0.1347
 
spin component  2
 
  0.1207
 
 occupancies and eigenvectors
 
  o =  0.1207  v =  0.0000  1.0000      0.0000  0.0000
  o =  0.1347  v =  1.0000  0.0000      0.0000  0.0000
 
atom =  11  type =  2  l = 0
 
 onsite density matrix
 
spin component  1
 
  0.1347
 
spin component  2
 
  0.1207
 
 occupancies and eigenvectors
 
  o =  0.1207  v =  0.0000  1.0000      0.0000  0.0000
  o =  0.1347  v =  1.0000  0.0000      0.0000  0.0000
 
atom =  12  type =  2  l = 0
 
 onsite density matrix
 
spin component  1
 
  0.1347
 
spin component  2
 
  0.1207
 
 occupancies and eigenvectors
 
  o =  0.1207  v =  0.0000  1.0000      0.0000  0.0000
  o =  0.1347  v =  1.0000  0.0000      0.0000  0.0000
 
atom =  13  type =  2  l = 0
 
 onsite density matrix
 
spin component  1
 
  0.1347
 
spin component  2
 
  0.1207
 
 occupancies and eigenvectors
 
  o =  0.1207  v =  0.0000  1.0000      0.0000  0.0000
  o =  0.1347  v =  1.0000  0.0000      0.0000  0.0000
 
atom =  14  type =  2  l = 0
 
 onsite density matrix
 
spin component  1
 
  0.1347
 
spin component  2
 
  0.1207
 
 occupancies and eigenvectors
 
  o =  0.1207  v =  0.0000  1.0000      0.0000  0.0000
  o =  0.1347  v =  1.0000  0.0000      0.0000  0.0000
 
atom =  15  type =  2  l = 0
 
 onsite density matrix
 
spin component  1
 
  0.1347
 
spin component  2
 
  0.1207
 
 occupancies and eigenvectors
 
  o =  0.1207  v =  0.0000  1.0000      0.0000  0.0000
  o =  0.1347  v =  1.0000  0.0000      0.0000  0.0000
 
atom =  16  type =  2  l = 0
 
 onsite density matrix
 
spin component  1
 
  0.1347
 
spin component  2
 
  0.1207
 
 occupancies and eigenvectors
 
  o =  0.1207  v =  0.0000  1.0000      0.0000  0.0000
  o =  0.1347  v =  1.0000  0.0000      0.0000  0.0000
 
atom =  17  type =  2  l = 0
 
 onsite density matrix
 
spin component  1
 
  0.1347
 
spin component  2
 
  0.1207
 
 occupancies and eigenvectors
 
  o =  0.1207  v =  0.0000  1.0000      0.0000  0.0000
  o =  0.1347  v =  1.0000  0.0000      0.0000  0.0000
 
atom =  18  type =  2  l = 0
 
 onsite density matrix
 
spin component  1
 
  0.1347
 
spin component  2
 
  0.1207
 
 occupancies and eigenvectors
 
  o =  0.1207  v =  0.0000  1.0000      0.0000  0.0000
  o =  0.1347  v =  1.0000  0.0000      0.0000  0.0000
 
atom =  19  type =  2  l = 0
 
 onsite density matrix
 
spin component  1
 
  0.1347
 
spin component  2
 
  0.1207
 
 occupancies and eigenvectors
 
  o =  0.1207  v =  0.0000  1.0000      0.0000  0.0000
  o =  0.1347  v =  1.0000  0.0000      0.0000  0.0000
 
atom =  20  type =  2  l = 0
 
 onsite density matrix
 
spin component  1
 
  0.1347
 
spin component  2
 
  0.1207
 
 occupancies and eigenvectors
 
  o =  0.1207  v =  0.0000  1.0000      0.0000  0.0000
  o =  0.1347  v =  1.0000  0.0000      0.0000  0.0000
 
atom =  21  type =  2  l = 0
 
 onsite density matrix
 
spin component  1
 
  0.1347
 
spin component  2
 
  0.1207
 
 occupancies and eigenvectors
 
  o =  0.1207  v =  0.0000  1.0000      0.0000  0.0000
  o =  0.1347  v =  1.0000  0.0000      0.0000  0.0000
 
atom =  22  type =  2  l = 0
 
 onsite density matrix
 
spin component  1
 
  0.1347
 
spin component  2
 
  0.1207
 
 occupancies and eigenvectors
 
  o =  0.1207  v =  0.0000  1.0000      0.0000  0.0000
  o =  0.1347  v =  1.0000  0.0000      0.0000  0.0000
 
atom =  23  type =  2  l = 0
 
 onsite density matrix
 
spin component  1
 
  0.1347
 
spin component  2
 
  0.1207
 
 occupancies and eigenvectors
 
  o =  0.1207  v =  0.0000  1.0000      0.0000  0.0000
  o =  0.1347  v =  1.0000  0.0000      0.0000  0.0000
 
atom =  24  type =  2  l = 0
 
 onsite density matrix
 
spin component  1
 
  0.1347
 
spin component  2
 
  0.1207
 
 occupancies and eigenvectors
 
  o =  0.1207  v =  0.0000  1.0000      0.0000  0.0000
  o =  0.1347  v =  1.0000  0.0000      0.0000  0.0000
 
atom =  25  type =  2  l = 0
 
 onsite density matrix
 
spin component  1
 
  0.1347
 
spin component  2
 
  0.1207
 
 occupancies and eigenvectors
 
  o =  0.1207  v =  0.0000  1.0000      0.0000  0.0000
  o =  0.1347  v =  1.0000  0.0000      0.0000  0.0000
 
atom =  26  type =  3  l = 2
 
 onsite density matrix
 
spin component  1
 
  0.4151  0.0000  0.0000  0.0000  0.0000
  0.0000  0.4151  0.0000  0.0000  0.0000
  0.0000  0.0000  0.4151  0.0000 -0.0000
  0.0000  0.0000  0.0000  0.4151  0.0000
  0.0000  0.0000 -0.0000  0.0000  0.4151
 
spin component  2
 
  0.3756  0.0000  0.0000  0.0000  0.0000
  0.0000  0.3756  0.0000  0.0000  0.0000
  0.0000  0.0000  0.3756  0.0000 -0.0000
  0.0000  0.0000  0.0000  0.3756  0.0000
  0.0000  0.0000 -0.0000  0.0000  0.3756
 
 occupancies and eigenvectors
 
  o =  0.3756  v =  0.0000  0.0000  0.0000  0.0000  0.0000  0.0000  0.0000  1.0000  0.0000  0.0000      0.0000  0.0000  0.0000  0.0000  0.0000  0.0000  0.0000  0.0000  0.0000  0.0000
  o =  0.3756  v =  0.0000  0.0000  0.0000  0.0000  0.0000  1.0000  0.0000  0.0000  0.0000  0.0000      0.0000  0.0000  0.0000  0.0000  0.0000  0.0000  0.0000  0.0000  0.0000  0.0000
  o =  0.3756  v =  0.0000  0.0000  0.0000  0.0000  0.0000  0.0000  1.0000  0.0000  0.0000  0.0000      0.0000  0.0000  0.0000  0.0000  0.0000  0.0000  0.0000  0.0000  0.0000  0.0000
  o =  0.3756  v =  0.0000  0.0000  0.0000  0.0000  0.0000  0.0000  0.0000  0.0000  1.0000  0.0000      0.0000  0.0000  0.0000  0.0000  0.0000  0.0000  0.0000  0.0000  0.0000  0.0000
  o =  0.3756  v =  0.0000  0.0000  0.0000  0.0000  0.0000  0.0000  0.0000  0.0000  0.0000  1.0000      0.0000  0.0000  0.0000  0.0000  0.0000  0.0000  0.0000  0.0000  0.0000  0.0000
  o =  0.4151  v =  0.0000  0.0000  1.0000  0.0000  0.0000  0.0000  0.0000  0.0000  0.0000  0.0000      0.0000  0.0000  0.0000  0.0000  0.0000  0.0000  0.0000  0.0000  0.0000  0.0000
  o =  0.4151  v =  0.0000  1.0000  0.0000  0.0000  0.0000  0.0000  0.0000  0.0000  0.0000  0.0000      0.0000  0.0000  0.0000  0.0000  0.0000  0.0000  0.0000  0.0000  0.0000  0.0000
  o =  0.4151  v =  1.0000  0.0000  0.0000  0.0000  0.0000  0.0000  0.0000  0.0000  0.0000  0.0000      0.0000  0.0000  0.0000  0.0000  0.0000  0.0000  0.0000  0.0000  0.0000  0.0000
  o =  0.4151  v =  0.0000  0.0000  0.0000  1.0000  0.0000  0.0000  0.0000  0.0000  0.0000  0.0000      0.0000  0.0000  0.0000  0.0000  0.0000  0.0000  0.0000  0.0000  0.0000  0.0000
  o =  0.4151  v =  0.0000  0.0000  0.0000  0.0000  1.0000  0.0000  0.0000  0.0000  0.0000  0.0000      0.0000  0.0000  0.0000  0.0000  0.0000  0.0000  0.0000  0.0000  0.0000  0.0000
 
atom =  27  type =  3  l = 2
 
 onsite density matrix
 
spin component  1
 
  0.4151  0.0000  0.0000  0.0000  0.0000
  0.0000  0.4151  0.0000  0.0000  0.0000
  0.0000  0.0000  0.4151  0.0000 -0.0000
  0.0000  0.0000  0.0000  0.4151  0.0000
  0.0000  0.0000 -0.0000  0.0000  0.4151
 
spin component  2
 
  0.3756  0.0000  0.0000  0.0000  0.0000
  0.0000  0.3756  0.0000  0.0000  0.0000
  0.0000  0.0000  0.3756  0.0000 -0.0000
  0.0000  0.0000  0.0000  0.3756  0.0000
  0.0000  0.0000 -0.0000  0.0000  0.3756
 
 occupancies and eigenvectors
 
  o =  0.3756  v =  0.0000  0.0000  0.0000  0.0000  0.0000  0.0000  0.0000  1.0000  0.0000  0.0000      0.0000  0.0000  0.0000  0.0000  0.0000  0.0000  0.0000  0.0000  0.0000  0.0000
  o =  0.3756  v =  0.0000  0.0000  0.0000  0.0000  0.0000  1.0000  0.0000  0.0000  0.0000  0.0000      0.0000  0.0000  0.0000  0.0000  0.0000  0.0000  0.0000  0.0000  0.0000  0.0000
  o =  0.3756  v =  0.0000  0.0000  0.0000  0.0000  0.0000  0.0000  1.0000  0.0000  0.0000  0.0000      0.0000  0.0000  0.0000  0.0000  0.0000  0.0000  0.0000  0.0000  0.0000  0.0000
  o =  0.3756  v =  0.0000  0.0000  0.0000  0.0000  0.0000  0.0000  0.0000  0.0000  1.0000  0.0000      0.0000  0.0000  0.0000  0.0000  0.0000  0.0000  0.0000  0.0000  0.0000  0.0000
  o =  0.3756  v =  0.0000  0.0000  0.0000  0.0000  0.0000  0.0000  0.0000  0.0000  0.0000  1.0000      0.0000  0.0000  0.0000  0.0000  0.0000  0.0000  0.0000  0.0000  0.0000  0.0000
  o =  0.4151  v =  0.0000  0.0000  1.0000  0.0000  0.0000  0.0000  0.0000  0.0000  0.0000  0.0000      0.0000  0.0000  0.0000  0.0000  0.0000  0.0000  0.0000  0.0000  0.0000  0.0000
  o =  0.4151  v =  0.0000  1.0000  0.0000  0.0000  0.0000  0.0000  0.0000  0.0000  0.0000  0.0000      0.0000  0.0000  0.0000  0.0000  0.0000  0.0000  0.0000  0.0000  0.0000  0.0000
  o =  0.4151  v =  1.0000  0.0000  0.0000  0.0000  0.0000  0.0000  0.0000  0.0000  0.0000  0.0000      0.0000  0.0000  0.0000  0.0000  0.0000  0.0000  0.0000  0.0000  0.0000  0.0000
  o =  0.4151  v =  0.0000  0.0000  0.0000  1.0000  0.0000  0.0000  0.0000  0.0000  0.0000  0.0000      0.0000  0.0000  0.0000  0.0000  0.0000  0.0000  0.0000  0.0000  0.0000  0.0000
  o =  0.4151  v =  0.0000  0.0000  0.0000  0.0000  1.0000  0.0000  0.0000  0.0000  0.0000  0.0000      0.0000  0.0000  0.0000  0.0000  0.0000  0.0000  0.0000  0.0000  0.0000  0.0000
 
atom =  28  type =  4  l = 0
 
 onsite density matrix
 
spin component  1
 
  0.8936
 
spin component  2
 
  0.7311
 
 occupancies and eigenvectors
 
  o =  0.7311  v =  0.0000  1.0000      0.0000  0.0000
  o =  0.8936  v =  1.0000  0.0000      0.0000  0.0000
 
atom =  29  type =  4  l = 0
 
 onsite density matrix
 
spin component  1
 
  0.8936
 
spin component  2
 
  0.7311
 
 occupancies and eigenvectors
 
  o =  0.7311  v =  0.0000  1.0000      0.0000  0.0000
  o =  0.8936  v =  1.0000  0.0000      0.0000  0.0000
 
atom =  30  type =  4  l = 0
 
 onsite density matrix
 
spin component  1
 
  0.8936
 
spin component  2
 
  0.7311
 
 occupancies and eigenvectors
 
  o =  0.7311  v =  0.0000  1.0000      0.0000  0.0000
  o =  0.8936  v =  1.0000  0.0000      0.0000  0.0000
 
atom =  31  type =  4  l = 0
 
 onsite density matrix
 
spin component  1
 
  0.8936
 
spin component  2
 
  0.7311
 
 occupancies and eigenvectors
 
  o =  0.7311  v =  0.0000  1.0000      0.0000  0.0000
  o =  0.8936  v =  1.0000  0.0000      0.0000  0.0000
 
atom =  32  type =  4  l = 0
 
 onsite density matrix
 
spin component  1
 
  0.8936
 
spin component  2
 
  0.7311
 
 occupancies and eigenvectors
 
  o =  0.7311  v =  0.0000  1.0000      0.0000  0.0000
  o =  0.8936  v =  1.0000  0.0000      0.0000  0.0000
 
atom =  33  type =  4  l = 0
 
 onsite density matrix
 
spin component  1
 
  0.8936
 
spin component  2
 
  0.7311
 
 occupancies and eigenvectors
 
  o =  0.7311  v =  0.0000  1.0000      0.0000  0.0000
  o =  0.8936  v =  1.0000  0.0000      0.0000  0.0000
 
atom =  34  type =  4  l = 0
 
 onsite density matrix
 
spin component  1
 
  0.8936
 
spin component  2
 
  0.7311
 
 occupancies and eigenvectors
 
  o =  0.7311  v =  0.0000  1.0000      0.0000  0.0000
  o =  0.8936  v =  1.0000  0.0000      0.0000  0.0000
 
atom =  35  type =  4  l = 0
 
 onsite density matrix
 
spin component  1
 
  0.8936
 
spin component  2
 
  0.7311
 
 occupancies and eigenvectors
 
  o =  0.7311  v =  0.0000  1.0000      0.0000  0.0000
  o =  0.8936  v =  1.0000  0.0000      0.0000  0.0000
 
atom =  36  type =  4  l = 0
 
 onsite density matrix
 
spin component  1
 
  0.8936
 
spin component  2
 
  0.7311
 
 occupancies and eigenvectors
 
  o =  0.7311  v =  0.0000  1.0000      0.0000  0.0000
  o =  0.8936  v =  1.0000  0.0000      0.0000  0.0000
 
atom =  37  type =  4  l = 0
 
 onsite density matrix
 
spin component  1
 
  0.8936
 
spin component  2
 
  0.7311
 
 occupancies and eigenvectors
 
  o =  0.7311  v =  0.0000  1.0000      0.0000  0.0000
  o =  0.8936  v =  1.0000  0.0000      0.0000  0.0000
 
atom =  38  type =  4  l = 0
 
 onsite density matrix
 
spin component  1
 
  0.8936
 
spin component  2
 
  0.7311
 
 occupancies and eigenvectors
 
  o =  0.7311  v =  0.0000  1.0000      0.0000  0.0000
  o =  0.8936  v =  1.0000  0.0000      0.0000  0.0000
 
atom =  39  type =  4  l = 0
 
 onsite density matrix
 
spin component  1
 
  0.8936
 
spin component  2
 
  0.7311
 
 occupancies and eigenvectors
 
  o =  0.7311  v =  0.0000  1.0000      0.0000  0.0000
  o =  0.8936  v =  1.0000  0.0000      0.0000  0.0000
 
atom =  40  type =  4  l = 0
 
 onsite density matrix
 
spin component  1
 
  0.8936
 
spin component  2
 
  0.7311
 
 occupancies and eigenvectors
 
  o =  0.7311  v =  0.0000  1.0000      0.0000  0.0000
  o =  0.8936  v =  1.0000  0.0000      0.0000  0.0000
 
atom =  41  type =  4  l = 0
 
 onsite density matrix
 
spin component  1
 
  0.8936
 
spin component  2
 
  0.7311
 
 occupancies and eigenvectors
 
  o =  0.7311  v =  0.0000  1.0000      0.0000  0.0000
  o =  0.8936  v =  1.0000  0.0000      0.0000  0.0000
 
atom =  42  type =  4  l = 0
 
 onsite density matrix
 
spin component  1
 
  0.8936
 
spin component  2
 
  0.7311
 
 occupancies and eigenvectors
 
  o =  0.7311  v =  0.0000  1.0000      0.0000  0.0000
  o =  0.8936  v =  1.0000  0.0000      0.0000  0.0000
 
atom =  43  type =  4  l = 0
 
 onsite density matrix
 
spin component  1
 
  0.8936
 
spin component  2
 
  0.7311
 
 occupancies and eigenvectors
 
  o =  0.7311  v =  0.0000  1.0000      0.0000  0.0000
  o =  0.8936  v =  1.0000  0.0000      0.0000  0.0000
 
atom =  44  type =  4  l = 0
 
 onsite density matrix
 
spin component  1
 
  0.8936
 
spin component  2
 
  0.7311
 
 occupancies and eigenvectors
 
  o =  0.7311  v =  0.0000  1.0000      0.0000  0.0000
  o =  0.8936  v =  1.0000  0.0000      0.0000  0.0000
 
atom =  45  type =  4  l = 0
 
 onsite density matrix
 
spin component  1
 
  0.8936
 
spin component  2
 
  0.7311
 
 occupancies and eigenvectors
 
  o =  0.7311  v =  0.0000  1.0000      0.0000  0.0000
  o =  0.8936  v =  1.0000  0.0000      0.0000  0.0000
 
atom =  46  type =  4  l = 0
 
 onsite density matrix
 
spin component  1
 
  0.8936
 
spin component  2
 
  0.7311
 
 occupancies and eigenvectors
 
  o =  0.7311  v =  0.0000  1.0000      0.0000  0.0000
  o =  0.8936  v =  1.0000  0.0000      0.0000  0.0000
 
atom =  47  type =  4  l = 0
 
 onsite density matrix
 
spin component  1
 
  0.8936
 
spin component  2
 
  0.7311
 
 occupancies and eigenvectors
 
  o =  0.7311  v =  0.0000  1.0000      0.0000  0.0000
  o =  0.8936  v =  1.0000  0.0000      0.0000  0.0000
 
atom =  48  type =  4  l = 0
 
 onsite density matrix
 
spin component  1
 
  0.8936
 
spin component  2
 
  0.7311
 
 occupancies and eigenvectors
 
  o =  0.7311  v =  0.0000  1.0000      0.0000  0.0000
  o =  0.8936  v =  1.0000  0.0000      0.0000  0.0000
 
atom =  49  type =  4  l = 0
 
 onsite density matrix
 
spin component  1
 
  0.8936
 
spin component  2
 
  0.7311
 
 occupancies and eigenvectors
 
  o =  0.7311  v =  0.0000  1.0000      0.0000  0.0000
  o =  0.8936  v =  1.0000  0.0000      0.0000  0.0000
 
atom =  50  type =  4  l = 0
 
 onsite density matrix
 
spin component  1
 
  0.8936
 
spin component  2
 
  0.7311
 
 occupancies and eigenvectors
 
  o =  0.7311  v =  0.0000  1.0000      0.0000  0.0000
  o =  0.8936  v =  1.0000  0.0000      0.0000  0.0000
 
atom =  51  type =  4  l = 0
 
 onsite density matrix
 
spin component  1
 
  0.8936
 
spin component  2
 
  0.7311
 
 occupancies and eigenvectors
 
  o =  0.7311  v =  0.0000  1.0000      0.0000  0.0000
  o =  0.8936  v =  1.0000  0.0000      0.0000  0.0000
 
atom =  52  type =  4  l = 0
 
 onsite density matrix
 
spin component  1
 
  0.8936
 
spin component  2
 
  0.7311
 
 occupancies and eigenvectors
 
  o =  0.7311  v =  0.0000  1.0000      0.0000  0.0000
  o =  0.8936  v =  1.0000  0.0000      0.0000  0.0000
 
atom =  53  type =  4  l = 0
 
 onsite density matrix
 
spin component  1
 
  0.8936
 
spin component  2
 
  0.7311
 
 occupancies and eigenvectors
 
  o =  0.7311  v =  0.0000  1.0000      0.0000  0.0000
  o =  0.8936  v =  1.0000  0.0000      0.0000  0.0000
 
atom =  54  type =  4  l = 0
 
 onsite density matrix
 
spin component  1
 
  0.8936
 
spin component  2
 
  0.7311
 
 occupancies and eigenvectors
 
  o =  0.7311  v =  0.0000  1.0000      0.0000  0.0000
  o =  0.8936  v =  1.0000  0.0000      0.0000  0.0000
 
atom =  55  type =  4  l = 0
 
 onsite density matrix
 
spin component  1
 
  0.8936
 
spin component  2
 
  0.7311
 
 occupancies and eigenvectors
 
  o =  0.7311  v =  0.0000  1.0000      0.0000  0.0000
  o =  0.8936  v =  1.0000  0.0000      0.0000  0.0000
 
atom =  56  type =  4  l = 0
 
 onsite density matrix
 
spin component  1
 
  0.8936
 
spin component  2
 
  0.7311
 
 occupancies and eigenvectors
 
  o =  0.7311  v =  0.0000  1.0000      0.0000  0.0000
  o =  0.8936  v =  1.0000  0.0000      0.0000  0.0000
 
atom =  57  type =  4  l = 0
 
 onsite density matrix
 
spin component  1
 
  0.8936
 
spin component  2
 
  0.7311
 
 occupancies and eigenvectors
 
  o =  0.7311  v =  0.0000  1.0000      0.0000  0.0000
  o =  0.8936  v =  1.0000  0.0000      0.0000  0.0000
 
atom =  58  type =  4  l = 0
 
 onsite density matrix
 
spin component  1
 
  0.8936
 
spin component  2
 
  0.7311
 
 occupancies and eigenvectors
 
  o =  0.7311  v =  0.0000  1.0000      0.0000  0.0000
  o =  0.8936  v =  1.0000  0.0000      0.0000  0.0000
 
atom =  59  type =  4  l = 0
 
 onsite density matrix
 
spin component  1
 
  0.8936
 
spin component  2
 
  0.7311
 
 occupancies and eigenvectors
 
  o =  0.7311  v =  0.0000  1.0000      0.0000  0.0000
  o =  0.8936  v =  1.0000  0.0000      0.0000  0.0000
 
atom =  60  type =  4  l = 0
 
 onsite density matrix
 
spin component  1
 
  0.8936
 
spin component  2
 
  0.7311
 
 occupancies and eigenvectors
 
  o =  0.7311  v =  0.0000  1.0000      0.0000  0.0000
  o =  0.8936  v =  1.0000  0.0000      0.0000  0.0000
 
atom =  61  type =  4  l = 0
 
 onsite density matrix
 
spin component  1
 
  0.8936
 
spin component  2
 
  0.7311
 
 occupancies and eigenvectors
 
  o =  0.7311  v =  0.0000  1.0000      0.0000  0.0000
  o =  0.8936  v =  1.0000  0.0000      0.0000  0.0000
 
atom =  62  type =  4  l = 0
 
 onsite density matrix
 
spin component  1
 
  0.8936
 
spin component  2
 
  0.7311
 
 occupancies and eigenvectors
 
  o =  0.7311  v =  0.0000  1.0000      0.0000  0.0000
  o =  0.8936  v =  1.0000  0.0000      0.0000  0.0000
 
atom =  63  type =  4  l = 0
 
 onsite density matrix
 
spin component  1
 
  0.8936
 
spin component  2
 
  0.7311
 
 occupancies and eigenvectors
 
  o =  0.7311  v =  0.0000  1.0000      0.0000  0.0000
  o =  0.8936  v =  1.0000  0.0000      0.0000  0.0000
 
atom =  64  type =  4  l = 0
 
 onsite density matrix
 
spin component  1
 
  0.8936
 
spin component  2
 
  0.7311
 
 occupancies and eigenvectors
 
  o =  0.7311  v =  0.0000  1.0000      0.0000  0.0000
  o =  0.8936  v =  1.0000  0.0000      0.0000  0.0000
 
atom =  65  type =  4  l = 0
 
 onsite density matrix
 
spin component  1
 
  0.8936
 
spin component  2
 
  0.7311
 
 occupancies and eigenvectors
 
  o =  0.7311  v =  0.0000  1.0000      0.0000  0.0000
  o =  0.8936  v =  1.0000  0.0000      0.0000  0.0000
 
atom =  66  type =  4  l = 0
 
 onsite density matrix
 
spin component  1
 
  0.8936
 
spin component  2
 
  0.7311
 
 occupancies and eigenvectors
 
  o =  0.7311  v =  0.0000  1.0000      0.0000  0.0000
  o =  0.8936  v =  1.0000  0.0000      0.0000  0.0000
 
atom =  67  type =  4  l = 0
 
 onsite density matrix
 
spin component  1
 
  0.8936
 
spin component  2
 
  0.7311
 
 occupancies and eigenvectors
 
  o =  0.7311  v =  0.0000  1.0000      0.0000  0.0000
  o =  0.8936  v =  1.0000  0.0000      0.0000  0.0000
 
atom =  68  type =  4  l = 0
 
 onsite density matrix
 
spin component  1
 
  0.8936
 
spin component  2
 
  0.7311
 
 occupancies and eigenvectors
 
  o =  0.7311  v =  0.0000  1.0000      0.0000  0.0000
  o =  0.8936  v =  1.0000  0.0000      0.0000  0.0000
 
atom =  69  type =  4  l = 0
 
 onsite density matrix
 
spin component  1
 
  0.8936
 
spin component  2
 
  0.7311
 
 occupancies and eigenvectors
 
  o =  0.7311  v =  0.0000  1.0000      0.0000  0.0000
  o =  0.8936  v =  1.0000  0.0000      0.0000  0.0000
 
atom =  70  type =  4  l = 0
 
 onsite density matrix
 
spin component  1
 
  0.8936
 
spin component  2
 
  0.7311
 
 occupancies and eigenvectors
 
  o =  0.7311  v =  0.0000  1.0000      0.0000  0.0000
  o =  0.8936  v =  1.0000  0.0000      0.0000  0.0000
 
atom =  71  type =  4  l = 0
 
 onsite density matrix
 
spin component  1
 
  0.8936
 
spin component  2
 
  0.7311
 
 occupancies and eigenvectors
 
  o =  0.7311  v =  0.0000  1.0000      0.0000  0.0000
  o =  0.8936  v =  1.0000  0.0000      0.0000  0.0000
 
atom =  72  type =  4  l = 0
 
 onsite density matrix
 
spin component  1
 
  0.8936
 
spin component  2
 
  0.7311
 
 occupancies and eigenvectors
 
  o =  0.7311  v =  0.0000  1.0000      0.0000  0.0000
  o =  0.8936  v =  1.0000  0.0000      0.0000  0.0000
 
atom =  73  type =  4  l = 0
 
 onsite density matrix
 
spin component  1
 
  0.8936
 
spin component  2
 
  0.7311
 
 occupancies and eigenvectors
 
  o =  0.7311  v =  0.0000  1.0000      0.0000  0.0000
  o =  0.8936  v =  1.0000  0.0000      0.0000  0.0000
 
atom =  74  type =  4  l = 0
 
 onsite density matrix
 
spin component  1
 
  0.8936
 
spin component  2
 
  0.7311
 
 occupancies and eigenvectors
 
  o =  0.7311  v =  0.0000  1.0000      0.0000  0.0000
  o =  0.8936  v =  1.0000  0.0000      0.0000  0.0000
 
atom =  75  type =  4  l = 0
 
 onsite density matrix
 
spin component  1
 
  0.8936
 
spin component  2
 
  0.7311
 
 occupancies and eigenvectors
 
  o =  0.7311  v =  0.0000  1.0000      0.0000  0.0000
  o =  0.8936  v =  1.0000  0.0000      0.0000  0.0000
 
atom =  76  type =  4  l = 0
 
 onsite density matrix
 
spin component  1
 
  0.8936
 
spin component  2
 
  0.7311
 
 occupancies and eigenvectors
 
  o =  0.7311  v =  0.0000  1.0000      0.0000  0.0000
  o =  0.8936  v =  1.0000  0.0000      0.0000  0.0000
 
atom =  77  type =  4  l = 0
 
 onsite density matrix
 
spin component  1
 
  0.8936
 
spin component  2
 
  0.7311
 
 occupancies and eigenvectors
 
  o =  0.7311  v =  0.0000  1.0000      0.0000  0.0000
  o =  0.8936  v =  1.0000  0.0000      0.0000  0.0000
 
atom =  78  type =  4  l = 0
 
 onsite density matrix
 
spin component  1
 
  0.8936
 
spin component  2
 
  0.7311
 
 occupancies and eigenvectors
 
  o =  0.7311  v =  0.0000  1.0000      0.0000  0.0000
  o =  0.8936  v =  1.0000  0.0000      0.0000  0.0000
 
atom =  79  type =  4  l = 0
 
 onsite density matrix
 
spin component  1
 
  0.8936
 
spin component  2
 
  0.7311
 
 occupancies and eigenvectors
 
  o =  0.7311  v =  0.0000  1.0000      0.0000  0.0000
  o =  0.8936  v =  1.0000  0.0000      0.0000  0.0000
 
atom =  80  type =  4  l = 0
 
 onsite density matrix
 
spin component  1
 
  0.8936
 
spin component  2
 
  0.7311
 
 occupancies and eigenvectors
 
  o =  0.7311  v =  0.0000  1.0000      0.0000  0.0000
  o =  0.8936  v =  1.0000  0.0000      0.0000  0.0000
 
atom =  81  type =  4  l = 0
 
 onsite density matrix
 
spin component  1
 
  0.8936
 
spin component  2
 
  0.7311
 
 occupancies and eigenvectors
 
  o =  0.7311  v =  0.0000  1.0000      0.0000  0.0000
  o =  0.8936  v =  1.0000  0.0000      0.0000  0.0000
 
atom =  82  type =  4  l = 0
 
 onsite density matrix
 
spin component  1
 
  0.8936
 
spin component  2
 
  0.7311
 
 occupancies and eigenvectors
 
  o =  0.7311  v =  0.0000  1.0000      0.0000  0.0000
  o =  0.8936  v =  1.0000  0.0000      0.0000  0.0000
 
atom =  83  type =  4  l = 0
 
 onsite density matrix
 
spin component  1
 
  0.8936
 
spin component  2
 
  0.7311
 
 occupancies and eigenvectors
 
  o =  0.7311  v =  0.0000  1.0000      0.0000  0.0000
  o =  0.8936  v =  1.0000  0.0000      0.0000  0.0000
 
atom =  84  type =  4  l = 0
 
 onsite density matrix
 
spin component  1
 
  0.8936
 
spin component  2
 
  0.7311
 
 occupancies and eigenvectors
 
  o =  0.7311  v =  0.0000  1.0000      0.0000  0.0000
  o =  0.8936  v =  1.0000  0.0000      0.0000  0.0000
 
atom =  85  type =  4  l = 0
 
 onsite density matrix
 
spin component  1
 
  0.8936
 
spin component  2
 
  0.7311
 
 occupancies and eigenvectors
 
  o =  0.7311  v =  0.0000  1.0000      0.0000  0.0000
  o =  0.8936  v =  1.0000  0.0000      0.0000  0.0000
 
atom =  86  type =  4  l = 0
 
 onsite density matrix
 
spin component  1
 
  0.8936
 
spin component  2
 
  0.7311
 
 occupancies and eigenvectors
 
  o =  0.7311  v =  0.0000  1.0000      0.0000  0.0000
  o =  0.8936  v =  1.0000  0.0000      0.0000  0.0000
 
atom =  87  type =  4  l = 0
 
 onsite density matrix
 
spin component  1
 
  0.8936
 
spin component  2
 
  0.7311
 
 occupancies and eigenvectors
 
  o =  0.7311  v =  0.0000  1.0000      0.0000  0.0000
  o =  0.8936  v =  1.0000  0.0000      0.0000  0.0000
 
atom =  88  type =  4  l = 0
 
 onsite density matrix
 
spin component  1
 
  0.8936
 
spin component  2
 
  0.7311
 
 occupancies and eigenvectors
 
  o =  0.7311  v =  0.0000  1.0000      0.0000  0.0000
  o =  0.8936  v =  1.0000  0.0000      0.0000  0.0000
 
atom =  89  type =  4  l = 0
 
 onsite density matrix
 
spin component  1
 
  0.8936
 
spin component  2
 
  0.7311
 
 occupancies and eigenvectors
 
  o =  0.7311  v =  0.0000  1.0000      0.0000  0.0000
  o =  0.8936  v =  1.0000  0.0000      0.0000  0.0000
 
atom =  90  type =  4  l = 0
 
 onsite density matrix
 
[...]
     -0.00670     -0.00253     -0.00201         0.004774      0.001805      0.001433
      0.00038     -0.00109     -0.00457        -0.000267      0.000779      0.003254
      0.01559     -0.00276      0.03035        -0.011111      0.001970     -0.021627
      0.00158     -0.00116     -0.00322        -0.001127      0.000823      0.002293
      0.00301      0.00518     -0.00008        -0.002142     -0.003692      0.000056
      0.00275     -0.00057      0.00027        -0.001962      0.000405     -0.000196
     -0.00351     -0.00245      0.00321         0.002498      0.001744     -0.002286
      0.00103     -0.00289     -0.00074        -0.000731      0.002061      0.000528
     -0.00160     -0.00319      0.00043         0.001141      0.002273     -0.000307
     -0.00034     -0.00092     -0.00767         0.000245      0.000654      0.005467
      0.00139     -0.00305     -0.00376        -0.000992      0.002172      0.002676
      0.00264     -0.00408     -0.00264        -0.001880      0.002904      0.001883
     -0.00315     -0.00370     -0.00360         0.002247      0.002634      0.002563
     -0.00128     -0.00342     -0.00014         0.000909      0.002435      0.000099
     -0.00092     -0.00490      0.00147         0.000653      0.003493     -0.001047
      0.00344     -0.00379     -0.00591        -0.002451      0.002699      0.004208
      0.00316     -0.00217     -0.00191        -0.002255      0.001546      0.001358
      0.00546     -0.00380     -0.00270        -0.003893      0.002708      0.001923
      0.00591      0.01025      0.00419        -0.004215     -0.007304     -0.002988
      0.00016     -0.00185      0.00002        -0.000113      0.001319     -0.000013
     -0.00294      0.01447     -0.00736         0.002092     -0.010309      0.005247
      0.00237     -0.00113      0.00221        -0.001688      0.000807     -0.001575
      0.00126     -0.00142     -0.00143        -0.000901      0.001010      0.001020
      0.00503     -0.00420     -0.00249        -0.003583      0.002996      0.001778
      0.00276     -0.00234     -0.00028        -0.001968      0.001667      0.000199
      0.00330     -0.00281     -0.00159        -0.002349      0.002005      0.001133
     -0.01216      0.00325     -0.01945         0.008668     -0.002315      0.013862
      0.00571      0.00146     -0.00886        -0.004067     -0.001041      0.006315
      0.00088     -0.00115     -0.00117        -0.000625      0.000820      0.000833
     -0.00137     -0.00215     -0.00022         0.000976      0.001533      0.000158
     -0.01407      0.03121     -0.03716         0.010023     -0.022236      0.026482
      0.00294     -0.00226      0.00136        -0.002093      0.001610     -0.000966
     -0.00251     -0.00250      0.00094         0.001791      0.001783     -0.000669
      0.00048     -0.00110      0.00006        -0.000339      0.000787     -0.000040
     -0.00481     -0.00078     -0.00083         0.003427      0.000556      0.000592
     -0.00227     -0.00419      0.00735         0.001617      0.002989     -0.005240
     -0.03207      0.00016     -0.01414         0.022849     -0.000111      0.010079
     -0.00165     -0.00268     -0.00195         0.001179      0.001907      0.001387
      0.00172     -0.00116     -0.00025        -0.001223      0.000824      0.000179
      0.00015      0.00340     -0.00750        -0.000109     -0.002424      0.005342
     -0.00063     -0.00104     -0.00066         0.000446      0.000741      0.000469
      0.00166     -0.00134     -0.00132        -0.001182      0.000954      0.000939
      0.08113      0.10729     -0.03829        -0.057811     -0.076452      0.027283
     -0.01697     -0.01407      0.02791         0.012090      0.010029     -0.019884
     -0.00345     -0.00303     -0.00215         0.002462      0.002159      0.001530
      0.00305      0.00075     -0.00155        -0.002171     -0.000537      0.001103
      0.00458      0.00929      0.01523        -0.003262     -0.006621     -0.010852
     -0.05110      0.06232     -0.08034         0.036410     -0.044404      0.057244
      0.00151     -0.00047      0.00003        -0.001074      0.000334     -0.000023
      0.00144     -0.00091      0.00026        -0.001024      0.000650     -0.000188
      0.00203      0.00349     -0.02718        -0.001443     -0.002489      0.019366
     -0.11708      0.01519      0.03776         0.083427     -0.010824     -0.026909
      0.00352     -0.00091     -0.00056        -0.002511      0.000646      0.000397
      0.00134     -0.00091     -0.00135        -0.000953      0.000651      0.000960
     -0.00468      0.02914     -0.00316         0.003337     -0.020763      0.002250
     -0.00266     -0.00132     -0.00012         0.001895      0.000943      0.000086
     -0.00072     -0.00028      0.00024         0.000511      0.000201     -0.000171
     -0.00863     -0.00107      0.00446         0.006149      0.000766     -0.003179
     -0.00245     -0.00311      0.00244         0.001746      0.002219     -0.001738
      0.00395      0.06489      0.08993        -0.002816     -0.046240     -0.064080
      0.00201     -0.00217     -0.00058        -0.001430      0.001543      0.000411
      0.00266     -0.00140     -0.00111        -0.001893      0.001000      0.000788
      0.00542     -0.00101     -0.00402        -0.003860      0.000718      0.002865
     -0.00258     -0.00259     -0.00048         0.001840      0.001847      0.000339
      0.00064     -0.00192     -0.00846        -0.000457      0.001366      0.006029
     -0.00031     -0.00336     -0.00393         0.000221      0.002392      0.002800
      0.00386     -0.00334     -0.00103        -0.002752      0.002377      0.000731
     -0.00281     -0.00096     -0.00012         0.001999      0.000684      0.000085
      0.00790     -0.00078     -0.00156        -0.005631      0.000556      0.001110
      0.00021     -0.00295     -0.00251        -0.000147      0.002100      0.001789
      0.00218     -0.00204     -0.00035        -0.001551      0.001451      0.000250
 -----------------------------------------------------------------------------------
 CHAIN + TOTAL  (eV/Angst)
 ----------------------------------------------
      0.00471     -0.00502     -0.00023
     -0.00377      0.00019      0.00163
     -0.00393      0.00345      0.00103
     -0.00194      0.00340      0.00025
     -0.00422      0.00210      0.00186
     -0.00318      0.00261      0.00175
     -0.00403      0.00304      0.00091
     -0.00275      0.00251      0.00046
     -0.00220     -0.00040      0.00166
     -0.00259      0.00258      0.00065
     -0.00459      0.00082      0.00103
     -0.00286      0.00161      0.00104
     -0.00153      0.00436      0.00212
     -0.00249      0.00971      0.00092
     -0.00293      0.00592      0.00043
     -0.00236      0.00011      0.00016
     -0.00246     -0.00034      0.00206
     -0.00188      0.00497      0.00034
     -0.00447      0.00052      0.00152
     -0.00457      0.00051      0.00062
     -0.00279      0.00506      0.00300
     -0.00317      0.00398      0.00214
     -0.00326      0.00176      0.00210
     -0.00490      0.00114      0.00086
     -0.00180      0.00233      0.00032
     -0.00360      0.00249      0.00602
     -0.00128      0.00241     -0.00052
     -0.01013     -0.00274      0.00408
     -0.00668      0.01024      0.00251
     -0.00461      0.00084      0.00286
     -0.00329      0.00520      0.00117
     -0.00414      0.00642     -0.00101
     -0.00440     -0.00463      0.00242
     -0.00381     -0.00115      0.00187
     -0.00560      0.00399     -0.00187
     -0.00260      0.00411     -0.00169
     -0.00636     -0.00029     -0.00103
     -0.00417      0.00351      0.00070
     -0.00290      0.00088      0.00099
     -0.00165      0.00071     -0.00006
     -0.00256      0.00535     -0.00024
     -0.00356     -0.00196      0.00156
     -0.00656      0.00754      0.00190
     -0.00504      0.00563      0.00228
     -0.00868      0.00068      0.00272
     -0.00261      0.00173      0.00346
     -0.00342      0.00210      0.00355
     -0.00199      0.00459      0.00011
     -0.00325      0.00192      0.00280
     -0.00394      0.00617      0.00171
     -0.00634      0.00066      0.00319
     -0.00052      0.00354      0.00055
     -0.00753      0.00929     -0.00177
     -0.00274      0.00886      0.00011
     -0.00141      0.00668      0.00124
     -0.00037      0.00165      0.00167
     -0.00166     -0.00521      0.00030
     -0.00044      0.01088      0.00482
     -0.00297      0.00686      0.00189
     -0.00265      0.00178      0.00529
     -0.00362     -0.00147      0.00728
     -0.00609      0.00660      0.00235
     -0.00515      0.00095      0.00394
     -0.00244      0.00168      0.00105
     -0.00510      0.01116      0.00003
     -0.00297      0.01433      0.00016
     -0.00510      0.00517     -0.00159
     -0.00445      0.00018     -0.00117
     -0.00840      0.00264     -0.00323
     -0.00891      0.01355      0.00043
     -0.00210      0.00170      0.00183
     -0.00235      0.00170      0.00276
     -0.00321      0.01095      0.00188
     -0.00687      0.00771      0.00132
      0.00128      0.00123      0.00126
     -0.00102      0.00091      0.00039
     -0.00153      0.00869     -0.00061
     -0.00675     -0.00043      0.00273
     -0.00221      0.00054     -0.00010
     -0.00497      0.00450      0.00111
     -0.00079      0.00708      0.00019
     -0.00661      0.01043      0.00096
     -0.00069      0.00387     -0.00102
     -0.00494      0.00083      0.00281
     -0.00382      0.00551      0.00179
     -0.00517     -0.00419      0.00164
     -0.00254      0.00593     -0.00125
     -0.00465      0.00477      0.00017
     -0.00361      0.00134      0.00274
     -0.00391      0.00130      0.00100
     -0.00349      0.00356      0.00072
     -0.00338      0.00333      0.00161
     -0.00421      0.00179      0.00499
 ----------------------------------------------
 Quasi-Newton relaxation of ions (Broydens 2nd method)
  g(Force)  = 0.733E-03   g(Stress)= 0.000E+00

 retain information from N=  4 steps
 eigenvalues of (default step * inverse Hessian matrix)
  average eigenvalue of G=   5.2160
 eigenvalue spectrum of G is  6.2957  6.2957  6.2562  2.0167


--------------------------------------------------------------------------------------------------------


  
 reached required accuracy - stopping structural energy minimisation
     LOOP+:  cpu time    432.5958: real time    435.5002
    4ORBIT:  cpu time      0.0000: real time      0.0000



 total charge

# of ion       s       p       d       tot
------------------------------------------
    1        2.117   0.335   0.000   2.452
    2        0.424   6.573   2.831   9.827
    3        0.423   6.569   2.820   9.812
    4        0.424   6.573   2.828   9.825
    5        0.426   6.577   2.832   9.835
    6        0.422   6.576   2.811   9.810
    7        0.422   6.577   2.808   9.807
    8        0.422   6.576   2.813   9.811
    9        0.425   6.583   2.822   9.831
   10        0.422   6.571   2.830   9.822
   11        0.425   6.572   2.851   9.848
   12        0.426   6.574   2.856   9.855
   13        0.427   6.570   2.874   9.871
   14        0.422   6.613   2.753   9.788
   15        0.421   6.610   2.749   9.780
   16        0.420   6.607   2.744   9.772
   17        0.421   6.612   2.743   9.775
   18        0.419   6.569   2.837   9.824
   19        0.418   6.580   2.779   9.777
   20        0.419   6.579   2.786   9.785
   21        0.420   6.559   2.835   9.814
   22        0.417   6.564   2.808   9.789
   23        0.419   6.578   2.783   9.780
   24        0.420   6.577   2.788   9.785
   25        0.418   6.574   2.781   9.773
   26        0.489   6.631   3.927  11.048
   27        0.489   6.630   3.924  11.043
   28        1.574   3.477   0.000   5.050
   29        1.574   3.476   0.000   5.050
   30        1.565   3.490   0.000   5.055
   31        1.565   3.491   0.000   5.056
   32        1.565   3.490   0.000   5.055
   33        1.565   3.491   0.000   5.056
   34        1.574   3.479   0.000   5.053
   35        1.575   3.474   0.000   5.049
   36        1.575   3.476   0.000   5.051
   37        1.575   3.483   0.000   5.058
   38        1.581   3.455   0.000   5.036
   39        1.584   3.445   0.000   5.029
   40        1.584   3.446   0.000   5.030
   41        1.581   3.458   0.000   5.038
   42        1.577   3.461   0.000   5.038
   43        1.575   3.466   0.000   5.041
   44        1.575   3.466   0.000   5.041
   45        1.577   3.461   0.000   5.038
   46        1.576   3.466   0.000   5.042
   47        1.575   3.474   0.000   5.048
   48        1.575   3.474   0.000   5.049
   49        1.578   3.474   0.000   5.052
   50        1.566   3.490   0.000   5.055
   51        1.565   3.494   0.000   5.060
   52        1.565   3.495   0.000   5.061
   53        1.563   3.488   0.000   5.051
   54        1.580   3.455   0.000   5.035
   55        1.580   3.453   0.000   5.033
   56        1.580   3.451   0.000   5.031
   57        1.579   3.453   0.000   5.032
   58        1.576   3.473   0.000   5.049
   59        1.577   3.465   0.000   5.042
   60        1.577   3.464   0.000   5.041
   61        1.576   3.471   0.000   5.047
   62        1.575   3.476   0.000   5.051
   63        1.577   3.468   0.000   5.044
   64        1.577   3.468   0.000   5.045
   65        1.570   3.487   0.000   5.058
   66        1.578   3.467   0.000   5.044
   67        1.576   3.473   0.000   5.049
   68        1.576   3.472   0.000   5.047
   69        1.577   3.470   0.000   5.047
   70        1.563   3.475   0.000   5.039
   71        1.565   3.494   0.000   5.060
   72        1.565   3.494   0.000   5.060
   73        1.562   3.499   0.000   5.061
   74        1.567   3.495   0.000   5.061
   75        1.575   3.472   0.000   5.047
   76        1.575   3.473   0.000   5.047
   77        1.574   3.471   0.000   5.045
   78        1.581   3.469   0.000   5.050
   79        1.580   3.468   0.000   5.049
   80        1.581   3.469   0.000   5.050
   81        1.581   3.470   0.000   5.051
   82        1.564   3.481   0.000   5.044
   83        1.564   3.497   0.000   5.061
   84        1.564   3.496   0.000   5.060
   85        1.565   3.491   0.000   5.056
   86        1.565   3.490   0.000   5.055
   87        1.565   3.488   0.000   5.053
   88        1.565   3.489   0.000   5.054
   89        1.565   3.488   0.000   5.053
   90        1.582   3.449   0.000   5.031
   91        1.583   3.448   0.000   5.031
   92        1.583   3.450   0.000   5.032
   93        1.582   3.455   0.000   5.037
--------------------------------------------------
tot        117.060 400.792  75.213 593.065



 magnetization (x)

# of ion       s       p       d       tot
------------------------------------------
    1        0.000   0.000   0.000   0.000
    2        0.000  -0.000   0.000   0.000
    3        0.000  -0.000  -0.000  -0.000
    4        0.000   0.000   0.000   0.000
    5       -0.000   0.000  -0.000  -0.000
    6       -0.000   0.000  -0.000  -0.000
    7        0.000   0.000  -0.000   0.000
    8       -0.000   0.000   0.000   0.000
    9        0.000   0.000  -0.000  -0.000
   10       -0.000  -0.000  -0.000  -0.000
   11        0.000   0.000  -0.000  -0.000
   12        0.000  -0.000   0.000   0.000
   13        0.000   0.000  -0.000  -0.000
   14        0.000   0.000   0.000   0.000
   15        0.000   0.000  -0.000   0.000
   16       -0.000  -0.000   0.000   0.000
   17        0.000  -0.000  -0.000  -0.000
   18       -0.000  -0.000  -0.000  -0.000
   19       -0.000   0.000  -0.000  -0.000
   20        0.000   0.000   0.000   0.000
   21       -0.000   0.000   0.000   0.000
   22        0.000  -0.000  -0.000  -0.000
   23       -0.000  -0.000   0.000   0.000
   24       -0.000   0.000  -0.000  -0.000
   25        0.000   0.000   0.000   0.000
   26       -0.000   0.000  -0.000  -0.000
   27        0.000   0.000   0.000   0.000
   28       -0.000   0.000   0.000   0.000
   29       -0.000  -0.000   0.000  -0.000
   30       -0.000  -0.000   0.000  -0.000
   31       -0.000  -0.000   0.000  -0.000
   32        0.000   0.000   0.000   0.000
   33        0.000  -0.000   0.000  -0.000
   34       -0.000  -0.000   0.000  -0.000
   35        0.000   0.000   0.000   0.000
   36       -0.000  -0.000   0.000  -0.000
   37       -0.000   0.000   0.000   0.000
   38       -0.000  -0.000   0.000  -0.000
   39        0.000   0.000   0.000   0.000
   40       -0.000  -0.000   0.000  -0.000
   41        0.000  -0.000   0.000  -0.000
   42        0.000   0.000   0.000   0.000
   43        0.000   0.000   0.000   0.000
   44        0.000  -0.000   0.000  -0.000
   45       -0.000  -0.000   0.000  -0.000
   46       -0.000  -0.000   0.000  -0.000
   47        0.000  -0.000   0.000  -0.000
   48        0.000  -0.000   0.000  -0.000
   49        0.000   0.000   0.000   0.000
   50        0.000   0.000   0.000   0.000
   51       -0.000  -0.000   0.000  -0.000
   52        0.000   0.000   0.000   0.000
   53       -0.000  -0.000   0.000  -0.000
   54       -0.000  -0.000   0.000  -0.000
   55        0.000   0.000   0.000   0.000
   56       -0.000  -0.000   0.000  -0.000
   57       -0.000  -0.000   0.000  -0.000
   58        0.000  -0.000   0.000  -0.000
   59        0.000   0.000   0.000   0.000
   60        0.000   0.000   0.000   0.000
   61       -0.000  -0.000   0.000  -0.000
   62       -0.000  -0.000   0.000  -0.000
   63        0.000   0.000   0.000   0.000
   64       -0.000  -0.000   0.000  -0.000
   65       -0.000  -0.000   0.000  -0.000
   66        0.000   0.000   0.000   0.000
   67       -0.000   0.000   0.000   0.000
   68        0.000  -0.000   0.000  -0.000
   69       -0.000  -0.000   0.000  -0.000
   70       -0.000  -0.000   0.000  -0.000
   71       -0.000  -0.000   0.000  -0.000
   72        0.000   0.000   0.000   0.000
   73        0.000   0.000   0.000   0.000
   74       -0.000   0.000   0.000   0.000
   75        0.000  -0.000   0.000   0.000
   76       -0.000   0.000   0.000  -0.000
   77       -0.000  -0.000   0.000  -0.000
   78        0.000  -0.000   0.000  -0.000
   79        0.000   0.000   0.000   0.000
   80       -0.000  -0.000   0.000  -0.000
   81        0.000  -0.000   0.000  -0.000
   82        0.000   0.000   0.000   0.000
   83       -0.000  -0.000   0.000  -0.000
   84        0.000   0.000   0.000   0.000
   85       -0.000  -0.000   0.000  -0.000
   86        0.000  -0.000   0.000  -0.000
   87        0.000   0.000   0.000   0.000
   88        0.000   0.000   0.000   0.000
   89       -0.000  -0.000   0.000  -0.000
   90        0.000   0.000   0.000   0.000
   91        0.000  -0.000   0.000  -0.000
   92       -0.000   0.000   0.000   0.000
   93       -0.000   0.000   0.000   0.000
--------------------------------------------------
tot          0.000  -0.000  -0.000  -0.000
 

 total amount of memory used by VASP MPI-rank0   321868. kBytes
=======================================================================

   base      :      30000. kBytes
   nonl-proj :     136648. kBytes
   fftplans  :      24917. kBytes
   grid      :      75254. kBytes
   one-center:       2892. kBytes
   wavefun   :      52157. kBytes
 
  
  
 General timing and accounting informations for this job:
 ========================================================
  
                  Total CPU time used (sec):    25656.969
                            User time (sec):    25550.230
                          System time (sec):      106.739
                         Elapsed time (sec):    25833.252
  
                   Maximum memory used (kb):      709088.
                   Average memory used (kb):          N/A
  
                          Minor page faults:       809000
                          Major page faults:         2116
                 Voluntary context switches:         8590
