<?xml version="1.0" encoding="ISO-8859-1"?>
<modeling>
 <generator>
  <i name="program" type="string">vasp </i>
  <i name="version" type="string">6.3.2  </i>
  <i name="subversion" type="string">27Jun22 (build Aug 05 2024 15:42:26) complex                          parallel </i>
  <i name="platform" type="string">LinuxIFC </i>
  <i name="date" type="string">2025 06 04 </i>
  <i name="time" type="string">20:33:56 </i>
 </generator>
 <incar>
  <i type="string" name="PREC">Accurate</i>
  <i type="string" name="ALGO">Fast</i>
  <i type="logical" name="ADDGRID"> T  </i>
  <i type="int" name="ISPIN">     2</i>
  <i type="int" name="NELM">   100</i>
  <i type="int" name="NELMIN">     3</i>
  <i type="int" name="IBRION">     1</i>
  <i name="EDIFF">      0.00000100</i>
  <i name="EDIFFG">     -0.05000000</i>
  <i type="int" name="NSW">   450</i>
  <i type="int" name="ISIF">     2</i>
  <i type="int" name="ISYM">     0</i>
  <i name="ENCUT">    520.00000000</i>
  <i name="POTIM">      0.20000000</i>
  <v name="MAGMOM">      0.60000000      0.60000000      0.60000000      0.60000000      0.60000000      0.60000000      0.60000000      0.60000000      0.60000000      0.60000000      0.60000000      0.60000000      0.60000000      0.60000000      0.60000000      0.60000000      0.60000000      0.60000000      0.60000000      0.60000000
      0.60000000      0.60000000      0.60000000      0.60000000      0.60000000      0.60000000      0.60000000      0.60000000      0.60000000      0.60000000      0.60000000      0.60000000      0.60000000      0.60000000      0.60000000      0.60000000      0.60000000      0.60000000      0.60000000      0.60000000
      0.60000000      0.60000000      0.60000000      0.60000000      0.60000000      0.60000000      0.60000000      0.60000000      0.60000000      0.60000000      0.60000000      0.60000000      0.60000000      0.60000000      0.60000000      0.60000000      0.60000000      0.60000000      0.60000000      0.60000000
      0.60000000      0.60000000      0.60000000      0.60000000      0.60000000      0.60000000      0.60000000      0.60000000      0.60000000      0.60000000      0.60000000      0.60000000      0.60000000      0.60000000      0.60000000      0.60000000      0.60000000      0.60000000      0.60000000      0.60000000
      0.60000000      0.60000000      0.60000000      0.60000000      0.60000000      0.60000000      0.60000000      0.60000000      0.60000000      0.60000000      0.60000000      0.60000000      0.60000000</v>
  <i type="logical" name="LREAL"> F  </i>
  <i type="int" name="ISMEAR">     0</i>
  <i name="SIGMA">      0.05000000</i>
  <i type="int" name="LMAXMIX">     4</i>
  <i type="logical" name="LWAVE"> F  </i>
  <i type="int" name="LORBIT">    11</i>
  <i type="logical" name="LASPH"> T  </i>
  <i type="logical" name="LDAU"> T  </i>
  <i type="int" name="LDAUTYPE">     2</i>
  <v type="int" name="LDAUL">     0     0     2     0</v>
  <v name="LDAUU">      0.00000000      0.00000000      4.38000000      0.00000000</v>
  <v name="LDAUJ">      0.00000000      0.00000000      0.00000000      0.00000000</v>
  <i type="int" name="LDAUPRINT">     1</i>
  <i name="SPRING">     -5.00000000</i>
 </incar>
 <primitive_cell>
  <structure name="primitive_cell" >
   <crystal>
    <varray name="basis" >
     <v>      22.78514290       0.00000000       0.00000000 </v>
     <v>       0.00000000       3.87685037       0.00000000 </v>
     <v>      -9.97305163       0.00000241      15.12824818 </v>
    </varray>
    <i name="volume">   1336.34759474 </i>
    <varray name="rec_basis" >
     <v>       0.04388825       0.00000000       0.02893261 </v>
     <v>       0.00000000       0.25794135      -0.00000004 </v>
     <v>       0.00000000       0.00000000       0.06610151 </v>
    </varray>
   </crystal>
   <varray name="positions" >
    <v>       0.34136807       0.68942326       0.61878297 </v>
    <v>       0.36712963       0.00771292       0.04580107 </v>
    <v>       0.63447492       0.00802780       0.95480310 </v>
    <v>       0.86584381       0.50791998       0.04541474 </v>
    <v>       0.13138731       0.50933217       0.95500580 </v>
    <v>       0.24880712       0.00354760       0.13716346 </v>
    <v>       0.75241063       0.00315506       0.86177669 </v>
    <v>       0.74808139       0.50318189       0.13807756 </v>
    <v>       0.24961851       0.50343819       0.86460711 </v>
    <v>       0.12912504       0.99703710       0.22919056 </v>
    <v>       0.86894322       0.99867032       0.76707493 </v>
    <v>       0.63141126       0.49860569       0.23273391 </v>
    <v>       0.37062760       0.49577538       0.77422802 </v>
    <v>       0.41897617       0.96664914       0.37963701 </v>
    <v>       0.58414753       0.96713855       0.61764811 </v>
    <v>       0.91770195       0.46697409       0.38164759 </v>
    <v>       0.08212095       0.46672110       0.62036474 </v>
    <v>       0.29575184       0.00331961       0.46599340 </v>
    <v>       0.70234036       0.00353307       0.52601296 </v>
    <v>       0.79850053       0.50365100       0.47272950 </v>
    <v>       0.19924564       0.50302372       0.52539995 </v>
    <v>       0.46775049       0.00142266       0.71466775 </v>
    <v>       0.53662189       0.00185982       0.28688496 </v>
    <v>       0.96339113       0.50165384       0.71212390 </v>
    <v>       0.03416525       0.50128541       0.28561838 </v>
    <v>       0.99918298       0.25215381       0.99992537 </v>
    <v>       0.50062309       0.75299268       0.00060606 </v>
    <v>       0.00047853       0.49105266       0.50043247 </v>
    <v>       0.50057555       0.99101434       0.49942517 </v>
    <v>       0.14852664       0.00446727       0.99121541 </v>
    <v>       0.85016568       0.00406102       0.00899488 </v>
    <v>       0.64920566       0.50435351       0.99058407 </v>
    <v>       0.35081795       0.50402664       0.00907923 </v>
    <v>       0.30321387       0.00295592       0.08141064 </v>
    <v>       0.69632643       0.00379201       0.91770357 </v>
    <v>       0.80303137       0.50336103       0.08166164 </v>
    <v>       0.19638338       0.50208184       0.92003527 </v>
    <v>       0.03353420       0.99892856       0.09861390 </v>
    <v>       0.96562227       0.00022384       0.90214321 </v>
    <v>       0.53439033       0.50165228       0.09846174 </v>
    <v>       0.46628588       0.49990583       0.90119096 </v>
    <v>       0.44967496       0.00398847       0.15559900 </v>
    <v>       0.55010007       0.00325266       0.84396150 </v>
    <v>       0.94937296       0.50349201       0.15578371 </v>
    <v>       0.05006986       0.50509800       0.84450863 </v>
    <v>       0.17969058       0.00171274       0.17738244 </v>
    <v>       0.82019468       0.00319368       0.82275192 </v>
    <v>       0.67989408       0.50299691       0.17705250 </v>
    <v>       0.31866738       0.50012036       0.82292162 </v>
    <v>       0.04908143       0.00116150       0.27050785 </v>
    <v>       0.95040670       0.00184954       0.73013303 </v>
    <v>       0.54981556       0.50177862       0.26958050 </v>
    <v>       0.45008438       0.50130349       0.72679720 </v>
    <v>       0.32544325       0.99952586       0.24967276 </v>
    <v>       0.67480556       0.99930647       0.74997900 </v>
    <v>       0.82544840       0.49919780       0.24987621 </v>
    <v>       0.17393700       0.49985983       0.75130230 </v>
    <v>       0.47636106       0.99864081       0.32602755 </v>
    <v>       0.52386913       0.99947435       0.67179185 </v>
    <v>       0.97637365       0.49930811       0.32714081 </v>
    <v>       0.02393375       0.49823029       0.67352561 </v>
    <v>       0.20638755       0.00180441       0.34856019 </v>
    <v>       0.79286262       0.00194115       0.65105603 </v>
    <v>       0.70755988       0.50218403       0.34892323 </v>
    <v>       0.29710498       0.50185579       0.65197392 </v>
    <v>       0.35323154       0.00060590       0.42485061 </v>
    <v>       0.64811999       0.99931612       0.57418665 </v>
    <v>       0.85289103       0.50022296       0.42556813 </v>
    <v>       0.14870137       0.50007667       0.57665749 </v>
    <v>       0.22243846       0.00264440       0.52156993 </v>
    <v>       0.77877247       0.00308550       0.48109482 </v>
    <v>       0.72192245       0.50294619       0.51847035 </v>
    <v>       0.28052468       0.50281210       0.48178952 </v>
    <v>       0.37648426       0.00226563       0.59677909 </v>
    <v>       0.62186157       0.00265108       0.40382338 </v>
    <v>       0.87837972       0.50278557       0.59593107 </v>
    <v>       0.12206397       0.50227070       0.40451388 </v>
    <v>       0.09104139       0.99253324       0.63101975 </v>
    <v>       0.91007463       0.99285702       0.36893246 </v>
    <v>       0.59010464       0.49274880       0.63105292 </v>
    <v>       0.40970559       0.49247910       0.36893227 </v>
    <v>       0.39334036       0.99993991       0.76915605 </v>
    <v>       0.60586439       0.00120746       0.23174440 </v>
    <v>       0.89450166       0.50105281       0.76822911 </v>
    <v>       0.10576776       0.50017564       0.23176801 </v>
    <v>       0.27533197       0.00304409       0.89695931 </v>
    <v>       0.72401871       0.00365139       0.10273693 </v>
    <v>       0.77549975       0.50363732       0.89667555 </v>
    <v>       0.22421909       0.50359425       0.10401708 </v>
    <v>       0.42920631       0.00427824       0.98719293 </v>
    <v>       0.57140416       0.00450718       0.01317474 </v>
    <v>       0.92796672       0.50288017       0.98675868 </v>
    <v>       0.07086574       0.50399614       0.01348359 </v>
   </varray>
  </structure>
  <varray name="primitive_index" >
   <v type="int" >        1 </v>
   <v type="int" >        2 </v>
   <v type="int" >        3 </v>
   <v type="int" >        4 </v>
   <v type="int" >        5 </v>
   <v type="int" >        6 </v>
   <v type="int" >        7 </v>
   <v type="int" >        8 </v>
   <v type="int" >        9 </v>
   <v type="int" >       10 </v>
   <v type="int" >       11 </v>
   <v type="int" >       12 </v>
   <v type="int" >       13 </v>
   <v type="int" >       14 </v>
   <v type="int" >       15 </v>
   <v type="int" >       16 </v>
   <v type="int" >       17 </v>
   <v type="int" >       18 </v>
   <v type="int" >       19 </v>
   <v type="int" >       20 </v>
   <v type="int" >       21 </v>
   <v type="int" >       22 </v>
   <v type="int" >       23 </v>
   <v type="int" >       24 </v>
   <v type="int" >       25 </v>
   <v type="int" >       26 </v>
   <v type="int" >       27 </v>
   <v type="int" >       28 </v>
   <v type="int" >       29 </v>
   <v type="int" >       30 </v>
   <v type="int" >       31 </v>
   <v type="int" >       32 </v>
   <v type="int" >       33 </v>
   <v type="int" >       34 </v>
   <v type="int" >       35 </v>
   <v type="int" >       36 </v>
   <v type="int" >       37 </v>
   <v type="int" >       38 </v>
   <v type="int" >       39 </v>
   <v type="int" >       40 </v>
   <v type="int" >       41 </v>
   <v type="int" >       42 </v>
   <v type="int" >       43 </v>
   <v type="int" >       44 </v>
   <v type="int" >       45 </v>
   <v type="int" >       46 </v>
   <v type="int" >       47 </v>
   <v type="int" >       48 </v>
   <v type="int" >       49 </v>
   <v type="int" >       50 </v>
   <v type="int" >       51 </v>
   <v type="int" >       52 </v>
   <v type="int" >       53 </v>
   <v type="int" >       54 </v>
   <v type="int" >       55 </v>
   <v type="int" >       56 </v>
   <v type="int" >       57 </v>
   <v type="int" >       58 </v>
   <v type="int" >       59 </v>
   <v type="int" >       60 </v>
   <v type="int" >       61 </v>
   <v type="int" >       62 </v>
   <v type="int" >       63 </v>
   <v type="int" >       64 </v>
   <v type="int" >       65 </v>
   <v type="int" >       66 </v>
   <v type="int" >       67 </v>
   <v type="int" >       68 </v>
   <v type="int" >       69 </v>
   <v type="int" >       70 </v>
   <v type="int" >       71 </v>
   <v type="int" >       72 </v>
   <v type="int" >       73 </v>
   <v type="int" >       74 </v>
   <v type="int" >       75 </v>
   <v type="int" >       76 </v>
   <v type="int" >       77 </v>
   <v type="int" >       78 </v>
   <v type="int" >       79 </v>
   <v type="int" >       80 </v>
   <v type="int" >       81 </v>
   <v type="int" >       82 </v>
   <v type="int" >       83 </v>
   <v type="int" >       84 </v>
   <v type="int" >       85 </v>
   <v type="int" >       86 </v>
   <v type="int" >       87 </v>
   <v type="int" >       88 </v>
   <v type="int" >       89 </v>
   <v type="int" >       90 </v>
   <v type="int" >       91 </v>
   <v type="int" >       92 </v>
   <v type="int" >       93 </v>
  </varray>
 </primitive_cell>
 <kpoints>
  <generation param="Gamma">
   <v type="int" name="divisions">       1        6        1 </v>
   <v name="usershift">      0.00000000       0.00000000       0.00000000 </v>
   <v name="genvec1">      1.00000000       0.00000000      -0.00000000 </v>
   <v name="genvec2">      0.00000000       0.16666667       0.00000000 </v>
   <v name="genvec3">      0.00000000       0.00000000       1.00000000 </v>
   <v name="shift">      0.00000000       0.00000000       0.00000000 </v>
  </generation>
  <varray name="kpointlist" >
   <v>       0.00000000       0.00000000       0.00000000 </v>
   <v>       0.00000000       0.16666667       0.00000000 </v>
   <v>       0.00000000       0.33333333       0.00000000 </v>
   <v>       0.00000000       0.50000000       0.00000000 </v>
  </varray>
  <varray name="weights" >
   <v>       0.16666667 </v>
   <v>       0.33333333 </v>
   <v>       0.33333333 </v>
   <v>       0.16666667 </v>
  </varray>
 </kpoints>
 <parameters>
  <separator name="general" >
   <i type="string" name="SYSTEM">unknown system</i>
   <i type="logical" name="LCOMPAT"> F  </i>
  </separator>
  <separator name="electronic" >
   <i type="string" name="PREC">accura</i>
   <i name="ENMAX">    520.00000000</i>
   <i name="ENAUG">    605.39200000</i>
   <i name="EDIFF">      0.00000100</i>
   <i type="int" name="IALGO">    68</i>
   <i type="int" name="IWAVPR">    11</i>
   <i type="int" name="NBANDS">   462</i>
   <i type="int" name="NBANDSLOW">    -1</i>
   <i type="int" name="NBANDSHIGH">    -1</i>
   <i name="NELECT">    687.00000000</i>
   <i type="int" name="TURBO">     0</i>
   <i type="int" name="IRESTART">     0</i>
   <i type="int" name="NREBOOT">     0</i>
   <i type="int" name="NMIN">     0</i>
   <i name="EREF">      0.00000000</i>
   <separator name="electronic smearing" >
    <i type="int" name="ISMEAR">     0</i>
    <i name="SIGMA">      0.05000000</i>
    <i name="KSPACING">      0.50000000</i>
    <i type="logical" name="KGAMMA"> T  </i>
    <i type="logical" name="KBLOWUP"> T  </i>
   </separator>
   <separator name="electronic projectors" >
    <i type="logical" name="LREAL"> F  </i>
    <v name="ROPT">      0.00000000      0.00000000      0.00000000      0.00000000</v>
    <i type="int" name="LMAXPAW">  -100</i>
    <i type="int" name="LMAXMIX">     4</i>
    <i type="logical" name="NLSPLINE"> F  </i>
   </separator>
   <separator name="electronic startup" >
    <i type="int" name="ISTART">     0</i>
    <i type="int" name="ICHARG">     2</i>
    <i type="int" name="INIWAV">     1</i>
   </separator>
   <separator name="electronic spin" >
    <i type="int" name="ISPIN">     2</i>
    <i type="logical" name="LNONCOLLINEAR"> F  </i>
    <v name="MAGMOM">      0.60000000      0.60000000      0.60000000      0.60000000      0.60000000      0.60000000      0.60000000      0.60000000      0.60000000      0.60000000      0.60000000      0.60000000      0.60000000      0.60000000      0.60000000      0.60000000      0.60000000      0.60000000      0.60000000      0.60000000
      0.60000000      0.60000000      0.60000000      0.60000000      0.60000000      0.60000000      0.60000000      0.60000000      0.60000000      0.60000000      0.60000000      0.60000000      0.60000000      0.60000000      0.60000000      0.60000000      0.60000000      0.60000000      0.60000000      0.60000000
      0.60000000      0.60000000      0.60000000      0.60000000      0.60000000      0.60000000      0.60000000      0.60000000      0.60000000      0.60000000      0.60000000      0.60000000      0.60000000      0.60000000      0.60000000      0.60000000      0.60000000      0.60000000      0.60000000      0.60000000
      0.60000000      0.60000000      0.60000000      0.60000000      0.60000000      0.60000000      0.60000000      0.60000000      0.60000000      0.60000000      0.60000000      0.60000000      0.60000000      0.60000000      0.60000000      0.60000000      0.60000000      0.60000000      0.60000000      0.60000000
      0.60000000      0.60000000      0.60000000      0.60000000      0.60000000      0.60000000      0.60000000      0.60000000      0.60000000      0.60000000      0.60000000      0.60000000      0.60000000</v>
    <i name="NUPDOWN">     -1.00000000</i>
    <i type="logical" name="LSORBIT"> F  </i>
    <v name="SAXIS">      0.00000000      0.00000000      1.00000000</v>
    <i type="logical" name="LSPIRAL"> F  </i>
    <v name="QSPIRAL">      0.00000000      0.00000000      0.00000000</v>
    <i type="logical" name="LZEROZ"> F  </i>
   </separator>
   <separator name="electronic exchange-correlation" >
    <i type="logical" name="LASPH"> T  </i>
    <i type="logical" name="LMETAGGA"> F  </i>
   </separator>
   <separator name="electronic convergence" >
    <i type="int" name="NELM">   100</i>
    <i type="int" name="NELMDL">    -5</i>
    <i type="int" name="NELMIN">     3</i>
    <i name="ENINI">    520.00000000</i>
    <separator name="electronic convergence detail" >
     <i type="logical" name="LDIAG"> T  </i>
     <i type="logical" name="LSUBROT"> F  </i>
     <i name="WEIMIN">      0.00100000</i>
     <i name="EBREAK">      0.00000000</i>
     <i name="DEPER">      0.30000000</i>
     <i type="int" name="NRMM">     4</i>
     <i name="TIME">      0.40000000</i>
    </separator>
   </separator>
   <separator name="electronic mixer" >
    <i name="AMIX">      0.40000000</i>
    <i name="BMIX">      1.00000000</i>
    <i name="AMIN">      0.10000000</i>
    <i name="AMIX_MAG">      1.60000000</i>
    <i name="BMIX_MAG">      1.00000000</i>
    <separator name="electronic mixer details" >
     <i type="int" name="IMIX">     4</i>
     <i type="logical" name="MIXFIRST"> F  </i>
     <i type="int" name="MAXMIX">   -45</i>
     <i name="WC">    100.00000000</i>
     <i type="int" name="INIMIX">     1</i>
     <i type="int" name="MIXPRE">     1</i>
     <i type="int" name="MREMOVE">     5</i>
    </separator>
   </separator>
   <separator name="electronic dipolcorrection" >
    <i type="logical" name="LDIPOL"> F  </i>
    <i type="logical" name="LMONO"> F  </i>
    <i type="int" name="IDIPOL">     0</i>
    <i name="EPSILON">      1.00000000</i>
    <v name="DIPOL">   -100.00000000   -100.00000000   -100.00000000</v>
    <i name="EFIELD">      0.00000000</i>
   </separator>
  </separator>
  <separator name="grids" >
   <i type="int" name="NGX">   180</i>
   <i type="int" name="NGY">    30</i>
   <i type="int" name="NGZ">   140</i>
   <i type="int" name="NGXF">   360</i>
   <i type="int" name="NGYF">    60</i>
   <i type="int" name="NGZF">   280</i>
   <i type="logical" name="ADDGRID"> T  </i>
  </separator>
  <separator name="ionic" >
   <i type="int" name="NSW">   450</i>
   <i type="int" name="IBRION">     1</i>
   <i type="int" name="MDALGO">     0</i>
   <i type="int" name="ISIF">     2</i>
   <i name="PSTRESS">      0.00000000</i>
   <i name="EDIFFG">     -0.05000000</i>
   <i type="int" name="NFREE">     0</i>
   <i name="POTIM">      0.20000000</i>
   <i name="SMASS">     -3.00000000</i>
   <i name="SCALEE">      1.00000000</i>
  </separator>
  <separator name="ionic md" >
   <i name="TEBEG">      0.00010000</i>
   <i name="TEEND">      0.00010000</i>
   <i type="int" name="NBLOCK">     1</i>
   <i type="int" name="KBLOCK">   450</i>
   <i type="int" name="NPACO">   256</i>
   <i name="APACO">     10.00000000</i>
  </separator>
  <separator name="symmetry" >
   <i type="int" name="ISYM">     0</i>
   <i name="SYMPREC">      0.00001000</i>
  </separator>
  <separator name="dos" >
   <i type="int" name="LORBIT">    11</i>
   <v name="RWIGS">     -1.00000000     -1.00000000     -1.00000000     -1.00000000</v>
   <i type="int" name="NEDOS">   301</i>
   <i name="EMIN">     10.00000000</i>
   <i name="EMAX">    -10.00000000</i>
   <i name="EFERMI">      0.00000000</i>
  </separator>
  <separator name="writing" >
   <i type="int" name="NWRITE">     2</i>
   <i type="logical" name="LWAVE"> F  </i>
   <i type="logical" name="LDOWNSAMPLE"> F  </i>
   <i type="logical" name="LCHARG"> T  </i>
   <i type="logical" name="LPARD"> F  </i>
   <i type="logical" name="LVTOT"> F  </i>
   <i type="logical" name="LVHAR"> F  </i>
   <i type="logical" name="LELF"> F  </i>
   <i type="logical" name="LOPTICS"> F  </i>
   <v name="STM">      0.00000000      0.00000000      0.00000000      0.00000000      0.00000000      0.00000000      0.00000000</v>
  </separator>
  <separator name="performance" >
   <i type="int" name="NPAR">    42</i>
   <i type="int" name="NSIM">     4</i>
   <i type="int" name="NBLK">    -1</i>
   <i type="logical" name="LPLANE"> T  </i>
   <i type="logical" name="LSCALAPACK"> T  </i>
   <i type="logical" name="LSCAAWARE"> F  </i>
   <i type="logical" name="LSCALU"> F  </i>
   <i type="logical" name="LASYNC"> F  </i>
   <i type="logical" name="LORBITALREAL"> F  </i>
  </separator>
  <separator name="miscellaneous" >
   <i type="int" name="IDIOT">     3</i>
   <i type="int" name="PHON_NSTRUCT">    -1</i>
   <i type="logical" name="LMUSIC"> F  </i>
   <v name="POMASS">      7.01000000     92.00000000     95.94000000     16.00000000</v>
   <v name="DARWINR">      0.00000000      0.00000000      0.00000000      0.00000000</v>
   <v name="DARWINV">      1.00000000      1.00000000      1.00000000      1.00000000</v>
   <i type="logical" name="LCORR"> T  </i>
  </separator>
  <i type="logical" name="GGA_COMPAT"> T  </i>
  <i type="logical" name="LBERRY"> F  </i>
  <i type="int" name="ICORELEVEL">     0</i>
  <i type="logical" name="LDAU"> T  </i>
  <v type="int" name="LDAUTYPE">     2</v>
  <v type="int" name="LDAUL">     0</v>
  <v name="LDAUU">      0.00000000</v>
  <v name="LDAUJ">      0.00000000</v>
  <i type="int" name="LDAUPRINT">     1</i>
  <i type="int" name="I_CONSTRAINED_M">     0</i>
  <separator name="electronic exchange-correlation" >
   <i type="string" name="GGA">--</i>
   <i type="int" name="VOSKOWN">     0</i>
   <i type="logical" name="LHFCALC"> F  </i>
   <i type="string" name="PRECFOCK"></i>
   <i type="logical" name="LSYMGRAD"> F  </i>
   <i type="logical" name="LHFONE"> F  </i>
   <i type="logical" name="LRHFCALC"> F  </i>
   <i type="logical" name="LTHOMAS"> F  </i>
   <i type="logical" name="LMODELHF"> F  </i>
   <i type="logical" name="LFOCKACE"> F  </i>
   <i name="ENCUT4O">     -1.00000000</i>
   <i type="int" name="EXXOEP">     0</i>
   <i type="int" name="FOURORBIT">     0</i>
   <i name="AEXX">      0.00000000</i>
   <i name="HFALPHA">      0.00000000</i>
   <i name="MCALPHA">      0.00000000</i>
   <i name="ALDAX">      1.00000000</i>
   <i name="AGGAX">      1.00000000</i>
   <i name="ALDAC">      1.00000000</i>
   <i name="AGGAC">      1.00000000</i>
   <i type="int" name="NKREDX">     1</i>
   <i type="int" name="NKREDY">     1</i>
   <i type="int" name="NKREDZ">     1</i>
   <i type="logical" name="SHIFTRED"> F  </i>
   <i type="logical" name="ODDONLY"> F  </i>
   <i type="logical" name="EVENONLY"> F  </i>
   <i type="int" name="LMAXFOCK">     0</i>
   <i type="int" name="NMAXFOCKAE">     0</i>
   <i type="logical" name="LFOCKAEDFT"> F  </i>
   <i name="HFSCREEN">      0.00000000</i>
   <i name="HFSCREENC">      0.00000000</i>
   <i type="int" name="NBANDSGWLOW">     0</i>
  </separator>
  <separator name="vdW DFT" >
   <i type="logical" name="LUSE_VDW"> F  </i>
   <i name="Zab_VDW">     -0.84910000</i>
   <i name="PARAM1">      0.12340000</i>
   <i name="PARAM2">      1.00000000</i>
   <i name="PARAM3">      0.00000000</i>
  </separator>
  <separator name="model GW" >
   <i type="int" name="MODEL_GW">     0</i>
   <i name="MODEL_EPS0">      8.62159739</i>
   <i name="MODEL_ALPHA">      1.00000000</i>
  </separator>
  <separator name="linear response parameters" >
   <i type="logical" name="LEPSILON"> F  </i>
   <i type="logical" name="LRPA"> F  </i>
   <i type="logical" name="LNABLA"> F  </i>
   <i type="logical" name="LVEL"> F  </i>
   <i name="CSHIFT">      0.10000000</i>
   <i name="OMEGAMAX">     -1.00000000</i>
   <i name="DEG_THRESHOLD">      0.00200000</i>
   <i name="RTIME">     -0.10000000</i>
   <i name="WPLASMAI">      0.00000000</i>
   <v name="DFIELD">      0.00000000      0.00000000      0.00000000</v>
   <v name="WPLASMA">      0.00000000      0.00000000      0.00000000      0.00000000      0.00000000      0.00000000      0.00000000      0.00000000      0.00000000</v>
  </separator>
  <separator name="orbital magnetization" >
   <i type="logical" name="NUCIND"> F  </i>
   <v name="MAGPOS">      0.00000000      0.00000000      0.00000000</v>
   <i type="logical" name="LNICSALL"> T  </i>
   <i type="logical" name="ORBITALMAG"> F  </i>
   <i type="logical" name="LMAGBLOCH"> F  </i>
   <i type="logical" name="LCHIMAG"> F  </i>
   <i type="logical" name="LGAUGE"> T  </i>
   <i type="int" name="MAGATOM">     0</i>
   <v name="MAGDIPOL">      0.00000000      0.00000000      0.00000000</v>
   <v name="AVECCONST">      0.00000000      0.00000000      0.00000000</v>
  </separator>
  <separator name="response functions" >
   <i type="logical" name="LFINITE_TEMPERATURE"> F  </i>
   <i type="logical" name="LADDER"> F  </i>
   <i type="logical" name="LRPAFORCE"> F  </i>
   <i type="logical" name="LFXC"> F  </i>
   <i type="logical" name="LHARTREE"> T  </i>
   <i type="int" name="IBSE">     0</i>
   <v type="int" name="KPOINT">    -1     0     0     0</v>
   <i type="logical" name="LTCTC"> F  </i>
   <i type="logical" name="LTCTE"> F  </i>
   <i type="logical" name="LTETE"> F  </i>
   <i type="logical" name="LTRIPLET"> F  </i>
   <i type="logical" name="LFXCEPS"> F  </i>
   <i type="logical" name="LFXHEG"> F  </i>
   <i type="int" name="NATURALO">     2</i>
   <i type="logical" name="LHOLEGF"> F  </i>
   <i type="logical" name="L2ORDER"> F  </i>
   <i type="logical" name="LDMP1"> F  </i>
   <i type="logical" name="LMP2LT"> F  </i>
   <i type="logical" name="LSMP2LT"> F  </i>
   <i type="logical" name="LGWLF"> F  </i>
   <i name="ENCUTGW">     -2.00000000</i>
   <i name="ENCUTGWSOFT">     -2.00000000</i>
   <i name="ENCUTLF">     -1.00000000</i>
   <i type="logical" name="LESF_SPLINES"> F  </i>
   <i type="int" name="LMAXMP2">    -1</i>
   <i name="SCISSOR">      0.00000000</i>
   <i type="int" name="NOMEGA">     0</i>
   <i type="int" name="NOMEGAR">     0</i>
   <i type="int" name="NBANDSGW">    -1</i>
   <i type="int" name="NBANDSO">    -1</i>
   <i type="int" name="NBANDSV">    -1</i>
   <i type="int" name="NELMGW">     1</i>
   <i type="int" name="NELMHF">     1</i>
   <i type="int" name="DIM">     3</i>
   <i type="int" name="IESPILON">     4</i>
   <i type="int" name="ANTIRES">     0</i>
   <i name="OMEGAMAX">    -30.00000000</i>
   <i name="OMEGAMIN">    -30.00000000</i>
   <i name="OMEGATL">   -200.00000000</i>
   <i type="int" name="OMEGAGRID">     0</i>
   <i name="CSHIFT">     -0.10000000</i>
   <i type="logical" name="LSELFENERGY"> F  </i>
   <i type="logical" name="LSPECTRAL"> F  </i>
   <i type="logical" name="LSPECTRALGW"> F  </i>
   <i type="logical" name="LSINGLES"> F  </i>
   <i type="logical" name="LFERMIGW"> F  </i>
   <i type="logical" name="ODDONLYGW"> F  </i>
   <i type="logical" name="EVENONLYGW"> F  </i>
   <i type="int" name="NKREDLFX">     1</i>
   <i type="int" name="NKREDLFY">     1</i>
   <i type="int" name="NKREDLFZ">     1</i>
   <i type="int" name="MAXMEM">  2800</i>
   <i type="int" name="TELESCOPE">     0</i>
   <i type="int" name="NTAUPAR">    -1</i>
   <i type="int" name="NOMEGAPAR">    -1</i>
   <i name="DAMP_NEWTON">      0.80000001</i>
   <i name="LAMBDA">      1.00000000</i>
  </separator>
  <separator name="External order field" >
   <i name="OFIELD_KAPPA">      0.00000000</i>
   <v name="OFIELD_K">      0.00000000      0.00000000      0.00000000</v>
   <i name="OFIELD_Q6_NEAR">      0.00000000</i>
   <i name="OFIELD_Q6_FAR">      0.00000000</i>
   <i name="OFIELD_A">      0.00000000</i>
  </separator>
  <separator name="optional k-points parameters" >
   <i type="int" name="KPOINTS_OPT_MODE">     1</i>
   <i type="logical" name="LKPOINTS_OPT"> F  </i>
  </separator>
 </parameters>
 <atominfo>
  <atoms>      93 </atoms>
  <types>       4 </types>
  <array name="atoms" >
   <dimension dim="1">ion</dimension>
   <field type="string">element</field>
   <field type="int">atomtype</field>
   <set>
    <rc><c>Li</c><c>   1</c></rc>
    <rc><c>Nb</c><c>   2</c></rc>
    <rc><c>Nb</c><c>   2</c></rc>
    <rc><c>Nb</c><c>   2</c></rc>
    <rc><c>Nb</c><c>   2</c></rc>
    <rc><c>Nb</c><c>   2</c></rc>
    <rc><c>Nb</c><c>   2</c></rc>
    <rc><c>Nb</c><c>   2</c></rc>
    <rc><c>Nb</c><c>   2</c></rc>
    <rc><c>Nb</c><c>   2</c></rc>
    <rc><c>Nb</c><c>   2</c></rc>
    <rc><c>Nb</c><c>   2</c></rc>
    <rc><c>Nb</c><c>   2</c></rc>
    <rc><c>Nb</c><c>   2</c></rc>
    <rc><c>Nb</c><c>   2</c></rc>
    <rc><c>Nb</c><c>   2</c></rc>
    <rc><c>Nb</c><c>   2</c></rc>
    <rc><c>Nb</c><c>   2</c></rc>
    <rc><c>Nb</c><c>   2</c></rc>
    <rc><c>Nb</c><c>   2</c></rc>
    <rc><c>Nb</c><c>   2</c></rc>
    <rc><c>Nb</c><c>   2</c></rc>
    <rc><c>Nb</c><c>   2</c></rc>
    <rc><c>Nb</c><c>   2</c></rc>
    <rc><c>Nb</c><c>   2</c></rc>
    <rc><c>Mo</c><c>   3</c></rc>
    <rc><c>Mo</c><c>   3</c></rc>
    <rc><c>O </c><c>   4</c></rc>
    <rc><c>O </c><c>   4</c></rc>
    <rc><c>O </c><c>   4</c></rc>
    <rc><c>O </c><c>   4</c></rc>
    <rc><c>O </c><c>   4</c></rc>
    <rc><c>O </c><c>   4</c></rc>
    <rc><c>O </c><c>   4</c></rc>
    <rc><c>O </c><c>   4</c></rc>
    <rc><c>O </c><c>   4</c></rc>
    <rc><c>O </c><c>   4</c></rc>
    <rc><c>O </c><c>   4</c></rc>
    <rc><c>O </c><c>   4</c></rc>
    <rc><c>O </c><c>   4</c></rc>
    <rc><c>O </c><c>   4</c></rc>
    <rc><c>O </c><c>   4</c></rc>
    <rc><c>O </c><c>   4</c></rc>
    <rc><c>O </c><c>   4</c></rc>
    <rc><c>O </c><c>   4</c></rc>
    <rc><c>O </c><c>   4</c></rc>
    <rc><c>O </c><c>   4</c></rc>
    <rc><c>O </c><c>   4</c></rc>
    <rc><c>O </c><c>   4</c></rc>
    <rc><c>O </c><c>   4</c></rc>
    <rc><c>O </c><c>   4</c></rc>
    <rc><c>O </c><c>   4</c></rc>
    <rc><c>O </c><c>   4</c></rc>
    <rc><c>O </c><c>   4</c></rc>
    <rc><c>O </c><c>   4</c></rc>
    <rc><c>O </c><c>   4</c></rc>
    <rc><c>O </c><c>   4</c></rc>
    <rc><c>O </c><c>   4</c></rc>
    <rc><c>O </c><c>   4</c></rc>
    <rc><c>O </c><c>   4</c></rc>
    <rc><c>O </c><c>   4</c></rc>
    <rc><c>O </c><c>   4</c></rc>
    <rc><c>O </c><c>   4</c></rc>
    <rc><c>O </c><c>   4</c></rc>
    <rc><c>O </c><c>   4</c></rc>
    <rc><c>O </c><c>   4</c></rc>
    <rc><c>O </c><c>   4</c></rc>
    <rc><c>O </c><c>   4</c></rc>
    <rc><c>O </c><c>   4</c></rc>
    <rc><c>O </c><c>   4</c></rc>
    <rc><c>O </c><c>   4</c></rc>
    <rc><c>O </c><c>   4</c></rc>
    <rc><c>O </c><c>   4</c></rc>
    <rc><c>O </c><c>   4</c></rc>
    <rc><c>O </c><c>   4</c></rc>
    <rc><c>O </c><c>   4</c></rc>
    <rc><c>O </c><c>   4</c></rc>
    <rc><c>O </c><c>   4</c></rc>
    <rc><c>O </c><c>   4</c></rc>
    <rc><c>O </c><c>   4</c></rc>
    <rc><c>O </c><c>   4</c></rc>
    <rc><c>O </c><c>   4</c></rc>
    <rc><c>O </c><c>   4</c></rc>
    <rc><c>O </c><c>   4</c></rc>
    <rc><c>O </c><c>   4</c></rc>
    <rc><c>O </c><c>   4</c></rc>
    <rc><c>O </c><c>   4</c></rc>
    <rc><c>O </c><c>   4</c></rc>
    <rc><c>O </c><c>   4</c></rc>
    <rc><c>O </c><c>   4</c></rc>
    <rc><c>O </c><c>   4</c></rc>
    <rc><c>O </c><c>   4</c></rc>
    <rc><c>O </c><c>   4</c></rc>
   </set>
  </array>
  <array name="atomtypes" >
   <dimension dim="1">type</dimension>
   <field type="int">atomspertype</field>
   <field type="string">element</field>
   <field>mass</field>
   <field>valence</field>
   <field type="string">pseudopotential</field>
   <set>
    <rc><c>   1</c><c>Li</c><c>      7.01000000</c><c>      3.00000000</c><c> PAW_PBE Li_sv 23Jan2001                </c></rc>
    <rc><c>  24</c><c>Nb</c><c>     92.00000000</c><c>     11.00000000</c><c> PAW_PBE Nb_pv 08Apr2002                </c></rc>
    <rc><c>   2</c><c>Mo</c><c>     95.94000000</c><c>     12.00000000</c><c> PAW_PBE Mo_pv 08Apr2002                </c></rc>
    <rc><c>  66</c><c>O </c><c>     16.00000000</c><c>      6.00000000</c><c> PAW_PBE O 08Apr2002                    </c></rc>
   </set>
  </array>
 </atominfo>
 <structure name="initialpos" >
  <crystal>
   <varray name="basis" >
    <v>      22.78514290       0.00000000       0.00000000 </v>
    <v>       0.00000000       3.87685037       0.00000000 </v>
    <v>      -9.97305163       0.00000241      15.12824818 </v>
   </varray>
   <i name="volume">   1336.34759474 </i>
   <varray name="rec_basis" >
    <v>       0.04388825       0.00000000       0.02893261 </v>
    <v>       0.00000000       0.25794135      -0.00000004 </v>
    <v>       0.00000000       0.00000000       0.06610151 </v>
   </varray>
  </crystal>
  <varray name="positions" >
   <v>       0.34136807       0.68942326       0.61878297 </v>
   <v>       0.36712963       0.00771292       0.04580107 </v>
   <v>       0.63447492       0.00802780       0.95480310 </v>
   <v>       0.86584381       0.50791998       0.04541474 </v>
   <v>       0.13138731       0.50933217       0.95500580 </v>
   <v>       0.24880712       0.00354760       0.13716346 </v>
   <v>       0.75241063       0.00315506       0.86177669 </v>
   <v>       0.74808139       0.50318189       0.13807756 </v>
   <v>       0.24961851       0.50343819       0.86460711 </v>
   <v>       0.12912504       0.99703710       0.22919056 </v>
   <v>       0.86894322       0.99867032       0.76707493 </v>
   <v>       0.63141126       0.49860569       0.23273391 </v>
   <v>       0.37062760       0.49577538       0.77422802 </v>
   <v>       0.41897617       0.96664914       0.37963701 </v>
   <v>       0.58414753       0.96713855       0.61764811 </v>
   <v>       0.91770195       0.46697409       0.38164759 </v>
   <v>       0.08212095       0.46672110       0.62036474 </v>
   <v>       0.29575184       0.00331961       0.46599340 </v>
   <v>       0.70234036       0.00353307       0.52601296 </v>
   <v>       0.79850053       0.50365100       0.47272950 </v>
   <v>       0.19924564       0.50302372       0.52539995 </v>
   <v>       0.46775049       0.00142266       0.71466775 </v>
   <v>       0.53662189       0.00185982       0.28688496 </v>
   <v>       0.96339113       0.50165384       0.71212390 </v>
   <v>       0.03416525       0.50128541       0.28561838 </v>
   <v>       0.99918298       0.25215381       0.99992537 </v>
   <v>       0.50062309       0.75299268       0.00060606 </v>
   <v>       0.00047853       0.49105266       0.50043247 </v>
   <v>       0.50057555       0.99101434       0.49942517 </v>
   <v>       0.14852664       0.00446727       0.99121541 </v>
   <v>       0.85016568       0.00406102       0.00899488 </v>
   <v>       0.64920566       0.50435351       0.99058407 </v>
   <v>       0.35081795       0.50402664       0.00907923 </v>
   <v>       0.30321387       0.00295592       0.08141064 </v>
   <v>       0.69632643       0.00379201       0.91770357 </v>
   <v>       0.80303137       0.50336103       0.08166164 </v>
   <v>       0.19638338       0.50208184       0.92003527 </v>
   <v>       0.03353420       0.99892856       0.09861390 </v>
   <v>       0.96562227       0.00022384       0.90214321 </v>
   <v>       0.53439033       0.50165228       0.09846174 </v>
   <v>       0.46628588       0.49990583       0.90119096 </v>
   <v>       0.44967496       0.00398847       0.15559900 </v>
   <v>       0.55010007       0.00325266       0.84396150 </v>
   <v>       0.94937296       0.50349201       0.15578371 </v>
   <v>       0.05006986       0.50509800       0.84450863 </v>
   <v>       0.17969058       0.00171274       0.17738244 </v>
   <v>       0.82019468       0.00319368       0.82275192 </v>
   <v>       0.67989408       0.50299691       0.17705250 </v>
   <v>       0.31866738       0.50012036       0.82292162 </v>
   <v>       0.04908143       0.00116150       0.27050785 </v>
   <v>       0.95040670       0.00184954       0.73013303 </v>
   <v>       0.54981556       0.50177862       0.26958050 </v>
   <v>       0.45008438       0.50130349       0.72679720 </v>
   <v>       0.32544325       0.99952586       0.24967276 </v>
   <v>       0.67480556       0.99930647       0.74997900 </v>
   <v>       0.82544840       0.49919780       0.24987621 </v>
   <v>       0.17393700       0.49985983       0.75130230 </v>
   <v>       0.47636106       0.99864081       0.32602755 </v>
   <v>       0.52386913       0.99947435       0.67179185 </v>
   <v>       0.97637365       0.49930811       0.32714081 </v>
   <v>       0.02393375       0.49823029       0.67352561 </v>
   <v>       0.20638755       0.00180441       0.34856019 </v>
   <v>       0.79286262       0.00194115       0.65105603 </v>
   <v>       0.70755988       0.50218403       0.34892323 </v>
   <v>       0.29710498       0.50185579       0.65197392 </v>
   <v>       0.35323154       0.00060590       0.42485061 </v>
   <v>       0.64811999       0.99931612       0.57418665 </v>
   <v>       0.85289103       0.50022296       0.42556813 </v>
   <v>       0.14870137       0.50007667       0.57665749 </v>
   <v>       0.22243846       0.00264440       0.52156993 </v>
   <v>       0.77877247       0.00308550       0.48109482 </v>
   <v>       0.72192245       0.50294619       0.51847035 </v>
   <v>       0.28052468       0.50281210       0.48178952 </v>
   <v>       0.37648426       0.00226563       0.59677909 </v>
   <v>       0.62186157       0.00265108       0.40382338 </v>
   <v>       0.87837972       0.50278557       0.59593107 </v>
   <v>       0.12206397       0.50227070       0.40451388 </v>
   <v>       0.09104139       0.99253324       0.63101975 </v>
   <v>       0.91007463       0.99285702       0.36893246 </v>
   <v>       0.59010464       0.49274880       0.63105292 </v>
   <v>       0.40970559       0.49247910       0.36893227 </v>
   <v>       0.39334036       0.99993991       0.76915605 </v>
   <v>       0.60586439       0.00120746       0.23174440 </v>
   <v>       0.89450166       0.50105281       0.76822911 </v>
   <v>       0.10576776       0.50017564       0.23176801 </v>
   <v>       0.27533197       0.00304409       0.89695931 </v>
   <v>       0.72401871       0.00365139       0.10273693 </v>
   <v>       0.77549975       0.50363732       0.89667555 </v>
   <v>       0.22421909       0.50359425       0.10401708 </v>
   <v>       0.42920631       0.00427824       0.98719293 </v>
   <v>       0.57140416       0.00450718       0.01317474 </v>
   <v>       0.92796672       0.50288017       0.98675868 </v>
   <v>       0.07086574       0.50399614       0.01348359 </v>
  </varray>
 </structure>
 <calculation>
  <scstep>
   <time name="dav">   44.55   44.87</time>
   <time name="total">   45.85   46.18</time>
   <energy>
    <i name="alphaZ">   3514.54571391 </i>
    <i name="ewald"> -36990.88819505 </i>
    <i name="hartreedc"> -17984.86901336 </i>
    <i name="XCdc">   2527.00316677 </i>
    <i name="pawpsdc">  35089.64318688 </i>
    <i name="pawaedc"> -34806.48135010 </i>
    <i name="eentropy">     -0.01868509 </i>
    <i name="bandstr">   2054.35246043 </i>
    <i name="atom">  56348.38862387 </i>
    <i name="e_fr_energy">   9751.67590826 </i>
    <i name="e_wo_entrp">   9751.69459336 </i>
    <i name="e_0_energy">   9751.68525081 </i>
   </energy>
  </scstep>
  <scstep>
   <time name="dav">   44.32   44.63</time>
   <time name="total">   44.33   44.63</time>
   <energy>
    <i name="e_fr_energy">    830.75544130 </i>
    <i name="e_wo_entrp">    830.79109444 </i>
    <i name="e_0_energy">    830.77326787 </i>
   </energy>
  </scstep>
  <scstep>
   <time name="dav">   66.22   66.68</time>
   <time name="total">   66.22   66.68</time>
   <energy>
    <i name="e_fr_energy">   -921.20044274 </i>
    <i name="e_wo_entrp">   -921.19168271 </i>
    <i name="e_0_energy">   -921.19606272 </i>
   </energy>
  </scstep>
  <scstep>
   <time name="dav">   63.56   64.01</time>
   <time name="total">   63.56   64.01</time>
   <energy>
    <i name="e_fr_energy">  -1017.11096480 </i>
    <i name="e_wo_entrp">  -1017.09821465 </i>
    <i name="e_0_energy">  -1017.10458972 </i>
   </energy>
  </scstep>
  <scstep>
   <time name="dav">   65.40   65.86</time>
   <time name="total">   67.52   67.99</time>
   <energy>
    <i name="e_fr_energy">  -1018.49881931 </i>
    <i name="e_wo_entrp">  -1018.48569092 </i>
    <i name="e_0_energy">  -1018.49225512 </i>
   </energy>
  </scstep>
  <scstep>
   <time name="diag">    4.99    5.02</time>
   <time name="diis">   45.94   46.26</time>
   <time name="orth">    0.52    0.52</time>
   <time name="total">   54.85   55.23</time>
   <energy>
    <i name="e_fr_energy">   -753.39860796 </i>
    <i name="e_wo_entrp">   -753.38885012 </i>
    <i name="e_0_energy">   -753.39372904 </i>
   </energy>
  </scstep>
  <scstep>
   <time name="diag">    4.91    4.94</time>
   <time name="diis">   41.10   41.38</time>
   <time name="orth">    0.56    0.56</time>
   <time name="total">   50.06   50.42</time>
   <energy>
    <i name="e_fr_energy">   -749.48144431 </i>
    <i name="e_wo_entrp">   -749.47236523 </i>
    <i name="e_0_energy">   -749.47690477 </i>
   </energy>
  </scstep>
  <scstep>
   <time name="diag">    4.96    4.99</time>
   <time name="diis">   42.23   42.53</time>
   <time name="orth">    0.51    0.51</time>
   <time name="total">   51.20   51.54</time>
   <energy>
    <i name="e_fr_energy">   -761.01732975 </i>
    <i name="e_wo_entrp">   -761.00713721 </i>
    <i name="e_0_energy">   -761.01223348 </i>
   </energy>
  </scstep>
  <scstep>
   <time name="diag">    4.94    5.01</time>
   <time name="diis">   39.77   40.04</time>
   <time name="orth">    0.49    0.49</time>
   <time name="total">   48.58   48.94</time>
   <energy>
    <i name="e_fr_energy">   -781.79264424 </i>
    <i name="e_wo_entrp">   -781.78054606 </i>
    <i name="e_0_energy">   -781.78659515 </i>
   </energy>
  </scstep>
  <scstep>
   <time name="diag">    4.85    4.88</time>
   <time name="diis">   40.41   40.68</time>
   <time name="orth">    0.49    0.49</time>
   <time name="total">   49.08   49.41</time>
   <energy>
    <i name="e_fr_energy">   -794.19131622 </i>
    <i name="e_wo_entrp">   -794.17643745 </i>
    <i name="e_0_energy">   -794.18387683 </i>
   </energy>
  </scstep>
  <scstep>
   <time name="diag">    4.83    4.85</time>
   <time name="diis">   41.25   41.53</time>
   <time name="orth">    0.51    0.51</time>
   <time name="total">   49.91   50.24</time>
   <energy>
    <i name="e_fr_energy">   -804.19962959 </i>
    <i name="e_wo_entrp">   -804.18458568 </i>
    <i name="e_0_energy">   -804.19210764 </i>
   </energy>
  </scstep>
  <scstep>
   <time name="diag">    4.87    4.90</time>
   <time name="diis">   42.63   42.92</time>
   <time name="orth">    0.52    0.52</time>
   <time name="total">   51.33   51.67</time>
   <energy>
    <i name="e_fr_energy">   -812.21735428 </i>
    <i name="e_wo_entrp">   -812.20246520 </i>
    <i name="e_0_energy">   -812.20990974 </i>
   </energy>
  </scstep>
  <scstep>
   <time name="diag">    4.85    4.87</time>
   <time name="diis">   41.69   41.98</time>
   <time name="orth">    0.51    0.52</time>
   <time name="total">   50.37   50.71</time>
   <energy>
    <i name="e_fr_energy">   -812.78218540 </i>
    <i name="e_wo_entrp">   -812.76743284 </i>
    <i name="e_0_energy">   -812.77480912 </i>
   </energy>
  </scstep>
  <scstep>
   <time name="diag">    4.83    4.86</time>
   <time name="diis">   42.53   42.82</time>
   <time name="orth">    0.50    0.51</time>
   <time name="total">   51.18   51.53</time>
   <energy>
    <i name="e_fr_energy">   -812.86124852 </i>
    <i name="e_wo_entrp">   -812.84556606 </i>
    <i name="e_0_energy">   -812.85340729 </i>
   </energy>
  </scstep>
  <scstep>
   <time name="diag">    4.84    4.87</time>
   <time name="diis">   43.95   44.25</time>
   <time name="orth">    0.49    0.49</time>
   <time name="total">   52.65   53.00</time>
   <energy>
    <i name="e_fr_energy">   -812.86961548 </i>
    <i name="e_wo_entrp">   -812.85281886 </i>
    <i name="e_0_energy">   -812.86121717 </i>
   </energy>
  </scstep>
  <scstep>
   <time name="diag">    4.85    4.88</time>
   <time name="diis">   44.41   44.71</time>
   <time name="orth">    0.50    0.50</time>
   <time name="total">   53.27   53.62</time>
   <energy>
    <i name="e_fr_energy">   -812.86704989 </i>
    <i name="e_wo_entrp">   -812.84972769 </i>
    <i name="e_0_energy">   -812.85838879 </i>
   </energy>
  </scstep>
  <scstep>
   <time name="diag">    4.95    4.97</time>
   <time name="diis">   47.09   47.41</time>
   <time name="orth">    0.55    0.55</time>
   <time name="total">   56.03   56.40</time>
   <energy>
    <i name="e_fr_energy">   -812.86634826 </i>
    <i name="e_wo_entrp">   -812.84891784 </i>
    <i name="e_0_energy">   -812.85763305 </i>
   </energy>
  </scstep>
  <scstep>
   <time name="diag">    4.93    4.96</time>
   <time name="diis">   43.57   43.88</time>
   <time name="orth">    0.54    0.54</time>
   <time name="total">   52.50   52.85</time>
   <energy>
    <i name="e_fr_energy">   -812.86648562 </i>
    <i name="e_wo_entrp">   -812.84885405 </i>
    <i name="e_0_energy">   -812.85766983 </i>
   </energy>
  </scstep>
  <scstep>
   <time name="diag">    4.93    5.27</time>
   <time name="diis">   43.81   44.12</time>
   <time name="orth">    0.52    0.53</time>
   <time name="total">   52.65   53.32</time>
   <energy>
    <i name="e_fr_energy">   -812.86660650 </i>
    <i name="e_wo_entrp">   -812.84886433 </i>
    <i name="e_0_energy">   -812.85773541 </i>
   </energy>
  </scstep>
  <scstep>
   <time name="diag">    4.89    4.92</time>
   <time name="diis">   43.50   43.79</time>
   <time name="orth">    0.55    0.55</time>
   <time name="total">   52.42   52.75</time>
   <energy>
    <i name="e_fr_energy">   -812.86668936 </i>
    <i name="e_wo_entrp">   -812.84888645 </i>
    <i name="e_0_energy">   -812.85778790 </i>
   </energy>
  </scstep>
  <scstep>
   <time name="diag">    4.93    4.96</time>
   <time name="diis">   39.20   39.44</time>
   <time name="orth">    0.53    0.53</time>
   <time name="total">   48.12   48.41</time>
   <energy>
    <i name="e_fr_energy">   -812.86671400 </i>
    <i name="e_wo_entrp">   -812.84887373 </i>
    <i name="e_0_energy">   -812.85779386 </i>
   </energy>
  </scstep>
  <scstep>
   <time name="diag">    4.85    4.87</time>
   <time name="diis">   38.29   38.52</time>
   <time name="orth">    0.55    0.55</time>
   <time name="total">   47.15   47.43</time>
   <energy>
    <i name="e_fr_energy">   -812.86672078 </i>
    <i name="e_wo_entrp">   -812.84886842 </i>
    <i name="e_0_energy">   -812.85779460 </i>
   </energy>
  </scstep>
  <scstep>
   <time name="diag">    4.91    4.93</time>
   <time name="diis">   38.71   39.32</time>
   <time name="orth">    0.49    0.49</time>
   <time name="total">   47.37   48.01</time>
   <energy>
    <i name="e_fr_energy">   -812.86671954 </i>
    <i name="e_wo_entrp">   -812.84886573 </i>
    <i name="e_0_energy">   -812.85779264 </i>
   </energy>
  </scstep>
  <scstep>
   <time name="diag">    4.80    4.83</time>
   <time name="diis">   39.37   39.61</time>
   <time name="orth">    0.50    0.50</time>
   <time name="total">   47.85   48.14</time>
   <energy>
    <i name="e_fr_energy">   -812.86672423 </i>
    <i name="e_wo_entrp">   -812.84886349 </i>
    <i name="e_0_energy">   -812.85779386 </i>
   </energy>
  </scstep>
  <scstep>
   <time name="diag">    4.56    4.59</time>
   <time name="diis">   34.28   34.49</time>
   <time name="orth">    0.42    0.42</time>
   <time name="total">   41.77   42.02</time>
   <energy>
    <i name="e_fr_energy">   -812.86672568 </i>
    <i name="e_wo_entrp">   -812.84886599 </i>
    <i name="e_0_energy">   -812.85779583 </i>
   </energy>
  </scstep>
  <scstep>
   <time name="diag">    3.69    3.70</time>
   <time name="diis">   19.74   19.84</time>
   <time name="orth">    0.45    0.45</time>
   <time name="total">   24.86   24.99</time>
   <energy>
    <i name="alphaZ">   3514.54571391 </i>
    <i name="ewald"> -36990.88819505 </i>
    <i name="hartreedc"> -18348.22948774 </i>
    <i name="XCdc">   2568.74344144 </i>
    <i name="pawpsdc">  39652.97266752 </i>
    <i name="pawaedc"> -39535.04510836 </i>
    <i name="eentropy">     -0.01786080 </i>
    <i name="bandstr">  -8023.33652101 </i>
    <i name="atom">  56348.38862387 </i>
    <i name="e_fr_energy">   -812.86672624 </i>
    <i name="e_wo_entrp">   -812.84886543 </i>
    <i name="e_0_energy">   -812.85779583 </i>
   </energy>
  </scstep>
  <structure>
   <crystal>
    <varray name="basis" >
     <v>      22.78514290       0.00000000       0.00000000 </v>
     <v>       0.00000000       3.87685037       0.00000000 </v>
     <v>      -9.97305163       0.00000241      15.12824818 </v>
    </varray>
    <i name="volume">   1336.34759474 </i>
    <varray name="rec_basis" >
     <v>       0.04388825       0.00000000       0.02893261 </v>
     <v>       0.00000000       0.25794135      -0.00000004 </v>
     <v>       0.00000000       0.00000000       0.06610151 </v>
    </varray>
   </crystal>
   <varray name="positions" >
    <v>       0.34136807       0.68942326       0.61878297 </v>
    <v>       0.36712963       0.00771292       0.04580107 </v>
    <v>       0.63447492       0.00802780       0.95480310 </v>
    <v>       0.86584381       0.50791998       0.04541474 </v>
    <v>       0.13138731       0.50933217       0.95500580 </v>
    <v>       0.24880712       0.00354760       0.13716346 </v>
    <v>       0.75241063       0.00315506       0.86177669 </v>
    <v>       0.74808139       0.50318189       0.13807756 </v>
    <v>       0.24961851       0.50343819       0.86460711 </v>
    <v>       0.12912504       0.99703710       0.22919056 </v>
    <v>       0.86894322       0.99867032       0.76707493 </v>
    <v>       0.63141126       0.49860569       0.23273391 </v>
    <v>       0.37062760       0.49577538       0.77422802 </v>
    <v>       0.41897617       0.96664914       0.37963701 </v>
    <v>       0.58414753       0.96713855       0.61764811 </v>
    <v>       0.91770195       0.46697409       0.38164759 </v>
    <v>       0.08212095       0.46672110       0.62036474 </v>
    <v>       0.29575184       0.00331961       0.46599340 </v>
    <v>       0.70234036       0.00353307       0.52601296 </v>
    <v>       0.79850053       0.50365100       0.47272950 </v>
    <v>       0.19924564       0.50302372       0.52539995 </v>
    <v>       0.46775049       0.00142266       0.71466775 </v>
    <v>       0.53662189       0.00185982       0.28688496 </v>
    <v>       0.96339113       0.50165384       0.71212390 </v>
    <v>       0.03416525       0.50128541       0.28561838 </v>
    <v>       0.99918298       0.25215381       0.99992537 </v>
    <v>       0.50062309       0.75299268       0.00060606 </v>
    <v>       0.00047853       0.49105266       0.50043247 </v>
    <v>       0.50057555       0.99101434       0.49942517 </v>
    <v>       0.14852664       0.00446727       0.99121541 </v>
    <v>       0.85016568       0.00406102       0.00899488 </v>
    <v>       0.64920566       0.50435351       0.99058407 </v>
    <v>       0.35081795       0.50402664       0.00907923 </v>
    <v>       0.30321387       0.00295592       0.08141064 </v>
    <v>       0.69632643       0.00379201       0.91770357 </v>
    <v>       0.80303137       0.50336103       0.08166164 </v>
    <v>       0.19638338       0.50208184       0.92003527 </v>
    <v>       0.03353420       0.99892856       0.09861390 </v>
    <v>       0.96562227       0.00022384       0.90214321 </v>
    <v>       0.53439033       0.50165228       0.09846174 </v>
    <v>       0.46628588       0.49990583       0.90119096 </v>
    <v>       0.44967496       0.00398847       0.15559900 </v>
    <v>       0.55010007       0.00325266       0.84396150 </v>
    <v>       0.94937296       0.50349201       0.15578371 </v>
    <v>       0.05006986       0.50509800       0.84450863 </v>
    <v>       0.17969058       0.00171274       0.17738244 </v>
    <v>       0.82019468       0.00319368       0.82275192 </v>
    <v>       0.67989408       0.50299691       0.17705250 </v>
    <v>       0.31866738       0.50012036       0.82292162 </v>
    <v>       0.04908143       0.00116150       0.27050785 </v>
    <v>       0.95040670       0.00184954       0.73013303 </v>
    <v>       0.54981556       0.50177862       0.26958050 </v>
    <v>       0.45008438       0.50130349       0.72679720 </v>
    <v>       0.32544325       0.99952586       0.24967276 </v>
    <v>       0.67480556       0.99930647       0.74997900 </v>
    <v>       0.82544840       0.49919780       0.24987621 </v>
    <v>       0.17393700       0.49985983       0.75130230 </v>
    <v>       0.47636106       0.99864081       0.32602755 </v>
    <v>       0.52386913       0.99947435       0.67179185 </v>
    <v>       0.97637365       0.49930811       0.32714081 </v>
    <v>       0.02393375       0.49823029       0.67352561 </v>
    <v>       0.20638755       0.00180441       0.34856019 </v>
    <v>       0.79286262       0.00194115       0.65105603 </v>
    <v>       0.70755988       0.50218403       0.34892323 </v>
    <v>       0.29710498       0.50185579       0.65197392 </v>
    <v>       0.35323154       0.00060590       0.42485061 </v>
    <v>       0.64811999       0.99931612       0.57418665 </v>
    <v>       0.85289103       0.50022296       0.42556813 </v>
    <v>       0.14870137       0.50007667       0.57665749 </v>
    <v>       0.22243846       0.00264440       0.52156993 </v>
    <v>       0.77877247       0.00308550       0.48109482 </v>
    <v>       0.72192245       0.50294619       0.51847035 </v>
    <v>       0.28052468       0.50281210       0.48178952 </v>
    <v>       0.37648426       0.00226563       0.59677909 </v>
    <v>       0.62186157       0.00265108       0.40382338 </v>
    <v>       0.87837972       0.50278557       0.59593107 </v>
    <v>       0.12206397       0.50227070       0.40451388 </v>
    <v>       0.09104139       0.99253324       0.63101975 </v>
    <v>       0.91007463       0.99285702       0.36893246 </v>
    <v>       0.59010464       0.49274880       0.63105292 </v>
    <v>       0.40970559       0.49247910       0.36893227 </v>
    <v>       0.39334036       0.99993991       0.76915605 </v>
    <v>       0.60586439       0.00120746       0.23174440 </v>
    <v>       0.89450166       0.50105281       0.76822911 </v>
    <v>       0.10576776       0.50017564       0.23176801 </v>
    <v>       0.27533197       0.00304409       0.89695931 </v>
    <v>       0.72401871       0.00365139       0.10273693 </v>
    <v>       0.77549975       0.50363732       0.89667555 </v>
    <v>       0.22421909       0.50359425       0.10401708 </v>
    <v>       0.42920631       0.00427824       0.98719293 </v>
    <v>       0.57140416       0.00450718       0.01317474 </v>
    <v>       0.92796672       0.50288017       0.98675868 </v>
    <v>       0.07086574       0.50399614       0.01348359 </v>
   </varray>
  </structure>
  <varray name="forces" >
   <v>       0.94939707      -1.05299327      -0.68037046 </v>
   <v>      -0.00023760       0.00149184      -0.00509650 </v>
   <v>      -0.01275527      -0.00029587      -0.02032378 </v>
   <v>       0.01351480       0.00188190       0.02133238 </v>
   <v>       0.00324234       0.00156254      -0.00283768 </v>
   <v>      -0.00547955       0.00089492       0.00676902 </v>
   <v>      -0.00428104       0.00042238      -0.00645960 </v>
   <v>      -0.00572213      -0.00016983      -0.00181940 </v>
   <v>       0.00525077      -0.00126523      -0.01879619 </v>
   <v>       0.00998838       0.00177048       0.02370982 </v>
   <v>       0.00267901       0.00187050      -0.00263711 </v>
   <v>      -0.00102880       0.00194724       0.00027608 </v>
   <v>      -0.35362658      -0.30686027       0.44238641 </v>
   <v>      -0.00814310      -0.00736311       0.02004410 </v>
   <v>      -0.02745007      -0.00636360      -0.00869847 </v>
   <v>      -0.00369322      -0.00316774       0.01405676 </v>
   <v>       0.03561591      -0.00987052       0.00668850 </v>
   <v>       0.24115500       0.34929711      -0.30826037 </v>
   <v>      -0.00114166      -0.00091721       0.00141918 </v>
   <v>       0.00140851      -0.00034524       0.00394291 </v>
   <v>      -0.36709382      -0.17712374      -0.10622013 </v>
   <v>       0.32144264       0.29041142       0.01088600 </v>
   <v>       0.00042313       0.00100300       0.00073624 </v>
   <v>       0.00646249       0.00084581      -0.00273261 </v>
   <v>       0.01598509       0.00117409       0.03409386 </v>
   <v>       0.00137171      -0.00227402       0.00917221 </v>
   <v>      -0.00128472       0.00363335      -0.01831661 </v>
   <v>      -0.00589287      -0.00337969      -0.01591930 </v>
   <v>       0.00840650      -0.00226627      -0.00501905 </v>
   <v>      -0.00453320       0.00088099       0.00332941 </v>
   <v>      -0.00467273       0.00034894      -0.00476465 </v>
   <v>       0.00002043       0.00174089       0.00178903 </v>
   <v>      -0.00062674       0.00100472       0.00506064 </v>
   <v>      -0.00174156       0.00097434       0.00434223 </v>
   <v>       0.00363259       0.00146790       0.00099177 </v>
   <v>       0.00294768       0.00144791      -0.00460668 </v>
   <v>      -0.01333873       0.00135909       0.00729641 </v>
   <v>      -0.00323142       0.00241643      -0.00099735 </v>
   <v>      -0.00219224      -0.00049473       0.00125003 </v>
   <v>       0.00136591      -0.00094933       0.00180921 </v>
   <v>      -0.00512908      -0.00465572      -0.00384805 </v>
   <v>       0.00296956       0.00097275       0.00180050 </v>
   <v>       0.00595768       0.01669000       0.00531718 </v>
   <v>       0.00061734       0.00124837       0.00456800 </v>
   <v>      -0.00321416       0.00136075       0.00422478 </v>
   <v>       0.00607016       0.00056915      -0.00726967 </v>
   <v>      -0.00307453       0.00114992       0.00057880 </v>
   <v>       0.00858151       0.00148802      -0.00629705 </v>
   <v>       0.03110725      -0.00647528      -0.01532188 </v>
   <v>      -0.00604037       0.00075145      -0.00995029 </v>
   <v>      -0.00068468       0.00055384       0.00203908 </v>
   <v>       0.00209775       0.00087630       0.00008258 </v>
   <v>      -0.26953541       0.25957331      -0.13575219 </v>
   <v>      -0.00465086      -0.00035214      -0.00177300 </v>
   <v>       0.00344722      -0.00102822       0.00481771 </v>
   <v>      -0.00042057      -0.00148182      -0.00176001 </v>
   <v>      -0.00702211      -0.00170398       0.00739349 </v>
   <v>       0.00519027      -0.00005493      -0.00470319 </v>
   <v>      -0.01569613       0.00052564       0.01721130 </v>
   <v>      -0.00276737      -0.00099323      -0.00359208 </v>
   <v>      -0.00627894      -0.00005145       0.00447803 </v>
   <v>       0.01410670       0.02260200       0.01391321 </v>
   <v>       0.00254027       0.00025384      -0.00020402 </v>
   <v>       0.00288805       0.00072304      -0.00298534 </v>
   <v>      -2.03884231      -0.96874236       0.78665918 </v>
   <v>      -0.02931100      -0.00289651      -0.00181758 </v>
   <v>       0.00924726      -0.00169389      -0.00006626 </v>
   <v>       0.00607472      -0.00177291      -0.00236238 </v>
   <v>       0.00302368      -0.00081406      -0.01071321 </v>
   <v>       0.15878897      -0.14898996       0.02164278 </v>
   <v>       0.00159890      -0.00095323       0.00101709 </v>
   <v>       0.00014898      -0.00003298      -0.00228243 </v>
   <v>      -0.09967093       0.30145973       0.37561659 </v>
   <v>       1.32814437       1.59109388      -0.43108647 </v>
   <v>       0.00373822       0.00028366      -0.00078138 </v>
   <v>      -0.00169416       0.00070897      -0.00137096 </v>
   <v>       0.00039500      -0.00784178       0.02092185 </v>
   <v>      -0.01143948       0.00384614       0.00296412 </v>
   <v>       0.00181074      -0.00164456      -0.00398371 </v>
   <v>       0.00744680       0.00147887      -0.00103543 </v>
   <v>       0.00536676       0.00252648      -0.00735333 </v>
   <v>       0.11330050      -0.16023605      -0.03976564 </v>
   <v>       0.00058893       0.00051291      -0.00008742 </v>
   <v>      -0.00211382       0.00049459       0.00072184 </v>
   <v>      -0.00079469      -0.00164565      -0.00324525 </v>
   <v>      -0.00657347       0.00010874       0.01200468 </v>
   <v>       0.00111795       0.00153878      -0.00017301 </v>
   <v>       0.00218938       0.00104451       0.00272619 </v>
   <v>       0.00001260       0.00117221       0.00057281 </v>
   <v>      -0.00362181      -0.00026221       0.00171741 </v>
   <v>       0.00197346       0.00247626      -0.00024068 </v>
   <v>      -0.00391287       0.00252051      -0.00255180 </v>
   <v>      -0.00419510      -0.00002977       0.00187823 </v>
  </varray>
  <varray name="stress" >
   <v>      13.06609622       6.14022748      -3.92774558 </v>
   <v>       6.14020074       9.17784432      -2.67989502 </v>
   <v>      -3.92772676      -2.67990126       7.28602196 </v>
  </varray>
  <energy>
   <i name="e_fr_energy">   -812.86672624 </i>
   <i name="e_wo_entrp">   -812.84886543 </i>
   <i name="e_0_energy">   -812.85779583 </i>
  </energy>
  <time name="totalsc"> 1471.74 1482.39</time>
 </calculation>
 <calculation>
  <scstep>
   <time name="dav">   50.89   51.25</time>
   <time name="total">   53.88   54.24</time>
   <energy>
    <i name="alphaZ">   3514.54571391 </i>
    <i name="ewald"> -37008.94394393 </i>
    <i name="hartreedc"> -18330.92306488 </i>
    <i name="XCdc">   2568.67583265 </i>
    <i name="pawpsdc">  39652.97773803 </i>
    <i name="pawaedc"> -39535.04966170 </i>
    <i name="eentropy">     -0.01810272 </i>
    <i name="bandstr">  -8022.64623082 </i>
    <i name="atom">  56348.38862387 </i>
    <i name="e_fr_energy">   -812.99309558 </i>
    <i name="e_wo_entrp">   -812.97499286 </i>
    <i name="e_0_energy">   -812.98404422 </i>
   </energy>
  </scstep>
  <scstep>
   <time name="diag">    4.74    4.76</time>
   <time name="diis">   45.14   45.46</time>
   <time name="orth">    0.56    0.56</time>
   <time name="total">   53.64   54.01</time>
   <energy>
    <i name="e_fr_energy">   -813.04639648 </i>
    <i name="e_wo_entrp">   -813.02808113 </i>
    <i name="e_0_energy">   -813.03723880 </i>
   </energy>
  </scstep>
  <scstep>
   <time name="diag">    4.66    4.68</time>
   <time name="diis">   46.37   46.69</time>
   <time name="orth">    0.50    0.51</time>
   <time name="total">   54.68   55.04</time>
   <energy>
    <i name="e_fr_energy">   -813.05647603 </i>
    <i name="e_wo_entrp">   -813.03824907 </i>
    <i name="e_0_energy">   -813.04736255 </i>
   </energy>
  </scstep>
  <scstep>
   <time name="diag">    4.53    4.55</time>
   <time name="diis">   50.76   51.13</time>
   <time name="orth">    0.46    0.47</time>
   <time name="total">   58.87   59.27</time>
   <energy>
    <i name="e_fr_energy">   -813.05719189 </i>
    <i name="e_wo_entrp">   -813.03884551 </i>
    <i name="e_0_energy">   -813.04801870 </i>
   </energy>
  </scstep>
  <scstep>
   <time name="diag">    4.54    4.56</time>
   <time name="diis">   48.63   48.97</time>
   <time name="orth">    0.54    0.54</time>
   <time name="total">   56.73   57.11</time>
   <energy>
    <i name="e_fr_energy">   -813.05700238 </i>
    <i name="e_wo_entrp">   -813.03875064 </i>
    <i name="e_0_energy">   -813.04787651 </i>
   </energy>
  </scstep>
  <scstep>
   <time name="diag">    4.58    4.60</time>
   <time name="diis">   47.89   48.23</time>
   <time name="orth">    0.49    0.49</time>
   <time name="total">   55.67   56.04</time>
   <energy>
    <i name="e_fr_energy">   -813.05687642 </i>
    <i name="e_wo_entrp">   -813.03865183 </i>
    <i name="e_0_energy">   -813.04776412 </i>
   </energy>
  </scstep>
  <scstep>
   <time name="diag">    4.63    4.66</time>
   <time name="diis">   47.02   47.34</time>
   <time name="orth">    0.47    0.47</time>
   <time name="total">   55.02   55.38</time>
   <energy>
    <i name="e_fr_energy">   -813.05687945 </i>
    <i name="e_wo_entrp">   -813.03861758 </i>
    <i name="e_0_energy">   -813.04774851 </i>
   </energy>
  </scstep>
  <scstep>
   <time name="diag">    4.69    4.71</time>
   <time name="diis">   45.90   46.20</time>
   <time name="orth">    0.51    0.51</time>
   <time name="total">   54.08   54.41</time>
   <energy>
    <i name="e_fr_energy">   -813.05688790 </i>
    <i name="e_wo_entrp">   -813.03863716 </i>
    <i name="e_0_energy">   -813.04776253 </i>
   </energy>
  </scstep>
  <scstep>
   <time name="diag">    4.86    4.88</time>
   <time name="diis">   40.56   40.80</time>
   <time name="orth">    0.52    0.52</time>
   <time name="total">   49.09   49.37</time>
   <energy>
    <i name="e_fr_energy">   -813.05689780 </i>
    <i name="e_wo_entrp">   -813.03863707 </i>
    <i name="e_0_energy">   -813.04776743 </i>
   </energy>
  </scstep>
  <scstep>
   <time name="diag">    4.65    4.67</time>
   <time name="diis">   35.20   35.43</time>
   <time name="orth">    0.52    0.53</time>
   <time name="total">   43.72   43.99</time>
   <energy>
    <i name="e_fr_energy">   -813.05689765 </i>
    <i name="e_wo_entrp">   -813.03864356 </i>
    <i name="e_0_energy">   -813.04777061 </i>
   </energy>
  </scstep>
  <scstep>
   <time name="diag">    4.61    4.63</time>
   <time name="diis">   27.12   27.30</time>
   <time name="orth">    0.44    0.45</time>
   <time name="total">   35.14   35.35</time>
   <energy>
    <i name="e_fr_energy">   -813.05689870 </i>
    <i name="e_wo_entrp">   -813.03864428 </i>
    <i name="e_0_energy">   -813.04777149 </i>
   </energy>
  </scstep>
  <scstep>
   <time name="diag">    3.80    3.82</time>
   <time name="diis">   16.71   16.80</time>
   <time name="orth">    0.43    0.43</time>
   <time name="total">   22.01   22.12</time>
   <energy>
    <i name="alphaZ">   3514.54571391 </i>
    <i name="ewald"> -37008.94394393 </i>
    <i name="hartreedc"> -18331.40847373 </i>
    <i name="XCdc">   2568.70020756 </i>
    <i name="pawpsdc">  39654.62916570 </i>
    <i name="pawaedc"> -39536.64584913 </i>
    <i name="eentropy">     -0.01825420 </i>
    <i name="bandstr">  -8022.30408934 </i>
    <i name="atom">  56348.38862387 </i>
    <i name="e_fr_energy">   -813.05689928 </i>
    <i name="e_wo_entrp">   -813.03864508 </i>
    <i name="e_0_energy">   -813.04777218 </i>
   </energy>
  </scstep>
  <structure>
   <crystal>
    <varray name="basis" >
     <v>      22.78514290       0.00000000       0.00000000 </v>
     <v>       0.00000000       3.87685037       0.00000000 </v>
     <v>      -9.97305163       0.00000241      15.12824818 </v>
    </varray>
    <i name="volume">   1336.34759474 </i>
    <varray name="rec_basis" >
     <v>       0.04388825       0.00000000       0.02893261 </v>
     <v>       0.00000000       0.25794135      -0.00000004 </v>
     <v>       0.00000000       0.00000000       0.06610151 </v>
    </varray>
   </crystal>
   <varray name="positions" >
    <v>       0.34123237       0.68982312       0.61829936 </v>
    <v>       0.36712367       0.00771398       0.04580613 </v>
    <v>       0.63443717       0.00801689       0.95475683 </v>
    <v>       0.86583452       0.50792503       0.04540159 </v>
    <v>       0.13139003       0.50934493       0.95500917 </v>
    <v>       0.24880031       0.00355461       0.13718290 </v>
    <v>       0.75239002       0.00315956       0.86175420 </v>
    <v>       0.74806144       0.50317890       0.13806908 </v>
    <v>       0.24961570       0.50342931       0.86459012 </v>
    <v>       0.12917185       0.99705946       0.22926767 </v>
    <v>       0.86894727       0.99867612       0.76707746 </v>
    <v>       0.63141468       0.49861027       0.23274886 </v>
    <v>       0.37060201       0.49425803       0.77483701 </v>
    <v>       0.41897824       0.96661057       0.37965678 </v>
    <v>       0.58411125       0.96710958       0.61762665 </v>
    <v>       0.91769703       0.46696725       0.38166284 </v>
    <v>       0.08216000       0.46669336       0.62036219 </v>
    <v>       0.29582790       0.00505746       0.46566539 </v>
    <v>       0.70234372       0.00352730       0.52602276 </v>
    <v>       0.79851100       0.50365021       0.47275071 </v>
    <v>       0.19882744       0.50213339       0.52518119 </v>
    <v>       0.46800127       0.00285625       0.71464435 </v>
    <v>       0.53662514       0.00186077       0.28689156 </v>
    <v>       0.96340759       0.50165795       0.71212944 </v>
    <v>       0.03414146       0.50129617       0.28558368 </v>
    <v>       0.99919494       0.25213205       0.99994772 </v>
    <v>       0.50062088       0.75300856       0.00060232 </v>
    <v>       0.00045593       0.49102987       0.50040848 </v>
    <v>       0.50058870       0.99101142       0.49940419 </v>
    <v>       0.14853127       0.00447180       0.99122602 </v>
    <v>       0.85014547       0.00405836       0.00896555 </v>
    <v>       0.64920105       0.50436233       0.99058023 </v>
    <v>       0.35082309       0.50403149       0.00910041 </v>
    <v>       0.30321921       0.00296634       0.08143380 </v>
    <v>       0.69632527       0.00380008       0.91769557 </v>
    <v>       0.80302259       0.50336562       0.08164036 </v>
    <v>       0.19637245       0.50208570       0.92003994 </v>
    <v>       0.03354229       0.99895171       0.09862226 </v>
    <v>       0.96561864       0.00020859       0.90215158 </v>
    <v>       0.53439315       0.50164720       0.09847898 </v>
    <v>       0.46629319       0.49989698       0.90119562 </v>
    <v>       0.44968180       0.00398681       0.15560743 </v>
    <v>       0.55010088       0.00332859       0.84396229 </v>
    <v>       0.94935779       0.50349272       0.15576432 </v>
    <v>       0.05007193       0.50510705       0.84451851 </v>
    <v>       0.17969833       0.00172577       0.17738987 </v>
    <v>       0.82018255       0.00319592       0.82274335 </v>
    <v>       0.67989488       0.50300185       0.17704667 </v>
    <v>       0.31872907       0.50009768       0.82297133 </v>
    <v>       0.04905724       0.00116904       0.27048454 </v>
    <v>       0.95041153       0.00185179       0.73013803 </v>
    <v>       0.54982160       0.50177896       0.26958877 </v>
    <v>       0.44980861       0.50258522       0.72668969 </v>
    <v>       0.32543579       0.99953015       0.24968203 </v>
    <v>       0.67479614       0.99930824       0.74997465 </v>
    <v>       0.82544122       0.49919106       0.24986203 </v>
    <v>       0.17395613       0.49984833       0.75130663 </v>
    <v>       0.47635817       0.99863451       0.32601886 </v>
    <v>       0.52382590       0.99947641       0.67176455 </v>
    <v>       0.97635879       0.49930911       0.32711995 </v>
    <v>       0.02393696       0.49824053       0.67353593 </v>
    <v>       0.20641791       0.00191362       0.34860028 </v>
    <v>       0.79286848       0.00194126       0.65105798 </v>
    <v>       0.70756409       0.50218454       0.34892631 </v>
    <v>       0.29578800       0.49702247       0.65302822 </v>
    <v>       0.35323770       0.00059615       0.42490375 </v>
    <v>       0.64813116       0.99930576       0.57419357 </v>
    <v>       0.85288970       0.50021485       0.42556073 </v>
    <v>       0.14866820       0.50006703       0.57659724 </v>
    <v>       0.22260206       0.00189503       0.52164955 </v>
    <v>       0.77877493       0.00307989       0.48110045 </v>
    <v>       0.72192239       0.50294523       0.51846967 </v>
    <v>       0.28060623       0.50430644       0.48224385 </v>
    <v>       0.37732535       0.01017547       0.59626051 </v>
    <v>       0.62186285       0.00264952       0.40382832 </v>
    <v>       0.87838294       0.50278809       0.59593163 </v>
    <v>       0.12205707       0.50222791       0.40451464 </v>
    <v>       0.09103556       0.99256256       0.63103087 </v>
    <v>       0.91007109       0.99285302       0.36891837 </v>
    <v>       0.59010278       0.49275985       0.63105049 </v>
    <v>       0.40969542       0.49249324       0.36892633 </v>
    <v>       0.39336535       0.99913545       0.76906389 </v>
    <v>       0.60586680       0.00120564       0.23175261 </v>
    <v>       0.89450059       0.50105305       0.76823209 </v>
    <v>       0.10576329       0.50017470       0.23177401 </v>
    <v>       0.27533656       0.00304431       0.89698507 </v>
    <v>       0.72401739       0.00365692       0.10273376 </v>
    <v>       0.77549795       0.50364184       0.89667085 </v>
    <v>       0.22421997       0.50360359       0.10402346 </v>
    <v>       0.42921334       0.00428036       0.98720492 </v>
    <v>       0.57141004       0.00453795       0.01319086 </v>
    <v>       0.92796619       0.50287819       0.98676484 </v>
    <v>       0.07086806       0.50398674       0.01348743 </v>
   </varray>
  </structure>
  <varray name="forces" >
   <v>       0.62107178      -1.02237643      -0.49884353 </v>
   <v>      -0.00107234       0.00093521       0.00694741 </v>
   <v>       0.00191938       0.00015239      -0.00256974 </v>
   <v>       0.00137827       0.00174264       0.00473353 </v>
   <v>      -0.00461756       0.00126363       0.00122857 </v>
   <v>       0.00104923       0.00084076      -0.00987218 </v>
   <v>      -0.00062245       0.00035965       0.00748178 </v>
   <v>      -0.00103163      -0.00010559      -0.00249722 </v>
   <v>      -0.01505329      -0.00025570       0.00750983 </v>
   <v>      -0.00005381       0.00288960      -0.02805905 </v>
   <v>      -0.00252596       0.00178889       0.00255753 </v>
   <v>       0.00394926       0.00208044      -0.00350897 </v>
   <v>      -0.06987838      -0.27345960       0.07452787 </v>
   <v>       0.03650658      -0.00516221      -0.00756899 </v>
   <v>       0.00366947      -0.00540739       0.00290130 </v>
   <v>      -0.01702976      -0.00276864       0.00390772 </v>
   <v>       0.00936198      -0.00755734       0.00035266 </v>
   <v>       0.02731074       0.34148627      -0.10033987 </v>
   <v>       0.00036672      -0.00053680       0.00131289 </v>
   <v>       0.00145630       0.00006689       0.00228707 </v>
   <v>      -0.09212421      -0.16144472       0.02126202 </v>
   <v>       0.02728762       0.27304240       0.03276194 </v>
   <v>       0.00656778       0.00113357      -0.00142655 </v>
   <v>      -0.00075545       0.00100625       0.00087463 </v>
   <v>      -0.01462824       0.00051138       0.00135660 </v>
   <v>      -0.00495750       0.00166877      -0.00393126 </v>
   <v>       0.01140749      -0.00120774       0.00597248 </v>
   <v>       0.00376705      -0.00339398       0.00376717 </v>
   <v>      -0.00102690      -0.00175324      -0.01095400 </v>
   <v>      -0.00442530       0.00105526       0.00335849 </v>
   <v>      -0.00268755       0.00042220      -0.00066512 </v>
   <v>      -0.00109282       0.00190515      -0.00120908 </v>
   <v>      -0.00111566       0.00115182       0.00045823 </v>
   <v>       0.00031148       0.00100462       0.00430344 </v>
   <v>      -0.00126634       0.00140735       0.00077347 </v>
   <v>       0.00542833       0.00141280      -0.00366270 </v>
   <v>       0.00590559       0.00109754      -0.00153358 </v>
   <v>      -0.00155325      -0.00187980       0.01120089 </v>
   <v>      -0.00209213       0.00119869       0.00481448 </v>
   <v>       0.00194637       0.00670682      -0.01021646 </v>
   <v>       0.00840730      -0.01130855       0.06011518 </v>
   <v>      -0.00023419       0.00105659      -0.00291231 </v>
   <v>       0.02362316       0.03160476       0.02466433 </v>
   <v>       0.00960034       0.00137061       0.02409313 </v>
   <v>      -0.00302148       0.00131954       0.00251658 </v>
   <v>      -0.00927510       0.00007853       0.00393025 </v>
   <v>       0.00318701       0.00113256      -0.00323686 </v>
   <v>       0.00041313       0.00141086      -0.00237679 </v>
   <v>      -0.27820338      -0.01045111       0.19472527 </v>
   <v>      -0.00196888       0.00031371      -0.00319239 </v>
   <v>       0.00069235       0.00055448       0.00123634 </v>
   <v>       0.00184643       0.00078155       0.00020431 </v>
   <v>      -0.21127863       0.28914247      -0.15714495 </v>
   <v>      -0.00331909      -0.00033891       0.01272892 </v>
   <v>      -0.00343869      -0.00115400      -0.00963051 </v>
   <v>       0.00039987      -0.00152727      -0.00113139 </v>
   <v>      -0.00469239      -0.00112495       0.00076863 </v>
   <v>      -0.01068929      -0.00079941       0.00338973 </v>
   <v>       0.20080469       0.00123046      -0.02203166 </v>
   <v>       0.01697987      -0.00062484      -0.00648727 </v>
   <v>       0.00852809      -0.00031215      -0.00123079 </v>
   <v>       0.01409010       0.03742673      -0.01082859 </v>
   <v>       0.00221719       0.00029248      -0.00076443 </v>
   <v>       0.00331118       0.00052621      -0.00265295 </v>
   <v>      -1.28495180      -0.56363016       0.52639775 </v>
   <v>       0.14703904       0.00043093      -0.10741787 </v>
   <v>      -0.00256213      -0.00200497       0.00171524 </v>
   <v>       0.00316982      -0.00178271      -0.00035087 </v>
   <v>      -0.19467415      -0.00374086       0.01846752 </v>
   <v>       0.12858498      -0.14920470       0.02451506 </v>
   <v>       0.00252595      -0.00114226       0.00016600 </v>
   <v>       0.00111054      -0.00033011      -0.00193069 </v>
   <v>      -0.05468705       0.31985007       0.35020196 </v>
   <v>       0.92510753       1.08976716      -0.32929590 </v>
   <v>       0.00179800       0.00032088      -0.00103335 </v>
   <v>      -0.00059920       0.00040674      -0.00153471 </v>
   <v>      -0.04133590      -0.01673087      -0.07683756 </v>
   <v>      -0.00791133       0.00138358       0.00264380 </v>
   <v>       0.00391693      -0.00244844      -0.00347036 </v>
   <v>       0.00231970      -0.00039339      -0.00164229 </v>
   <v>      -0.00295263      -0.00100750      -0.00269164 </v>
   <v>       0.08452196      -0.17801031      -0.03228747 </v>
   <v>       0.00090875       0.00063041       0.00072940 </v>
   <v>      -0.00138032       0.00064232      -0.00001243 </v>
   <v>       0.00467431      -0.00086584       0.00360173 </v>
   <v>      -0.00389879       0.00011905       0.00301236 </v>
   <v>       0.00106495       0.00148770       0.00151080 </v>
   <v>       0.00192343       0.00114009       0.00117669 </v>
[...]
        <r>  0.0001  0.0000  0.0001  0.0001  0.0000  0.0000  0.0000  0.0000  0.0000 </r>
        <r>  0.0001  0.0001  0.0009  0.0001  0.0000  0.0000  0.0000  0.0000  0.0000 </r>
        <r>  0.0000  0.0000  0.0007  0.0000  0.0000  0.0000  0.0000  0.0000  0.0000 </r>
        <r>  0.0017  0.0001  0.0137  0.0019  0.0000  0.0000  0.0000  0.0000  0.0000 </r>
        <r>  0.0020  0.0000  0.0141  0.0039  0.0000  0.0000  0.0000  0.0000  0.0000 </r>
        <r>  0.0000  0.0001  0.0005  0.0000  0.0000  0.0000  0.0000  0.0000  0.0000 </r>
        <r>  0.0000  0.0001  0.0003  0.0000  0.0000  0.0000  0.0000  0.0000  0.0000 </r>
        <r>  0.0002  0.0000  0.0017  0.0000  0.0000  0.0000  0.0000  0.0000  0.0000 </r>
        <r>  0.0005  0.0000  0.0053  0.0003  0.0000  0.0000  0.0000  0.0000  0.0000 </r>
        <r>  0.0000  0.0001  0.0001  0.0001  0.0000  0.0000  0.0000  0.0000  0.0000 </r>
        <r>  0.0000  0.0001  0.0002  0.0001  0.0000  0.0000  0.0000  0.0000  0.0000 </r>
        <r>  0.0004  0.0000  0.0048  0.0011  0.0000  0.0000  0.0000  0.0000  0.0000 </r>
        <r>  0.0005  0.0002  0.0047  0.0023  0.0000  0.0000  0.0000  0.0000  0.0000 </r>
        <r>  0.0000  0.0009  0.0000  0.0001  0.0000  0.0000  0.0000  0.0000  0.0000 </r>
        <r>  0.0000  0.0000  0.0000  0.0001  0.0000  0.0000  0.0000  0.0000  0.0000 </r>
        <r>  0.0003  0.0003  0.0002  0.0013  0.0000  0.0000  0.0000  0.0000  0.0000 </r>
        <r>  0.0006  0.0002  0.0000  0.0012  0.0000  0.0000  0.0000  0.0000  0.0000 </r>
        <r>  0.0000  0.0000  0.0000  0.0000  0.0000  0.0000  0.0000  0.0000  0.0000 </r>
        <r>  0.0000  0.0000  0.0000  0.0000  0.0000  0.0000  0.0000  0.0000  0.0000 </r>
        <r>  0.0005  0.0000  0.0044  0.0003  0.0000  0.0000  0.0000  0.0000  0.0000 </r>
        <r>  0.0006  0.0000  0.0048  0.0006  0.0000  0.0000  0.0000  0.0000  0.0000 </r>
        <r>  0.0000  0.0000  0.0000  0.0002  0.0000  0.0000  0.0000  0.0000  0.0000 </r>
        <r>  0.0000  0.0001  0.0000  0.0001  0.0000  0.0000  0.0000  0.0000  0.0000 </r>
        <r>  0.0015  0.0004  0.0038  0.0143  0.0000  0.0000  0.0000  0.0000  0.0000 </r>
        <r>  0.0008  0.0001  0.0031  0.0165  0.0000  0.0000  0.0000  0.0000  0.0000 </r>
        <r>  0.0001  0.0000  0.0010  0.0000  0.0000  0.0000  0.0000  0.0000  0.0000 </r>
        <r>  0.0000  0.0000  0.0006  0.0000  0.0000  0.0000  0.0000  0.0000  0.0000 </r>
        <r>  0.0003  0.0000  0.0209  0.0010  0.0000  0.0000  0.0000  0.0000  0.0000 </r>
        <r>  0.0007  0.0001  0.0228  0.0008  0.0000  0.0000  0.0000  0.0000  0.0000 </r>
        <r>  0.0000  0.0000  0.0000  0.0000  0.0000  0.0000  0.0000  0.0000  0.0000 </r>
        <r>  0.0000  0.0002  0.0000  0.0000  0.0000  0.0000  0.0000  0.0000  0.0000 </r>
        <r>  0.0028  0.0005  0.0007  0.0089  0.0000  0.0000  0.0000  0.0000  0.0000 </r>
        <r>  0.0033  0.0001  0.0003  0.0060  0.0000  0.0000  0.0000  0.0000  0.0000 </r>
        <r>  0.0000  0.0096  0.0000  0.0000  0.0000  0.0000  0.0000  0.0000  0.0000 </r>
        <r>  0.0000  0.0099  0.0000  0.0000  0.0000  0.0000  0.0000  0.0000  0.0000 </r>
        <r>  0.0004  0.0001  0.0000  0.0001  0.0000  0.0000  0.0000  0.0000  0.0000 </r>
        <r>  0.0001  0.0004  0.0000  0.0000  0.0000  0.0000  0.0000  0.0000  0.0000 </r>
        <r>  0.0000  0.0003  0.0000  0.0001  0.0000  0.0000  0.0000  0.0000  0.0000 </r>
        <r>  0.0001  0.0005  0.0001  0.0001  0.0000  0.0000  0.0000  0.0000  0.0000 </r>
        <r>  0.0015  0.0000  0.0000  0.0003  0.0000  0.0000  0.0000  0.0000  0.0000 </r>
        <r>  0.0007  0.0000  0.0005  0.0001  0.0000  0.0000  0.0000  0.0000  0.0000 </r>
        <r>  0.0000  0.0005  0.0001  0.0000  0.0000  0.0000  0.0000  0.0000  0.0000 </r>
        <r>  0.0000  0.0011  0.0001  0.0000  0.0000  0.0000  0.0000  0.0000  0.0000 </r>
        <r>  0.0000  0.0000  0.0000  0.0000  0.0000  0.0000  0.0000  0.0000  0.0000 </r>
        <r>  0.0000  0.0000  0.0000  0.0000  0.0000  0.0000  0.0000  0.0000  0.0000 </r>
        <r>  0.0000  0.0162  0.0000  0.0001  0.0000  0.0000  0.0000  0.0000  0.0000 </r>
        <r>  0.0001  0.0109  0.0000  0.0000  0.0000  0.0000  0.0000  0.0000  0.0000 </r>
        <r>  0.0006  0.0004  0.0005  0.0011  0.0000  0.0000  0.0000  0.0000  0.0000 </r>
        <r>  0.0006  0.0006  0.0002  0.0008  0.0000  0.0000  0.0000  0.0000  0.0000 </r>
        <r>  0.0000  0.0024  0.0000  0.0000  0.0000  0.0000  0.0000  0.0000  0.0000 </r>
        <r>  0.0000  0.0018  0.0000  0.0000  0.0000  0.0000  0.0000  0.0000  0.0000 </r>
        <r>  0.0000  0.0001  0.0002  0.0000  0.0000  0.0000  0.0000  0.0000  0.0000 </r>
        <r>  0.0001  0.0000  0.0005  0.0000  0.0000  0.0000  0.0000  0.0000  0.0000 </r>
        <r>  0.0000  0.0000  0.0004  0.0005  0.0000  0.0000  0.0000  0.0000  0.0000 </r>
        <r>  0.0000  0.0000  0.0005  0.0005  0.0000  0.0000  0.0000  0.0000  0.0000 </r>
        <r>  0.0001  0.0000  0.0001  0.0001  0.0000  0.0000  0.0000  0.0000  0.0000 </r>
        <r>  0.0002  0.0000  0.0003  0.0002  0.0000  0.0000  0.0000  0.0000  0.0000 </r>
       </set>
       <set comment="band 462">
        <r>  0.0003  0.0031  0.0001  0.0010  0.0000  0.0000  0.0000  0.0000  0.0000 </r>
        <r>  0.0001  0.0000  0.0000  0.0011  0.0000  0.0006  0.0007  0.0018  0.0032 </r>
        <r>  0.0003  0.0002  0.0005  0.0000  0.0001  0.0001  0.0000  0.0000  0.0017 </r>
        <r>  0.0005  0.0000  0.0009  0.0005  0.0000  0.0000  0.0001  0.0003  0.0113 </r>
        <r>  0.0000  0.0000  0.0000  0.0014  0.0000  0.0000  0.0026  0.0037  0.0069 </r>
        <r>  0.0002  0.0001  0.0001  0.0003  0.0000  0.0001  0.0000  0.0015  0.0036 </r>
        <r>  0.0000  0.0001  0.0001  0.0000  0.0001  0.0007  0.0002  0.0005  0.0007 </r>
        <r>  0.0002  0.0000  0.0001  0.0001  0.0000  0.0000  0.0005  0.0032  0.0063 </r>
        <r>  0.0001  0.0000  0.0000  0.0007  0.0000  0.0001  0.0000  0.0035  0.0081 </r>
        <r>  0.0000  0.0001  0.0001  0.0001  0.0003  0.0000  0.0000  0.0000  0.0002 </r>
        <r>  0.0001  0.0001  0.0001  0.0001  0.0004  0.0000  0.0005  0.0000  0.0001 </r>
        <r>  0.0005  0.0000  0.0000  0.0008  0.0000  0.0000  0.0008  0.0003  0.0027 </r>
        <r>  0.0000  0.0000  0.0001  0.0001  0.0000  0.0000  0.0010  0.0004  0.0012 </r>
        <r>  0.0024  0.0018  0.0001  0.0003  0.0000  0.0007  0.0024  0.0000  0.0093 </r>
        <r>  0.0016  0.0016  0.0001  0.0001  0.0002  0.0002  0.0000  0.0025  0.0088 </r>
        <r>  0.0011  0.0001  0.0010  0.0001  0.0000  0.0000  0.0047  0.0008  0.0029 </r>
        <r>  0.0001  0.0000  0.0003  0.0001  0.0000  0.0001  0.0007  0.0008  0.0009 </r>
        <r>  0.0004  0.0015  0.0000  0.0002  0.0048  0.0002  0.0004  0.0000  0.0000 </r>
        <r>  0.0004  0.0002  0.0000  0.0008  0.0004  0.0000  0.0003  0.0013  0.0005 </r>
        <r>  0.0000  0.0000  0.0000  0.0000  0.0000  0.0000  0.0010  0.0009  0.0004 </r>
        <r>  0.0005  0.0000  0.0008  0.0000  0.0000  0.0000  0.0066  0.0002  0.0028 </r>
        <r>  0.0003  0.0014  0.0000  0.0009  0.0029  0.0012  0.0046  0.0021  0.0001 </r>
        <r>  0.0003  0.0001  0.0001  0.0004  0.0005  0.0002  0.0018  0.0008  0.0003 </r>
        <r>  0.0000  0.0000  0.0001  0.0002  0.0000  0.0000  0.0000  0.0000  0.0000 </r>
        <r>  0.0000  0.0000  0.0001  0.0000  0.0000  0.0000  0.0026  0.0026  0.0000 </r>
        <r>  0.0002  0.0000  0.0000  0.0004  0.0002  0.0004  0.0000  0.0000  0.0000 </r>
        <r>  0.0005  0.0000  0.0001  0.0001  0.0002  0.0000  0.0000  0.0000  0.0000 </r>
        <r>  0.0001  0.0000  0.0014  0.0003  0.0000  0.0000  0.0000  0.0000  0.0000 </r>
        <r>  0.0009  0.0207  0.0004  0.0001  0.0000  0.0000  0.0000  0.0000  0.0000 </r>
        <r>  0.0000  0.0006  0.0000  0.0000  0.0000  0.0000  0.0000  0.0000  0.0000 </r>
        <r>  0.0000  0.0041  0.0000  0.0000  0.0000  0.0000  0.0000  0.0000  0.0000 </r>
        <r>  0.0002  0.0007  0.0005  0.0000  0.0000  0.0000  0.0000  0.0000  0.0000 </r>
        <r>  0.0002  0.0004  0.0000  0.0000  0.0000  0.0000  0.0000  0.0000  0.0000 </r>
        <r>  0.0000  0.0009  0.0000  0.0023  0.0000  0.0000  0.0000  0.0000  0.0000 </r>
        <r>  0.0000  0.0016  0.0004  0.0002  0.0000  0.0000  0.0000  0.0000  0.0000 </r>
        <r>  0.0000  0.0000  0.0006  0.0027  0.0000  0.0000  0.0000  0.0000  0.0000 </r>
        <r>  0.0000  0.0001  0.0005  0.0047  0.0000  0.0000  0.0000  0.0000  0.0000 </r>
        <r>  0.0000  0.0004  0.0000  0.0001  0.0000  0.0000  0.0000  0.0000  0.0000 </r>
        <r>  0.0000  0.0002  0.0001  0.0001  0.0000  0.0000  0.0000  0.0000  0.0000 </r>
        <r>  0.0000  0.0001  0.0000  0.0000  0.0000  0.0000  0.0000  0.0000  0.0000 </r>
        <r>  0.0003  0.0002  0.0001  0.0000  0.0000  0.0000  0.0000  0.0000  0.0000 </r>
        <r>  0.0001  0.0008  0.0009  0.0002  0.0000  0.0000  0.0000  0.0000  0.0000 </r>
        <r>  0.0004  0.0042  0.0011  0.0000  0.0000  0.0000  0.0000  0.0000  0.0000 </r>
        <r>  0.0003  0.0000  0.0006  0.0000  0.0000  0.0000  0.0000  0.0000  0.0000 </r>
        <r>  0.0001  0.0001  0.0001  0.0006  0.0000  0.0000  0.0000  0.0000  0.0000 </r>
        <r>  0.0000  0.0018  0.0002  0.0003  0.0000  0.0000  0.0000  0.0000  0.0000 </r>
        <r>  0.0001  0.0010  0.0000  0.0002  0.0000  0.0000  0.0000  0.0000  0.0000 </r>
        <r>  0.0002  0.0000  0.0002  0.0014  0.0000  0.0000  0.0000  0.0000  0.0000 </r>
        <r>  0.0002  0.0000  0.0001  0.0005  0.0000  0.0000  0.0000  0.0000  0.0000 </r>
        <r>  0.0000  0.0002  0.0000  0.0000  0.0000  0.0000  0.0000  0.0000  0.0000 </r>
        <r>  0.0000  0.0000  0.0000  0.0000  0.0000  0.0000  0.0000  0.0000  0.0000 </r>
        <r>  0.0002  0.0000  0.0001  0.0010  0.0000  0.0000  0.0000  0.0000  0.0000 </r>
        <r>  0.0026  0.0002  0.0008  0.0021  0.0000  0.0000  0.0000  0.0000  0.0000 </r>
        <r>  0.0007  0.0059  0.0003  0.0001  0.0000  0.0000  0.0000  0.0000  0.0000 </r>
        <r>  0.0000  0.0049  0.0001  0.0000  0.0000  0.0000  0.0000  0.0000  0.0000 </r>
        <r>  0.0007  0.0000  0.0003  0.0001  0.0000  0.0000  0.0000  0.0000  0.0000 </r>
        <r>  0.0002  0.0002  0.0000  0.0000  0.0000  0.0000  0.0000  0.0000  0.0000 </r>
        <r>  0.0004  0.0074  0.0003  0.0015  0.0000  0.0000  0.0000  0.0000  0.0000 </r>
        <r>  0.0005  0.0182  0.0007  0.0028  0.0000  0.0000  0.0000  0.0000  0.0000 </r>
        <r>  0.0001  0.0001  0.0000  0.0000  0.0000  0.0000  0.0000  0.0000  0.0000 </r>
        <r>  0.0001  0.0000  0.0001  0.0002  0.0000  0.0000  0.0000  0.0000  0.0000 </r>
        <r>  0.0000  0.0042  0.0000  0.0000  0.0000  0.0000  0.0000  0.0000  0.0000 </r>
        <r>  0.0001  0.0012  0.0003  0.0003  0.0000  0.0000  0.0000  0.0000  0.0000 </r>
        <r>  0.0001  0.0000  0.0002  0.0002  0.0000  0.0000  0.0000  0.0000  0.0000 </r>
        <r>  0.0000  0.0004  0.0009  0.0005  0.0000  0.0000  0.0000  0.0000  0.0000 </r>
        <r>  0.0006  0.0186  0.0000  0.0008  0.0000  0.0000  0.0000  0.0000  0.0000 </r>
        <r>  0.0005  0.0087  0.0001  0.0027  0.0000  0.0000  0.0000  0.0000  0.0000 </r>
        <r>  0.0001  0.0000  0.0000  0.0000  0.0000  0.0000  0.0000  0.0000  0.0000 </r>
        <r>  0.0000  0.0000  0.0002  0.0003  0.0000  0.0000  0.0000  0.0000  0.0000 </r>
        <r>  0.0000  0.0046  0.0001  0.0000  0.0000  0.0000  0.0000  0.0000  0.0000 </r>
        <r>  0.0001  0.0000  0.0000  0.0001  0.0000  0.0000  0.0000  0.0000  0.0000 </r>
        <r>  0.0003  0.0001  0.0001  0.0011  0.0000  0.0000  0.0000  0.0000  0.0000 </r>
        <r>  0.0031  0.0001  0.0001  0.0020  0.0000  0.0000  0.0000  0.0000  0.0000 </r>
        <r>  0.0000  0.0177  0.0003  0.0018  0.0000  0.0000  0.0000  0.0000  0.0000 </r>
        <r>  0.0004  0.0022  0.0000  0.0005  0.0000  0.0000  0.0000  0.0000  0.0000 </r>
        <r>  0.0000  0.0000  0.0002  0.0001  0.0000  0.0000  0.0000  0.0000  0.0000 </r>
        <r>  0.0001  0.0000  0.0018  0.0001  0.0000  0.0000  0.0000  0.0000  0.0000 </r>
        <r>  0.0000  0.0001  0.0000  0.0000  0.0000  0.0000  0.0000  0.0000  0.0000 </r>
        <r>  0.0000  0.0015  0.0000  0.0000  0.0000  0.0000  0.0000  0.0000  0.0000 </r>
        <r>  0.0041  0.0014  0.0001  0.0004  0.0000  0.0000  0.0000  0.0000  0.0000 </r>
        <r>  0.0040  0.0024  0.0004  0.0001  0.0000  0.0000  0.0000  0.0000  0.0000 </r>
        <r>  0.0001  0.0003  0.0003  0.0000  0.0000  0.0000  0.0000  0.0000  0.0000 </r>
        <r>  0.0000  0.0018  0.0001  0.0001  0.0000  0.0000  0.0000  0.0000  0.0000 </r>
        <r>  0.0002  0.0002  0.0000  0.0001  0.0000  0.0000  0.0000  0.0000  0.0000 </r>
        <r>  0.0002  0.0001  0.0000  0.0005  0.0000  0.0000  0.0000  0.0000  0.0000 </r>
        <r>  0.0001  0.0027  0.0000  0.0000  0.0000  0.0000  0.0000  0.0000  0.0000 </r>
        <r>  0.0000  0.0012  0.0000  0.0000  0.0000  0.0000  0.0000  0.0000  0.0000 </r>
        <r>  0.0002  0.0000  0.0005  0.0001  0.0000  0.0000  0.0000  0.0000  0.0000 </r>
        <r>  0.0001  0.0012  0.0014  0.0000  0.0000  0.0000  0.0000  0.0000  0.0000 </r>
        <r>  0.0003  0.0003  0.0002  0.0006  0.0000  0.0000  0.0000  0.0000  0.0000 </r>
        <r>  0.0000  0.0005  0.0000  0.0002  0.0000  0.0000  0.0000  0.0000  0.0000 </r>
        <r>  0.0000  0.0000  0.0001  0.0010  0.0000  0.0000  0.0000  0.0000  0.0000 </r>
        <r>  0.0006  0.0002  0.0003  0.0014  0.0000  0.0000  0.0000  0.0000  0.0000 </r>
       </set>
      </set>
     </set>
    </set>
   </array>
  </projected>
 </calculation>
 <structure name="finalpos" >
  <crystal>
   <varray name="basis" >
    <v>      22.78514290       0.00000000       0.00000000 </v>
    <v>       0.00000000       3.87685037       0.00000000 </v>
    <v>      -9.97305163       0.00000241      15.12824818 </v>
   </varray>
   <i name="volume">   1336.34759474 </i>
   <varray name="rec_basis" >
    <v>       0.04388825       0.00000000       0.02893261 </v>
    <v>       0.00000000       0.25794135      -0.00000004 </v>
    <v>       0.00000000       0.00000000       0.06610151 </v>
   </varray>
  </crystal>
  <varray name="positions" >
   <v>       0.34033239       0.67478288       0.61469372 </v>
   <v>       0.36733023       0.00583817       0.04609881 </v>
   <v>       0.63377592       0.01235829       0.95419401 </v>
   <v>       0.86563417       0.50827118       0.04519682 </v>
   <v>       0.13102724       0.50912287       0.95548531 </v>
   <v>       0.24894348       0.00393445       0.13703058 </v>
   <v>       0.75217981       0.00356986       0.86184886 </v>
   <v>       0.74788928       0.50467961       0.13784838 </v>
   <v>       0.24923090       0.50203991       0.86516153 </v>
   <v>       0.12915192       0.99830994       0.22943473 </v>
   <v>       0.86885834       0.99909436       0.76746506 </v>
   <v>       0.63157358       0.49962550       0.23265474 </v>
   <v>       0.36910249       0.47508176       0.77560924 </v>
   <v>       0.41945668       0.97008087       0.37897465 </v>
   <v>       0.58405049       0.96827482       0.61755022 </v>
   <v>       0.91741310       0.46640459       0.38193787 </v>
   <v>       0.08144547       0.46364672       0.62086697 </v>
   <v>       0.29629622       0.03345492       0.46475258 </v>
   <v>       0.70260361       0.00414379       0.52633660 </v>
   <v>       0.79852952       0.50375263       0.47303433 </v>
   <v>       0.19751354       0.49259771       0.52517795 </v>
   <v>       0.46760117       0.02058305       0.71346617 </v>
   <v>       0.53734251       0.00350594       0.28690599 </v>
   <v>       0.96313615       0.50166177       0.71278764 </v>
   <v>       0.03353364       0.50216246       0.28506600 </v>
   <v>       0.99915674       0.25173285       1.00044097 </v>
   <v>       0.50047272       0.75063973       0.00024493 </v>
   <v>      -0.00093964       0.48876549       0.50106958 </v>
   <v>       0.50001139       0.99243471       0.49972589 </v>
   <v>       0.14811203       0.00399499       0.99180096 </v>
   <v>       0.85023197       0.00467805       0.00899968 </v>
   <v>       0.64887735       0.50673168       0.98997339 </v>
   <v>       0.35074170       0.50144720       0.01014857 </v>
   <v>       0.30316108       0.00103164       0.08162412 </v>
   <v>       0.69568397       0.00453743       0.91692779 </v>
   <v>       0.80296051       0.50478477       0.08132026 </v>
   <v>       0.19554698       0.49844231       0.92018106 </v>
   <v>       0.03367074       1.00086316       0.09969106 </v>
   <v>       0.96575311       0.00069525       0.90256139 </v>
   <v>       0.53433988       0.49994666       0.09815119 </v>
   <v>       0.46653518       0.49635951       0.90117686 </v>
   <v>       0.44993234       0.00342159       0.15575245 </v>
   <v>       0.54924854       0.01545010       0.84355661 </v>
   <v>       0.94937835       0.50276680       0.15588466 </v>
   <v>       0.04947346       0.50551265       0.84515658 </v>
   <v>       0.18017348       0.00067319       0.17854797 </v>
   <v>       0.82042368       0.00382571       0.82332198 </v>
   <v>       0.67980954       0.50469294       0.17659218 </v>
   <v>       0.32111669       0.48510858       0.82960105 </v>
   <v>       0.04886559       0.00133012       0.27069374 </v>
   <v>       0.95014192       0.00203395       0.73053216 </v>
   <v>       0.55024007       0.50264452       0.26933889 </v>
   <v>       0.44579897       0.51701210       0.72275652 </v>
   <v>       0.32575641       1.00128495       0.24929668 </v>
   <v>       0.67541751       0.99974779       0.74962148 </v>
   <v>       0.82530216       0.49923379       0.24949208 </v>
   <v>       0.17449244       0.49882164       0.75112471 </v>
   <v>       0.47694962       1.00273278       0.32596357 </v>
   <v>       0.52681796       1.00736460       0.67496566 </v>
   <v>       0.97690468       0.49993657       0.32799434 </v>
   <v>       0.02395059       0.49694437       0.67476875 </v>
   <v>       0.20640824       0.01574484       0.34986648 </v>
   <v>       0.79284303       0.00220208       0.65122004 </v>
   <v>       0.70759541       0.50241052       0.34870367 </v>
   <v>       0.29089933       0.48916804       0.65696159 </v>
   <v>       0.35146941       0.01675361       0.42054106 </v>
   <v>       0.64793982       1.00128515       0.57361448 </v>
   <v>       0.85234732       0.49974467       0.42502579 </v>
   <v>       0.14433754       0.49379811       0.57267683 </v>
   <v>       0.22463408      -0.00061374       0.52458252 </v>
   <v>       0.77886720       0.00326884       0.48113627 </v>
   <v>       0.72203276       0.50333109       0.51842277 </v>
   <v>       0.28341936       0.52602075       0.48754862 </v>
   <v>       0.38052125       0.03289225       0.59347486 </v>
   <v>       0.62229723       0.00288785       0.40361745 </v>
   <v>       0.87841424       0.50308154       0.59602175 </v>
   <v>       0.12257655       0.49761722       0.40413069 </v>
   <v>       0.09039250       0.98973024       0.63205387 </v>
   <v>       0.91014611       0.99228858       0.36837691 </v>
   <v>       0.59078551       0.49456981       0.63037183 </v>
   <v>       0.41056181       0.49682740       0.36819425 </v>
   <v>       0.39183405       0.99003671       0.76683298 </v>
   <v>       0.60597345       0.00176931       0.23138121 </v>
   <v>       0.89424408       0.50135313       0.76854372 </v>
   <v>       0.10629124       0.50267070       0.23243184 </v>
   <v>       0.27443906      -0.00093082       0.89796224 </v>
   <v>       0.72394697       0.00552339       0.10233834 </v>
   <v>       0.77561587       0.50414651       0.89695452 </v>
   <v>       0.22392112       0.50320639       0.10418256 </v>
   <v>       0.42881407       0.00022519       0.98691614 </v>
   <v>       0.57131645       0.00286343       0.01301965 </v>
   <v>       0.92808883       0.50433654       0.98695149 </v>
   <v>       0.07072316       0.50478048       0.01439437 </v>
  </varray>
 </structure>
</modeling>
