 vasp.6.3.2 27Jun22 (build Aug 05 2024 15:42:26) complex                        
  
 executed on             LinuxIFC date 2025.06.02  20:29:52
 running  192 mpi-ranks, with    1 threads/rank
 distrk:  each k-point on  192 cores,    1 groups
 distr:  one band on NCORE=   1 cores,  192 groups


--------------------------------------------------------------------------------------------------------


 INCAR:
   ADDGRID = True
   ALGO = Fast
   EDIFF = 1e-06
   EDIFFG = -0.01
   ENCUT = 520.0
   IBRION = 1
   ISIF = 2
   ISMEAR = 0
   ISPIN = 2
   ISYM = 0
   LASPH = True
   LDAU = True
   LDAUJ = 0 0 0 0
   LDAUL = 0 0 2 0
   LDAUPRINT = 1
   LDAUTYPE = 2
   LDAUU = 0 0 4.38 0
   LMAXMIX = 4
   LORBIT = 11
   LREAL = False
   LWAVE = False
   MAGMOM = 93*0.6
   NELM = 100
   NELMIN = 3
   NSW = 350
   POTIM = 0.2
   PREC = Accurate
   SIGMA = 0.05

 POTCAR:   PAW_PBE Li_sv 23Jan2001                
 POTCAR:   PAW_PBE Nb_pv 08Apr2002                
 POTCAR:   PAW_PBE Mo_pv 08Apr2002                
 POTCAR:   PAW_PBE O 08Apr2002                    
 POTCAR:   PAW_PBE Li_sv 23Jan2001                
   VRHFIN =Li: 1s2s2p                                                                               
   LEXCH  = PE                                                                                      
   EATOM  =   202.7858 eV,   14.9043 Ry                                                             
                                                                                                    
   TITEL  = PAW_PBE Li_sv 23Jan2001                                                                 
   LULTRA =        F    use ultrasoft PP ?                                                          
   IUNSCR =        0    unscreen: 0-lin 1-nonlin 2-no                                               
   RPACOR =     .000    partial core radius                                                         
   POMASS =    7.010; ZVAL   =    3.000    mass and valenz                                          
   RCORE  =    2.050    outmost cutoff radius                                                       
   RWIGS  =    2.050; RWIGS  =    1.085    wigner-seitz radius (au A)                               
   ENMAX  =  271.649; ENMIN  =  203.737 eV                                                          
   ICORE  =        2    local potential                                                             
   LCOR   =        T    correct aug charges                                                         
   LPAW   =        T    paw PP                                                                      
   EAUG   =  428.394                                                                                
   RMAX   =    2.797    core radius for proj-oper                                                   
   RAUG   =    1.300    factor for augmentation sphere                                              
   RDEP   =    2.094    radius for radial grids                                                     
   RDEPT  =    1.550    core radius for aug-charge                                                  
   QCUT   =   -4.468; QGAM   =    8.937    optimization parameters                                  
                                                                                                    
   Description                                                                                      
     l     E      TYP  RCUT    TYP  RCUT                                                            
     0   .000     23  1.550                                                                         
     0   .000     23  2.050                                                                         
     0   .000     23  1.550                                                                         
     0   .000     23  2.050                                                                         
     1  -.200     23  2.050                                                                         
     1  1.500     23  2.050                                                                         
     2   .000      7  1.550                                                                         
  local pseudopotential read in
  atomic valenz-charges read in
  non local Contribution for L=           0  read in
    real space projection operators read in
  non local Contribution for L=           0  read in
    real space projection operators read in
  non local Contribution for L=           1  read in
    real space projection operators read in
  non local Contribution for L=           1  read in
    real space projection operators read in
    PAW grid and wavefunctions read in
 
   number of l-projection  operators is LMAX  =           4
   number of lm-projection operators is LMMAX =           8
 
 POTCAR:   PAW_PBE Nb_pv 08Apr2002                
   VRHFIN =Nb: 4p5s4d                                                                               
   LEXCH  = PE                                                                                      
   EATOM  =  1043.3919 eV,   76.6871 Ry                                                             
                                                                                                    
   TITEL  = PAW_PBE Nb_pv 08Apr2002                                                                 
   LULTRA =        F    use ultrasoft PP ?                                                          
   IUNSCR =        1    unscreen: 0-lin 1-nonlin 2-no                                               
   RPACOR =    2.200    partial core radius                                                         
   POMASS =   92.000; ZVAL   =   11.000    mass and valenz                                          
   RCORE  =    2.750    outmost cutoff radius                                                       
   RWIGS  =    2.840; RWIGS  =    1.503    wigner-seitz radius (au A)                               
   ENMAX  =  208.608; ENMIN  =  156.456 eV                                                          
   RCLOC  =    2.201    cutoff for local pot                                                        
   LCOR   =        T    correct aug charges                                                         
   LPAW   =        T    paw PP                                                                      
   EAUG   =  355.067                                                                                
   DEXC   =    -.005                                                                                
   RMAX   =    3.192    core radius for proj-oper                                                   
   RAUG   =    1.300    factor for augmentation sphere                                              
   RDEP   =    2.776    radius for radial grids                                                     
   QCUT   =   -3.916; QGAM   =    7.831    optimization parameters                                  
                                                                                                    
   Description                                                                                      
     l     E      TYP  RCUT    TYP  RCUT                                                            
     1   .000     23  2.600                                                                         
     1  -.100     23  2.600                                                                         
     2   .000     23  2.600                                                                         
     2   .000     23  2.600                                                                         
     0   .000     23  2.750                                                                         
     0  1.500     23  2.750                                                                         
     3   .000      7   .000                                                                         
  local pseudopotential read in
  partial core-charges read in
  atomic valenz-charges read in
  non local Contribution for L=           1  read in
    real space projection operators read in
  non local Contribution for L=           1  read in
    real space projection operators read in
  non local Contribution for L=           2  read in
    real space projection operators read in
  non local Contribution for L=           2  read in
    real space projection operators read in
  non local Contribution for L=           0  read in
    real space projection operators read in
  non local Contribution for L=           0  read in
    real space projection operators read in
    PAW grid and wavefunctions read in
 
   number of l-projection  operators is LMAX  =           6
   number of lm-projection operators is LMMAX =          18
 
 POTCAR:   PAW_PBE Mo_pv 08Apr2002                
   VRHFIN =Mo: 4p5s4d                                                                               
   LEXCH  = PE                                                                                      
   EATOM  =  1284.3009 eV,   94.3935 Ry                                                             
                                                                                                    
   TITEL  = PAW_PBE Mo_pv 08Apr2002                                                                 
   LULTRA =        F    use ultrasoft PP ?                                                          
   IUNSCR =        1    unscreen: 0-lin 1-nonlin 2-no                                               
   RPACOR =    2.200    partial core radius                                                         
   POMASS =   95.940; ZVAL   =   12.000    mass and valenz                                          
   RCORE  =    2.600    outmost cutoff radius                                                       
   RWIGS  =    2.750; RWIGS  =    1.455    wigner-seitz radius (au A)                               
   ENMAX  =  224.584; ENMIN  =  168.438 eV                                                          
   RCLOC  =    1.902    cutoff for local pot                                                        
   LCOR   =        T    correct aug charges                                                         
   LPAW   =        T    paw PP                                                                      
   EAUG   =  392.427                                                                                
   DEXC   =    -.006                                                                                
   RMAX   =    3.077    core radius for proj-oper                                                   
   RAUG   =    1.300    factor for augmentation sphere                                              
   RDEP   =    2.641    radius for radial grids                                                     
   QCUT   =   -4.063; QGAM   =    8.126    optimization parameters                                  
                                                                                                    
   Description                                                                                      
     l     E      TYP  RCUT    TYP  RCUT                                                            
     1   .000     23  2.500                                                                         
     1  -.200     23  2.500                                                                         
     2   .000     23  2.500                                                                         
     2   .000     23  2.500                                                                         
     0   .000     23  2.600                                                                         
     0  1.000     23  2.600                                                                         
     3   .000      7   .000                                                                         
  local pseudopotential read in
  partial core-charges read in
  atomic valenz-charges read in
  non local Contribution for L=           1  read in
    real space projection operators read in
  non local Contribution for L=           1  read in
    real space projection operators read in
  non local Contribution for L=           2  read in
    real space projection operators read in
  non local Contribution for L=           2  read in
    real space projection operators read in
  non local Contribution for L=           0  read in
    real space projection operators read in
  non local Contribution for L=           0  read in
    real space projection operators read in
    PAW grid and wavefunctions read in
 
   number of l-projection  operators is LMAX  =           6
   number of lm-projection operators is LMMAX =          18
 
 POTCAR:   PAW_PBE O 08Apr2002                    
   VRHFIN =O: s2p4                                                                                  
   LEXCH  = PE                                                                                      
   EATOM  =   432.3788 eV,   31.7789 Ry                                                             
                                                                                                    
   TITEL  = PAW_PBE O 08Apr2002                                                                     
   LULTRA =        F    use ultrasoft PP ?                                                          
   IUNSCR =        0    unscreen: 0-lin 1-nonlin 2-no                                               
   RPACOR =     .000    partial core radius                                                         
   POMASS =   16.000; ZVAL   =    6.000    mass and valenz                                          
   RCORE  =    1.520    outmost cutoff radius                                                       
   RWIGS  =    1.550; RWIGS  =     .820    wigner-seitz radius (au A)                               
   ENMAX  =  400.000; ENMIN  =  300.000 eV                                                          
   ICORE  =        2    local potential                                                             
   LCOR   =        T    correct aug charges                                                         
   LPAW   =        T    paw PP                                                                      
   EAUG   =  605.392                                                                                
   DEXC   =     .000                                                                                
   RMAX   =    2.264    core radius for proj-oper                                                   
   RAUG   =    1.300    factor for augmentation sphere                                              
   RDEP   =    1.550    radius for radial grids                                                     
   QCUT   =   -5.520; QGAM   =   11.041    optimization parameters                                  
                                                                                                    
   Description                                                                                      
     l     E      TYP  RCUT    TYP  RCUT                                                            
     0   .000     23  1.200                                                                         
     0  -.700     23  1.200                                                                         
     1   .000     23  1.520                                                                         
     1   .600     23  1.520                                                                         
     2   .000      7  1.500                                                                         
  local pseudopotential read in
  atomic valenz-charges read in
  non local Contribution for L=           0  read in
    real space projection operators read in
  non local Contribution for L=           0  read in
    real space projection operators read in
  non local Contribution for L=           1  read in
    real space projection operators read in
  non local Contribution for L=           1  read in
    real space projection operators read in
    PAW grid and wavefunctions read in
 
   number of l-projection  operators is LMAX  =           4
   number of lm-projection operators is LMMAX =           8
 
 -----------------------------------------------------------------------------
|                                                                             |
|               ----> ADVICE to this user running VASP <----                  |
|                                                                             |
|     You have a (more or less) 'large supercell' and for larger cells it     |
|     might be more efficient to use real-space projection operators.         |
|     Therefore, try LREAL= Auto in the INCAR file.                           |
|     Mind: If you want to do very accurate calculations, keep the            |
|     reciprocal projection scheme (i.e. LREAL=.FALSE.).                      |
|                                                                             |
 -----------------------------------------------------------------------------

 PAW_PBE Li_sv 23Jan2001                :
 energy of atom  1       EATOM= -202.7858
 kinetic energy error for atom=    0.0020 (will be added to EATOM!!)
 PAW_PBE Nb_pv 08Apr2002                :
 energy of atom  2       EATOM=-1043.3919
 kinetic energy error for atom=    0.0011 (will be added to EATOM!!)
 PAW_PBE Mo_pv 08Apr2002                :
 energy of atom  3       EATOM=-1284.3009
 kinetic energy error for atom=    0.0019 (will be added to EATOM!!)
 PAW_PBE O 08Apr2002                    :
 energy of atom  4       EATOM= -432.3788
 kinetic energy error for atom=    0.0208 (will be added to EATOM!!)
 
 
 POSCAR: Li1 Nb24 Mo2 O66
  positions in direct lattice
  No initial velocities read in
 exchange correlation table for  LEXCH =        8
   RHO(1)=    0.500       N(1)  =     2000
   RHO(2)=  100.500       N(2)  =     4000
 


--------------------------------------------------------------------------------------------------------


 ion  position               nearest neighbor table
   1  0.300  0.995  0.650-  65 1.92  65 1.97  82 2.03  70 2.03  13 2.66  13 2.66  21 2.85  21 2.90

   2  0.367  0.009  0.046-  42 1.85  34 1.89  33 2.00  33 2.04  90 2.17  86 2.34   9 3.47   9 3.49

   3  0.633  0.009  0.954-  43 1.85  35 1.89  32 2.00  32 2.04  91 2.17  87 2.34   8 3.47   8 3.49

   4  0.867  0.509  0.046-  44 1.85  36 1.89  31 2.00  31 2.04  92 2.17  88 2.34   7 3.47   7 3.49

   5  0.133  0.509  0.954-  45 1.85  37 1.89  30 2.00  30 2.04  93 2.17  89 2.34   6 3.47   6 3.49

   6  0.248  0.004  0.137-  54 1.82  34 2.00  89 2.01  89 2.02  46 2.04  30 2.35   5 3.47   5 3.49

   7  0.752  0.004  0.863-  55 1.82  35 2.00  88 2.01  88 2.02  47 2.04  31 2.35   4 3.47   4 3.49

   8  0.748  0.504  0.137-  56 1.82  36 2.00  87 2.01  87 2.02  48 2.04  32 2.35   3 3.47   3 3.49

   9  0.252  0.504  0.863-  57 1.82  37 2.00  86 2.01  86 2.02  49 2.04  33 2.35   2 3.47   2 3.49

  10  0.131  0.996  0.232-  62 1.85  46 1.86  85 2.01  85 2.04  38 2.20  50 2.32  25 3.44  25 3.46

  11  0.869  0.996  0.768-  63 1.85  47 1.86  84 2.01  84 2.04  39 2.20  51 2.32  24 3.44  24 3.46

  12  0.631  0.496  0.232-  64 1.85  48 1.86  83 2.01  83 2.04  40 2.20  52 2.32  23 3.44  23 3.46

  13  0.369  0.496  0.768-  65 1.85  49 1.86  82 2.01  82 2.04  41 2.20  53 2.32   1 2.66   1 2.66
                            22 3.44  22 3.46
  14  0.417  0.968  0.381-  81 1.85  29 1.93  66 2.04  81 2.05  58 2.05  54 2.14
  15  0.583  0.968  0.619-  80 1.85  29 1.93  67 2.04  80 2.05  59 2.05  55 2.14
  16  0.917  0.468  0.381-  79 1.85  28 1.93  68 2.04  79 2.05  60 2.05  56 2.14
  17  0.083  0.468  0.619-  78 1.85  28 1.93  69 2.04  78 2.05  61 2.05  57 2.14
  18  0.299  0.005  0.473-  66 1.85  74 1.94  73 2.01  73 2.02  62 2.06  70 2.32  21 3.46  21 3.46

  19  0.701  0.005  0.527-  67 1.85  75 1.94  72 2.01  72 2.02  63 2.06  71 2.32  20 3.46  20 3.46

  20  0.799  0.505  0.473-  68 1.85  76 1.94  71 2.01  71 2.02  64 2.06  72 2.32  19 3.46  19 3.46

  21  0.201  0.505  0.527-  69 1.85  77 1.94  70 2.01  70 2.02  65 2.06  73 2.32   1 2.85   1 2.90
                            18 3.46  18 3.46
  22  0.465  0.001  0.713-  59 1.85  74 1.95  53 2.01  53 2.01  43 2.08  82 2.30  13 3.44  13 3.46

  23  0.535  0.001  0.287-  58 1.85  75 1.95  52 2.01  52 2.01  42 2.08  83 2.30  12 3.44  12 3.46

  24  0.965  0.501  0.713-  61 1.85  76 1.95  51 2.01  51 2.01  45 2.08  84 2.30  11 3.44  11 3.46

  25  0.035  0.501  0.287-  60 1.85  77 1.95  50 2.01  50 2.01  44 2.08  85 2.30  10 3.44  10 3.46

  26  0.000  0.252  0.000-  39 1.79  38 1.79  93 1.80  92 1.80
  27  0.500  0.752  0.000-  40 1.79  41 1.79  91 1.80  90 1.80
  28  0.000  0.493  0.500-  17 1.93  16 1.93
  29  0.500  0.993  0.500-  15 1.93  14 1.93
  30  0.150  0.003  0.991-   5 2.00   5 2.04   6 2.35
  31  0.850  0.003  0.009-   4 2.00   4 2.04   7 2.35
  32  0.650  0.503  0.991-   3 2.00   3 2.04   8 2.35
  33  0.350  0.503  0.009-   2 2.00   2 2.04   9 2.35
  34  0.303  0.001  0.082-   2 1.89   6 2.00
  35  0.697  0.001  0.918-   3 1.89   7 2.00
  36  0.803  0.501  0.082-   4 1.89   8 2.00
  37  0.197  0.501  0.918-   5 1.89   9 2.00
  38  0.035  1.000  0.098-  26 1.79  10 2.20
  39  0.965  1.000  0.902-  26 1.79  11 2.20
  40  0.535  0.500  0.098-  27 1.79  12 2.20
  41  0.465  0.500  0.902-  27 1.79  13 2.20
  42  0.450  0.004  0.157-   2 1.85  23 2.08
  43  0.550  0.004  0.843-   3 1.85  22 2.08
  44  0.950  0.504  0.157-   4 1.85  25 2.08
  45  0.050  0.504  0.843-   5 1.85  24 2.08
  46  0.180  0.001  0.178-  10 1.86   6 2.04
  47  0.820  0.001  0.822-  11 1.86   7 2.04
  48  0.680  0.501  0.178-  12 1.86   8 2.04
  49  0.320  0.501  0.822-  13 1.86   9 2.04
  50  0.049  0.001  0.271-  25 2.01  25 2.01  10 2.32
  51  0.951  0.001  0.729-  24 2.01  24 2.01  11 2.32
  52  0.549  0.501  0.271-  23 2.01  23 2.01  12 2.32
  53  0.451  0.501  0.729-  22 2.01  22 2.01  13 2.32
  54  0.326  0.001  0.250-   6 1.82  14 2.14
  55  0.674  0.001  0.750-   7 1.82  15 2.14
  56  0.826  0.501  0.250-   8 1.82  16 2.14
  57  0.174  0.501  0.750-   9 1.82  17 2.14
  58  0.476  1.000  0.327-  23 1.85  14 2.05
  59  0.524  1.000  0.673-  22 1.85  15 2.05
  60  0.976  0.500  0.327-  25 1.85  16 2.05
  61  0.024  0.500  0.673-  24 1.85  17 2.05
  62  0.207  0.002  0.349-  10 1.85  18 2.06
  63  0.793  0.002  0.651-  11 1.85  19 2.06
  64  0.707  0.502  0.349-  12 1.85  20 2.06
  65  0.293  0.502  0.651-  13 1.85   1 1.92   1 1.97  21 2.06
  66  0.352  0.002  0.425-  18 1.85  14 2.04
  67  0.648  0.002  0.575-  19 1.85  15 2.04
  68  0.852  0.502  0.425-  20 1.85  16 2.04
  69  0.148  0.502  0.575-  21 1.85  17 2.04
  70  0.222  0.004  0.519-  21 2.01  21 2.02   1 2.03  18 2.32
  71  0.778  0.004  0.481-  20 2.01  20 2.02  19 2.32
  72  0.722  0.504  0.519-  19 2.01  19 2.02  20 2.32
  73  0.278  0.504  0.481-  18 2.01  18 2.02  21 2.32
  74  0.378  0.002  0.596-  18 1.94  22 1.95
  75  0.622  0.002  0.404-  19 1.94  23 1.95
  76  0.878  0.502  0.596-  20 1.94  24 1.95
  77  0.122  0.502  0.404-  21 1.94  25 1.95
  78  0.090  0.994  0.631-  17 1.85  17 2.05
  79  0.910  0.994  0.369-  16 1.85  16 2.05
  80  0.590  0.494  0.631-  15 1.85  15 2.05
  81  0.410  0.494  0.369-  14 1.85  14 2.05
  82  0.394  0.000  0.768-  13 2.01   1 2.03  13 2.04  22 2.30
  83  0.606  0.000  0.232-  12 2.01  12 2.04  23 2.30
  84  0.894  0.500  0.768-  11 2.01  11 2.04  24 2.30
  85  0.106  0.500  0.232-  10 2.01  10 2.04  25 2.30
  86  0.276  0.003  0.897-   9 2.01   9 2.02   2 2.34
  87  0.724  0.003  0.103-   8 2.01   8 2.02   3 2.34
  88  0.776  0.503  0.897-   7 2.01   7 2.02   4 2.34
  89  0.224  0.503  0.103-   6 2.01   6 2.02   5 2.34
  90  0.429  0.001  0.988-  27 1.80   2 2.17
  91  0.571  0.001  0.012-  27 1.80   3 2.17
  92  0.929  0.501  0.988-  26 1.80   4 2.17
  93  0.071  0.501  0.012-  26 1.80   5 2.17
 

IMPORTANT INFORMATION: All symmetrisations will be switched off!
NOSYMM: (Re-)initialisation of all symmetry stuff for point group C_1.


----------------------------------------------------------------------------------------

                                     Primitive cell                                     

  volume of cell :    1336.3476

  direct lattice vectors                    reciprocal lattice vectors
    22.785142899  0.000000000  0.000000000     0.043888248  0.000000000  0.028932614
     0.000000000  3.876850367  0.000000000     0.000000000  0.257941346 -0.000000041
    -9.973051630  0.000002413 15.128248185     0.000000000  0.000000000  0.066101507

  length of vectors
    22.785142899  3.876850367 18.119758606     0.052566857  0.257941346  0.066101507

  position of ions in fractional coordinates (direct lattice)
     0.300000012  0.995000005  0.649999976
     0.367032468  0.008588224  0.046037953
     0.632967591  0.008586925  0.953961968
     0.867032468  0.508586705  0.046037957
     0.132967621  0.508586347  0.953962088
     0.248390913  0.003538838  0.137481004
     0.751609147  0.003540096  0.862518907
     0.748390853  0.503541291  0.137480959
     0.251609176  0.503540516  0.862518966
     0.131397530  0.996466458  0.232483745
     0.868602395  0.996467888  0.767516077
     0.631397545  0.496466160  0.232483789
     0.368602455  0.496467084  0.767516196
     0.417339504  0.967753410  0.380907148
     0.582660437  0.967754066  0.619092822
     0.917339563  0.467754364  0.380907208
     0.082660347  0.467751503  0.619092703
     0.298795044  0.005177166  0.473374635
     0.701204836  0.005174780  0.526625276
     0.798795044  0.505177081  0.473374695
     0.201204911  0.505175650  0.526625335
     0.464619935  0.001402153  0.712855220
     0.535379946  0.001402178  0.287144661
     0.964619994  0.501402974  0.712855339
     0.035380036  0.501403868  0.287144780
     0.000000000  0.251767516  0.000000000
     0.499999911  0.751767933  0.000000000
     0.000000140  0.493270248  0.500000179
     0.500000060  0.993268073  0.500000060
     0.149720326  0.003319751  0.990709722
     0.850279748  0.003320290  0.009290479
     0.649720371  0.503320456  0.990709722
     0.350279808  0.503321171  0.009290626
     0.303458095  0.001135590  0.081838757
     0.696541905  0.001134367  0.918161154
     0.803458095  0.501134515  0.081838787
     0.196541905  0.501134455  0.918161154
     0.034868445  0.999984443  0.098450094
     0.965131581  0.999984920  0.901549995
     0.534868360  0.499985188  0.098450005
     0.465131491  0.499984622  0.901549995
     0.449869484  0.003999513  0.156501502
     0.550130427  0.003997388  0.843498468
     0.949869514  0.503997147  0.156501502
     0.050130446  0.503997028  0.843498528
     0.180274546  0.000569226  0.177570015
     0.819725513  0.000572272  0.822430015
     0.680274487  0.500569701  0.177570000
     0.319725513  0.500570774  0.822430074
     0.049486183  0.001194181  0.270745665
     0.950513780  0.001194002  0.729254365
     0.549486160  0.501193643  0.270745575
     0.450513750  0.501193583  0.729254305
     0.325580776  0.000777367  0.249842033
     0.674419224  0.000779130  0.750157893
     0.825580776  0.500779271  0.249842003
     0.174419269  0.500780046  0.750157952
     0.476032197  0.999875426  0.326906860
     0.523967683  0.999876440  0.673093081
     0.976032197  0.499876589  0.326906949
     0.023967750  0.499878138  0.673093200
     0.207227945  0.002106899  0.349147856
     0.792771995  0.002107400  0.650851905
     0.707227945  0.502105772  0.349147886
     0.292772025  0.502106428  0.650851965
     0.352319062  0.002212975  0.425084382
     0.647680938  0.002212399  0.574915648
     0.852319121  0.502212882  0.425084412
     0.147680998  0.502214670  0.574915648
     0.221702725  0.003606565  0.519376993
     0.778297365  0.003606716  0.480622858
     0.721702754  0.503606319  0.519377053
     0.278297395  0.503607154  0.480622858
     0.378164202  0.002214626  0.595669806
     0.621835709  0.002213158  0.404330075
     0.878164232  0.502214074  0.595669806
     0.121835716  0.502213597  0.404330105
     0.090243012  0.994214058  0.630857348
     0.909756958  0.994207263  0.369142711
     0.590242982  0.494208306  0.630857289
     0.409757137  0.494205922  0.369142830
     0.394239366  0.000126983  0.767691493
     0.605760634  0.000126476  0.232308522
     0.894239306  0.500127673  0.767691553
     0.105760612  0.500126779  0.232308567
     0.275653273  0.002798338  0.896677315
     0.724346817  0.002798364  0.103322670
     0.775653303  0.502798200  0.896677375
     0.224346802  0.502797365  0.103322707
     0.428709298  0.001423744  0.987942457
     0.571290553  0.001422816  0.012057430
     0.928709388  0.501423240  0.987942576
     0.071290657  0.501422763  0.012057608

  ion indices of the primitive-cell ions
   primitive index   ion index
                 1           1
                 2           2
                 3           3
                 4           4
                 5           5
                 6           6
                 7           7
                 8           8
                 9           9
                10          10
                11          11
                12          12
                13          13
                14          14
                15          15
                16          16
                17          17
                18          18
                19          19
                20          20
                21          21
                22          22
                23          23
                24          24
                25          25
                26          26
                27          27
                28          28
                29          29
                30          30
                31          31
                32          32
                33          33
                34          34
                35          35
                36          36
                37          37
                38          38
                39          39
                40          40
                41          41
                42          42
                43          43
                44          44
                45          45
                46          46
                47          47
                48          48
                49          49
                50          50
                51          51
                52          52
                53          53
                54          54
                55          55
                56          56
                57          57
                58          58
                59          59
                60          60
                61          61
                62          62
                63          63
                64          64
                65          65
                66          66
                67          67
                68          68
                69          69
                70          70
                71          71
                72          72
                73          73
                74          74
                75          75
                76          76
                77          77
                78          78
                79          79
                80          80
                81          81
                82          82
                83          83
                84          84
                85          85
                86          86
                87          87
                88          88
                89          89
                90          90
                91          91
                92          92
                93          93

----------------------------------------------------------------------------------------

 
 
 KPOINTS: pymatgen with grid density = 1000 / numb

Automatic generation of k-mesh.
 Grid dimensions read from file:
 generate k-points for:    1    6    1

 Generating k-lattice:

  Cartesian coordinates                     Fractional coordinates (reciprocal lattice)
     0.043888248  0.000000000  0.028932614     1.000000000  0.000000000 -0.000000000
     0.000000000  0.042990224 -0.000000007     0.000000000  0.166666667  0.000000000
     0.000000000  0.000000000  0.066101507     0.000000000  0.000000000  1.000000000

  Length of vectors
     0.052566857  0.042990224  0.066101507

  Shift w.r.t. Gamma in fractional coordinates (k-lattice)
     0.000000000  0.000000000  0.000000000

 
 Subroutine IBZKPT returns following result:
 ===========================================
 
 Found      4 irreducible k-points:
 
 Following reciprocal coordinates:
            Coordinates               Weight
  0.000000  0.000000  0.000000      1.000000
  0.000000  0.166667  0.000000      2.000000
  0.000000  0.333333  0.000000      2.000000
  0.000000  0.500000  0.000000      1.000000
 
 Following cartesian coordinates:
            Coordinates               Weight
  0.000000  0.000000  0.000000      1.000000
  0.000000  0.042990 -0.000000      2.000000
  0.000000  0.085980 -0.000000      2.000000
  0.000000  0.128971 -0.000000      1.000000
 


--------------------------------------------------------------------------------------------------------




 Dimension of arrays:
   k-points           NKPTS =      4   k-points in BZ     NKDIM =      4   number of bands    NBANDS=    576
   number of dos      NEDOS =    301   number of ions     NIONS =     93
   non local maximal  LDIM  =      6   non local SUM 2l+1 LMDIM =     18
   total plane-waves  NPLWV = 756000
   max r-space proj   IRMAX =      1   max aug-charges    IRDMAX= 278808
   dimension x,y,z NGX =   180 NGY =   30 NGZ =  140
   dimension x,y,z NGXF=   360 NGYF=   60 NGZF=  280
   support grid    NGXF=   720 NGYF=  120 NGZF=  560
   ions per type =               1  24   2  66
   NGX,Y,Z   is equivalent  to a cutoff of  13.13, 12.86, 12.84 a.u.
   NGXF,Y,Z  is equivalent  to a cutoff of  26.27, 25.73, 25.69 a.u.

 SYSTEM =  unknown system                          
 POSCAR =  Li1 Nb24 Mo2 O66                        

 Startparameter for this run:
   NWRITE =      2    write-flag & timer
   PREC   = accura    normal or accurate (medium, high low for compatibility)
   ISTART =      0    job   : 0-new  1-cont  2-samecut
   ICHARG =      2    charge: 1-file 2-atom 10-const
   ISPIN  =      2    spin polarized calculation?
   LNONCOLLINEAR =      F non collinear calculations
   LSORBIT =      F    spin-orbit coupling
   INIWAV =      1    electr: 0-lowe 1-rand  2-diag
   LASPH  =      T    aspherical Exc in radial PAW
 Electronic Relaxation 1
   ENCUT  =  520.0 eV  38.22 Ry    6.18 a.u.  42.37  7.21 33.69*2*pi/ulx,y,z
   ENINI  =  520.0     initial cutoff
   ENAUG  =  605.4 eV  augmentation charge cutoff
   NELM   =    100;   NELMIN=  3; NELMDL= -5     # of ELM steps 
   EDIFF  = 0.1E-05   stopping-criterion for ELM
   LREAL  =      F    real-space projection
   NLSPLINE    = F    spline interpolate recip. space projectors
   LCOMPAT=      F    compatible to vasp.4.4
   GGA_COMPAT  = T    GGA compatible to vasp.4.4-vasp.4.6
   LMAXPAW     = -100 max onsite density
   LMAXMIX     =    4 max onsite mixed and CHGCAR
   VOSKOWN=      0    Vosko Wilk Nusair interpolation
   ROPT   =    0.00000   0.00000   0.00000   0.00000
 Ionic relaxation
   EDIFFG = -.1E-01   stopping-criterion for IOM
   NSW    =    350    number of steps for IOM
   NBLOCK =      1;   KBLOCK =    350    inner block; outer block 
   IBRION =      1    ionic relax: 0-MD 1-quasi-New 2-CG
   NFREE  =      0    steps in history (QN), initial steepest desc. (CG)
   ISIF   =      2    stress and relaxation
   IWAVPR =     11    prediction:  0-non 1-charg 2-wave 3-comb
   ISYM   =      0    0-nonsym 1-usesym 2-fastsym
   LCORR  =      T    Harris-Foulkes like correction to forces

   POTIM  = 0.2000    time-step for ionic-motion
   TEIN   =    0.0    initial temperature
   TEBEG  =    0.0;   TEEND  =   0.0 temperature during run
   SMASS  =  -3.00    Nose mass-parameter (am)
   estimated Nose-frequenzy (Omega)   =  0.10E-29 period in steps = 0.31E+47 mass=  -0.119E-25a.u.
   SCALEE = 1.0000    scale energy and forces
   NPACO  =    256;   APACO  = 10.0  distance and # of slots for P.C.
   PSTRESS=    0.0 pullay stress

  Mass of Ions in am
   POMASS =   7.01 92.00 95.94 16.00
  Ionic Valenz
   ZVAL   =   3.00 11.00 12.00  6.00
  Atomic Wigner-Seitz radii
   RWIGS  =  -1.00 -1.00 -1.00 -1.00
  virtual crystal weights 
   VCA    =   1.00  1.00  1.00  1.00
   NELECT =     687.0000    total number of electrons
   NUPDOWN=      -1.0000    fix difference up-down

 DOS related values:
   EMIN   =  10.00;   EMAX   =-10.00  energy-range for DOS
   EFERMI =   0.00
   ISMEAR =     0;   SIGMA  =   0.05  broadening in eV -4-tet -1-fermi 0-gaus

 Electronic relaxation 2 (details)
   IALGO  =     68    algorithm
   LDIAG  =      T    sub-space diagonalisation (order eigenvalues)
   LSUBROT=      F    optimize rotation matrix (better conditioning)
   TURBO    =      0    0=normal 1=particle mesh
   IRESTART =      0    0=no restart 2=restart with 2 vectors
   NREBOOT  =      0    no. of reboots
   NMIN     =      0    reboot dimension
   EREF     =   0.00    reference energy to select bands
   IMIX   =      4    mixing-type and parameters
     AMIX     =   0.40;   BMIX     =  1.00
     AMIX_MAG =   1.60;   BMIX_MAG =  1.00
     AMIN     =   0.10
     WC   =   100.;   INIMIX=   1;  MIXPRE=   1;  MAXMIX= -45

 Intra band minimization:
   WEIMIN = 0.0010     energy-eigenvalue tresh-hold
   EBREAK =  0.43E-09  absolut break condition
   DEPER  =   0.30     relativ break condition  

   TIME   =   0.40     timestep for ELM

  volume/ion in A,a.u.               =      14.37        96.97
  Fermi-wavevector in a.u.,A,eV,Ry     =   1.311457  2.478294 23.400912  1.719918
  Thomas-Fermi vector in A             =   2.441917
 
 Write flags
   LWAVE        =      F    write WAVECAR
   LDOWNSAMPLE  =      F    k-point downsampling of WAVECAR
   LCHARG       =      T    write CHGCAR
   LVTOT        =      F    write LOCPOT, total local potential
   LVHAR        =      F    write LOCPOT, Hartree potential only
   LELF         =      F    write electronic localiz. function (ELF)
   LORBIT       =     11    0 simple, 1 ext, 2 COOP (PROOUT), +10 PAW based schemes


 Dipole corrections
   LMONO  =      F    monopole corrections only (constant potential shift)
   LDIPOL =      F    correct potential (dipole corrections)
   IDIPOL =      0    1-x, 2-y, 3-z, 4-all directions 
   EPSILON=  1.0000000 bulk dielectric constant

 LDA+U is selected, type is set to LDAUTYPE =  2
   angular momentum for each species LDAUL =     0    0    2    0
   U (eV)           for each species LDAUU =   0.0  0.0  4.4  0.0
   J (eV)           for each species LDAUJ =   0.0  0.0  0.0  0.0
 Exchange correlation treatment:
   GGA     =    --    GGA type
   LEXCH   =     8    internal setting for exchange type
   LIBXC   =     F    Libxc                    
   VOSKOWN =     0    Vosko Wilk Nusair interpolation
   LHFCALC =     F    Hartree Fock is set to
   LHFONE  =     F    Hartree Fock one center treatment
   AEXX    =    0.0000 exact exchange contribution

 Linear response parameters
   LEPSILON=     F    determine dielectric tensor
   LRPA    =     F    only Hartree local field effects (RPA)
   LNABLA  =     F    use nabla operator in PAW spheres
   LVEL    =     F    velocity operator in full k-point grid
   CSHIFT  =0.1000    complex shift for real part using Kramers Kronig
   OMEGAMAX=  -1.0    maximum frequency
   DEG_THRESHOLD= 0.2000000E-02 threshold for treating states as degnerate
   RTIME   =   -0.100 relaxation time in fs
  (WPLASMAI=    0.000 imaginary part of plasma frequency in eV, 0.658/RTIME)
   DFIELD  = 0.0000000 0.0000000 0.0000000 field for delta impulse in time
 
  Optional k-point grid parameters
   LKPOINTS_OPT  =     F    use optional k-point grid
   KPOINTS_OPT_MODE=     1    mode for optional k-point grid
 
 Orbital magnetization related:
   ORBITALMAG=     F  switch on orbital magnetization
   LCHIMAG   =     F  perturbation theory with respect to B field
   DQ        =  0.001000  dq finite difference perturbation B field
   LLRAUG    =     F  two centre corrections for induced B field



--------------------------------------------------------------------------------------------------------


 quasi-Newton-method for relaxation of ions
 charge density and potential will be updated during run
 spin polarized calculation
 RMM-DIIS sequential band-by-band and
  variant of blocked Davidson during initial phase
 perform sub-space diagonalisation
    before iterative eigenvector-optimisation
 modified Broyden-mixing scheme, WC =      100.0
 initial mixing is a Kerker type mixing with AMIX =  0.4000 and BMIX =      1.0000
 Hartree-type preconditioning will be used
 using additional bands          232
 reciprocal scheme for non local part
 use partial core corrections
 calculate Harris-corrections to forces 
   (improved forces if not selfconsistent)
 use gradient corrections 
 use of overlap-Matrix (Vanderbilt PP)
 Gauss-broadening in eV      SIGMA  =   0.05


--------------------------------------------------------------------------------------------------------


  energy-cutoff  :      520.00
  volume of cell :     1336.35
      direct lattice vectors                 reciprocal lattice vectors
    22.785142899  0.000000000  0.000000000     0.043888248  0.000000000  0.028932614
     0.000000000  3.876850367  0.000000000     0.000000000  0.257941346 -0.000000041
    -9.973051630  0.000002413 15.128248185     0.000000000  0.000000000  0.066101507

  length of vectors
    22.785142899  3.876850367 18.119758606     0.052566857  0.257941346  0.066101507


 
 k-points in units of 2pi/SCALE and weight: pymatgen with grid density = 1000 / numb
   0.00000000  0.00000000  0.00000000       0.167
   0.00000000  0.04299022 -0.00000001       0.333
   0.00000000  0.08598045 -0.00000001       0.333
   0.00000000  0.12897067 -0.00000002       0.167
 
 k-points in reciprocal lattice and weights: pymatgen with grid density = 1000 / numb
   0.00000000  0.00000000  0.00000000       0.167
   0.00000000  0.16666667  0.00000000       0.333
   0.00000000  0.33333333  0.00000000       0.333
   0.00000000  0.50000000  0.00000000       0.167
 
 position of ions in fractional coordinates (direct lattice) 
   0.30000001  0.99500001  0.64999998
   0.36703247  0.00858822  0.04603795
   0.63296759  0.00858693  0.95396197
   0.86703247  0.50858670  0.04603796
   0.13296762  0.50858635  0.95396209
   0.24839091  0.00353884  0.13748100
   0.75160915  0.00354010  0.86251891
   0.74839085  0.50354129  0.13748096
   0.25160918  0.50354052  0.86251897
   0.13139753  0.99646646  0.23248375
   0.86860240  0.99646789  0.76751608
   0.63139754  0.49646616  0.23248379
   0.36860246  0.49646708  0.76751620
   0.41733950  0.96775341  0.38090715
   0.58266044  0.96775407  0.61909282
   0.91733956  0.46775436  0.38090721
   0.08266035  0.46775150  0.61909270
   0.29879504  0.00517717  0.47337463
   0.70120484  0.00517478  0.52662528
   0.79879504  0.50517708  0.47337469
   0.20120491  0.50517565  0.52662533
   0.46461994  0.00140215  0.71285522
   0.53537995  0.00140218  0.28714466
   0.96461999  0.50140297  0.71285534
   0.03538004  0.50140387  0.28714478
   0.00000000  0.25176752  0.00000000
   0.49999991  0.75176793  0.00000000
   0.00000014  0.49327025  0.50000018
   0.50000006  0.99326807  0.50000006
   0.14972033  0.00331975  0.99070972
   0.85027975  0.00332029  0.00929048
   0.64972037  0.50332046  0.99070972
   0.35027981  0.50332117  0.00929063
   0.30345810  0.00113559  0.08183876
   0.69654190  0.00113437  0.91816115
   0.80345810  0.50113451  0.08183879
   0.19654190  0.50113445  0.91816115
   0.03486845  0.99998444  0.09845009
   0.96513158  0.99998492  0.90155000
   0.53486836  0.49998519  0.09845000
   0.46513149  0.49998462  0.90155000
   0.44986948  0.00399951  0.15650150
   0.55013043  0.00399739  0.84349847
   0.94986951  0.50399715  0.15650150
   0.05013045  0.50399703  0.84349853
   0.18027455  0.00056923  0.17757002
   0.81972551  0.00057227  0.82243002
   0.68027449  0.50056970  0.17757000
   0.31972551  0.50057077  0.82243007
   0.04948618  0.00119418  0.27074566
   0.95051378  0.00119400  0.72925437
   0.54948616  0.50119364  0.27074557
   0.45051375  0.50119358  0.72925430
   0.32558078  0.00077737  0.24984203
   0.67441922  0.00077913  0.75015789
   0.82558078  0.50077927  0.24984200
   0.17441927  0.50078005  0.75015795
   0.47603220  0.99987543  0.32690686
   0.52396768  0.99987644  0.67309308
   0.97603220  0.49987659  0.32690695
   0.02396775  0.49987814  0.67309320
   0.20722794  0.00210690  0.34914786
   0.79277200  0.00210740  0.65085191
   0.70722794  0.50210577  0.34914789
   0.29277202  0.50210643  0.65085197
   0.35231906  0.00221297  0.42508438
   0.64768094  0.00221240  0.57491565
   0.85231912  0.50221288  0.42508441
   0.14768100  0.50221467  0.57491565
   0.22170273  0.00360656  0.51937699
   0.77829737  0.00360672  0.48062286
   0.72170275  0.50360632  0.51937705
   0.27829740  0.50360715  0.48062286
   0.37816420  0.00221463  0.59566981
   0.62183571  0.00221316  0.40433007
   0.87816423  0.50221407  0.59566981
   0.12183572  0.50221360  0.40433010
   0.09024301  0.99421406  0.63085735
   0.90975696  0.99420726  0.36914271
   0.59024298  0.49420831  0.63085729
   0.40975714  0.49420592  0.36914283
   0.39423937  0.00012698  0.76769149
   0.60576063  0.00012648  0.23230852
   0.89423931  0.50012767  0.76769155
   0.10576061  0.50012678  0.23230857
   0.27565327  0.00279834  0.89667731
   0.72434682  0.00279836  0.10332267
   0.77565330  0.50279820  0.89667738
   0.22434680  0.50279736  0.10332271
   0.42870930  0.00142374  0.98794246
   0.57129055  0.00142282  0.01205743
   0.92870939  0.50142324  0.98794258
   0.07129066  0.50142276  0.01205761
 
 position of ions in cartesian coordinates  (Angst):
   0.35305982  3.85746770  9.83336096
   7.90374835  0.03329537  0.69647358
   4.90834505  0.03329253 14.43177341
  19.29631976  1.97171466  0.69647364
  -6.48422691  1.97171547 14.43177523
   4.28851730  0.01371988  2.07984675
   8.52357623  0.01372650 13.04840009
  15.68108783  1.95215457  2.07984607
  -2.86899515  1.95215332 13.04840098
   0.67533911  3.86315191  3.51707179
  12.13675223  3.86315875 11.61117370
  12.06791046  1.92472558  3.51707246
   0.74418096  1.92473045 11.61117550
   5.71033358  3.75183608  5.76245787
   7.10175664  3.75183920  9.36578986
  17.10290578  1.81341460  5.76245878
  -4.29081567  1.81340408  9.36578806
   2.08709810  0.02007224  7.16132896
  10.72499132  0.02006312  7.96691788
  13.47966895  1.95849709  7.16132987
  -0.66757901  1.95849167  7.96691877
   3.47708970  0.00543766 10.78425069
   9.33500005  0.00543673  4.34399570
  14.86966131  1.94386602 10.78425249
  -2.05757054  1.94386846  4.34399750
   0.00000000  0.97606499  0.00000000
  11.39256942  2.91449179  0.00000000
  -4.98652441  1.91233615  7.56412680
   6.40604640  3.85075290  7.56412500
  -6.46900018  0.01287257 14.98770255
  19.28109114  0.01287229  0.14054867
   4.92357229  1.95130048 14.98770255
   7.88851959  1.95130089  0.14055090
   6.09815391  0.00440271  1.23807703
   6.71393825  0.00439999 13.89016981
  17.49072506  1.94282373  1.23807748
  -4.67863320  1.94282551 13.89016981
  -0.18736537  3.87679029  1.48937746
  12.99945634  3.87679408 13.63887208
  11.20520503  1.93836800  1.48937611
   1.60688284  1.93836774 13.63887208
   8.68954292  0.01550589  2.36759356
   4.12254662  0.01549931 12.76065417
  20.08211505  1.95392190  2.36759356
  -7.27002499  1.95392310 12.76065507
   2.33666636  0.00220723  2.68632326
  10.47542595  0.00222060 12.44192538
  13.72923662  1.94063426  2.68632303
  -0.91714609  1.94063997 12.44192627
  -1.57261074  0.00463031  4.09590761
  14.38470087  0.00463073 11.03234102
   9.81996108  1.94305341  4.09590625
   2.99212934  1.94305429 11.03234012
   4.92671701  0.00301434  3.77967228
   7.88537500  0.00302238 11.34857478
  16.31928876  1.94144690  3.77967183
  -3.50719602  1.94145111 11.34857568
   7.58620264  3.87636820  4.94552811
   5.22588648  3.87637297 10.18271918
  18.97877320  1.93794753  4.94552946
  -6.16668463  1.93795437 10.18272098
   1.23964875  0.00816897  5.28199542
  11.57244354  0.00817164  9.84624915
  12.63221990  1.94658979  5.28199587
   0.17987218  1.94659306  9.84625006
   3.78825168  0.00858040  6.43078203
   9.02383928  0.00857853  8.69746661
  15.18082418  1.94700522  6.43078248
  -2.36873080  1.94701251  8.69746661
  -0.12824530  0.01398337  7.85726405
  12.94034010  0.01398386  7.27098188
  11.26432622  1.95240760  7.85726496
   1.54776934  1.95241074  7.27098188
   2.67587965  0.00858721  9.01144066
  10.13621078  0.00858106  6.11680572
  14.06845179  1.94701025  9.01144066
  -1.25636081  1.94700794  6.11680618
  -4.23537298  3.85442066  9.54376653
  17.04746298  3.85439368  5.58448255
   7.15719838  1.91597317  9.54376564
   5.65489442  1.91596330  5.58448435
   1.32657340  0.00049415 11.61382744
  11.48551772  0.00049089  3.51442098
  12.71914288  1.93892200 11.61382834
   0.09294532  1.93891725  3.51442166
  -2.66180994  0.01085090 13.56515696
  15.47390341  0.01084909  1.56309099
   8.73076159  1.94927555 13.56515787
   4.08133125  1.94927040  1.56309155
  -0.08459851  0.00552203 14.94583868
  12.89668751  0.00551607  0.18240779
  11.30797380  1.94394526 14.94584048
   1.50411666  1.94394105  0.18241049
 


--------------------------------------------------------------------------------------------------------


 k-point   1 :   0.0000 0.0000 0.0000  plane waves:   36029
 k-point   2 :   0.0000 0.1667 0.0000  plane waves:   35947
 k-point   3 :   0.0000 0.3333 0.0000  plane waves:   35982
 k-point   4 :   0.0000 0.5000 0.0000  plane waves:   36018

 maximum and minimum number of plane-waves per node :     36029    35947

 maximum number of plane-waves:     36029
 maximum index in each direction: 
   IXMAX=   42   IYMAX=    7   IZMAX=   33
   IXMIN=  -42   IYMIN=   -7   IZMIN=  -33


 serial   3D FFT for wavefunctions
 parallel 3D FFT for charge:
    minimum data exchange during FFTs selected (reduces bandwidth)


 total amount of memory used by VASP MPI-rank0   256345. kBytes
=======================================================================

   base      :      30000. kBytes
   nonl-proj :     136876. kBytes
   fftplans  :       7974. kBytes
   grid      :      64300. kBytes
   one-center:       2892. kBytes
   wavefun   :      14303. kBytes
 
     INWAV:  cpu time      0.0000: real time      0.0004
 Broyden mixing: mesh for mixing (old mesh)
   NGX = 85   NGY = 15   NGZ = 67
  (NGX  =360   NGY  = 60   NGZ  =280)
  gives a total of  85425 points

 initial charge density was supplied:
 charge density of overlapping atoms calculated
 number of electron     687.0000000 magnetization      55.8000000
 keeping initial charge density in first step


--------------------------------------------------------------------------------------------------------


 Maximum index for augmentation-charges         4418 (set IRDMAX)


--------------------------------------------------------------------------------------------------------


 First call to EWALD:  gamma=   0.161
 Maximum number of real-space cells 2x 7x 2
 Maximum number of reciprocal cells 5x 1x 4

    FEWALD:  cpu time      0.0036: real time      0.0041


--------------------------------------- Iteration      1(   1)  ---------------------------------------


    POTLOK:  cpu time      0.2956: real time      0.3006
    SETDIJ:  cpu time      0.6903: real time      0.6970
atom =   1  type =  1  l = 0
 
 onsite density matrix
 
spin component  1
 
  1.2642
 
spin component  2
 
  0.8428
 
 occupancies and eigenvectors
 
  o =  0.8428  v =  0.0000  1.0000      0.0000  0.0000
  o =  1.2642  v =  1.0000  0.0000      0.0000  0.0000
 
atom =   2  type =  2  l = 0
 
 onsite density matrix
 
spin component  1
 
  0.1347
 
spin component  2
 
  0.1207
 
 occupancies and eigenvectors
 
  o =  0.1207  v =  0.0000  1.0000      0.0000  0.0000
  o =  0.1347  v =  1.0000  0.0000      0.0000  0.0000
 
atom =   3  type =  2  l = 0
 
 onsite density matrix
 
spin component  1
 
  0.1347
 
spin component  2
 
  0.1207
 
 occupancies and eigenvectors
 
  o =  0.1207  v =  0.0000  1.0000      0.0000  0.0000
  o =  0.1347  v =  1.0000  0.0000      0.0000  0.0000
 
atom =   4  type =  2  l = 0
 
 onsite density matrix
 
spin component  1
 
  0.1347
 
spin component  2
 
  0.1207
 
 occupancies and eigenvectors
 
  o =  0.1207  v =  0.0000  1.0000      0.0000  0.0000
  o =  0.1347  v =  1.0000  0.0000      0.0000  0.0000
 
atom =   5  type =  2  l = 0
 
 onsite density matrix
 
spin component  1
 
  0.1347
 
spin component  2
 
  0.1207
 
 occupancies and eigenvectors
 
  o =  0.1207  v =  0.0000  1.0000      0.0000  0.0000
  o =  0.1347  v =  1.0000  0.0000      0.0000  0.0000
 
atom =   6  type =  2  l = 0
 
 onsite density matrix
 
spin component  1
 
  0.1347
 
spin component  2
 
  0.1207
 
 occupancies and eigenvectors
 
  o =  0.1207  v =  0.0000  1.0000      0.0000  0.0000
  o =  0.1347  v =  1.0000  0.0000      0.0000  0.0000
 
atom =   7  type =  2  l = 0
 
 onsite density matrix
 
spin component  1
 
  0.1347
 
spin component  2
 
  0.1207
 
 occupancies and eigenvectors
 
  o =  0.1207  v =  0.0000  1.0000      0.0000  0.0000
  o =  0.1347  v =  1.0000  0.0000      0.0000  0.0000
 
atom =   8  type =  2  l = 0
 
 onsite density matrix
 
spin component  1
 
  0.1347
 
spin component  2
 
  0.1207
 
 occupancies and eigenvectors
 
  o =  0.1207  v =  0.0000  1.0000      0.0000  0.0000
  o =  0.1347  v =  1.0000  0.0000      0.0000  0.0000
 
atom =   9  type =  2  l = 0
 
 onsite density matrix
 
spin component  1
 
  0.1347
 
spin component  2
 
  0.1207
 
 occupancies and eigenvectors
 
  o =  0.1207  v =  0.0000  1.0000      0.0000  0.0000
  o =  0.1347  v =  1.0000  0.0000      0.0000  0.0000
 
atom =  10  type =  2  l = 0
 
 onsite density matrix
 
spin component  1
 
  0.1347
 
spin component  2
 
  0.1207
 
 occupancies and eigenvectors
 
  o =  0.1207  v =  0.0000  1.0000      0.0000  0.0000
  o =  0.1347  v =  1.0000  0.0000      0.0000  0.0000
 
atom =  11  type =  2  l = 0
 
 onsite density matrix
 
spin component  1
 
  0.1347
 
spin component  2
 
  0.1207
 
 occupancies and eigenvectors
 
  o =  0.1207  v =  0.0000  1.0000      0.0000  0.0000
  o =  0.1347  v =  1.0000  0.0000      0.0000  0.0000
 
atom =  12  type =  2  l = 0
 
 onsite density matrix
 
spin component  1
 
  0.1347
 
spin component  2
 
  0.1207
 
 occupancies and eigenvectors
 
  o =  0.1207  v =  0.0000  1.0000      0.0000  0.0000
  o =  0.1347  v =  1.0000  0.0000      0.0000  0.0000
 
atom =  13  type =  2  l = 0
 
 onsite density matrix
 
spin component  1
 
  0.1347
 
spin component  2
 
  0.1207
 
 occupancies and eigenvectors
 
  o =  0.1207  v =  0.0000  1.0000      0.0000  0.0000
  o =  0.1347  v =  1.0000  0.0000      0.0000  0.0000
 
atom =  14  type =  2  l = 0
 
 onsite density matrix
 
spin component  1
 
  0.1347
 
spin component  2
 
  0.1207
 
 occupancies and eigenvectors
 
  o =  0.1207  v =  0.0000  1.0000      0.0000  0.0000
  o =  0.1347  v =  1.0000  0.0000      0.0000  0.0000
 
atom =  15  type =  2  l = 0
 
 onsite density matrix
 
spin component  1
 
  0.1347
 
spin component  2
 
  0.1207
 
 occupancies and eigenvectors
 
  o =  0.1207  v =  0.0000  1.0000      0.0000  0.0000
  o =  0.1347  v =  1.0000  0.0000      0.0000  0.0000
 
atom =  16  type =  2  l = 0
 
 onsite density matrix
 
spin component  1
 
  0.1347
 
spin component  2
 
  0.1207
 
 occupancies and eigenvectors
 
  o =  0.1207  v =  0.0000  1.0000      0.0000  0.0000
  o =  0.1347  v =  1.0000  0.0000      0.0000  0.0000
 
atom =  17  type =  2  l = 0
 
 onsite density matrix
 
spin component  1
 
  0.1347
 
spin component  2
 
  0.1207
 
 occupancies and eigenvectors
 
  o =  0.1207  v =  0.0000  1.0000      0.0000  0.0000
  o =  0.1347  v =  1.0000  0.0000      0.0000  0.0000
 
atom =  18  type =  2  l = 0
 
 onsite density matrix
 
spin component  1
 
  0.1347
 
spin component  2
 
  0.1207
 
 occupancies and eigenvectors
 
  o =  0.1207  v =  0.0000  1.0000      0.0000  0.0000
  o =  0.1347  v =  1.0000  0.0000      0.0000  0.0000
 
atom =  19  type =  2  l = 0
 
 onsite density matrix
 
spin component  1
 
  0.1347
 
spin component  2
 
  0.1207
 
 occupancies and eigenvectors
 
  o =  0.1207  v =  0.0000  1.0000      0.0000  0.0000
  o =  0.1347  v =  1.0000  0.0000      0.0000  0.0000
 
atom =  20  type =  2  l = 0
 
 onsite density matrix
 
spin component  1
 
  0.1347
 
spin component  2
 
  0.1207
 
 occupancies and eigenvectors
 
  o =  0.1207  v =  0.0000  1.0000      0.0000  0.0000
  o =  0.1347  v =  1.0000  0.0000      0.0000  0.0000
 
atom =  21  type =  2  l = 0
 
 onsite density matrix
 
spin component  1
 
  0.1347
 
spin component  2
 
  0.1207
 
 occupancies and eigenvectors
 
  o =  0.1207  v =  0.0000  1.0000      0.0000  0.0000
  o =  0.1347  v =  1.0000  0.0000      0.0000  0.0000
 
atom =  22  type =  2  l = 0
 
 onsite density matrix
 
spin component  1
 
  0.1347
 
spin component  2
 
  0.1207
 
 occupancies and eigenvectors
 
  o =  0.1207  v =  0.0000  1.0000      0.0000  0.0000
  o =  0.1347  v =  1.0000  0.0000      0.0000  0.0000
 
atom =  23  type =  2  l = 0
 
 onsite density matrix
 
spin component  1
 
  0.1347
 
spin component  2
 
  0.1207
 
 occupancies and eigenvectors
 
  o =  0.1207  v =  0.0000  1.0000      0.0000  0.0000
  o =  0.1347  v =  1.0000  0.0000      0.0000  0.0000
 
atom =  24  type =  2  l = 0
 
 onsite density matrix
 
spin component  1
 
  0.1347
 
spin component  2
 
  0.1207
 
 occupancies and eigenvectors
 
  o =  0.1207  v =  0.0000  1.0000      0.0000  0.0000
  o =  0.1347  v =  1.0000  0.0000      0.0000  0.0000
 
atom =  25  type =  2  l = 0
 
 onsite density matrix
 
spin component  1
 
  0.1347
 
spin component  2
 
  0.1207
 
 occupancies and eigenvectors
 
  o =  0.1207  v =  0.0000  1.0000      0.0000  0.0000
  o =  0.1347  v =  1.0000  0.0000      0.0000  0.0000
 
atom =  26  type =  3  l = 2
 
 onsite density matrix
 
spin component  1
 
  0.4151  0.0000  0.0000  0.0000  0.0000
  0.0000  0.4151  0.0000  0.0000  0.0000
  0.0000  0.0000  0.4151  0.0000 -0.0000
  0.0000  0.0000  0.0000  0.4151  0.0000
  0.0000  0.0000 -0.0000  0.0000  0.4151
 
spin component  2
 
  0.3756  0.0000  0.0000  0.0000  0.0000
  0.0000  0.3756  0.0000  0.0000  0.0000
  0.0000  0.0000  0.3756  0.0000 -0.0000
  0.0000  0.0000  0.0000  0.3756  0.0000
  0.0000  0.0000 -0.0000  0.0000  0.3756
 
 occupancies and eigenvectors
 
  o =  0.3756  v =  0.0000  0.0000  0.0000  0.0000  0.0000  0.0000  0.0000  1.0000  0.0000  0.0000      0.0000  0.0000  0.0000  0.0000  0.0000  0.0000  0.0000  0.0000  0.0000  0.0000
  o =  0.3756  v =  0.0000  0.0000  0.0000  0.0000  0.0000  1.0000  0.0000  0.0000  0.0000  0.0000      0.0000  0.0000  0.0000  0.0000  0.0000  0.0000  0.0000  0.0000  0.0000  0.0000
  o =  0.3756  v =  0.0000  0.0000  0.0000  0.0000  0.0000  0.0000  1.0000  0.0000  0.0000  0.0000      0.0000  0.0000  0.0000  0.0000  0.0000  0.0000  0.0000  0.0000  0.0000  0.0000
  o =  0.3756  v =  0.0000  0.0000  0.0000  0.0000  0.0000  0.0000  0.0000  0.0000  1.0000  0.0000      0.0000  0.0000  0.0000  0.0000  0.0000  0.0000  0.0000  0.0000  0.0000  0.0000
  o =  0.3756  v =  0.0000  0.0000  0.0000  0.0000  0.0000  0.0000  0.0000  0.0000  0.0000  1.0000      0.0000  0.0000  0.0000  0.0000  0.0000  0.0000  0.0000  0.0000  0.0000  0.0000
  o =  0.4151  v =  0.0000  0.0000  1.0000  0.0000  0.0000  0.0000  0.0000  0.0000  0.0000  0.0000      0.0000  0.0000  0.0000  0.0000  0.0000  0.0000  0.0000  0.0000  0.0000  0.0000
  o =  0.4151  v =  0.0000  1.0000  0.0000  0.0000  0.0000  0.0000  0.0000  0.0000  0.0000  0.0000      0.0000  0.0000  0.0000  0.0000  0.0000  0.0000  0.0000  0.0000  0.0000  0.0000
  o =  0.4151  v =  1.0000  0.0000  0.0000  0.0000  0.0000  0.0000  0.0000  0.0000  0.0000  0.0000      0.0000  0.0000  0.0000  0.0000  0.0000  0.0000  0.0000  0.0000  0.0000  0.0000
  o =  0.4151  v =  0.0000  0.0000  0.0000  1.0000  0.0000  0.0000  0.0000  0.0000  0.0000  0.0000      0.0000  0.0000  0.0000  0.0000  0.0000  0.0000  0.0000  0.0000  0.0000  0.0000
  o =  0.4151  v =  0.0000  0.0000  0.0000  0.0000  1.0000  0.0000  0.0000  0.0000  0.0000  0.0000      0.0000  0.0000  0.0000  0.0000  0.0000  0.0000  0.0000  0.0000  0.0000  0.0000
 
atom =  27  type =  3  l = 2
 
 onsite density matrix
 
spin component  1
 
  0.4151  0.0000  0.0000  0.0000  0.0000
  0.0000  0.4151  0.0000  0.0000  0.0000
  0.0000  0.0000  0.4151  0.0000 -0.0000
  0.0000  0.0000  0.0000  0.4151  0.0000
  0.0000  0.0000 -0.0000  0.0000  0.4151
 
spin component  2
 
  0.3756  0.0000  0.0000  0.0000  0.0000
  0.0000  0.3756  0.0000  0.0000  0.0000
  0.0000  0.0000  0.3756  0.0000 -0.0000
  0.0000  0.0000  0.0000  0.3756  0.0000
  0.0000  0.0000 -0.0000  0.0000  0.3756
 
 occupancies and eigenvectors
 
  o =  0.3756  v =  0.0000  0.0000  0.0000  0.0000  0.0000  0.0000  0.0000  1.0000  0.0000  0.0000      0.0000  0.0000  0.0000  0.0000  0.0000  0.0000  0.0000  0.0000  0.0000  0.0000
  o =  0.3756  v =  0.0000  0.0000  0.0000  0.0000  0.0000  1.0000  0.0000  0.0000  0.0000  0.0000      0.0000  0.0000  0.0000  0.0000  0.0000  0.0000  0.0000  0.0000  0.0000  0.0000
  o =  0.3756  v =  0.0000  0.0000  0.0000  0.0000  0.0000  0.0000  1.0000  0.0000  0.0000  0.0000      0.0000  0.0000  0.0000  0.0000  0.0000  0.0000  0.0000  0.0000  0.0000  0.0000
  o =  0.3756  v =  0.0000  0.0000  0.0000  0.0000  0.0000  0.0000  0.0000  0.0000  1.0000  0.0000      0.0000  0.0000  0.0000  0.0000  0.0000  0.0000  0.0000  0.0000  0.0000  0.0000
  o =  0.3756  v =  0.0000  0.0000  0.0000  0.0000  0.0000  0.0000  0.0000  0.0000  0.0000  1.0000      0.0000  0.0000  0.0000  0.0000  0.0000  0.0000  0.0000  0.0000  0.0000  0.0000
  o =  0.4151  v =  0.0000  0.0000  1.0000  0.0000  0.0000  0.0000  0.0000  0.0000  0.0000  0.0000      0.0000  0.0000  0.0000  0.0000  0.0000  0.0000  0.0000  0.0000  0.0000  0.0000
  o =  0.4151  v =  0.0000  1.0000  0.0000  0.0000  0.0000  0.0000  0.0000  0.0000  0.0000  0.0000      0.0000  0.0000  0.0000  0.0000  0.0000  0.0000  0.0000  0.0000  0.0000  0.0000
  o =  0.4151  v =  1.0000  0.0000  0.0000  0.0000  0.0000  0.0000  0.0000  0.0000  0.0000  0.0000      0.0000  0.0000  0.0000  0.0000  0.0000  0.0000  0.0000  0.0000  0.0000  0.0000
  o =  0.4151  v =  0.0000  0.0000  0.0000  1.0000  0.0000  0.0000  0.0000  0.0000  0.0000  0.0000      0.0000  0.0000  0.0000  0.0000  0.0000  0.0000  0.0000  0.0000  0.0000  0.0000
  o =  0.4151  v =  0.0000  0.0000  0.0000  0.0000  1.0000  0.0000  0.0000  0.0000  0.0000  0.0000      0.0000  0.0000  0.0000  0.0000  0.0000  0.0000  0.0000  0.0000  0.0000  0.0000
 
atom =  28  type =  4  l = 0
 
 onsite density matrix
 
spin component  1
 
  0.8936
 
spin component  2
 
  0.7311
 
 occupancies and eigenvectors
 
  o =  0.7311  v =  0.0000  1.0000      0.0000  0.0000
  o =  0.8936  v =  1.0000  0.0000      0.0000  0.0000
 
atom =  29  type =  4  l = 0
 
 onsite density matrix
 
spin component  1
 
  0.8936
 
spin component  2
 
  0.7311
 
 occupancies and eigenvectors
 
  o =  0.7311  v =  0.0000  1.0000      0.0000  0.0000
  o =  0.8936  v =  1.0000  0.0000      0.0000  0.0000
 
atom =  30  type =  4  l = 0
 
 onsite density matrix
 
spin component  1
 
  0.8936
 
spin component  2
 
  0.7311
 
 occupancies and eigenvectors
 
  o =  0.7311  v =  0.0000  1.0000      0.0000  0.0000
  o =  0.8936  v =  1.0000  0.0000      0.0000  0.0000
 
atom =  31  type =  4  l = 0
 
 onsite density matrix
 
spin component  1
 
  0.8936
 
spin component  2
 
  0.7311
 
 occupancies and eigenvectors
 
  o =  0.7311  v =  0.0000  1.0000      0.0000  0.0000
  o =  0.8936  v =  1.0000  0.0000      0.0000  0.0000
 
atom =  32  type =  4  l = 0
 
 onsite density matrix
 
spin component  1
 
  0.8936
 
spin component  2
 
  0.7311
 
 occupancies and eigenvectors
 
  o =  0.7311  v =  0.0000  1.0000      0.0000  0.0000
  o =  0.8936  v =  1.0000  0.0000      0.0000  0.0000
 
atom =  33  type =  4  l = 0
 
 onsite density matrix
 
spin component  1
 
  0.8936
 
spin component  2
 
  0.7311
 
 occupancies and eigenvectors
 
  o =  0.7311  v =  0.0000  1.0000      0.0000  0.0000
  o =  0.8936  v =  1.0000  0.0000      0.0000  0.0000
 
atom =  34  type =  4  l = 0
 
 onsite density matrix
 
spin component  1
 
  0.8936
 
spin component  2
 
  0.7311
 
 occupancies and eigenvectors
 
  o =  0.7311  v =  0.0000  1.0000      0.0000  0.0000
  o =  0.8936  v =  1.0000  0.0000      0.0000  0.0000
 
atom =  35  type =  4  l = 0
 
 onsite density matrix
 
spin component  1
 
  0.8936
 
spin component  2
 
  0.7311
 
 occupancies and eigenvectors
 
  o =  0.7311  v =  0.0000  1.0000      0.0000  0.0000
  o =  0.8936  v =  1.0000  0.0000      0.0000  0.0000
 
atom =  36  type =  4  l = 0
 
 onsite density matrix
 
spin component  1
 
  0.8936
 
spin component  2
 
  0.7311
 
 occupancies and eigenvectors
 
  o =  0.7311  v =  0.0000  1.0000      0.0000  0.0000
  o =  0.8936  v =  1.0000  0.0000      0.0000  0.0000
 
atom =  37  type =  4  l = 0
 
 onsite density matrix
 
spin component  1
 
  0.8936
 
spin component  2
 
  0.7311
 
 occupancies and eigenvectors
 
  o =  0.7311  v =  0.0000  1.0000      0.0000  0.0000
  o =  0.8936  v =  1.0000  0.0000      0.0000  0.0000
 
atom =  38  type =  4  l = 0
 
 onsite density matrix
 
spin component  1
 
  0.8936
 
spin component  2
 
  0.7311
 
 occupancies and eigenvectors
 
  o =  0.7311  v =  0.0000  1.0000      0.0000  0.0000
  o =  0.8936  v =  1.0000  0.0000      0.0000  0.0000
 
atom =  39  type =  4  l = 0
 
 onsite density matrix
 
spin component  1
 
  0.8936
 
spin component  2
 
  0.7311
 
 occupancies and eigenvectors
 
  o =  0.7311  v =  0.0000  1.0000      0.0000  0.0000
  o =  0.8936  v =  1.0000  0.0000      0.0000  0.0000
 
atom =  40  type =  4  l = 0
 
 onsite density matrix
 
spin component  1
 
  0.8936
 
spin component  2
 
  0.7311
 
 occupancies and eigenvectors
 
  o =  0.7311  v =  0.0000  1.0000      0.0000  0.0000
  o =  0.8936  v =  1.0000  0.0000      0.0000  0.0000
 
atom =  41  type =  4  l = 0
 
 onsite density matrix
 
spin component  1
 
  0.8936
 
spin component  2
 
  0.7311
 
 occupancies and eigenvectors
 
  o =  0.7311  v =  0.0000  1.0000      0.0000  0.0000
  o =  0.8936  v =  1.0000  0.0000      0.0000  0.0000
 
atom =  42  type =  4  l = 0
 
 onsite density matrix
 
spin component  1
 
  0.8936
 
spin component  2
 
  0.7311
 
 occupancies and eigenvectors
 
  o =  0.7311  v =  0.0000  1.0000      0.0000  0.0000
  o =  0.8936  v =  1.0000  0.0000      0.0000  0.0000
 
atom =  43  type =  4  l = 0
 
 onsite density matrix
 
spin component  1
 
  0.8936
 
spin component  2
 
  0.7311
 
 occupancies and eigenvectors
 
  o =  0.7311  v =  0.0000  1.0000      0.0000  0.0000
  o =  0.8936  v =  1.0000  0.0000      0.0000  0.0000
 
atom =  44  type =  4  l = 0
 
 onsite density matrix
 
spin component  1
 
  0.8936
 
spin component  2
 
  0.7311
 
 occupancies and eigenvectors
 
  o =  0.7311  v =  0.0000  1.0000      0.0000  0.0000
  o =  0.8936  v =  1.0000  0.0000      0.0000  0.0000
 
atom =  45  type =  4  l = 0
 
 onsite density matrix
 
spin component  1
 
  0.8936
 
spin component  2
 
  0.7311
 
 occupancies and eigenvectors
 
  o =  0.7311  v =  0.0000  1.0000      0.0000  0.0000
  o =  0.8936  v =  1.0000  0.0000      0.0000  0.0000
 
atom =  46  type =  4  l = 0
 
 onsite density matrix
 
spin component  1
 
  0.8936
 
spin component  2
 
  0.7311
 
 occupancies and eigenvectors
 
  o =  0.7311  v =  0.0000  1.0000      0.0000  0.0000
  o =  0.8936  v =  1.0000  0.0000      0.0000  0.0000
 
atom =  47  type =  4  l = 0
 
 onsite density matrix
 
spin component  1
 
  0.8936
 
spin component  2
 
  0.7311
 
 occupancies and eigenvectors
 
  o =  0.7311  v =  0.0000  1.0000      0.0000  0.0000
  o =  0.8936  v =  1.0000  0.0000      0.0000  0.0000
 
atom =  48  type =  4  l = 0
 
 onsite density matrix
 
spin component  1
 
  0.8936
 
spin component  2
 
  0.7311
 
 occupancies and eigenvectors
 
  o =  0.7311  v =  0.0000  1.0000      0.0000  0.0000
  o =  0.8936  v =  1.0000  0.0000      0.0000  0.0000
 
atom =  49  type =  4  l = 0
 
 onsite density matrix
 
spin component  1
 
  0.8936
 
spin component  2
 
  0.7311
 
 occupancies and eigenvectors
 
  o =  0.7311  v =  0.0000  1.0000      0.0000  0.0000
  o =  0.8936  v =  1.0000  0.0000      0.0000  0.0000
 
atom =  50  type =  4  l = 0
 
 onsite density matrix
 
spin component  1
 
  0.8936
 
spin component  2
 
  0.7311
 
 occupancies and eigenvectors
 
  o =  0.7311  v =  0.0000  1.0000      0.0000  0.0000
  o =  0.8936  v =  1.0000  0.0000      0.0000  0.0000
 
atom =  51  type =  4  l = 0
 
 onsite density matrix
 
spin component  1
 
  0.8936
 
spin component  2
 
  0.7311
 
 occupancies and eigenvectors
 
  o =  0.7311  v =  0.0000  1.0000      0.0000  0.0000
  o =  0.8936  v =  1.0000  0.0000      0.0000  0.0000
 
atom =  52  type =  4  l = 0
 
 onsite density matrix
 
spin component  1
 
  0.8936
 
spin component  2
 
  0.7311
 
 occupancies and eigenvectors
 
  o =  0.7311  v =  0.0000  1.0000      0.0000  0.0000
  o =  0.8936  v =  1.0000  0.0000      0.0000  0.0000
 
atom =  53  type =  4  l = 0
 
 onsite density matrix
 
spin component  1
 
  0.8936
 
spin component  2
 
  0.7311
 
 occupancies and eigenvectors
 
  o =  0.7311  v =  0.0000  1.0000      0.0000  0.0000
  o =  0.8936  v =  1.0000  0.0000      0.0000  0.0000
 
atom =  54  type =  4  l = 0
 
 onsite density matrix
 
spin component  1
 
  0.8936
 
spin component  2
 
  0.7311
 
 occupancies and eigenvectors
 
  o =  0.7311  v =  0.0000  1.0000      0.0000  0.0000
  o =  0.8936  v =  1.0000  0.0000      0.0000  0.0000
 
atom =  55  type =  4  l = 0
 
 onsite density matrix
 
spin component  1
 
  0.8936
 
spin component  2
 
  0.7311
 
 occupancies and eigenvectors
 
  o =  0.7311  v =  0.0000  1.0000      0.0000  0.0000
  o =  0.8936  v =  1.0000  0.0000      0.0000  0.0000
 
atom =  56  type =  4  l = 0
 
 onsite density matrix
 
spin component  1
 
  0.8936
 
spin component  2
 
  0.7311
 
 occupancies and eigenvectors
 
  o =  0.7311  v =  0.0000  1.0000      0.0000  0.0000
  o =  0.8936  v =  1.0000  0.0000      0.0000  0.0000
 
atom =  57  type =  4  l = 0
 
 onsite density matrix
 
spin component  1
 
  0.8936
 
spin component  2
 
  0.7311
 
 occupancies and eigenvectors
 
  o =  0.7311  v =  0.0000  1.0000      0.0000  0.0000
  o =  0.8936  v =  1.0000  0.0000      0.0000  0.0000
 
atom =  58  type =  4  l = 0
 
 onsite density matrix
 
spin component  1
 
  0.8936
 
spin component  2
 
  0.7311
 
 occupancies and eigenvectors
 
  o =  0.7311  v =  0.0000  1.0000      0.0000  0.0000
  o =  0.8936  v =  1.0000  0.0000      0.0000  0.0000
 
atom =  59  type =  4  l = 0
 
 onsite density matrix
 
spin component  1
 
  0.8936
 
spin component  2
 
  0.7311
 
 occupancies and eigenvectors
 
  o =  0.7311  v =  0.0000  1.0000      0.0000  0.0000
  o =  0.8936  v =  1.0000  0.0000      0.0000  0.0000
 
atom =  60  type =  4  l = 0
 
 onsite density matrix
 
spin component  1
 
  0.8936
 
spin component  2
 
  0.7311
 
 occupancies and eigenvectors
 
  o =  0.7311  v =  0.0000  1.0000      0.0000  0.0000
  o =  0.8936  v =  1.0000  0.0000      0.0000  0.0000
 
atom =  61  type =  4  l = 0
 
 onsite density matrix
 
spin component  1
 
  0.8936
 
spin component  2
 
  0.7311
 
 occupancies and eigenvectors
 
  o =  0.7311  v =  0.0000  1.0000      0.0000  0.0000
  o =  0.8936  v =  1.0000  0.0000      0.0000  0.0000
 
atom =  62  type =  4  l = 0
 
 onsite density matrix
 
spin component  1
 
  0.8936
 
spin component  2
 
  0.7311
 
 occupancies and eigenvectors
 
  o =  0.7311  v =  0.0000  1.0000      0.0000  0.0000
  o =  0.8936  v =  1.0000  0.0000      0.0000  0.0000
 
atom =  63  type =  4  l = 0
 
 onsite density matrix
 
spin component  1
 
  0.8936
 
spin component  2
 
  0.7311
 
 occupancies and eigenvectors
 
  o =  0.7311  v =  0.0000  1.0000      0.0000  0.0000
  o =  0.8936  v =  1.0000  0.0000      0.0000  0.0000
 
atom =  64  type =  4  l = 0
 
 onsite density matrix
 
spin component  1
 
  0.8936
 
spin component  2
 
  0.7311
 
 occupancies and eigenvectors
 
  o =  0.7311  v =  0.0000  1.0000      0.0000  0.0000
  o =  0.8936  v =  1.0000  0.0000      0.0000  0.0000
 
atom =  65  type =  4  l = 0
 
 onsite density matrix
 
spin component  1
 
  0.8936
 
spin component  2
 
  0.7311
 
 occupancies and eigenvectors
 
  o =  0.7311  v =  0.0000  1.0000      0.0000  0.0000
  o =  0.8936  v =  1.0000  0.0000      0.0000  0.0000
 
atom =  66  type =  4  l = 0
 
 onsite density matrix
 
spin component  1
 
  0.8936
 
spin component  2
 
  0.7311
 
 occupancies and eigenvectors
 
  o =  0.7311  v =  0.0000  1.0000      0.0000  0.0000
  o =  0.8936  v =  1.0000  0.0000      0.0000  0.0000
 
atom =  67  type =  4  l = 0
 
 onsite density matrix
 
spin component  1
 
  0.8936
 
spin component  2
 
  0.7311
 
 occupancies and eigenvectors
 
  o =  0.7311  v =  0.0000  1.0000      0.0000  0.0000
  o =  0.8936  v =  1.0000  0.0000      0.0000  0.0000
 
atom =  68  type =  4  l = 0
 
 onsite density matrix
 
spin component  1
 
  0.8936
 
spin component  2
 
  0.7311
 
 occupancies and eigenvectors
 
  o =  0.7311  v =  0.0000  1.0000      0.0000  0.0000
  o =  0.8936  v =  1.0000  0.0000      0.0000  0.0000
 
atom =  69  type =  4  l = 0
 
 onsite density matrix
 
spin component  1
 
  0.8936
 
spin component  2
 
  0.7311
 
 occupancies and eigenvectors
 
  o =  0.7311  v =  0.0000  1.0000      0.0000  0.0000
  o =  0.8936  v =  1.0000  0.0000      0.0000  0.0000
 
atom =  70  type =  4  l = 0
 
 onsite density matrix
 
spin component  1
 
  0.8936
 
spin component  2
 
  0.7311
 
 occupancies and eigenvectors
 
  o =  0.7311  v =  0.0000  1.0000      0.0000  0.0000
  o =  0.8936  v =  1.0000  0.0000      0.0000  0.0000
 
atom =  71  type =  4  l = 0
 
 onsite density matrix
 
spin component  1
 
  0.8936
 
spin component  2
 
  0.7311
 
 occupancies and eigenvectors
 
  o =  0.7311  v =  0.0000  1.0000      0.0000  0.0000
  o =  0.8936  v =  1.0000  0.0000      0.0000  0.0000
 
atom =  72  type =  4  l = 0
 
 onsite density matrix
 
spin component  1
 
  0.8936
 
spin component  2
 
  0.7311
 
 occupancies and eigenvectors
 
  o =  0.7311  v =  0.0000  1.0000      0.0000  0.0000
  o =  0.8936  v =  1.0000  0.0000      0.0000  0.0000
 
atom =  73  type =  4  l = 0
 
 onsite density matrix
 
spin component  1
 
  0.8936
 
spin component  2
 
  0.7311
 
 occupancies and eigenvectors
 
  o =  0.7311  v =  0.0000  1.0000      0.0000  0.0000
  o =  0.8936  v =  1.0000  0.0000      0.0000  0.0000
 
atom =  74  type =  4  l = 0
 
 onsite density matrix
 
spin component  1
 
  0.8936
 
spin component  2
 
  0.7311
 
 occupancies and eigenvectors
 
  o =  0.7311  v =  0.0000  1.0000      0.0000  0.0000
  o =  0.8936  v =  1.0000  0.0000      0.0000  0.0000
 
atom =  75  type =  4  l = 0
 
 onsite density matrix
 
spin component  1
 
  0.8936
 
spin component  2
 
  0.7311
 
 occupancies and eigenvectors
 
  o =  0.7311  v =  0.0000  1.0000      0.0000  0.0000
  o =  0.8936  v =  1.0000  0.0000      0.0000  0.0000
 
atom =  76  type =  4  l = 0
 
 onsite density matrix
 
spin component  1
 
  0.8936
 
spin component  2
 
  0.7311
 
 occupancies and eigenvectors
 
  o =  0.7311  v =  0.0000  1.0000      0.0000  0.0000
  o =  0.8936  v =  1.0000  0.0000      0.0000  0.0000
 
atom =  77  type =  4  l = 0
 
 onsite density matrix
 
spin component  1
 
  0.8936
 
spin component  2
 
  0.7311
 
 occupancies and eigenvectors
 
  o =  0.7311  v =  0.0000  1.0000      0.0000  0.0000
  o =  0.8936  v =  1.0000  0.0000      0.0000  0.0000
 
atom =  78  type =  4  l = 0
 
 onsite density matrix
 
spin component  1
 
  0.8936
 
spin component  2
 
  0.7311
 
 occupancies and eigenvectors
 
  o =  0.7311  v =  0.0000  1.0000      0.0000  0.0000
  o =  0.8936  v =  1.0000  0.0000      0.0000  0.0000
 
atom =  79  type =  4  l = 0
 
 onsite density matrix
 
spin component  1
 
  0.8936
 
spin component  2
 
  0.7311
 
 occupancies and eigenvectors
 
  o =  0.7311  v =  0.0000  1.0000      0.0000  0.0000
  o =  0.8936  v =  1.0000  0.0000      0.0000  0.0000
 
atom =  80  type =  4  l = 0
 
 onsite density matrix
 
spin component  1
 
  0.8936
 
spin component  2
 
  0.7311
 
 occupancies and eigenvectors
 
  o =  0.7311  v =  0.0000  1.0000      0.0000  0.0000
  o =  0.8936  v =  1.0000  0.0000      0.0000  0.0000
 
atom =  81  type =  4  l = 0
 
 onsite density matrix
 
spin component  1
 
  0.8936
 
spin component  2
 
  0.7311
 
 occupancies and eigenvectors
 
  o =  0.7311  v =  0.0000  1.0000      0.0000  0.0000
  o =  0.8936  v =  1.0000  0.0000      0.0000  0.0000
 
atom =  82  type =  4  l = 0
 
 onsite density matrix
 
spin component  1
 
  0.8936
 
spin component  2
 
  0.7311
 
 occupancies and eigenvectors
 
  o =  0.7311  v =  0.0000  1.0000      0.0000  0.0000
  o =  0.8936  v =  1.0000  0.0000      0.0000  0.0000
 
atom =  83  type =  4  l = 0
 
 onsite density matrix
 
spin component  1
 
  0.8936
 
spin component  2
 
  0.7311
 
 occupancies and eigenvectors
 
  o =  0.7311  v =  0.0000  1.0000      0.0000  0.0000
  o =  0.8936  v =  1.0000  0.0000      0.0000  0.0000
 
atom =  84  type =  4  l = 0
 
 onsite density matrix
 
spin component  1
 
  0.8936
 
spin component  2
 
  0.7311
 
 occupancies and eigenvectors
 
  o =  0.7311  v =  0.0000  1.0000      0.0000  0.0000
  o =  0.8936  v =  1.0000  0.0000      0.0000  0.0000
 
atom =  85  type =  4  l = 0
 
 onsite density matrix
 
spin component  1
 
  0.8936
 
spin component  2
 
  0.7311
 
 occupancies and eigenvectors
 
  o =  0.7311  v =  0.0000  1.0000      0.0000  0.0000
  o =  0.8936  v =  1.0000  0.0000      0.0000  0.0000
 
atom =  86  type =  4  l = 0
 
 onsite density matrix
 
spin component  1
 
  0.8936
 
spin component  2
 
  0.7311
 
 occupancies and eigenvectors
 
  o =  0.7311  v =  0.0000  1.0000      0.0000  0.0000
  o =  0.8936  v =  1.0000  0.0000      0.0000  0.0000
 
atom =  87  type =  4  l = 0
 
 onsite density matrix
 
spin component  1
 
  0.8936
 
spin component  2
 
  0.7311
 
 occupancies and eigenvectors
 
  o =  0.7311  v =  0.0000  1.0000      0.0000  0.0000
  o =  0.8936  v =  1.0000  0.0000      0.0000  0.0000
 
atom =  88  type =  4  l = 0
 
 onsite density matrix
 
spin component  1
 
  0.8936
 
spin component  2
 
  0.7311
 
 occupancies and eigenvectors
 
  o =  0.7311  v =  0.0000  1.0000      0.0000  0.0000
  o =  0.8936  v =  1.0000  0.0000      0.0000  0.0000
 
atom =  89  type =  4  l = 0
 
 onsite density matrix
 
spin component  1
 
  0.8936
 
spin component  2
 
  0.7311
 
 occupancies and eigenvectors
 
  o =  0.7311  v =  0.0000  1.0000      0.0000  0.0000
  o =  0.8936  v =  1.0000  0.0000      0.0000  0.0000
 
atom =  90  type =  4  l = 0
 
 onsite density matrix
 
spin component  1
 
  0.8936
 
spin component  2
 
  0.7311
 
 occupancies and eigenvectors
 
  o =  0.7311  v =  0.0000  1.0000      0.0000  0.0000
  o =  0.8936  v =  1.0000  0.0000      0.0000  0.0000
 
atom =  91  type =  4  l = 0
 
 onsite density matrix
 
spin component  1
 
  0.8936
 
spin component  2
 
  0.7311
 
 occupancies and eigenvectors
 
[...]
   0.520E+02 0.702E+00 0.150E+03   -.510E+02 -.846E+00 -.150E+03   -.924E+00 0.146E+00 -.346E+00   -.815E-04 -.804E-03 -.147E-02
   -.495E+02 0.724E+00 -.145E+03   0.480E+02 -.846E+00 0.144E+03   0.147E+01 0.124E+00 0.922E+00   0.477E-02 -.984E-03 0.180E-02
   0.116E+03 -.981E+02 0.591E+02   -.129E+03 0.113E+03 -.672E+02   0.127E+02 -.151E+02 0.807E+01   0.129E-02 -.150E-02 0.146E-02
   -.120E+03 -.994E+02 -.767E+02   0.133E+03 0.115E+03 0.846E+02   -.132E+02 -.153E+02 -.786E+01   0.350E-03 -.217E-02 0.172E-02
   0.107E+03 -.978E+02 0.716E+02   -.119E+03 0.113E+03 -.795E+02   0.124E+02 -.149E+02 0.793E+01   0.307E-02 -.117E-03 0.447E-03
   -.991E+02 -.953E+02 -.725E+02   0.110E+03 0.110E+03 0.811E+02   -.110E+02 -.147E+02 -.865E+01   0.536E-02 -.133E-02 -.281E-02
 -----------------------------------------------------------------------------------------------
   0.180E+01 -.867E+01 -.508E+01   -.227E-12 -.384E-12 -.881E-12   -.181E+01 0.868E+01 0.507E+01   0.293E-03 -.126E-02 0.505E-02
 
 
 POSITION                                       TOTAL-FORCE (eV/Angst)
 -----------------------------------------------------------------------------------
      0.69275      3.87801      9.68145         0.005804     -0.000510     -0.002378
      7.89831      0.02854      0.70253        -0.000755      0.001077      0.002565
      4.92589      0.02911     14.42754        -0.000676      0.001569      0.000654
     19.25664      1.96821      0.65340        -0.000318      0.001377      0.000020
     -6.53252      1.97567     14.45338        -0.004504      0.001733      0.003369
      4.28776      0.01430      2.08405        -0.002884      0.001483      0.000270
      8.54027      0.01275     13.02529        -0.001539      0.000657     -0.001780
     15.65379      1.95030      2.08374         0.001292      0.000078      0.000058
     -2.93494      1.95121     13.08582        -0.003666     -0.000556      0.004011
      0.66217      3.86826      3.50633        -0.002196      0.000699      0.000500
     12.14977      3.87095     11.60941         0.000199      0.001160      0.001234
     12.06290      1.93193      3.53302         0.002499      0.001081      0.000870
      0.73261      1.92420     11.74998        -0.001274      0.000128     -0.000431
      5.76068      3.74714      5.73841         0.003043     -0.002671     -0.003480
      7.14548      3.75003      9.33530         0.001268     -0.002633     -0.003392
     17.09315      1.81230      5.77142         0.001513     -0.002893      0.001065
     -4.30323      1.81398      9.37580         0.002591     -0.002239      0.001229
      2.11069      0.01270      7.10402         0.002498     -0.001661      0.000044
     10.75701      0.01344      7.96432         0.002719     -0.001483      0.002888
     13.47938      1.95278      7.16505         0.002966     -0.001439      0.001736
     -0.71449      1.94829      7.87896         0.002184     -0.001029      0.000955
      3.51626      0.00297     10.78058         0.002079     -0.000773      0.001143
      9.36590      0.00635      4.34479         0.003583      0.000522      0.001444
     14.85970      1.94482     10.78071         0.002383      0.000737      0.001835
     -2.09782      1.94446      4.25572         0.000034      0.000199      0.002175
     -0.01660      0.97533      0.00775        -0.004010      0.000345      0.002261
     11.40137      2.91877      0.02552        -0.000801      0.002252     -0.002191
     -4.98886      1.90246      7.56760         0.001300     -0.002334      0.001267
      6.44399      3.84380      7.54327         0.003725     -0.002206     -0.003260
     -6.49643      0.01735     15.00065        -0.003752      0.001384      0.002534
     19.27715      0.01481      0.11669        -0.001372      0.000986     -0.000879
      4.90940      1.95534     14.98069        -0.001168      0.001108     -0.000748
      7.89837      1.95400      0.14962        -0.001803      0.000729      0.000966
      6.09269      0.01265      1.24628        -0.001055      0.001659      0.003689
      6.71267      0.01487     13.87552        -0.000049      0.001770     -0.000892
     17.48031      1.95090      1.22256        -0.001330      0.001546     -0.002287
     -4.70305      1.94588     13.91466        -0.004347      0.001736      0.002804
     -0.21039      3.87507      1.49989        -0.009625      0.001783      0.001932
     12.99790      3.87499     13.65349        -0.002526      0.001102      0.001573
     11.18681      1.94475      1.50201         0.000108      0.003964     -0.000849
      1.64884      1.94112     13.64142        -0.003172      0.001924     -0.002445
      8.69492      0.01407      2.35905         0.003977      0.000718     -0.000304
      4.11148      0.01109     12.76267         0.000638      0.000298     -0.000501
     20.06891      1.95079      2.33571        -0.003102      0.000835      0.000452
     -7.28089      1.95868     12.77968        -0.005702      0.001627      0.003555
      2.32442      0.00882      2.69741        -0.004313      0.001357     -0.004727
     10.47566      0.01164     12.43903        -0.000235      0.001686     -0.002250
     13.72081      1.94952      2.68033         0.001002      0.001821     -0.002018
     -0.92910      1.94093     12.50710        -0.003634      0.000361     -0.004537
     -1.59059      0.00531      4.08346        -0.001380      0.000260      0.000781
     14.37753      0.00706     11.04763         0.003777      0.000620      0.000103
      9.83990      1.94446      4.08509         0.003742      0.000526      0.000761
      3.00631      1.94128     11.04990         0.001540      0.000039     -0.002102
      4.91575     -0.00055      3.78673        -0.005180     -0.000736      0.000804
      7.88286     -0.00122     11.33712         0.001048     -0.001437     -0.001814
     16.31515      1.93545      3.77024         0.000653     -0.001926      0.000360
     -3.50050      1.93724     11.36163        -0.006577     -0.001612      0.004237
      7.59809      3.87029      4.92998        -0.000084     -0.002073     -0.006152
      5.21404      3.87470     10.12196         0.001197     -0.001858     -0.001649
     18.97998      1.93701      4.93549        -0.000235     -0.001107      0.002207
     -6.16673      1.93381     10.19310         0.001696     -0.001055      0.003243
      1.22745      0.00629      5.29173         0.000316     -0.000300     -0.001966
     11.57606      0.00728      9.85117         0.005771      0.000626     -0.001116
     12.64255      1.94623      5.28434         0.002686      0.000277      0.000249
      0.20246      1.94319      9.90563         0.003268     -0.000590     -0.003376
      3.82108      0.00335      6.47348         0.002044     -0.002398     -0.000411
      9.04150     -0.00306      8.69228         0.003913     -0.002899      0.004332
     15.18498      1.93944      6.43444         0.002115     -0.002279      0.000334
     -2.37461      1.93753      8.68498         0.002998     -0.002221      0.004747
     -0.14054      0.00859      7.93380         0.001712     -0.000541     -0.006371
     12.94476      0.01178      7.28173         0.003467     -0.000496     -0.001311
     11.27851      1.94968      7.84541         0.002546     -0.000474     -0.001093
      1.54557      1.94801      7.26796         0.000634     -0.000741     -0.003159
      2.55528      0.00668      9.05431         0.000110     -0.000299     -0.000578
     10.13677      0.00965      6.11409        -0.000411      0.000073      0.001418
     14.07630      1.94901      9.01731         0.002078      0.000640      0.001327
     -1.26250      1.94643      6.09797        -0.002246     -0.000215      0.001200
     -4.22007      3.85008      9.55235         0.000985     -0.001730      0.000598
     17.05817      3.85005      5.57379         0.001311     -0.001732      0.000612
      7.14317      1.91110      9.54580         0.002051     -0.002533     -0.007373
      5.64060      1.90960      5.58417         0.005131     -0.002157     -0.003063
      1.25303     -0.00170     11.60143         0.002815      0.000535      0.003021
     11.49140      0.00375      3.51282         0.001638      0.000803      0.001221
     12.71903      1.94203     11.62368        -0.000655      0.000563      0.000998
      0.09044      1.94066      3.51470        -0.003223      0.000460     -0.000463
     -2.67334      0.01174     13.57813        -0.002917      0.000255      0.003283
     15.47117      0.01370      1.55177        -0.001995      0.000847      0.000761
      8.72528      1.95238     13.55831        -0.000461      0.001029     -0.002163
      4.06907      1.95311      1.57831        -0.002178      0.001361      0.000055
     -0.05972      0.01732     14.94267        -0.002522      0.001030     -0.000102
     12.88455      0.02141      0.21301        -0.000608      0.001178     -0.004125
     11.30297      1.94649     14.93578        -0.003344      0.001135     -0.001580
      1.48548      1.95194      0.20519        -0.004823      0.000085      0.003567
 -----------------------------------------------------------------------------------
    total drift:                               -0.002360      0.000558      0.000515


--------------------------------------------------------------------------------------------------------



  FREE ENERGIE OF THE ION-ELECTRON SYSTEM (eV)
  ---------------------------------------------------
  free  energy   TOTEN  =      -814.03983283 eV

  energy  without entropy=     -814.01839898  energy(sigma->0) =     -814.02911591
 
 d Force = 0.9332549E-04[ 0.807E-04, 0.106E-03]  d Energy = 0.8718412E-04 0.614E-05
 d Force = 0.1238687E+00[ 0.124E+00, 0.124E+00]  d Ewald  = 0.1238684E+00 0.324E-06


--------------------------------------------------------------------------------------------------------


    POTLOK:  cpu time      1.1418: real time      1.1498


--------------------------------------------------------------------------------------------------------


 Quasi-Newton relaxation of ions (Broydens 2nd method)
  g(Force)  = 0.294E-04   g(Stress)= 0.000E+00

 retain information from N=  1 steps
 eigenvalues of (default step * inverse Hessian matrix)
  average eigenvalue of G=  10.4160
 eigenvalue spectrum of G is 10.4160


--------------------------------------------------------------------------------------------------------


  
 reached required accuracy - stopping structural energy minimisation
     LOOP+:  cpu time    124.8413: real time    129.7201
    4ORBIT:  cpu time      0.0000: real time      0.0000



 total charge

# of ion       s       p       d       tot
------------------------------------------
    1        2.100   0.303   0.000   2.403
    2        0.424   6.570   2.836   9.829
    3        0.423   6.567   2.831   9.821
    4        0.424   6.576   2.824   9.823
    5        0.425   6.576   2.825   9.825
    6        0.422   6.576   2.804   9.802
    7        0.422   6.578   2.809   9.810
    8        0.421   6.575   2.808   9.805
    9        0.424   6.580   2.821   9.824
   10        0.423   6.569   2.838   9.829
   11        0.424   6.569   2.843   9.836
   12        0.426   6.574   2.857   9.856
   13        0.432   6.591   2.870   9.893
   14        0.421   6.612   2.748   9.781
   15        0.420   6.609   2.748   9.777
   16        0.419   6.606   2.741   9.766
   17        0.418   6.606   2.736   9.760
   18        0.420   6.569   2.820   9.809
   19        0.418   6.578   2.776   9.772
   20        0.419   6.579   2.787   9.785
   21        0.424   6.571   2.862   9.857
   22        0.418   6.562   2.813   9.793
   23        0.418   6.577   2.781   9.776
   24        0.418   6.574   2.786   9.779
   25        0.417   6.575   2.784   9.776
   26        0.489   6.631   3.924  11.043
   27        0.489   6.631   3.928  11.047
   28        1.574   3.475   0.000   5.049
   29        1.574   3.478   0.000   5.052
   30        1.565   3.490   0.000   5.055
   31        1.565   3.493   0.000   5.058
   32        1.565   3.489   0.000   5.054
   33        1.565   3.490   0.000   5.055
   34        1.574   3.477   0.000   5.051
   35        1.575   3.474   0.000   5.049
   36        1.576   3.474   0.000   5.050
   37        1.574   3.482   0.000   5.056
   38        1.582   3.450   0.000   5.032
   39        1.583   3.446   0.000   5.029
   40        1.585   3.447   0.000   5.031
   41        1.580   3.463   0.000   5.043
   42        1.577   3.462   0.000   5.038
   43        1.575   3.464   0.000   5.038
   44        1.575   3.472   0.000   5.047
   45        1.577   3.462   0.000   5.039
   46        1.576   3.468   0.000   5.044
   47        1.575   3.472   0.000   5.047
   48        1.575   3.474   0.000   5.049
   49        1.578   3.468   0.000   5.045
   50        1.566   3.489   0.000   5.055
   51        1.565   3.492   0.000   5.057
   52        1.565   3.495   0.000   5.060
   53        1.564   3.480   0.000   5.044
   54        1.579   3.455   0.000   5.035
   55        1.580   3.455   0.000   5.034
   56        1.580   3.451   0.000   5.031
   57        1.579   3.452   0.000   5.031
   58        1.575   3.473   0.000   5.048
   59        1.577   3.464   0.000   5.041
   60        1.577   3.464   0.000   5.040
   61        1.576   3.467   0.000   5.043
   62        1.575   3.472   0.000   5.047
   63        1.577   3.467   0.000   5.044
   64        1.577   3.469   0.000   5.046
   65        1.565   3.483   0.000   5.048
   66        1.577   3.466   0.000   5.044
   67        1.575   3.474   0.000   5.049
   68        1.576   3.471   0.000   5.046
   69        1.576   3.467   0.000   5.042
   70        1.562   3.518   0.000   5.080
   71        1.565   3.494   0.000   5.059
   72        1.565   3.494   0.000   5.059
   73        1.564   3.484   0.000   5.048
   74        1.567   3.488   0.000   5.055
   75        1.575   3.471   0.000   5.046
   76        1.575   3.474   0.000   5.048
   77        1.576   3.472   0.000   5.047
   78        1.580   3.469   0.000   5.049
   79        1.580   3.468   0.000   5.049
   80        1.580   3.468   0.000   5.048
   81        1.581   3.469   0.000   5.050
   82        1.563   3.516   0.000   5.080
   83        1.564   3.497   0.000   5.061
   84        1.564   3.494   0.000   5.058
   85        1.564   3.492   0.000   5.057
   86        1.565   3.489   0.000   5.054
   87        1.565   3.487   0.000   5.052
   88        1.565   3.492   0.000   5.057
   89        1.565   3.488   0.000   5.053
   90        1.582   3.446   0.000   5.029
   91        1.583   3.445   0.000   5.028
   92        1.582   3.450   0.000   5.032
   93        1.581   3.456   0.000   5.037
--------------------------------------------------
tot        117.036 400.778  75.197 593.011



 magnetization (x)

# of ion       s       p       d       tot
------------------------------------------
    1       -0.000  -0.000   0.000  -0.000
    2        0.000  -0.000   0.000   0.000
    3        0.000   0.000   0.000   0.000
    4       -0.000   0.000   0.000   0.000
    5        0.000   0.000   0.000   0.000
    6        0.000   0.000   0.000   0.000
    7       -0.000  -0.000  -0.000  -0.000
    8       -0.000   0.000   0.000   0.000
    9       -0.000   0.000   0.000   0.000
   10       -0.000   0.000  -0.000  -0.000
   11       -0.000   0.000  -0.000  -0.000
   12       -0.000  -0.000   0.000   0.000
   13        0.000  -0.000  -0.000  -0.000
   14       -0.000  -0.000   0.000   0.000
   15        0.000   0.000   0.000   0.000
   16       -0.000  -0.000   0.000   0.000
   17       -0.000   0.000   0.000   0.000
   18        0.000  -0.000   0.000   0.000
   19        0.000   0.000   0.000   0.000
   20        0.000   0.000   0.000   0.000
   21        0.000   0.000   0.000   0.000
   22       -0.000  -0.000   0.000  -0.000
   23        0.000   0.000   0.000   0.000
   24        0.000  -0.000   0.000   0.000
   25        0.000  -0.000   0.000   0.000
   26       -0.000  -0.000  -0.000  -0.000
   27        0.000  -0.000   0.000   0.000
   28       -0.000  -0.000   0.000  -0.000
   29        0.000   0.000   0.000   0.000
   30       -0.000  -0.000   0.000  -0.000
   31        0.000  -0.000   0.000  -0.000
   32       -0.000  -0.000   0.000  -0.000
   33        0.000   0.000   0.000   0.000
   34       -0.000  -0.000   0.000  -0.000
   35       -0.000  -0.000   0.000  -0.000
   36       -0.000   0.000   0.000   0.000
   37       -0.000  -0.000   0.000  -0.000
   38        0.000   0.000   0.000   0.000
   39       -0.000  -0.000   0.000  -0.000
   40       -0.000   0.000   0.000   0.000
   41        0.000   0.000   0.000   0.000
   42       -0.000  -0.000   0.000  -0.000
   43       -0.000  -0.000   0.000  -0.000
   44        0.000   0.000   0.000   0.000
   45        0.000  -0.000   0.000  -0.000
   46        0.000   0.000   0.000   0.000
   47        0.000   0.000   0.000   0.000
   48        0.000  -0.000   0.000  -0.000
   49        0.000   0.000   0.000   0.000
   50       -0.000   0.000   0.000   0.000
   51        0.000  -0.000   0.000  -0.000
   52        0.000  -0.000   0.000  -0.000
   53        0.000   0.000   0.000   0.000
   54        0.000   0.000   0.000   0.000
   55       -0.000   0.000   0.000   0.000
   56        0.000   0.000   0.000   0.000
   57        0.000  -0.000   0.000  -0.000
   58       -0.000   0.000   0.000   0.000
   59       -0.000  -0.000   0.000  -0.000
   60       -0.000  -0.000   0.000  -0.000
   61        0.000  -0.000   0.000  -0.000
   62       -0.000  -0.000   0.000  -0.000
   63       -0.000   0.000   0.000   0.000
   64        0.000   0.000   0.000   0.000
   65       -0.000  -0.000   0.000  -0.000
   66       -0.000  -0.000   0.000  -0.000
   67       -0.000  -0.000   0.000  -0.000
   68        0.000   0.000   0.000   0.000
   69       -0.000  -0.000   0.000  -0.000
   70       -0.000  -0.000   0.000  -0.000
   71       -0.000  -0.000   0.000  -0.000
   72       -0.000  -0.000   0.000  -0.000
   73        0.000   0.000   0.000   0.000
   74        0.000   0.000   0.000   0.000
   75        0.000  -0.000   0.000   0.000
   76       -0.000  -0.000   0.000  -0.000
   77        0.000   0.000   0.000   0.000
   78        0.000   0.000   0.000   0.000
   79        0.000   0.000   0.000   0.000
   80        0.000  -0.000   0.000  -0.000
   81       -0.000  -0.000   0.000  -0.000
   82       -0.000  -0.000   0.000  -0.000
   83       -0.000  -0.000   0.000  -0.000
   84        0.000   0.000   0.000   0.000
   85       -0.000  -0.000   0.000  -0.000
   86        0.000  -0.000   0.000  -0.000
   87       -0.000  -0.000   0.000  -0.000
   88       -0.000   0.000   0.000   0.000
   89        0.000   0.000   0.000   0.000
   90       -0.000  -0.000   0.000  -0.000
   91        0.000  -0.000   0.000  -0.000
   92       -0.000   0.000   0.000   0.000
   93       -0.000  -0.000   0.000  -0.000
--------------------------------------------------
tot          0.000   0.000   0.000   0.000
 

 total amount of memory used by VASP MPI-rank0   256345. kBytes
=======================================================================

   base      :      30000. kBytes
   nonl-proj :     136876. kBytes
   fftplans  :       7974. kBytes
   grid      :      64300. kBytes
   one-center:       2892. kBytes
   wavefun   :      14303. kBytes
 
  
  
 General timing and accounting informations for this job:
 ========================================================
  
                  Total CPU time used (sec):     5984.518
                            User time (sec):     5896.374
                          System time (sec):       88.145
                         Elapsed time (sec):     6087.196
  
                   Maximum memory used (kb):      604264.
                   Average memory used (kb):          N/A
  
                          Minor page faults:      5072104
                          Major page faults:         3007
                 Voluntary context switches:        16152
