 vasp.5.4.4.18Apr17-6-g9f103f2a35 (build Aug 09 2024 17:42:55) complex          
  
 executed on             LinuxIFC date 2025.12.04  04:18:12
 running on   64 total cores
 distrk:  each k-point on   64 cores,    1 groups
 distr:  one band on NCORES_PER_BAND=   8 cores,    8 groups


--------------------------------------------------------------------------------------------------------


 INCAR:
 POTCAR:    PAW_PBE Pd 04Jan2005                  
 POTCAR:    PAW_PBE C 08Apr2002                   
 POTCAR:    PAW_PBE O 08Apr2002                   
 POTCAR:    PAW_PBE Pd 04Jan2005                  
  local pseudopotential read in
  partial core-charges read in
  partial kinetic energy density read in
  atomic valenz-charges read in
  non local Contribution for L=           2  read in
    real space projection operators read in
  non local Contribution for L=           2  read in
    real space projection operators read in
  non local Contribution for L=           0  read in
    real space projection operators read in
  non local Contribution for L=           0  read in
    real space projection operators read in
  non local Contribution for L=           1  read in
    real space projection operators read in
  non local Contribution for L=           1  read in
    real space projection operators read in
    PAW grid and wavefunctions read in
 
   number of l-projection  operators is LMAX  =           6
   number of lm-projection operators is LMMAX =          18
 
 POTCAR:    PAW_PBE C 08Apr2002                   
  local pseudopotential read in
  partial core-charges read in
  partial kinetic energy density read in
  atomic valenz-charges read in
  non local Contribution for L=           0  read in
    real space projection operators read in
  non local Contribution for L=           0  read in
    real space projection operators read in
  non local Contribution for L=           1  read in
    real space projection operators read in
  non local Contribution for L=           1  read in
    real space projection operators read in
    PAW grid and wavefunctions read in
 
   number of l-projection  operators is LMAX  =           4
   number of lm-projection operators is LMMAX =           8
 
 POTCAR:    PAW_PBE O 08Apr2002                   
  local pseudopotential read in
  partial core-charges read in
  partial kinetic energy density read in
  kinetic energy density of atom read in
  atomic valenz-charges read in
  non local Contribution for L=           0  read in
    real space projection operators read in
  non local Contribution for L=           0  read in
    real space projection operators read in
  non local Contribution for L=           1  read in
    real space projection operators read in
  non local Contribution for L=           1  read in
    real space projection operators read in
    PAW grid and wavefunctions read in
 
   number of l-projection  operators is LMAX  =           4
   number of lm-projection operators is LMMAX =           8
 
 Optimization of the real space projectors (new method)

 maximal supplied QI-value         = 14.36
 optimisation between [QCUT,QGAM] = [  9.77, 19.68] = [ 26.71,108.41] Ry 
 Optimized for a Real-space Cutoff    1.52 Angstroem

   l    n(q)    QCUT    max X(q) W(low)/X(q) W(high)/X(q)  e(spline) 
   2      8     9.766    59.108    0.18E-03    0.12E-03    0.98E-07
   2      8     9.766    58.101    0.18E-03    0.12E-03    0.10E-06
   0      9     9.766   102.235    0.37E-04    0.68E-04    0.73E-07
   0      9     9.766    58.388    0.33E-04    0.64E-04    0.69E-07
   1      8     9.766    22.191    0.23E-03    0.61E-04    0.11E-06
   1      8     9.766    15.590    0.19E-03    0.52E-04    0.93E-07
 Optimization of the real space projectors (new method)

 maximal supplied QI-value         = 25.13
 optimisation between [QCUT,QGAM] = [  9.80, 19.60] = [ 26.90,107.62] Ry 
 Optimized for a Real-space Cutoff    1.35 Angstroem

   l    n(q)    QCUT    max X(q) W(low)/X(q) W(high)/X(q)  e(spline) 
   0      8     9.802   115.676    0.45E-03    0.67E-03    0.24E-06
   0      8     9.802    87.132    0.44E-03    0.67E-03    0.24E-06
   1      7     9.802     4.429    0.38E-03    0.18E-03    0.24E-06
   1      7     9.802     2.733    0.25E-03    0.72E-04    0.26E-06
 Optimization of the real space projectors (new method)

 maximal supplied QI-value         = 24.76
 optimisation between [QCUT,QGAM] = [  9.65, 19.56] = [ 26.10,107.10] Ry 
 Optimized for a Real-space Cutoff    1.44 Angstroem

   l    n(q)    QCUT    max X(q) W(low)/X(q) W(high)/X(q)  e(spline) 
   0      8     9.655    20.381    0.19E-03    0.21E-03    0.36E-06
   0      8     9.655    15.268    0.21E-03    0.24E-03    0.37E-06
   1      8     9.655     5.964    0.43E-03    0.39E-03    0.31E-06
   1      8     9.655     5.382    0.36E-03    0.33E-03    0.28E-06
  PAW_PBE Pd 04Jan2005                  :
 energy of atom  1       EATOM= -809.7530
 kinetic energy error for atom=    0.0177 (will be added to EATOM!!)
  PAW_PBE C 08Apr2002                   :
 energy of atom  2       EATOM= -147.1560
 kinetic energy error for atom=    0.0545 (will be added to EATOM!!)
  PAW_PBE O 08Apr2002                   :
 energy of atom  3       EATOM= -432.3788
 kinetic energy error for atom=    0.2342 (will be added to EATOM!!)
 
 
 POSCAR: initial\(7)                             
  positions in direct lattice
  No initial velocities read in
 exchange correlation table for  LEXCH =        8
   RHO(1)=    0.500       N(1)  =     2000
   RHO(2)=  100.500       N(2)  =     4000

 VTST: version 3.2, (02/03/18)

 CHAIN: initializing optimizer
 
 OPT: Using VASP Conjugate-Gradient optimizer
 CHAIN: Read ICHAIN            0
 
 POSCAR: initial\(7)                             
  positions in direct lattice
  No initial velocities read in
 


--------------------------------------------------------------------------------------------------------


 ion  position               nearest neighbor table
   1  1.000  0.001  0.434-  37 1.66  39 2.33   9 2.77   3 2.77  27 2.77   7 2.77   4 2.77  10 2.77
                            13 2.77  25 2.77  19 2.77
   2  0.111  0.223  0.160-   3 2.77   9 2.77  31 2.77  32 2.77  12 2.77  28 2.77   5 2.77   8 2.77
                            26 2.77  20 2.77  14 2.77  11 2.77
   3  0.222  0.112  0.297-   1 2.77   4 2.77   2 2.77   5 2.77  13 2.77  20 2.77   9 2.77  21 2.77
                            27 2.77  12 2.77  15 2.77   6 2.77
   4  0.333  0.001  0.434-  37 1.81  39 2.51   3 2.77  21 2.77   6 2.77   1 2.77  13 2.77  19 2.77
                            22 2.77  16 2.77   7 2.77
   5  0.444  0.223  0.160-  32 2.77   3 2.77  29 2.77  15 2.77   6 2.77  33 2.77   2 2.77  20 2.77
                            23 2.77   8 2.77  17 2.77  14 2.77
   6  0.555  0.112  0.297-   7 2.77   8 2.77  16 2.77  23 2.77   4 2.77   5 2.77   9 2.77  24 2.77
                            15 2.77  18 2.77  21 2.77   3 2.77
   7  0.666  0.001  0.434-   6 2.77   9 2.77  24 2.77   1 2.77  16 2.77  10 2.77  25 2.77  22 2.77
                             4 2.77
   8  0.778  0.223  0.160-  33 2.77  31 2.77   6 2.77   9 2.77  18 2.77  30 2.77   2 2.77  26 2.77
                            23 2.77  11 2.77   5 2.77  17 2.77
   9  0.889  0.112  0.297-   1 2.77   7 2.77   2 2.77   8 2.77  10 2.77  26 2.77   3 2.77   6 2.77
                            27 2.77  24 2.77  12 2.77  18 2.77
  10  1.000  0.334  0.434-  38 1.67  18 2.77  12 2.77   9 2.77  16 2.77  13 2.77   1 2.77   7 2.77
                            22 2.77  19 2.77
  11  0.111  0.557  0.160-  34 2.77  35 2.77  21 2.77  18 2.77  12 2.77  31 2.77  14 2.77  17 2.77
                            23 2.77  20 2.77   8 2.77   2 2.77
  12  0.222  0.446  0.297-  10 2.77  13 2.77   2 2.77  14 2.77  11 2.77  22 2.77  18 2.77   9 2.77
                             3 2.77  15 2.77  21 2.77  24 2.77
  13  0.333  0.334  0.434-  38 1.79  37 2.15  12 2.77   3 2.77  15 2.77  10 2.77   4 2.77   1 2.77
                            16 2.77  22 2.77  25 2.77
  14  0.444  0.557  0.160-  35 2.77  12 2.77  24 2.77  36 2.77  32 2.77  11 2.77  23 2.77  15 2.77
                            26 2.77   2 2.77  17 2.77   5 2.77
  15  0.555  0.446  0.297-  16 2.77  17 2.77   5 2.77  13 2.77  25 2.77  18 2.77   6 2.77  14 2.77
                             3 2.77  27 2.77  12 2.77  24 2.77
  16  0.666  0.334  0.434-  18 2.77  15 2.77   6 2.77  10 2.77   7 2.77   4 2.77  19 2.77  13 2.77
                            25 2.77
  17  0.778  0.557  0.160-  36 2.77  34 2.77  27 2.77  15 2.77  18 2.77  33 2.77  11 2.77  26 2.77
                            20 2.77  14 2.77   5 2.77   8 2.77
  18  0.889  0.446  0.297-  10 2.77  16 2.77   8 2.77  11 2.77  17 2.77  19 2.77  12 2.77  15 2.77
                             9 2.77   6 2.77  21 2.77  27 2.77
  19  1.000  0.668  0.434-  21 2.77  27 2.77  18 2.77  25 2.77  22 2.77   4 2.77   1 2.77  16 2.77
                            10 2.77
  20  0.111  0.890  0.160-  21 2.77  27 2.77  29 2.77  28 2.77   3 2.77  34 2.77  23 2.77  26 2.77
                            11 2.77  17 2.77   5 2.77   2 2.77
  21  0.222  0.779  0.297-  19 2.77  22 2.77  20 2.77  23 2.77   4 2.77  11 2.77  27 2.77   3 2.77
                             6 2.77  18 2.77  24 2.77  12 2.77
  22  0.333  0.668  0.434-  38 2.02  21 2.77  24 2.77  12 2.77  19 2.77   4 2.77   7 2.77  10 2.77
                            25 2.77  13 2.77
  23  0.444  0.890  0.160-  21 2.77  29 2.77  35 2.77   6 2.77  24 2.77  30 2.77  20 2.77  11 2.77
                            14 2.77   5 2.77   8 2.77  26 2.77
  24  0.555  0.779  0.297-  25 2.77  26 2.77   7 2.77  14 2.77  22 2.77  23 2.77  27 2.77   6 2.77
                             9 2.77  21 2.77  12 2.77  15 2.77
  25  0.666  0.668  0.434-  27 2.77  24 2.77  15 2.77  19 2.77   1 2.77   7 2.77  22 2.77  13 2.77
                            16 2.77
  26  0.778  0.890  0.160-  24 2.77  27 2.77  28 2.77  30 2.77   9 2.77  36 2.77  20 2.77  17 2.77
                             2 2.77   8 2.77  14 2.77  23 2.77
  27  0.889  0.779  0.297-  19 2.77  25 2.77  20 2.77  26 2.77   1 2.77  17 2.77  21 2.77  24 2.77
                             9 2.77   3 2.77  15 2.77  18 2.77
  28  1.000  0.001  0.023-  26 2.77  20 2.77   2 2.77  30 2.77  29 2.77  31 2.77  32 2.77  36 2.77
                            34 2.77
  29  0.333  0.001  0.023-  20 2.77  23 2.77   5 2.77  28 2.77  32 2.77  34 2.77  35 2.77  33 2.77
                            30 2.77
  30  0.666  0.001  0.023-  26 2.77   8 2.77  23 2.77  28 2.77  31 2.77  33 2.77  36 2.77  35 2.77
                            29 2.77
  31  1.000  0.334  0.023-   2 2.77   8 2.77  11 2.77  33 2.77  32 2.77  28 2.77  30 2.77  35 2.77
                            34 2.77
  32  0.333  0.334  0.023-   5 2.77   2 2.77  14 2.77  31 2.77  29 2.77  28 2.77  33 2.77  35 2.77
                            36 2.77
  33  0.666  0.334  0.023-   8 2.77   5 2.77  17 2.77  31 2.77  30 2.77  29 2.77  34 2.77  32 2.77
                            36 2.77
  34  1.000  0.668  0.023-  11 2.77  17 2.77  20 2.77  36 2.77  35 2.77  28 2.77  29 2.77  33 2.77
                            31 2.77
  35  0.333  0.668  0.023-  14 2.77  11 2.77  23 2.77  34 2.77  29 2.77  30 2.77  31 2.77  36 2.77
                            32 2.77
  36  0.666  0.668  0.023-  17 2.77  26 2.77  14 2.77  34 2.77  28 2.77  30 2.77  35 2.77  32 2.77
                            33 2.77
  37  0.187  0.066  0.491-  39 1.01   1 1.66   4 1.81  13 2.15
  38  0.197  0.414  0.486-  10 1.67  13 1.79  22 2.02
  39  0.173  0.053  0.552-  37 1.01   1 2.33   4 2.51
 
  LATTYP: Found a hexagonal cell.
 ALAT       =     8.3099002838
 C/A-ratio  =     1.9884113982
  
  Lattice vectors:
  
 A1 = (   8.3099002838,   0.0000000000,   0.0000000000)
 A2 = (  -4.1549501419,   7.1965847487,   0.0000000000)
 A3 = (   0.0000000000,   0.0000000000,  16.5235004425)


Analysis of symmetry for initial positions (statically):
=====================================================================
 Subroutine PRICEL returns:
 Original cell was already a primitive cell.
 

 Routine SETGRP: Setting up the symmetry group for a 
 hexagonal supercell.


 Subroutine GETGRP returns: Found  1 space group operations
 (whereof  1 operations were pure point group operations)
 out of a pool of 24 trial point group operations.


The static configuration has the point symmetry C_1 .


Analysis of symmetry for dynamics (positions and initial velocities):
=====================================================================
 Subroutine PRICEL returns:
 Original cell was already a primitive cell.
 

 Routine SETGRP: Setting up the symmetry group for a 
 hexagonal supercell.


 Subroutine GETGRP returns: Found  1 space group operations
 (whereof  1 operations were pure point group operations)
 out of a pool of 24 trial point group operations.


The dynamic configuration has the point symmetry C_1 .


Analysis of constrained symmetry for selective dynamics:
=====================================================================
 Subroutine PRICEL returns:
 Original cell was already a primitive cell.
 

 Routine SETGRP: Setting up the symmetry group for a 
 hexagonal supercell.


 Subroutine GETGRP returns: Found  1 space group operations
 (whereof  1 operations were pure point group operations)
 out of a pool of 24 trial point group operations.


The constrained configuration has the point symmetry C_1 .


 Subroutine INISYM returns: Found  1 space group operations
 (whereof  1 operations are pure point group operations),
 and found     1 'primitive' translations

 
 
 KPOINTS: KP                                      

Automatic generation of k-mesh.
Space group operators:
 irot       det(A)        alpha          n_x          n_y          n_z        tau_x        tau_y        tau_z
    1     1.000000     0.000000     1.000000     0.000000     0.000000     0.000000     0.000000     0.000000
 
 Subroutine IBZKPT returns following result:
 ===========================================
 
 Found     24 irreducible k-points:
 
 Following reciprocal coordinates:
            Coordinates               Weight
  0.125000  0.125000  0.000000     16.000000
  0.250000 -0.125000  0.000000     16.000000
  0.125000 -0.250000  0.000000     16.000000
  0.375000  0.125000  0.000000     16.000000
  0.500000 -0.375000  0.000000     16.000000
  0.125000  0.500000  0.000000     16.000000
 -0.125000 -0.375000  0.000000     16.000000
  0.375000  0.500000  0.000000     16.000000
  0.500000 -0.125000  0.000000     16.000000
 -0.375000  0.125000  0.000000     16.000000
 -0.250000  0.375000  0.000000     16.000000
  0.125000  0.250000  0.000000     16.000000
 -0.125000  0.375000  0.000000     16.000000
 -0.375000  0.250000  0.000000     16.000000
 -0.250000 -0.125000  0.000000     16.000000
 -0.125000  0.125000  0.000000     16.000000
  0.000000  0.125000  0.000000     16.000000
  0.125000  0.000000  0.000000     16.000000
  0.375000  0.375000  0.000000     16.000000
 -0.250000 -0.375000  0.000000     16.000000
  0.375000  0.250000  0.000000     16.000000
 -0.375000  0.375000  0.000000     16.000000
  0.000000  0.375000  0.000000     16.000000
  0.375000  0.000000  0.000000     16.000000
 
 Following cartesian coordinates:
            Coordinates               Weight
  0.015042  0.026054  0.000000     16.000000
  0.030085  0.000000  0.000000     16.000000
  0.015042 -0.026054  0.000000     16.000000
  0.045127  0.043423  0.000000     16.000000
  0.060169 -0.017369  0.000000     16.000000
  0.015042  0.078162  0.000000     16.000000
 -0.015042 -0.060793  0.000000     16.000000
  0.045127  0.095531  0.000000     16.000000
  0.060169  0.017369  0.000000     16.000000
 -0.045127 -0.008685  0.000000     16.000000
 -0.030085  0.034739  0.000000     16.000000
  0.015042  0.043423  0.000000     16.000000
 -0.015042  0.043423  0.000000     16.000000
 -0.045127  0.008685  0.000000     16.000000
 -0.030085 -0.034739  0.000000     16.000000
 -0.015042  0.008685  0.000000     16.000000
  0.000000  0.017369  0.000000     16.000000
  0.015042  0.008685  0.000000     16.000000
  0.045127  0.078162  0.000000     16.000000
 -0.030085 -0.069477  0.000000     16.000000
  0.045127  0.060793  0.000000     16.000000
 -0.045127  0.026054  0.000000     16.000000
  0.000000  0.052108  0.000000     16.000000
  0.045127  0.026054  0.000000     16.000000
 


--------------------------------------------------------------------------------------------------------




 Dimension of arrays:
   k-points           NKPTS =     24   k-points in BZ     NKDIM =     24   number of bands    NBANDS=    232
   number of dos      NEDOS =    301   number of ions     NIONS =     39
   non local maximal  LDIM  =      6   non local SUM 2l+1 LMDIM =     18
   total plane-waves  NPLWV = 128000
   max r-space proj   IRMAX =   1966   max aug-charges    IRDMAX=   6482
   dimension x,y,z NGX =    40 NGY =   40 NGZ =   80
   dimension x,y,z NGXF=    80 NGYF=   80 NGZF=  160
   support grid    NGXF=    80 NGYF=   80 NGZF=  160
   ions per type =              36   1   2
   NGX,Y,Z   is equivalent  to a cutoff of   8.00,  8.00,  8.05 a.u.
   NGXF,Y,Z  is equivalent  to a cutoff of  16.00, 16.00, 16.10 a.u.

 SYSTEM =  ZrC (100)                               
 POSCAR =  initial\(7)                             

 Startparameter for this run:
   NWRITE =      0    write-flag & timer
   PREC   = normal    normal or accurate (medium, high low for compatibility)
   ISTART =      0    job   : 0-new  1-cont  2-samecut
   ICHARG =      2    charge: 1-file 2-atom 10-const
   ISPIN  =      1    spin polarized calculation?
   LNONCOLLINEAR =      F non collinear calculations
   LSORBIT =      F    spin-orbit coupling
   INIWAV =      1    electr: 0-lowe 1-rand  2-diag
   LASPH  =      F    aspherical Exc in radial PAW
   METAGGA=      F    non-selfconsistent MetaGGA calc.

 Electronic Relaxation 1
   ENCUT  =  370.0 eV  27.19 Ry    5.21 a.u.  13.03 13.03 25.92*2*pi/ulx,y,z
   ENINI  =  370.0     initial cutoff
   ENAUG  =  644.9 eV  augmentation charge cutoff
   NELM   =    150;   NELMIN=  2; NELMDL= -5     # of ELM steps 
   EDIFF  = 0.1E-05   stopping-criterion for ELM
   LREAL  =      T    real-space projection
   NLSPLINE    = F    spline interpolate recip. space projectors
   LCOMPAT=      F    compatible to vasp.4.4
   GGA_COMPAT  = T    GGA compatible to vasp.4.4-vasp.4.6
   LMAXPAW     = -100 max onsite density
   LMAXMIX     =    2 max onsite mixed and CHGCAR
   VOSKOWN=      0    Vosko Wilk Nusair interpolation
   ROPT   =   -0.00050  -0.00050  -0.00050
 Ionic relaxation
   EDIFFG = -.3E-01   stopping-criterion for IOM
   NSW    =    100    number of steps for IOM
   NBLOCK =      1;   KBLOCK =    100    inner block; outer block 
   IBRION =      2    ionic relax: 0-MD 1-quasi-New 2-CG
   NFREE  =      1    steps in history (QN), initial steepest desc. (CG)
   ISIF   =      2    stress and relaxation
   IWAVPR =     11    prediction:  0-non 1-charg 2-wave 3-comb
   ISYM   =      2    0-nonsym 1-usesym 2-fastsym
   LCORR  =      T    Harris-Foulkes like correction to forces

   POTIM  = 0.5000    time-step for ionic-motion
   TEIN   =    0.0    initial temperature
   TEBEG  =    0.0;   TEEND  =   0.0 temperature during run
   SMASS  =  -3.00    Nose mass-parameter (am)
   estimated Nose-frequenzy (Omega)   =  0.10E-29 period in steps =****** mass=  -0.158E-26a.u.
   SCALEE = 1.0000    scale energy and forces
   NPACO  =    256;   APACO  = 16.0  distance and # of slots for P.C.
   PSTRESS=    0.0 pullay stress

  Mass of Ions in am
   POMASS = 106.42 12.01 16.00
  Ionic Valenz
   ZVAL   =  10.00  4.00  6.00
  Atomic Wigner-Seitz radii
   RWIGS  =  -1.00 -1.00 -1.00
  virtual crystal weights 
   VCA    =   1.00  1.00  1.00
   NELECT =     376.0000    total number of electrons
   NUPDOWN=      -1.0000    fix difference up-down

 DOS related values:
   EMIN   =  10.00;   EMAX   =-10.00  energy-range for DOS
   EFERMI =   0.00
   ISMEAR =     0;   SIGMA  =   0.41  broadening in eV -4-tet -1-fermi 0-gaus

 Electronic relaxation 2 (details)
   IALGO  =     38    algorithm
   LDIAG  =      T    sub-space diagonalisation (order eigenvalues)
   LSUBROT=      F    optimize rotation matrix (better conditioning)
   TURBO    =      0    0=normal 1=particle mesh
   IRESTART =      0    0=no restart 2=restart with 2 vectors
   NREBOOT  =      0    no. of reboots
   NMIN     =      0    reboot dimension
   EREF     =   0.00    reference energy to select bands
   IMIX   =      4    mixing-type and parameters
     AMIX     =   0.40;   BMIX     =  1.00
     AMIX_MAG =   1.60;   BMIX_MAG =  1.00
     AMIN     =   0.10
     WC   =   100.;   INIMIX=   1;  MIXPRE=   1;  MAXMIX= -45

 Intra band minimization:
   WEIMIN = 0.0010     energy-eigenvalue tresh-hold
   EBREAK =  0.11E-08  absolut break condition
   DEPER  =   0.30     relativ break condition  

   TIME   =   0.40     timestep for ELM

  volume/ion in A,a.u.               =      25.34       170.98
  Fermi-wavevector in a.u.,A,eV,Ry     =   1.186304  2.241790 19.147714  1.407317
  Thomas-Fermi vector in A             =   2.322480
 
 Write flags
   LWAVE        =      F    write WAVECAR
   LDOWNSAMPLE  =      F    k-point downsampling of WAVECAR
   LCHARG       =      F    write CHGCAR
   LVTOT        =      F    write LOCPOT, total local potential
   LVHAR        =      F    write LOCPOT, Hartree potential only
   LELF         =      F    write electronic localiz. function (ELF)
   LORBIT       =      0    0 simple, 1 ext, 2 COOP (PROOUT), +10 PAW based schemes


 Dipole corrections
   LMONO  =      F    monopole corrections only (constant potential shift)
   LDIPOL =      F    correct potential (dipole corrections)
   IDIPOL =      0    1-x, 2-y, 3-z, 4-all directions 
   EPSILON=  1.0000000 bulk dielectric constant

 Exchange correlation treatment:
   GGA     =    PE    GGA type
   LEXCH   =     8    internal setting for exchange type
   VOSKOWN=      0    Vosko Wilk Nusair interpolation
   LHFCALC =     F    Hartree Fock is set to
   LHFONE  =     F    Hartree Fock one center treatment
   AEXX    =    0.0000 exact exchange contribution

 Linear response parameters
   LEPSILON=     F    determine dielectric tensor
   LRPA    =     F    only Hartree local field effects (RPA)
   LNABLA  =     F    use nabla operator in PAW spheres
   LVEL    =     F    velocity operator in full k-point grid
   LINTERFAST=   F  fast interpolation
   KINTER  =     0    interpolate to denser k-point grid
   CSHIFT  =0.1000    complex shift for real part using Kramers Kronig
   OMEGAMAX=  -1.0    maximum frequency
   DEG_THRESHOLD= 0.2000000E-02 threshold for treating states as degnerate
   RTIME   =   -0.100 relaxation time in fs
  (WPLASMAI=    0.000 imaginary part of plasma frequency in eV, 0.658/RTIME)
   DFIELD  = 0.0000000 0.0000000 0.0000000 field for delta impulse in time
 
 Orbital magnetization related:
   ORBITALMAG=     F  switch on orbital magnetization
   LCHIMAG   =     F  perturbation theory with respect to B field
   DQ        =  0.001000  dq finite difference perturbation B field
   LLRAUG    =     F  two centre corrections for induced B field



--------------------------------------------------------------------------------------------------------


 conjugate gradient relaxation of ions
   using selective dynamics as specified on POSCAR
 charge density and potential will be updated during run
 non-spin polarized calculation
 Variant of blocked Davidson
 Davidson routine will perform the subspace rotation
 perform sub-space diagonalisation
    after iterative eigenvector-optimisation
 modified Broyden-mixing scheme, WC =      100.0
 initial mixing is a Kerker type mixing with AMIX =  0.4000 and BMIX =      1.0000
 Hartree-type preconditioning will be used
 using additional bands           44
 real space projection scheme for non local part
 use partial core corrections
 calculate Harris-corrections to forces 
   (improved forces if not selfconsistent)
 use gradient corrections 
 use of overlap-Matrix (Vanderbilt PP)
 Gauss-broadening in eV      SIGMA  =   0.41


--------------------------------------------------------------------------------------------------------


  energy-cutoff  :      370.00
  volume of cell :      988.15
      direct lattice vectors                 reciprocal lattice vectors
     8.309900284  0.000000000  0.000000000     0.120338387  0.069477400  0.000000000
    -4.154950142  7.196584749  0.000000000     0.000000000  0.138954801  0.000000000
     0.000000000  0.000000000 16.523500443     0.000000000  0.000000000  0.060519864

  length of vectors
     8.309900284  8.309900284 16.523500443     0.138954801  0.138954801  0.060519864


 
 k-points in units of 2pi/SCALE and weight: KP                                      
   0.01504230  0.02605403  0.00000000       0.042
   0.03008460  0.00000000  0.00000000       0.042
   0.01504230 -0.02605403  0.00000000       0.042
   0.04512690  0.04342338  0.00000000       0.042
   0.06016919 -0.01736935  0.00000000       0.042
   0.01504230  0.07816208  0.00000000       0.042
  -0.01504230 -0.06079273  0.00000000       0.042
   0.04512690  0.09553143  0.00000000       0.042
   0.06016919  0.01736935  0.00000000       0.042
  -0.04512690 -0.00868468  0.00000000       0.042
  -0.03008460  0.03473870  0.00000000       0.042
   0.01504230  0.04342338  0.00000000       0.042
  -0.01504230  0.04342338  0.00000000       0.042
  -0.04512690  0.00868468  0.00000000       0.042
  -0.03008460 -0.03473870  0.00000000       0.042
  -0.01504230  0.00868468  0.00000000       0.042
   0.00000000  0.01736935  0.00000000       0.042
   0.01504230  0.00868468  0.00000000       0.042
   0.04512690  0.07816208  0.00000000       0.042
  -0.03008460 -0.06947740  0.00000000       0.042
   0.04512690  0.06079273  0.00000000       0.042
  -0.04512690  0.02605403  0.00000000       0.042
   0.00000000  0.05210805  0.00000000       0.042
   0.04512690  0.02605403  0.00000000       0.042
 
 k-points in reciprocal lattice and weights: KP                                      
   0.12500000  0.12500000  0.00000000       0.042
   0.25000000 -0.12500000  0.00000000       0.042
   0.12500000 -0.25000000  0.00000000       0.042
   0.37500000  0.12500000  0.00000000       0.042
   0.50000000 -0.37500000  0.00000000       0.042
   0.12500000  0.50000000  0.00000000       0.042
  -0.12500000 -0.37500000  0.00000000       0.042
   0.37500000  0.50000000  0.00000000       0.042
   0.50000000 -0.12500000  0.00000000       0.042
  -0.37500000  0.12500000  0.00000000       0.042
  -0.25000000  0.37500000  0.00000000       0.042
   0.12500000  0.25000000  0.00000000       0.042
  -0.12500000  0.37500000  0.00000000       0.042
  -0.37500000  0.25000000  0.00000000       0.042
  -0.25000000 -0.12500000  0.00000000       0.042
  -0.12500000  0.12500000  0.00000000       0.042
   0.00000000  0.12500000  0.00000000       0.042
   0.12500000  0.00000000  0.00000000       0.042
   0.37500000  0.37500000  0.00000000       0.042
  -0.25000000 -0.37500000  0.00000000       0.042
   0.37500000  0.25000000  0.00000000       0.042
  -0.37500000  0.37500000  0.00000000       0.042
   0.00000000  0.37500000  0.00000000       0.042
   0.37500000  0.00000000  0.00000000       0.042
 
 position of ions in fractional coordinates (direct lattice) 
   0.99982000  0.00108000  0.43398000
   0.11093000  0.22330000  0.16024000
   0.22204000  0.11219000  0.29711000
   0.33315000  0.00108000  0.43398000
   0.44426000  0.22330000  0.16024000
   0.55538000  0.11219000  0.29711000
   0.66649000  0.00108000  0.43398000
   0.77760000  0.22330000  0.16024000
   0.88871000  0.11219000  0.29711000
   0.99982000  0.33441000  0.43398000
   0.11093000  0.55664000  0.16024000
   0.22204000  0.44552000  0.29711000
   0.33315000  0.33441000  0.43398000
   0.44426000  0.55664000  0.16024000
   0.55538000  0.44552000  0.29711000
   0.66649000  0.33441000  0.43398000
   0.77760000  0.55664000  0.16024000
   0.88871000  0.44552000  0.29711000
   0.99982000  0.66775000  0.43398000
   0.11093000  0.88997000  0.16024000
   0.22204000  0.77886000  0.29711000
   0.33315000  0.66775000  0.43398000
   0.44426000  0.88997000  0.16024000
   0.55538000  0.77886000  0.29711000
   0.66649000  0.66775000  0.43398000
   0.77760000  0.88997000  0.16024000
   0.88871000  0.77886000  0.29711000
   0.99982000  0.00108000  0.02337000
   0.33315000  0.00108000  0.02337000
   0.66649000  0.00108000  0.02337000
   0.99982000  0.33441000  0.02337000
   0.33315000  0.33441000  0.02337000
   0.66649000  0.33441000  0.02337000
   0.99982000  0.66775000  0.02337000
   0.33315000  0.66775000  0.02337000
   0.66649000  0.66775000  0.02337000
   0.18710000  0.06563000  0.49054000
   0.19724000  0.41442000  0.48594000
   0.17307000  0.05284000  0.55156000
 
 position of ions in cartesian coordinates  (Angst):
   8.30391716  0.00777231  7.17086872
  -0.00598313  1.60699737  2.64772571
   1.37898640  0.80738484  4.90929722
   2.76395593  0.00777231  7.17086872
   2.76395593  1.60699737  2.64772571
   4.14900856  0.80738484  4.90929722
   5.53397809  0.00777231  7.17086872
   5.53397809  1.60699737  2.64772571
   6.91894762  0.80738484  4.90929722
   6.91894762  2.40660991  7.17086872
  -1.39099421  4.00590693  2.64772571
  -0.00598313  3.20622244  4.90929722
   1.37898640  2.40660991  7.17086872
   1.37894485  4.00590693  2.64772571
   2.76403903  3.20622244  4.90929722
   4.14900856  2.40660991  7.17086872
   4.14896701  4.00590693  2.64772571
   5.53397809  3.20622244  4.90929722
   5.53393654  4.80551947  7.17086872
  -2.77596374  6.40474453  2.64772571
  -1.39099421  5.60513200  4.90929722
  -0.00602468  4.80551947  7.17086872
  -0.00602468  6.40474453  2.64772571
   1.37902795  5.60513200  4.90929722
   2.76399748  4.80551947  7.17086872
   2.76399748  6.40474453  2.64772571
   4.14896701  5.60513200  4.90929722
   8.30391716  0.00777231  0.38615421
   2.76395593  0.00777231  0.38615421
   5.53397809  0.00777231  0.38615421
   6.91894762  2.40660991  0.38615421
   1.37898640  2.40660991  0.38615421
   4.14900856  2.40660991  0.38615421
   5.53393654  4.80551947  0.38615421
  -0.00602468  4.80551947  0.38615421
   2.76399748  4.80551947  0.38615421
   1.28209297  0.47231186  8.10543791
  -0.08284971  2.98240865  8.02942981
   1.21864688  0.38026754  9.11370190
 


--------------------------------------------------------------------------------------------------------


 k-point  1 :   0.1250 0.1250 0.0000  plane waves:   15951
 k-point  2 :   0.2500-0.1250 0.0000  plane waves:   15951
 k-point  3 :   0.1250-0.2500 0.0000  plane waves:   15951
 k-point  4 :   0.3750 0.1250 0.0000  plane waves:   15982
 k-point  5 :   0.5000-0.3750 0.0000  plane waves:   15982
 k-point  6 :   0.1250 0.5000 0.0000  plane waves:   15982
 k-point  7 :  -0.1250-0.3750 0.0000  plane waves:   15982
 k-point  8 :   0.3750 0.5000 0.0000  plane waves:   15982
 k-point  9 :   0.5000-0.1250 0.0000  plane waves:   15982
 k-point 10 :  -0.3750 0.1250 0.0000  plane waves:   15967
 k-point 11 :  -0.2500 0.3750 0.0000  plane waves:   15967
 k-point 12 :   0.1250 0.2500 0.0000  plane waves:   15967
 k-point 13 :  -0.1250 0.3750 0.0000  plane waves:   15967
 k-point 14 :  -0.3750 0.2500 0.0000  plane waves:   15967
 k-point 15 :  -0.2500-0.1250 0.0000  plane waves:   15967
 k-point 16 :  -0.1250 0.1250 0.0000  plane waves:   15947
 k-point 17 :   0.0000 0.1250 0.0000  plane waves:   15947
 k-point 18 :   0.1250 0.0000 0.0000  plane waves:   15947
 k-point 19 :   0.3750 0.3750 0.0000  plane waves:   16001
 k-point 20 :  -0.2500-0.3750 0.0000  plane waves:   16001
 k-point 21 :   0.3750 0.2500 0.0000  plane waves:   16001
 k-point 22 :  -0.3750 0.3750 0.0000  plane waves:   15956
 k-point 23 :   0.0000 0.3750 0.0000  plane waves:   15956
 k-point 24 :   0.3750 0.0000 0.0000  plane waves:   15956

 maximum and minimum number of plane-waves per node :      2020     1969

 maximum number of plane-waves:     16001
 maximum index in each direction: 
   IXMAX=   13   IYMAX=   13   IZMAX=   25
   IXMIN=  -13   IYMIN=  -13   IZMIN=  -25


 real space projection operators:
  total allocation   :       9686.02 KBytes
  max/ min on nodes  :       1217.20       1204.81


 parallel 3D FFT for wavefunctions:
    minimum data exchange during FFTs selected (reduces bandwidth)
 parallel 3D FFT for charge:
    minimum data exchange during FFTs selected (reduces bandwidth)


 total amount of memory used by VASP MPI-rank0    59951. kBytes
=======================================================================

   base      :      30000. kBytes
   nonlr-proj:       2763. kBytes
   fftplans  :       1296. kBytes
   grid      :       2296. kBytes
   one-center:         77. kBytes
   wavefun   :      23519. kBytes
 
     INWAV:  cpu time    0.0003: real time    0.0015
 Broyden mixing: mesh for mixing (old mesh)
   NGX = 27   NGY = 27   NGZ = 51
  (NGX  = 80   NGY  = 80   NGZ  =160)
  gives a total of  37179 points

 initial charge density was supplied:
 charge density of overlapping atoms calculated
 number of electron     376.0000000 magnetization 
 keeping initial charge density in first step


--------------------------------------------------------------------------------------------------------


 Maximum index for non-local projection operator          259
 Maximum index for augmentation-charges          431 (set IRDMAX)


--------------------------------------------------------------------------------------------------------


 First call to EWALD:  gamma=   0.178
 Maximum number of real-space cells 4x 4x 2
 Maximum number of reciprocal cells 2x 2x 4

    FEWALD:  cpu time    0.0091: real time    0.0091


--------------------------------------- Iteration      1(   1)  ---------------------------------------


    POTLOK:  cpu time    0.1041: real time    0.3177
    SETDIJ:  cpu time    0.0218: real time    0.0218
     EDDAV:  cpu time   35.6825: real time   35.9134
       DOS:  cpu time    0.0176: real time    0.0178
    --------------------------------------------
      LOOP:  cpu time   35.8261: real time   36.2708

 eigenvalue-minimisations  : 11144
 total energy-change (2. order) : 0.2165580E+04  (-0.1526981E+05)
 number of electron     376.0000000 magnetization 
 augmentation part      376.0000000 magnetization 

 Free energy of the ion-electron system (eV)
  ---------------------------------------------------
  alpha Z        PSCENC =       918.22725072
  Ewald energy   TEWEN  =     27593.66534965
  -Hartree energ DENC   =    -60160.53173239
  -exchange      EXHF   =         0.00000000
  -V(xc)+E(xc)   XCENC  =      -987.52275093
  PAW double counting   =     29844.20032359   -27608.36462881
  entropy T*S    EENTRO =        -1.32582917
  eigenvalues    EBANDS =      2405.36857509
  atomic energy  EATOM  =     30161.86332653
  Solvation  Ediel_sol  =         0.00000000
  ---------------------------------------------------
  free energy    TOTEN  =      2165.57988428 eV

  energy without entropy =     2166.90571345  energy(sigma->0) =     2166.24279886


--------------------------------------------------------------------------------------------------------




--------------------------------------- Iteration      1(   2)  ---------------------------------------


     EDDAV:  cpu time   37.2986: real time   37.3537
       DOS:  cpu time    0.0177: real time    0.0177
    --------------------------------------------
      LOOP:  cpu time   37.3162: real time   37.3714

 eigenvalue-minimisations  : 12120
 total energy-change (2. order) :-0.2251903E+04  (-0.2116278E+04)
 number of electron     376.0000000 magnetization 
 augmentation part      376.0000000 magnetization 

 Free energy of the ion-electron system (eV)
  ---------------------------------------------------
  alpha Z        PSCENC =       918.22725072
  Ewald energy   TEWEN  =     27593.66534965
  -Hartree energ DENC   =    -60160.53173239
  -exchange      EXHF   =         0.00000000
  -V(xc)+E(xc)   XCENC  =      -987.52275093
  PAW double counting   =     29844.20032359   -27608.36462881
  entropy T*S    EENTRO =        -3.37274829
  eigenvalues    EBANDS =       155.51289495
  atomic energy  EATOM  =     30161.86332653
  Solvation  Ediel_sol  =         0.00000000
  ---------------------------------------------------
  free energy    TOTEN  =       -86.32271498 eV

  energy without entropy =      -82.94996669  energy(sigma->0) =      -84.63634084


--------------------------------------------------------------------------------------------------------




--------------------------------------- Iteration      1(   3)  ---------------------------------------


     EDDAV:  cpu time   38.1232: real time   38.2767
       DOS:  cpu time    0.0179: real time    0.0179
    --------------------------------------------
      LOOP:  cpu time   38.1412: real time   38.2948

 eigenvalue-minimisations  : 12440
 total energy-change (2. order) :-0.1206266E+03  (-0.1114497E+03)
 number of electron     376.0000000 magnetization 
 augmentation part      376.0000000 magnetization 

 Free energy of the ion-electron system (eV)
  ---------------------------------------------------
  alpha Z        PSCENC =       918.22725072
  Ewald energy   TEWEN  =     27593.66534965
  -Hartree energ DENC   =    -60160.53173239
  -exchange      EXHF   =         0.00000000
  -V(xc)+E(xc)   XCENC  =      -987.52275093
  PAW double counting   =     29844.20032359   -27608.36462881
  entropy T*S    EENTRO =        -4.73073865
  eigenvalues    EBANDS =        36.24425009
  atomic energy  EATOM  =     30161.86332653
  Solvation  Ediel_sol  =         0.00000000
  ---------------------------------------------------
  free energy    TOTEN  =      -206.94935021 eV

  energy without entropy =     -202.21861156  energy(sigma->0) =     -204.58398089


--------------------------------------------------------------------------------------------------------




--------------------------------------- Iteration      1(   4)  ---------------------------------------


     EDDAV:  cpu time   38.5818: real time   38.7627
       DOS:  cpu time    0.0179: real time    0.0179
    --------------------------------------------
      LOOP:  cpu time   38.5995: real time   38.7804

 eigenvalue-minimisations  : 12560
 total energy-change (2. order) :-0.3573888E+01  (-0.3517983E+01)
 number of electron     376.0000000 magnetization 
 augmentation part      376.0000000 magnetization 

 Free energy of the ion-electron system (eV)
  ---------------------------------------------------
  alpha Z        PSCENC =       918.22725072
  Ewald energy   TEWEN  =     27593.66534965
  -Hartree energ DENC   =    -60160.53173239
  -exchange      EXHF   =         0.00000000
  -V(xc)+E(xc)   XCENC  =      -987.52275093
  PAW double counting   =     29844.20032359   -27608.36462881
  entropy T*S    EENTRO =        -4.76951803
  eigenvalues    EBANDS =        32.70914175
  atomic energy  EATOM  =     30161.86332653
  Solvation  Ediel_sol  =         0.00000000
  ---------------------------------------------------
  free energy    TOTEN  =      -210.52323792 eV

  energy without entropy =     -205.75371989  energy(sigma->0) =     -208.13847891


--------------------------------------------------------------------------------------------------------




--------------------------------------- Iteration      1(   5)  ---------------------------------------


     EDDAV:  cpu time   37.9582: real time   38.0303
       DOS:  cpu time    0.0184: real time    0.0184
    CHARGE:  cpu time    1.1713: real time    1.1725
    MIXING:  cpu time    0.0071: real time    0.0082
    --------------------------------------------
      LOOP:  cpu time   39.1550: real time   39.2294

 eigenvalue-minimisations  : 12336
 total energy-change (2. order) :-0.1294740E+00  (-0.1294150E+00)
 number of electron     376.0000441 magnetization 
 augmentation part      146.5981831 magnetization 

 Broyden mixing:
  rms(total) = 0.53704E+01    rms(broyden)= 0.53699E+01
  rms(prec ) = 0.55469E+01
  weight for this iteration     100.00

 Free energy of the ion-electron system (eV)
  ---------------------------------------------------
  alpha Z        PSCENC =       918.22725072
  Ewald energy   TEWEN  =     27593.66534965
  -Hartree energ DENC   =    -60160.53173239
  -exchange      EXHF   =         0.00000000
  -V(xc)+E(xc)   XCENC  =      -987.52275093
  PAW double counting   =     29844.20032359   -27608.36462881
  entropy T*S    EENTRO =        -4.77073561
  eigenvalues    EBANDS =        32.58088532
  atomic energy  EATOM  =     30161.86332653
  Solvation  Ediel_sol  =         0.00000000
  ---------------------------------------------------
  free energy    TOTEN  =      -210.65271193 eV

  energy without entropy =     -205.88197633  energy(sigma->0) =     -208.26734413


--------------------------------------------------------------------------------------------------------




--------------------------------------- Iteration      1(   6)  ---------------------------------------


    POTLOK:  cpu time    0.0689: real time    0.0696
    SETDIJ:  cpu time    0.0202: real time    0.0202
     EDDAV:  cpu time   37.1154: real time   37.3075
       DOS:  cpu time    0.0195: real time    0.0196
    CHARGE:  cpu time    1.1686: real time    1.1705
    MIXING:  cpu time    0.0073: real time    0.0157
    --------------------------------------------
      LOOP:  cpu time   38.3999: real time   38.6030

 eigenvalue-minimisations  : 11952
 total energy-change (2. order) : 0.8260083E+01  (-0.5346442E+01)
 number of electron     376.0000464 magnetization 
 augmentation part      152.1518933 magnetization 

 Broyden mixing:
  rms(total) = 0.42613E+01    rms(broyden)= 0.42611E+01
  rms(prec ) = 0.48073E+01
  weight for this iteration     100.00

 eigenvalues of (default mixing * dielectric matrix)
  average eigenvalue GAMMA=   0.9140
  0.9140

 Free energy of the ion-electron system (eV)
  ---------------------------------------------------
  alpha Z        PSCENC =       918.22725072
  Ewald energy   TEWEN  =     27593.66534965
  -Hartree energ DENC   =    -59999.97156797
  -exchange      EXHF   =         0.00000000
  -V(xc)+E(xc)   XCENC  =      -992.50016782
  PAW double counting   =     32465.88952587   -30277.69211698
  entropy T*S    EENTRO =        -4.75357843
  eigenvalues    EBANDS =       -67.12065078
  atomic energy  EATOM  =     30161.86332653
  Solvation  Ediel_sol  =         0.00000000
  ---------------------------------------------------
  free energy    TOTEN  =      -202.39262923 eV

  energy without entropy =     -197.63905080  energy(sigma->0) =     -200.01584001


--------------------------------------------------------------------------------------------------------




--------------------------------------- Iteration      1(   7)  ---------------------------------------


    POTLOK:  cpu time    0.0689: real time    0.0696
    SETDIJ:  cpu time    0.0197: real time    0.0197
     EDDAV:  cpu time   38.1179: real time   38.2459
       DOS:  cpu time    0.0194: real time    0.0195
    CHARGE:  cpu time    1.1795: real time    1.2001
    MIXING:  cpu time    0.0031: real time    0.0070
    --------------------------------------------
      LOOP:  cpu time   39.4085: real time   39.5619

 eigenvalue-minimisations  : 12448
 total energy-change (2. order) :-0.2901851E+02  (-0.4126067E+01)
 number of electron     376.0000433 magnetization 
 augmentation part      151.3621423 magnetization 

 Broyden mixing:
  rms(total) = 0.46434E+01    rms(broyden)= 0.46430E+01
  rms(prec ) = 0.79471E+01
  weight for this iteration     100.00

 eigenvalues of (default mixing * dielectric matrix)
  average eigenvalue GAMMA=   0.9079
  1.5546  0.2611

 Free energy of the ion-electron system (eV)
  ---------------------------------------------------
  alpha Z        PSCENC =       918.22725072
  Ewald energy   TEWEN  =     27593.66534965
  -Hartree energ DENC   =    -59999.89080300
  -exchange      EXHF   =         0.00000000
  -V(xc)+E(xc)   XCENC  =      -992.78336994
  PAW double counting   =     33629.72066121   -31455.19140987
  entropy T*S    EENTRO =        -3.41439749
  eigenvalues    EBANDS =       -83.60774967
  atomic energy  EATOM  =     30161.86332653
  Solvation  Ediel_sol  =         0.00000000
  ---------------------------------------------------
  free energy    TOTEN  =      -231.41114188 eV

  energy without entropy =     -227.99674439  energy(sigma->0) =     -229.70394313


--------------------------------------------------------------------------------------------------------




--------------------------------------- Iteration      1(   8)  ---------------------------------------


    POTLOK:  cpu time    0.0690: real time    0.0698
    SETDIJ:  cpu time    0.0198: real time    0.0198
     EDDAV:  cpu time   39.0421: real time   39.1685
       DOS:  cpu time    0.0184: real time    0.0184
    CHARGE:  cpu time    1.1766: real time    1.1776
    MIXING:  cpu time    0.0026: real time    0.0026
    --------------------------------------------
      LOOP:  cpu time   40.3287: real time   40.4568

 eigenvalue-minimisations  : 12824
 total energy-change (2. order) : 0.2525927E+02  (-0.4886423E+01)
 number of electron     376.0000464 magnetization 
 augmentation part      152.5647829 magnetization 

 Broyden mixing:
  rms(total) = 0.21959E+01    rms(broyden)= 0.21954E+01
  rms(prec ) = 0.31422E+01
  weight for this iteration     100.00

 eigenvalues of (default mixing * dielectric matrix)
  average eigenvalue GAMMA=   0.8659
  1.8506  0.5659  0.1810

 Free energy of the ion-electron system (eV)
  ---------------------------------------------------
  alpha Z        PSCENC =       918.22725072
  Ewald energy   TEWEN  =     27593.66534965
  -Hartree energ DENC   =    -60029.64172862
  -exchange      EXHF   =         0.00000000
  -V(xc)+E(xc)   XCENC  =      -994.06127518
  PAW double counting   =     35139.59166368   -32983.40660677
  entropy T*S    EENTRO =        -4.49597429
  eigenvalues    EBANDS =        -7.89387834
  atomic energy  EATOM  =     30161.86332653
  Solvation  Ediel_sol  =         0.00000000
  ---------------------------------------------------
  free energy    TOTEN  =      -206.15187262 eV

  energy without entropy =     -201.65589834  energy(sigma->0) =     -203.90388548


--------------------------------------------------------------------------------------------------------




--------------------------------------- Iteration      1(   9)  ---------------------------------------


    POTLOK:  cpu time    0.0685: real time    0.0698
    SETDIJ:  cpu time    0.0194: real time    0.0194
     EDDAV:  cpu time   36.7802: real time   37.0923
       DOS:  cpu time    0.0194: real time    0.0194
    CHARGE:  cpu time    1.1762: real time    1.1772
    MIXING:  cpu time    0.0030: real time    0.0030
    --------------------------------------------
      LOOP:  cpu time   38.0664: real time   38.3811

 eigenvalue-minimisations  : 11784
 total energy-change (2. order) : 0.2966791E+01  (-0.1983500E+01)
 number of electron     376.0000449 magnetization 
 augmentation part      152.6645850 magnetization 

 Broyden mixing:
  rms(total) = 0.21557E+01    rms(broyden)= 0.21554E+01
  rms(prec ) = 0.30613E+01
  weight for this iteration     100.00

 eigenvalues of (default mixing * dielectric matrix)
  average eigenvalue GAMMA=   0.7705
  1.9562  0.6421  0.1885  0.2951

 Free energy of the ion-electron system (eV)
  ---------------------------------------------------
  alpha Z        PSCENC =       918.22725072
  Ewald energy   TEWEN  =     27593.66534965
  -Hartree energ DENC   =    -60061.06190493
  -exchange      EXHF   =         0.00000000
  -V(xc)+E(xc)   XCENC  =      -994.62207763
  PAW double counting   =     36185.32409159   -34039.01046683
  entropy T*S    EENTRO =        -4.30965532
  eigenvalues    EBANDS =        36.73900479
  atomic energy  EATOM  =     30161.86332653
  Solvation  Ediel_sol  =         0.00000000
  ---------------------------------------------------
  free energy    TOTEN  =      -203.18508144 eV

  energy without entropy =     -198.87542612  energy(sigma->0) =     -201.03025378


--------------------------------------------------------------------------------------------------------




--------------------------------------- Iteration      1(  10)  ---------------------------------------


    POTLOK:  cpu time    0.0690: real time    0.0697
    SETDIJ:  cpu time    0.0195: real time    0.0195
     EDDAV:  cpu time   36.1277: real time   36.2266
       DOS:  cpu time    0.0196: real time    0.0198
    CHARGE:  cpu time    1.1523: real time    1.1697
    MIXING:  cpu time    0.0034: real time    0.0049
    --------------------------------------------
      LOOP:  cpu time   37.3916: real time   37.5103

 eigenvalue-minimisations  : 11560
 total energy-change (2. order) : 0.4990468E+01  (-0.1147350E+01)
 number of electron     376.0000471 magnetization 
 augmentation part      153.3481208 magnetization 

 Broyden mixing:
  rms(total) = 0.11704E+01    rms(broyden)= 0.11700E+01
  rms(prec ) = 0.18038E+01
  weight for this iteration     100.00

 eigenvalues of (default mixing * dielectric matrix)
  average eigenvalue GAMMA=   0.7403
  2.0875  0.6244  0.6244  0.1731  0.1923

 Free energy of the ion-electron system (eV)
  ---------------------------------------------------
  alpha Z        PSCENC =       918.22725072
  Ewald energy   TEWEN  =     27593.66534965
  -Hartree energ DENC   =    -60008.70973171
  -exchange      EXHF   =         0.00000000
  -V(xc)+E(xc)   XCENC  =      -994.27550811
  PAW double counting   =     36443.64597481   -34299.30532683
  entropy T*S    EENTRO =        -4.54708176
  eigenvalues    EBANDS =        -8.75886649
  atomic energy  EATOM  =     30161.86332653
  Solvation  Ediel_sol  =         0.00000000
  ---------------------------------------------------
  free energy    TOTEN  =      -198.19461320 eV

  energy without entropy =     -193.64753145  energy(sigma->0) =     -195.92107232


--------------------------------------------------------------------------------------------------------




--------------------------------------- Iteration      1(  11)  ---------------------------------------


    POTLOK:  cpu time    0.0687: real time    0.0701
    SETDIJ:  cpu time    0.0195: real time    0.0196
     EDDAV:  cpu time   36.7771: real time   37.3509
       DOS:  cpu time    0.0197: real time    0.0197
    CHARGE:  cpu time    1.1690: real time    1.1711
    MIXING:  cpu time    0.0030: real time    0.0030
    --------------------------------------------
      LOOP:  cpu time   38.0569: real time   38.6343

 eigenvalue-minimisations  : 11800
 total energy-change (2. order) : 0.4411193E+00  (-0.4746053E+00)
 number of electron     376.0000455 magnetization 
 augmentation part      153.0862576 magnetization 

 Broyden mixing:
  rms(total) = 0.86016E+00    rms(broyden)= 0.85996E+00
  rms(prec ) = 0.11996E+01
  weight for this iteration     100.00

 eigenvalues of (default mixing * dielectric matrix)
  average eigenvalue GAMMA=   0.6911
  2.0671  0.7050  0.7050  0.2521  0.2521  0.1654

 Free energy of the ion-electron system (eV)
  ---------------------------------------------------
  alpha Z        PSCENC =       918.22725072
  Ewald energy   TEWEN  =     27593.66534965
  -Hartree energ DENC   =    -60042.15974513
  -exchange      EXHF   =         0.00000000
  -V(xc)+E(xc)   XCENC  =      -993.85403697
  PAW double counting   =     36769.07190198   -34626.15505383
  entropy T*S    EENTRO =        -4.51755474
  eigenvalues    EBANDS =        26.10506790
  atomic energy  EATOM  =     30161.86332653
  Solvation  Ediel_sol  =         0.00000000
  ---------------------------------------------------
  free energy    TOTEN  =      -197.75349390 eV

  energy without entropy =     -193.23593916  energy(sigma->0) =     -195.49471653


--------------------------------------------------------------------------------------------------------




--------------------------------------- Iteration      1(  12)  ---------------------------------------


    POTLOK:  cpu time    0.0690: real time    0.0698
    SETDIJ:  cpu time    0.0196: real time    0.0196
     EDDAV:  cpu time   36.2841: real time   36.3978
       DOS:  cpu time    0.0192: real time    0.0243
    CHARGE:  cpu time    1.1724: real time    1.1736
    MIXING:  cpu time    0.0031: real time    0.0031
    --------------------------------------------
      LOOP:  cpu time   37.5675: real time   37.6883

 eigenvalue-minimisations  : 11512
 total energy-change (2. order) : 0.4532267E+00  (-0.1594854E+00)
 number of electron     376.0000459 magnetization 
 augmentation part      152.9472961 magnetization 

 Broyden mixing:
  rms(total) = 0.62521E+00    rms(broyden)= 0.62514E+00
  rms(prec ) = 0.74166E+00
  weight for this iteration     100.00

 eigenvalues of (default mixing * dielectric matrix)
  average eigenvalue GAMMA=   0.6658
  2.0386  0.7714  0.7714  0.4585  0.2678  0.1929  0.1601

 Free energy of the ion-electron system (eV)
  ---------------------------------------------------
  alpha Z        PSCENC =       918.22725072
  Ewald energy   TEWEN  =     27593.66534965
  -Hartree energ DENC   =    -60045.41735879
  -exchange      EXHF   =         0.00000000
  -V(xc)+E(xc)   XCENC  =      -993.60059098
  PAW double counting   =     36791.02874150   -34647.26248458
  entropy T*S    EENTRO =        -4.61664442
  eigenvalues    EBANDS =        28.81214321
  atomic energy  EATOM  =     30161.86332653
  Solvation  Ediel_sol  =         0.00000000
  ---------------------------------------------------
  free energy    TOTEN  =      -197.30026717 eV

  energy without entropy =     -192.68362274  energy(sigma->0) =     -194.99194496


--------------------------------------------------------------------------------------------------------




--------------------------------------- Iteration      1(  13)  ---------------------------------------


    POTLOK:  cpu time    0.0692: real time    0.0699
    SETDIJ:  cpu time    0.0197: real time    0.0197
     EDDAV:  cpu time   36.2219: real time   36.2809
       DOS:  cpu time    0.0192: real time    0.0192
    CHARGE:  cpu time    1.1689: real time    1.1700
    MIXING:  cpu time    0.0032: real time    0.0032
    --------------------------------------------
      LOOP:  cpu time   37.5021: real time   37.5628

 eigenvalue-minimisations  : 11640
 total energy-change (2. order) : 0.1003376E+00  (-0.4844202E-01)
 number of electron     376.0000459 magnetization 
 augmentation part      152.7838400 magnetization 

 Broyden mixing:
  rms(total) = 0.40048E+00    rms(broyden)= 0.40045E+00
  rms(prec ) = 0.46082E+00
  weight for this iteration     100.00

 eigenvalues of (default mixing * dielectric matrix)
  average eigenvalue GAMMA=   0.7381
  2.0870  1.1336  1.1336  0.5791  0.3521  0.2457  0.2097  0.1635

 Free energy of the ion-electron system (eV)
  ---------------------------------------------------
  alpha Z        PSCENC =       918.22725072
  Ewald energy   TEWEN  =     27593.66534965
  -Hartree energ DENC   =    -60054.26072915
  -exchange      EXHF   =         0.00000000
  -V(xc)+E(xc)   XCENC  =      -993.51505359
  PAW double counting   =     36781.80767814   -34637.26046726
  entropy T*S    EENTRO =        -4.68366662
  eigenvalues    EBANDS =        36.95638204
  atomic energy  EATOM  =     30161.86332653
  Solvation  Ediel_sol  =         0.00000000
  ---------------------------------------------------
  free energy    TOTEN  =      -197.19992952 eV

  energy without entropy =     -192.51626290  energy(sigma->0) =     -194.85809621


--------------------------------------------------------------------------------------------------------




--------------------------------------- Iteration      1(  14)  ---------------------------------------


    POTLOK:  cpu time    0.0682: real time    0.0690
    SETDIJ:  cpu time    0.0196: real time    0.0196
     EDDAV:  cpu time   36.8313: real time   36.9769
       DOS:  cpu time    0.0194: real time    0.0194
    CHARGE:  cpu time    1.1669: real time    1.1681
    MIXING:  cpu time    0.0034: real time    0.0034
    --------------------------------------------
      LOOP:  cpu time   38.1088: real time   38.2564

 eigenvalue-minimisations  : 11744
 total energy-change (2. order) :-0.4697952E-01  (-0.5109810E-01)
 number of electron     376.0000460 magnetization 
 augmentation part      152.6846378 magnetization 

 Broyden mixing:
  rms(total) = 0.40026E+00    rms(broyden)= 0.40022E+00
  rms(prec ) = 0.59427E+00
  weight for this iteration     100.00

 eigenvalues of (default mixing * dielectric matrix)
  average eigenvalue GAMMA=   0.7471
  2.2694  1.2500  1.2500  0.6032  0.4793  0.1625  0.2616  0.2425  0.2052

 Free energy of the ion-electron system (eV)
  ---------------------------------------------------
  alpha Z        PSCENC =       918.22725072
  Ewald energy   TEWEN  =     27593.66534965
  -Hartree energ DENC   =    -60065.51017126
  -exchange      EXHF   =         0.00000000
  -V(xc)+E(xc)   XCENC  =      -993.35897885
  PAW double counting   =     36808.42348973   -34663.34678035
  entropy T*S    EENTRO =        -4.73697660
  eigenvalues    EBANDS =        47.52658139
  atomic energy  EATOM  =     30161.86332653
  Solvation  Ediel_sol  =         0.00000000
  ---------------------------------------------------
  free energy    TOTEN  =      -197.24690905 eV

  energy without entropy =     -192.50993244  energy(sigma->0) =     -194.87842074


--------------------------------------------------------------------------------------------------------




--------------------------------------- Iteration      1(  15)  ---------------------------------------


    POTLOK:  cpu time    0.0691: real time    0.0698
    SETDIJ:  cpu time    0.0195: real time    0.0200
     EDDAV:  cpu time   36.8535: real time   37.0273
       DOS:  cpu time    0.0197: real time    0.0197
    CHARGE:  cpu time    1.1714: real time    1.1780
    MIXING:  cpu time    0.0037: real time    0.0037
    --------------------------------------------
      LOOP:  cpu time   38.1368: real time   38.3184

 eigenvalue-minimisations  : 11728
 total energy-change (2. order) : 0.1232272E+00  (-0.3136161E-01)
 number of electron     376.0000458 magnetization 
 augmentation part      152.7208682 magnetization 

 Broyden mixing:
  rms(total) = 0.18760E+00    rms(broyden)= 0.18755E+00
  rms(prec ) = 0.24298E+00
  weight for this iteration     100.00

 eigenvalues of (default mixing * dielectric matrix)
  average eigenvalue GAMMA=   0.7339
  2.2964  1.3455  1.3455  0.5898  0.5898  0.3114  0.1627  0.2699  0.2081  0.2199

 Free energy of the ion-electron system (eV)
  ---------------------------------------------------
  alpha Z        PSCENC =       918.22725072
  Ewald energy   TEWEN  =     27593.66534965
  -Hartree energ DENC   =    -60073.66307951
  -exchange      EXHF   =         0.00000000
  -V(xc)+E(xc)   XCENC  =      -993.30901326
  PAW double counting   =     36854.46504899   -34709.85089237
  entropy T*S    EENTRO =        -4.71178048
  eigenvalues    EBANDS =        56.19010784
  atomic energy  EATOM  =     30161.86332653
  Solvation  Ediel_sol  =         0.00000000
  ---------------------------------------------------
  free energy    TOTEN  =      -197.12368189 eV

  energy without entropy =     -192.41190141  energy(sigma->0) =     -194.76779165


--------------------------------------------------------------------------------------------------------




--------------------------------------- Iteration      1(  16)  ---------------------------------------


    POTLOK:  cpu time    0.0691: real time    0.0723
    SETDIJ:  cpu time    0.0196: real time    0.0196
     EDDAV:  cpu time   36.3286: real time   36.3877
       DOS:  cpu time    0.0197: real time    0.0197
    CHARGE:  cpu time    1.1674: real time    1.1693
    MIXING:  cpu time    0.0040: real time    0.0048
    --------------------------------------------
      LOOP:  cpu time   37.6084: real time   37.6734

 eigenvalue-minimisations  : 11632
 total energy-change (2. order) : 0.2209490E-01  (-0.6845834E-02)
 number of electron     376.0000457 magnetization 
 augmentation part      152.7300036 magnetization 

 Broyden mixing:
  rms(total) = 0.11365E+00    rms(broyden)= 0.11363E+00
  rms(prec ) = 0.12806E+00
  weight for this iteration     100.00

 eigenvalues of (default mixing * dielectric matrix)
  average eigenvalue GAMMA=   0.7339
  2.2972  1.4454  1.4454  0.6761  0.6761  0.3513  0.3513  0.1627  0.2052  0.2311
  0.2311

 Free energy of the ion-electron system (eV)
  ---------------------------------------------------
  alpha Z        PSCENC =       918.22725072
  Ewald energy   TEWEN  =     27593.66534965
  -Hartree energ DENC   =    -60077.63751442
  -exchange      EXHF   =         0.00000000
  -V(xc)+E(xc)   XCENC  =      -993.26170705
  PAW double counting   =     36846.53431860   -34701.80953183
  entropy T*S    EENTRO =        -4.71296253
  eigenvalues    EBANDS =        60.02988334
  atomic energy  EATOM  =     30161.86332653
  Solvation  Ediel_sol  =         0.00000000
  ---------------------------------------------------
  free energy    TOTEN  =      -197.10158699 eV

  energy without entropy =     -192.38862446  energy(sigma->0) =     -194.74510573


--------------------------------------------------------------------------------------------------------




--------------------------------------- Iteration      1(  17)  ---------------------------------------


    POTLOK:  cpu time    0.0691: real time    0.0697
    SETDIJ:  cpu time    0.0196: real time    0.0197
     EDDAV:  cpu time   36.6995: real time   36.9980
       DOS:  cpu time    0.0191: real time    0.0191
    CHARGE:  cpu time    1.1671: real time    1.1682
    MIXING:  cpu time    0.0041: real time    0.0041
    --------------------------------------------
      LOOP:  cpu time   37.9784: real time   38.2788

 eigenvalue-minimisations  : 11768
 total energy-change (2. order) : 0.3746602E-02  (-0.1752323E-02)
 number of electron     376.0000457 magnetization 
 augmentation part      152.7118057 magnetization 

 Broyden mixing:
  rms(total) = 0.74855E-01    rms(broyden)= 0.74848E-01
  rms(prec ) = 0.10467E+00
  weight for this iteration     100.00

 eigenvalues of (default mixing * dielectric matrix)
  average eigenvalue GAMMA=   0.7519
  2.3073  1.9261  1.1207  0.7508  0.7508  0.6494  0.3989  0.1626  0.2748  0.2510
  0.2062  0.2236

 Free energy of the ion-electron system (eV)
  ---------------------------------------------------
  alpha Z        PSCENC =       918.22725072
  Ewald energy   TEWEN  =     27593.66534965
  -Hartree energ DENC   =    -60083.17301916
  -exchange      EXHF   =         0.00000000
  -V(xc)+E(xc)   XCENC  =      -993.19932031
  PAW double counting   =     36827.92525825   -34682.91325678
  entropy T*S    EENTRO =        -4.72285284
  eigenvalues    EBANDS =        65.22942355
  atomic energy  EATOM  =     30161.86332653
  Solvation  Ediel_sol  =         0.00000000
  ---------------------------------------------------
  free energy    TOTEN  =      -197.09784039 eV

  energy without entropy =     -192.37498755  energy(sigma->0) =     -194.73641397


--------------------------------------------------------------------------------------------------------




--------------------------------------- Iteration      1(  18)  ---------------------------------------


    POTLOK:  cpu time    0.0688: real time    0.0696
    SETDIJ:  cpu time    0.0198: real time    0.0197
     EDDAV:  cpu time   36.3113: real time   36.3749
       DOS:  cpu time    0.0189: real time    0.0189
    CHARGE:  cpu time    1.1671: real time    1.1763
    MIXING:  cpu time    0.0039: real time    0.0039
    --------------------------------------------
      LOOP:  cpu time   37.5898: real time   37.6633

 eigenvalue-minimisations  : 11672
 total energy-change (2. order) : 0.2556346E-02  (-0.9922939E-03)
 number of electron     376.0000457 magnetization 
 augmentation part      152.6933111 magnetization 

 Broyden mixing:
  rms(total) = 0.42371E-01    rms(broyden)= 0.42365E-01
  rms(prec ) = 0.53532E-01
  weight for this iteration     100.00

 eigenvalues of (default mixing * dielectric matrix)
  average eigenvalue GAMMA=   0.7475
  2.3157  2.0471  0.9859  0.8755  0.8755  0.7637  0.4264  0.3214  0.1626  0.2673
  0.2059  0.2436  0.2271

 Free energy of the ion-electron system (eV)
  ---------------------------------------------------
  alpha Z        PSCENC =       918.22725072
  Ewald energy   TEWEN  =     27593.66534965
  -Hartree energ DENC   =    -60088.93900820
  -exchange      EXHF   =         0.00000000
  -V(xc)+E(xc)   XCENC  =      -993.15199279
  PAW double counting   =     36814.40894679   -34669.21920188
  entropy T*S    EENTRO =        -4.72809552
  eigenvalues    EBANDS =        70.77814066
  atomic energy  EATOM  =     30161.86332653
  Solvation  Ediel_sol  =         0.00000000
  ---------------------------------------------------
  free energy    TOTEN  =      -197.09528404 eV

  energy without entropy =     -192.36718852  energy(sigma->0) =     -194.73123628


--------------------------------------------------------------------------------------------------------




--------------------------------------- Iteration      1(  19)  ---------------------------------------


    POTLOK:  cpu time    0.0693: real time    0.0838
    SETDIJ:  cpu time    0.0195: real time    0.0194
     EDDAV:  cpu time   36.4600: real time   36.5929
       DOS:  cpu time    0.0197: real time    0.0197
    CHARGE:  cpu time    1.1657: real time    1.1669
    MIXING:  cpu time    0.0044: real time    0.0044
    --------------------------------------------
      LOOP:  cpu time   37.7387: real time   37.8872

 eigenvalue-minimisations  : 11648
 total energy-change (2. order) : 0.5793852E-03  (-0.5517883E-03)
 number of electron     376.0000457 magnetization 
 augmentation part      152.6859954 magnetization 

 Broyden mixing:
  rms(total) = 0.34908E-01    rms(broyden)= 0.34903E-01
  rms(prec ) = 0.49642E-01
  weight for this iteration     100.00

 eigenvalues of (default mixing * dielectric matrix)
  average eigenvalue GAMMA=   0.7850
  2.3466  2.3466  1.2182  1.2182  0.8936  0.5957  0.5957  0.3794  0.1626  0.3075
  0.2063  0.2573  0.2250  0.2372

 Free energy of the ion-electron system (eV)
  ---------------------------------------------------
  alpha Z        PSCENC =       918.22725072
  Ewald energy   TEWEN  =     27593.66534965
  -Hartree energ DENC   =    -60092.21633720
  -exchange      EXHF   =         0.00000000
  -V(xc)+E(xc)   XCENC  =      -993.13314137
  PAW double counting   =     36810.20478500   -34664.99912226
  entropy T*S    EENTRO =        -4.72838515
  eigenvalues    EBANDS =        74.02156943
  atomic energy  EATOM  =     30161.86332653
  Solvation  Ediel_sol  =         0.00000000
  ---------------------------------------------------
  free energy    TOTEN  =      -197.09470466 eV

  energy without entropy =     -192.36631951  energy(sigma->0) =     -194.73051208


--------------------------------------------------------------------------------------------------------




--------------------------------------- Iteration      1(  20)  ---------------------------------------


    POTLOK:  cpu time    0.0687: real time    0.0698
    SETDIJ:  cpu time    0.0198: real time    0.0198
     EDDAV:  cpu time   36.4514: real time   36.6761
       DOS:  cpu time    0.0196: real time    0.0196
    CHARGE:  cpu time    1.1663: real time    1.1673
    MIXING:  cpu time    0.0048: real time    0.0048
    --------------------------------------------
      LOOP:  cpu time   37.7306: real time   37.9573

 eigenvalue-minimisations  : 11536
 total energy-change (2. order) : 0.2580814E-04  (-0.3261847E-03)
 number of electron     376.0000457 magnetization 
 augmentation part      152.6807350 magnetization 

 Broyden mixing:
  rms(total) = 0.29053E-01    rms(broyden)= 0.29051E-01
  rms(prec ) = 0.43260E-01
  weight for this iteration     100.00

 eigenvalues of (default mixing * dielectric matrix)
  average eigenvalue GAMMA=   0.7736
  2.3949  2.3949  1.2876  1.2876  0.9389  0.6154  0.6154  0.3971  0.3377  0.1626
  0.2684  0.2056  0.2381  0.2381  0.2224

 Free energy of the ion-electron system (eV)
  ---------------------------------------------------
  alpha Z        PSCENC =       918.22725072
  Ewald energy   TEWEN  =     27593.66534965
  -Hartree energ DENC   =    -60096.94039913
  -exchange      EXHF   =         0.00000000
  -V(xc)+E(xc)   XCENC  =      -993.10423811
  PAW double counting   =     36804.25307040   -34659.04972613
  entropy T*S    EENTRO =        -4.72986918
  eigenvalues    EBANDS =        78.72055641
  atomic energy  EATOM  =     30161.86332653
  Solvation  Ediel_sol  =         0.00000000
  ---------------------------------------------------
  free energy    TOTEN  =      -197.09467885 eV

  energy without entropy =     -192.36480967  energy(sigma->0) =     -194.72974426


--------------------------------------------------------------------------------------------------------




--------------------------------------- Iteration      1(  21)  ---------------------------------------


    POTLOK:  cpu time    0.0690: real time    0.0697
    SETDIJ:  cpu time    0.0196: real time    0.0196
     EDDAV:  cpu time   36.2489: real time   36.3239
       DOS:  cpu time    0.0194: real time    0.0194
    CHARGE:  cpu time    1.1592: real time    1.1722
    MIXING:  cpu time    0.0049: real time    0.0049
    --------------------------------------------
      LOOP:  cpu time   37.5211: real time   37.6097

 eigenvalue-minimisations  : 11584
 total energy-change (2. order) : 0.3146412E-03  (-0.1284200E-03)
 number of electron     376.0000457 magnetization 
 augmentation part      152.6821869 magnetization 

 Broyden mixing:
  rms(total) = 0.16061E-01    rms(broyden)= 0.16060E-01
  rms(prec ) = 0.24189E-01
  weight for this iteration     100.00

 eigenvalues of (default mixing * dielectric matrix)
  average eigenvalue GAMMA=   0.7853
  2.4810  2.4810  1.3795  1.3795  0.8257  0.6926  0.6926  0.5938  0.3758  0.1626
  0.3157  0.2762  0.2063  0.2492  0.2239  0.2293

 Free energy of the ion-electron system (eV)
  ---------------------------------------------------
  alpha Z        PSCENC =       918.22725072
  Ewald energy   TEWEN  =     27593.66534965
  -Hartree energ DENC   =    -60098.81826256
  -exchange      EXHF   =         0.00000000
  -V(xc)+E(xc)   XCENC  =      -993.09791663
  PAW double counting   =     36802.61559039   -34657.45066863
  entropy T*S    EENTRO =        -4.73060053
  eigenvalues    EBANDS =        80.63156684
  atomic energy  EATOM  =     30161.86332653
  Solvation  Ediel_sol  =         0.00000000
  ---------------------------------------------------
  free energy    TOTEN  =      -197.09436421 eV

  energy without entropy =     -192.36376368  energy(sigma->0) =     -194.72906394


--------------------------------------------------------------------------------------------------------




--------------------------------------- Iteration      1(  22)  ---------------------------------------


    POTLOK:  cpu time    0.0688: real time    0.0701
    SETDIJ:  cpu time    0.0194: real time    0.0198
     EDDAV:  cpu time   36.9868: real time   37.1972
       DOS:  cpu time    0.0198: real time    0.0198
    CHARGE:  cpu time    1.1591: real time    1.1631
    MIXING:  cpu time    0.0054: real time    0.0054
    --------------------------------------------
      LOOP:  cpu time   38.2592: real time   38.4753

 eigenvalue-minimisations  : 11864
 total energy-change (2. order) :-0.4229202E-03  (-0.6340857E-04)
 number of electron     376.0000457 magnetization 
 augmentation part      152.6865276 magnetization 

 Broyden mixing:
  rms(total) = 0.10270E-01    rms(broyden)= 0.10267E-01
  rms(prec ) = 0.15539E-01
  weight for this iteration     100.00

 eigenvalues of (default mixing * dielectric matrix)
  average eigenvalue GAMMA=   0.7844
  2.5163  2.5163  1.4336  1.4336  0.8446  0.8446  0.6484  0.6484  0.4374  0.3527
  0.3280  0.1626  0.2565  0.2565  0.2060  0.2245  0.2245

 Free energy of the ion-electron system (eV)
  ---------------------------------------------------
  alpha Z        PSCENC =       918.22725072
  Ewald energy   TEWEN  =     27593.66534965
  -Hartree energ DENC   =    -60101.49660417
  -exchange      EXHF   =         0.00000000
  -V(xc)+E(xc)   XCENC  =      -993.09207623
  PAW double counting   =     36800.35698770   -34655.25920808
  entropy T*S    EENTRO =        -4.72937678
  eigenvalues    EBANDS =        83.36956353
  atomic energy  EATOM  =     30161.86332653
  Solvation  Ediel_sol  =         0.00000000
  ---------------------------------------------------
  free energy    TOTEN  =      -197.09478713 eV

  energy without entropy =     -192.36541035  energy(sigma->0) =     -194.73009874


--------------------------------------------------------------------------------------------------------




--------------------------------------- Iteration      1(  23)  ---------------------------------------


    POTLOK:  cpu time    0.0693: real time    0.0705
    SETDIJ:  cpu time    0.0195: real time    0.0195
     EDDAV:  cpu time   36.4203: real time   36.5703
       DOS:  cpu time    0.0198: real time    0.0198
    CHARGE:  cpu time    1.1810: real time    1.1873
    MIXING:  cpu time    0.0055: real time    0.0055
    --------------------------------------------
      LOOP:  cpu time   37.7156: real time   37.8731

 eigenvalue-minimisations  : 11648
 total energy-change (2. order) :-0.4386529E-03  (-0.4430089E-04)
 number of electron     376.0000457 magnetization 
 augmentation part      152.6887134 magnetization 

 Broyden mixing:
  rms(total) = 0.74411E-02    rms(broyden)= 0.74388E-02
  rms(prec ) = 0.11392E-01
  weight for this iteration     100.00

 eigenvalues of (default mixing * dielectric matrix)
  average eigenvalue GAMMA=   0.8231
  2.5580  2.5580  1.8371  1.4965  1.0466  1.0466  0.6807  0.6327  0.6327  0.3621
  0.3488  0.1626  0.2875  0.2061  0.2544  0.2544  0.2248  0.2263

 Free energy of the ion-electron system (eV)
  ---------------------------------------------------
  alpha Z        PSCENC =       918.22725072
  Ewald energy   TEWEN  =     27593.66534965
  -Hartree energ DENC   =    -60103.47207827
  -exchange      EXHF   =         0.00000000
  -V(xc)+E(xc)   XCENC  =      -993.08864847
  PAW double counting   =     36799.16224453   -34654.12044621
  entropy T*S    EENTRO =        -4.72880875
  eigenvalues    EBANDS =        85.39658450
  atomic energy  EATOM  =     30161.86332653
  Solvation  Ediel_sol  =         0.00000000
  ---------------------------------------------------
  free energy    TOTEN  =      -197.09522578 eV

  energy without entropy =     -192.36641703  energy(sigma->0) =     -194.73082141


--------------------------------------------------------------------------------------------------------




--------------------------------------- Iteration      1(  24)  ---------------------------------------


    POTLOK:  cpu time    0.0690: real time    0.0702
    SETDIJ:  cpu time    0.0194: real time    0.0193
     EDDAV:  cpu time   36.0638: real time   36.1143
       DOS:  cpu time    0.0195: real time    0.0195
    CHARGE:  cpu time    1.1654: real time    1.1667
    MIXING:  cpu time    0.0056: real time    0.0056
    --------------------------------------------
      LOOP:  cpu time   37.3424: real time   37.3954

 eigenvalue-minimisations  : 11496
 total energy-change (2. order) :-0.5287264E-03  (-0.2641484E-04)
 number of electron     376.0000457 magnetization 
 augmentation part      152.6885220 magnetization 

 Broyden mixing:
  rms(total) = 0.65869E-02    rms(broyden)= 0.65860E-02
  rms(prec ) = 0.89913E-02
  weight for this iteration     100.00

 eigenvalues of (default mixing * dielectric matrix)
  average eigenvalue GAMMA=   0.8169
  2.8062  2.2037  2.2037  1.5057  1.0594  1.0594  0.7387  0.6295  0.6295  0.4078
  0.3691  0.1626  0.3176  0.2061  0.2627  0.2627  0.2475  0.2249  0.2249

 Free energy of the ion-electron system (eV)
  ---------------------------------------------------
  alpha Z        PSCENC =       918.22725072
  Ewald energy   TEWEN  =     27593.66534965
  -Hartree energ DENC   =    -60106.00403785
  -exchange      EXHF   =         0.00000000
  -V(xc)+E(xc)   XCENC  =      -993.08023747
  PAW double counting   =     36797.97164067   -34652.98024907
  entropy T*S    EENTRO =        -4.72947122
  eigenvalues    EBANDS =        87.97067354
  atomic energy  EATOM  =     30161.86332653
  Solvation  Ediel_sol  =         0.00000000
  ---------------------------------------------------
  free energy    TOTEN  =      -197.09575451 eV

  energy without entropy =     -192.36628329  energy(sigma->0) =     -194.73101890


--------------------------------------------------------------------------------------------------------




--------------------------------------- Iteration      1(  25)  ---------------------------------------


    POTLOK:  cpu time    0.0688: real time    0.0692
    SETDIJ:  cpu time    0.0196: real time    0.0196
     EDDAV:  cpu time   36.9978: real time   37.1381
       DOS:  cpu time    0.0196: real time    0.0197
    CHARGE:  cpu time    1.1671: real time    1.1693
    MIXING:  cpu time    0.0061: real time    0.0061
    --------------------------------------------
      LOOP:  cpu time   38.2791: real time   38.4220

 eigenvalue-minimisations  : 11800
 total energy-change (2. order) :-0.1478026E-03  (-0.1258673E-04)
 number of electron     376.0000457 magnetization 
 augmentation part      152.6877357 magnetization 

 Broyden mixing:
  rms(total) = 0.52347E-02    rms(broyden)= 0.52341E-02
  rms(prec ) = 0.71359E-02
  weight for this iteration     100.00

 eigenvalues of (default mixing * dielectric matrix)
  average eigenvalue GAMMA=   0.8330
  3.0194  2.3744  2.3744  1.2713  1.1431  1.1431  0.6948  0.6948  0.6829  0.6829
  0.3612  0.3484  0.1626  0.3008  0.2061  0.2570  0.2570  0.2249  0.2249  0.2361

 Free energy of the ion-electron system (eV)
  ---------------------------------------------------
  alpha Z        PSCENC =       918.22725072
  Ewald energy   TEWEN  =     27593.66534965
  -Hartree energ DENC   =    -60106.90904579
  -exchange      EXHF   =         0.00000000
  -V(xc)+E(xc)   XCENC  =      -993.07603497
  PAW double counting   =     36797.29926314   -34652.31425502
  entropy T*S    EENTRO =        -4.73008830
  eigenvalues    EBANDS =        88.87833173
  atomic energy  EATOM  =     30161.86332653
  Solvation  Ediel_sol  =         0.00000000
  ---------------------------------------------------
  free energy    TOTEN  =      -197.09590231 eV

  energy without entropy =     -192.36581402  energy(sigma->0) =     -194.73085816


--------------------------------------------------------------------------------------------------------




--------------------------------------- Iteration      1(  26)  ---------------------------------------


    POTLOK:  cpu time    0.0695: real time    0.0699
    SETDIJ:  cpu time    0.0196: real time    0.0196
     EDDAV:  cpu time   36.0234: real time   36.1114
       DOS:  cpu time    0.0183: real time    0.0183
    CHARGE:  cpu time    1.1717: real time    1.1752
    MIXING:  cpu time    0.0065: real time    0.0074
    --------------------------------------------
      LOOP:  cpu time   37.3091: real time   37.4018

 eigenvalue-minimisations  : 11456
 total energy-change (2. order) :-0.2579793E-03  (-0.8163550E-05)
 number of electron     376.0000457 magnetization 
 augmentation part      152.6872708 magnetization 

 Broyden mixing:
[...]




--------------------------------------- Iteration     77(   4)  ---------------------------------------


    POTLOK:  cpu time    0.0720: real time    0.0734
    SETDIJ:  cpu time    0.0204: real time    0.0204
     EDDAV:  cpu time   33.1166: real time   33.2454
       DOS:  cpu time    0.0204: real time    0.0206
    CHARGE:  cpu time    1.1586: real time    1.1596
    MIXING:  cpu time    0.0027: real time    0.0027
    --------------------------------------------
      LOOP:  cpu time   34.3908: real time   34.5221

 eigenvalue-minimisations  : 10144
 total energy-change (2. order) : 0.4930371E-06  (-0.1226964E-05)
 number of electron     376.0000236 magnetization 
 augmentation part      152.5821468 magnetization 

 eigenvalues of (default mixing * dielectric matrix)
  average eigenvalue GAMMA=   0.4302
  0.9008  0.2922  0.0975

  free energy =  -0.203417029139E+03  energy without entropy=  -0.198443747508E+03


--------------------------------------------------------------------------------------------------------




--------------------------------------- Iteration     77(   5)  ---------------------------------------


    POTLOK:  cpu time    0.0755: real time    0.0760
    SETDIJ:  cpu time    0.0196: real time    0.0195
     EDDAV:  cpu time   25.6885: real time   25.7588
       DOS:  cpu time    0.0203: real time    0.0203
    CHARGE:  cpu time    1.1647: real time    1.1768
    MIXING:  cpu time    0.0027: real time    0.0027
    --------------------------------------------
      LOOP:  cpu time   26.9713: real time   27.0542

 eigenvalue-minimisations  :  6976
 total energy-change (2. order) : 0.1102246E-05  (-0.4560468E-06)
 number of electron     376.0000236 magnetization 
 augmentation part      152.5823642 magnetization 

 eigenvalues of (default mixing * dielectric matrix)
  average eigenvalue GAMMA=   0.4874
  1.0765  0.5724  0.2018  0.0987

  free energy =  -0.203417028037E+03  energy without entropy=  -0.198443898329E+03


--------------------------------------------------------------------------------------------------------




--------------------------------------- Iteration     77(   6)  ---------------------------------------


    POTLOK:  cpu time    0.0682: real time    0.0686
    SETDIJ:  cpu time    0.0197: real time    0.0197
     EDDAV:  cpu time   24.8672: real time   24.9857
       DOS:  cpu time    0.0194: real time    0.0194
    --------------------------------------------
      LOOP:  cpu time   24.9745: real time   25.0934

 eigenvalue-minimisations  :  6592
 total energy-change (2. order) : 0.4584908E-06  (-0.2840463E-06)
 number of electron     376.0000236 magnetization 
 augmentation part      152.5823642 magnetization 

  free energy =  -0.203417027578E+03  energy without entropy=  -0.198443835049E+03


--------------------------------------------------------------------------------------------------------




------------------------ aborting loop because EDIFF is reached ----------------------------------------


    CHARGE:  cpu time    1.1678: real time    1.1688
    FORLOC:  cpu time    0.0187: real time    0.0187
    FORNL :  cpu time    5.5062: real time    5.5130
    STRESS:  cpu time   16.3818: real time   16.4033
    FORCOR:  cpu time    0.0843: real time    0.0843
    FORHAR:  cpu time    0.0307: real time    0.0307
    MIXING:  cpu time    0.0028: real time    0.0028
    OFIELD:  cpu time    0.0001: real time    0.0001

  FORCE on cell =-STRESS in cart. coord.  units (eV):
  Direction    XX          YY          ZZ          XY          YZ          ZX
  --------------------------------------------------------------------------------------
  Alpha Z   918.22725   918.22725   918.22725
  Ewald   44372.91493 44509.27640-64625.01492   -88.59582   -52.25872    15.76580
  Hartree 53391.65137 53505.77068-50106.62421   -85.50227   -36.61795    14.37973
  E(xc)   -1956.41826 -1956.32358 -1964.69590     0.07701    -0.03971     0.00312
  Local  ************************108022.24280   176.00748    87.38047   -29.45255
  n-local  -189.83926  -189.56005  -232.27331     0.64373     0.88964     0.65160
  augment  2668.94291  2668.48684  2714.46541    -0.76836    -0.39737    -0.50970
  Kinetic  5203.72738  5202.79347  5270.31695    -2.12676     1.38211    -0.50812
  Fock        0.00000     0.00000     0.00000     0.00000     0.00000     0.00000
  -------------------------------------------------------------------------------------
  Total      -9.54590    -8.77275    -3.35592    -0.26499     0.33846     0.32988
  in kB     -15.47759   -14.22400    -5.44124    -0.42965     0.54878     0.53486
  external pressure =      -11.71 kB  Pullay stress =        0.00 kB



--------------------------------------------------------------------------------------------------------



  FREE ENERGIE OF THE ION-ELECTRON SYSTEM (eV)
  ---------------------------------------------------
  free  energy   TOTEN  =      -203.41702758 eV

  energy  without entropy=     -198.44383505  energy(sigma->0) =     -200.93043131
 
 d Force = 0.8921792E-04[ 0.813E-04, 0.972E-04]  d Energy = 0.8771499E-04 0.150E-05
 d Force = 0.5700341E+00[ 0.570E+00, 0.570E+00]  d Ewald  = 0.5700341E+00-0.216E-08


--------------------------------------------------------------------------------------------------------


    POTLOK:  cpu time    0.0908: real time    0.0908


--------------------------------------------------------------------------------------------------------


 stress matrix after NEB project (eV)
     -9.54590     -0.26499      0.32988
     -0.26499     -8.77275      0.33846
      0.32988      0.33846     -3.35592
  FORCES: max atom, RMS     0.030694    0.011448
  FORCE total and by dimension    0.071494    0.027238
  Stress total and by dimension   13.413974    9.545901
 Conjugate gradient step on ions:
 trial-energy change:   -0.000088  1 .order   -0.000089   -0.000097   -0.000081
  (g-gl).g = 0.325E-03      g.g   = 0.353E-03  gl.gl    = 0.129E-02
 g(Force)  = 0.353E-03   g(Stress)= 0.000E+00 ortho     = 0.359E-04
 gamma     =   0.25247
 trial     =   0.26814
 opt step  =   1.07258  (harmonic =   1.64005) maximal distance =0.00218318
 next E    =  -203.417237   (d E  =  -0.00030)


--------------------------------------------------------------------------------------------------------


    WAVPRE:  cpu time    0.0409: real time    0.0449
    FEWALD:  cpu time    0.0033: real time    0.0033

 real space projection operators:
  total allocation   :       9688.92 KBytes
  max/ min on nodes  :       1220.00       1202.58

    ORTHCH:  cpu time    2.4311: real time    2.4507
     LOOP+:  cpu time  224.4046: real time  225.1563


--------------------------------------- Iteration     78(   1)  ---------------------------------------


    POTLOK:  cpu time    0.0974: real time    0.1040
    SETDIJ:  cpu time    0.0193: real time    0.0197
     EDDAV:  cpu time   35.3523: real time   35.5811
       DOS:  cpu time    0.0207: real time    0.0207
    CHARGE:  cpu time    1.1586: real time    1.1604
    MIXING:  cpu time    0.0021: real time    0.0021
    --------------------------------------------
      LOOP:  cpu time   36.6506: real time   36.8882

 eigenvalue-minimisations  : 11136
 total energy-change (2. order) :-0.3533781E-04  (-0.8504637E-02)
 number of electron     376.0000236 magnetization 
 augmentation part      152.5816817 magnetization 

  free energy =  -0.203417063374E+03  energy without entropy=  -0.198442523521E+03


--------------------------------------------------------------------------------------------------------




--------------------------------------- Iteration     78(   2)  ---------------------------------------


    POTLOK:  cpu time    0.0695: real time    0.0700
    SETDIJ:  cpu time    0.0194: real time    0.0194
     EDDAV:  cpu time   36.1017: real time   36.3933
       DOS:  cpu time    0.0205: real time    0.0205
    CHARGE:  cpu time    1.1702: real time    1.1745
    MIXING:  cpu time    0.0025: real time    0.0025
    --------------------------------------------
      LOOP:  cpu time   37.3839: real time   37.6802

 eigenvalue-minimisations  : 11392
 total energy-change (2. order) :-0.2065277E-03  (-0.1719425E-03)
 number of electron     376.0000236 magnetization 
 augmentation part      152.5835232 magnetization 

 eigenvalues of (default mixing * dielectric matrix)
  average eigenvalue GAMMA=   0.1712
  0.1712

  free energy =  -0.203417269902E+03  energy without entropy=  -0.198445432053E+03


--------------------------------------------------------------------------------------------------------




--------------------------------------- Iteration     78(   3)  ---------------------------------------


    POTLOK:  cpu time    0.0685: real time    0.0689
    SETDIJ:  cpu time    0.0194: real time    0.0194
     EDDAV:  cpu time   36.5380: real time   36.5985
       DOS:  cpu time    0.0203: real time    0.0203
    CHARGE:  cpu time    1.1610: real time    1.1622
    MIXING:  cpu time    0.0026: real time    0.0026
    --------------------------------------------
      LOOP:  cpu time   37.8098: real time   37.8720

 eigenvalue-minimisations  : 11680
 total energy-change (2. order) : 0.5025186E-04  (-0.2377800E-04)
 number of electron     376.0000236 magnetization 
 augmentation part      152.5820730 magnetization 

 eigenvalues of (default mixing * dielectric matrix)
  average eigenvalue GAMMA=   0.3079
  0.4512  0.1646

  free energy =  -0.203417219650E+03  energy without entropy=  -0.198443282410E+03


--------------------------------------------------------------------------------------------------------




--------------------------------------- Iteration     78(   4)  ---------------------------------------


    POTLOK:  cpu time    0.0684: real time    0.0700
    SETDIJ:  cpu time    0.0191: real time    0.0190
     EDDAV:  cpu time   36.5913: real time   36.8112
       DOS:  cpu time    0.0206: real time    0.0206
    CHARGE:  cpu time    1.1765: real time    1.1784
    MIXING:  cpu time    0.0026: real time    0.0026
    --------------------------------------------
      LOOP:  cpu time   37.8784: real time   38.1019

 eigenvalue-minimisations  : 11672
 total energy-change (2. order) :-0.2635152E-05  (-0.1215571E-04)
 number of electron     376.0000236 magnetization 
 augmentation part      152.5819364 magnetization 

 eigenvalues of (default mixing * dielectric matrix)
  average eigenvalue GAMMA=   0.4587
  0.9848  0.2941  0.0973

  free energy =  -0.203417222285E+03  energy without entropy=  -0.198443227517E+03


--------------------------------------------------------------------------------------------------------




--------------------------------------- Iteration     78(   5)  ---------------------------------------


    POTLOK:  cpu time    0.0685: real time    0.0690
    SETDIJ:  cpu time    0.0193: real time    0.0193
     EDDAV:  cpu time   36.1240: real time   36.1862
       DOS:  cpu time    0.0205: real time    0.0205
    CHARGE:  cpu time    1.1653: real time    1.1664
    MIXING:  cpu time    0.0027: real time    0.0027
    --------------------------------------------
      LOOP:  cpu time   37.4004: real time   37.4642

 eigenvalue-minimisations  : 11504
 total energy-change (2. order) : 0.1749186E-04  (-0.4647121E-05)
 number of electron     376.0000236 magnetization 
 augmentation part      152.5824007 magnetization 

 eigenvalues of (default mixing * dielectric matrix)
  average eigenvalue GAMMA=   0.5768
  1.2415  0.7489  0.2184  0.0985

  free energy =  -0.203417204793E+03  energy without entropy=  -0.198443705625E+03


--------------------------------------------------------------------------------------------------------




--------------------------------------- Iteration     78(   6)  ---------------------------------------


    POTLOK:  cpu time    0.0683: real time    0.0688
    SETDIJ:  cpu time    0.0194: real time    0.0194
     EDDAV:  cpu time   36.0402: real time   36.1997
       DOS:  cpu time    0.0207: real time    0.0207
    CHARGE:  cpu time    1.1704: real time    1.1716
    MIXING:  cpu time    0.0030: real time    0.0030
    --------------------------------------------
      LOOP:  cpu time   37.3218: real time   37.4831

 eigenvalue-minimisations  : 11440
 total energy-change (2. order) :-0.2385412E-05  (-0.2971267E-05)
 number of electron     376.0000236 magnetization 
 augmentation part      152.5818051 magnetization 

 eigenvalues of (default mixing * dielectric matrix)
  average eigenvalue GAMMA=   0.7413
  2.2168  0.9466  0.0983  0.2455  0.1993

  free energy =  -0.203417207179E+03  energy without entropy=  -0.198443484910E+03


--------------------------------------------------------------------------------------------------------




--------------------------------------- Iteration     78(   7)  ---------------------------------------


    POTLOK:  cpu time    0.0683: real time    0.0687
    SETDIJ:  cpu time    0.0195: real time    0.0195
     EDDAV:  cpu time   36.4631: real time   36.6487
       DOS:  cpu time    0.0204: real time    0.0204
    CHARGE:  cpu time    1.1662: real time    1.1672
    MIXING:  cpu time    0.0030: real time    0.0031
    --------------------------------------------
      LOOP:  cpu time   37.7405: real time   37.9276

 eigenvalue-minimisations  : 11584
 total energy-change (2. order) : 0.5539710E-05  (-0.2399813E-05)
 number of electron     376.0000236 magnetization 
 augmentation part      152.5823127 magnetization 

 eigenvalues of (default mixing * dielectric matrix)
  average eigenvalue GAMMA=   0.7083
  2.5231  0.9290  0.0983  0.2901  0.2311  0.1783

  free energy =  -0.203417201639E+03  energy without entropy=  -0.198443459516E+03


--------------------------------------------------------------------------------------------------------




--------------------------------------- Iteration     78(   8)  ---------------------------------------


    POTLOK:  cpu time    0.0683: real time    0.0688
    SETDIJ:  cpu time    0.0213: real time    0.0213
     EDDAV:  cpu time   33.5239: real time   33.5881
       DOS:  cpu time    0.0204: real time    0.0204
    CHARGE:  cpu time    1.1648: real time    1.1668
    MIXING:  cpu time    0.0032: real time    0.0032
    --------------------------------------------
      LOOP:  cpu time   34.8017: real time   34.8685

 eigenvalue-minimisations  : 10408
 total energy-change (2. order) : 0.3460074E-05  (-0.8518255E-06)
 number of electron     376.0000236 magnetization 
 augmentation part      152.5819798 magnetization 

 eigenvalues of (default mixing * dielectric matrix)
  average eigenvalue GAMMA=   0.6671
  2.4970  0.8448  0.5574  0.0983  0.2734  0.2215  0.1774

  free energy =  -0.203417198179E+03  energy without entropy=  -0.198443237578E+03


--------------------------------------------------------------------------------------------------------




--------------------------------------- Iteration     78(   9)  ---------------------------------------


    POTLOK:  cpu time    0.0854: real time    0.0893
    SETDIJ:  cpu time    0.0196: real time    0.0196
     EDDAV:  cpu time   24.0851: real time   24.3807
       DOS:  cpu time    0.0199: real time    0.0199
    --------------------------------------------
      LOOP:  cpu time   24.2101: real time   24.5095

 eigenvalue-minimisations  :  6232
 total energy-change (2. order) : 0.1273729E-06  (-0.1345367E-06)
 number of electron     376.0000236 magnetization 
 augmentation part      152.5819798 magnetization 

  free energy =  -0.203417198052E+03  energy without entropy=  -0.198443281123E+03


--------------------------------------------------------------------------------------------------------




------------------------ aborting loop because EDIFF is reached ----------------------------------------


    CHARGE:  cpu time    1.1670: real time    1.1683
    FORLOC:  cpu time    0.0186: real time    0.0186
    FORNL :  cpu time    5.3620: real time    5.3895
    STRESS:  cpu time   16.4663: real time   16.4910
    FORCOR:  cpu time    0.0842: real time    0.0842
    FORHAR:  cpu time    0.0307: real time    0.0307
    MIXING:  cpu time    0.0032: real time    0.0032
    OFIELD:  cpu time    0.0001: real time    0.0001

  FORCE on cell =-STRESS in cart. coord.  units (eV):
  Direction    XX          YY          ZZ          XY          YZ          ZX
  --------------------------------------------------------------------------------------
  Alpha Z   918.22725   918.22725   918.22725
  Ewald   44371.94259 44507.36883-64623.84198   -88.59012   -52.20563    15.87452
  Hartree 53391.00528 53504.62411-50105.91103   -85.54920   -36.66629    14.24186
  E(xc)   -1956.41163 -1956.31894 -1964.69238     0.07717    -0.03929     0.00454
  Local  ************************108020.32816   176.04928    87.40126   -29.37219
  n-local  -189.82823  -189.57809  -232.29470     0.64333     0.89511     0.64962
  augment  2668.92362  2668.49300  2714.48047    -0.76947    -0.40348    -0.51805
  Kinetic  5203.68072  5202.79780  5270.32191    -2.12672     1.36288    -0.55096
  Fock        0.00000     0.00000     0.00000     0.00000     0.00000     0.00000
  -------------------------------------------------------------------------------------
  Total      -9.54704    -8.79094    -3.38230    -0.26574     0.34456     0.32934
  in kB     -15.47943   -14.25350    -5.48402    -0.43086     0.55867     0.53398
  external pressure =      -11.74 kB  Pullay stress =        0.00 kB



--------------------------------------------------------------------------------------------------------



  FREE ENERGIE OF THE ION-ELECTRON SYSTEM (eV)
  ---------------------------------------------------
  free  energy   TOTEN  =      -203.41719805 eV

  energy  without entropy=     -198.44328112  energy(sigma->0) =     -200.93023959
 
 d Force = 0.1779909E-03[ 0.112E-03, 0.244E-03]  d Energy = 0.1704737E-03 0.752E-05
 d Force = 0.1706959E+01[ 0.170E+01, 0.171E+01]  d Ewald  = 0.1706960E+01-0.652E-06


--------------------------------------------------------------------------------------------------------


    POTLOK:  cpu time    0.0910: real time    0.0910


--------------------------------------------------------------------------------------------------------


 stress matrix after NEB project (eV)
     -9.54704     -0.26574      0.32934
     -0.26574     -8.79094      0.34456
      0.32934      0.34456     -3.38230
  FORCES: max atom, RMS     0.023541    0.007797
  FORCE total and by dimension    0.048694    0.021718
  Stress total and by dimension   13.433620    9.547038


--------------------------------------------------------------------------------------------------------


  
 reached required accuracy - stopping structural energy minimisation
     LOOP+:  cpu time  344.5241: real time  346.1844
    4ORBIT:  cpu time    0.0000: real time    0.0000

 total amount of memory used by VASP MPI-rank0    59951. kBytes
=======================================================================

   base      :      30000. kBytes
   nonlr-proj:       2763. kBytes
   fftplans  :       1296. kBytes
   grid      :       2296. kBytes
   one-center:         77. kBytes
   wavefun   :      23519. kBytes
 
  
  
 General timing and accounting informations for this job:
 ========================================================
  
                  Total CPU time used (sec):    40172.906
                            User time (sec):    40093.012
                          System time (sec):       79.895
                         Elapsed time (sec):    40358.734
  
                   Maximum memory used (kb):     1932052.
                   Average memory used (kb):           0.
  
                          Minor page faults:      5115463
                          Major page faults:            0
                 Voluntary context switches:       373361
