       N       E                     dE             d eps       ncg     rms          rms(c)
DAV:   1     0.209460672991E+04    0.20946E+04   -0.15210E+05 10968   0.116E+03
DAV:   2    -0.926954826091E+02   -0.21873E+04   -0.20585E+04 11912   0.292E+02
DAV:   3    -0.207930696529E+03   -0.11524E+03   -0.10440E+03 12464   0.611E+01
DAV:   4    -0.211686042937E+03   -0.37553E+01   -0.36513E+01 12644   0.109E+01
DAV:   5    -0.211813628995E+03   -0.12759E+00   -0.12738E+00 13788   0.204E+00    0.394E+01
DAV:   6    -0.203259046285E+03    0.85546E+01   -0.37357E+01 12768   0.171E+01    0.219E+01
DAV:   7    -0.207708875103E+03   -0.44498E+01   -0.16613E+01 15856   0.166E+01    0.225E+01
DAV:   8    -0.214232744970E+03   -0.65239E+01   -0.19182E+01 13096   0.317E+01    0.291E+01
DAV:   9    -0.203100449411E+03    0.11132E+02   -0.12431E+01 13920   0.185E+01    0.113E+01
DAV:  10    -0.202150867412E+03    0.94958E+00   -0.52868E+00 11740   0.124E+01    0.885E+00
DAV:  11    -0.201660971992E+03    0.48990E+00   -0.15866E+00 11924   0.619E+00    0.417E+00
DAV:  12    -0.201530271621E+03    0.13070E+00   -0.60359E-01 11284   0.430E+00    0.290E+00
DAV:  13    -0.201493996486E+03    0.36275E-01   -0.20490E-01 11480   0.229E+00    0.178E+00
DAV:  14    -0.201469926543E+03    0.24070E-01   -0.10341E-01 11328   0.168E+00    0.911E-01
DAV:  15    -0.201466815493E+03    0.31110E-02   -0.26643E-02 11404   0.785E-01    0.671E-01
DAV:  16    -0.201462643371E+03    0.41721E-02   -0.11260E-02 11616   0.580E-01    0.312E-01
DAV:  17    -0.201462720628E+03   -0.77257E-04   -0.46305E-03 11464   0.310E-01    0.300E-01
DAV:  18    -0.201462105560E+03    0.61507E-03   -0.23914E-03 11496   0.251E-01    0.158E-01
DAV:  19    -0.201462321069E+03   -0.21551E-03   -0.11128E-03 11368   0.164E-01    0.151E-01
DAV:  20    -0.201462278067E+03    0.43002E-04   -0.64792E-04 11436   0.131E-01    0.672E-02
DAV:  21    -0.201462457934E+03   -0.17987E-03   -0.39179E-04 11296   0.823E-02    0.780E-02
DAV:  22    -0.201462469042E+03   -0.11108E-04   -0.17857E-04 11588   0.664E-02    0.486E-02
DAV:  23    -0.201462585390E+03   -0.11635E-03   -0.11468E-04 10816   0.491E-02    0.391E-02
DAV:  24    -0.201462664889E+03   -0.79499E-04   -0.48697E-05  8840   0.349E-02    0.296E-02
DAV:  25    -0.201462783188E+03   -0.11830E-03   -0.31850E-05  7852   0.242E-02    0.167E-02
DAV:  26    -0.201462825470E+03   -0.42282E-04   -0.11676E-05  6872   0.163E-02    0.119E-02
DAV:  27    -0.201462860293E+03   -0.34823E-04   -0.51702E-06  6720   0.842E-03    0.601E-03
DAV:  28    -0.201462880090E+03   -0.19798E-04   -0.28459E-06  6784   0.632E-03    0.424E-03
DAV:  29    -0.201462893880E+03   -0.13790E-04   -0.20130E-06  6648   0.386E-03    0.210E-03
DAV:  30    -0.201462897867E+03   -0.39869E-05   -0.86745E-07  6544   0.252E-03
   1 F= -.20146290E+03 E0= -.19881777E+03  d E =-.201463E+03
       N       E                     dE             d eps       ncg     rms          rms(c)
DAV:   1    -0.201542291759E+03   -0.79398E-01   -0.89395E-01 10952   0.161E+00    0.234E-01
DAV:   2    -0.201543986127E+03   -0.16944E-02   -0.19435E-02 11536   0.222E-01    0.206E-01
DAV:   3    -0.201544890288E+03   -0.90416E-03   -0.39021E-03 12584   0.290E-01    0.382E-01
DAV:   4    -0.201543904341E+03    0.98595E-03   -0.34541E-03 12704   0.266E-01    0.192E-01
DAV:   5    -0.201543709308E+03    0.19503E-03   -0.96581E-04 12312   0.169E-01    0.130E-01
DAV:   6    -0.201543632385E+03    0.76923E-04   -0.35329E-04 12216   0.114E-01    0.889E-02
DAV:   7    -0.201543587083E+03    0.45302E-04   -0.21326E-04 11364   0.845E-02    0.476E-02
DAV:   8    -0.201543571707E+03    0.15376E-04   -0.71480E-05  9668   0.450E-02    0.269E-02
DAV:   9    -0.201543566806E+03    0.49010E-05   -0.27302E-05  7128   0.270E-02
   2 F= -.20154357E+03 E0= -.19890070E+03  d E =-.806689E-01
       N       E                     dE             d eps       ncg     rms          rms(c)
DAV:   1    -0.201691952081E+03   -0.14838E+00   -0.32910E+00 10952   0.312E+00    0.441E-01
DAV:   2    -0.201698576778E+03   -0.66247E-02   -0.74936E-02 11560   0.439E-01    0.403E-01
DAV:   3    -0.201701488509E+03   -0.29117E-02   -0.13295E-02 12580   0.543E-01    0.704E-01
DAV:   4    -0.201698126281E+03    0.33622E-02   -0.11861E-02 12728   0.490E-01    0.351E-01
DAV:   5    -0.201697581913E+03    0.54437E-03   -0.34117E-03 12260   0.315E-01    0.252E-01
DAV:   6    -0.201697361592E+03    0.22032E-03   -0.13149E-03 12152   0.223E-01    0.183E-01
DAV:   7    -0.201697138093E+03    0.22350E-03   -0.80634E-04 11688   0.168E-01    0.829E-02
DAV:   8    -0.201697106218E+03    0.31874E-04   -0.24374E-04 11252   0.813E-02    0.517E-02
DAV:   9    -0.201697087909E+03    0.18310E-04   -0.10261E-04 10644   0.524E-02    0.247E-02
DAV:  10    -0.201697089815E+03   -0.19061E-05   -0.21039E-05  6600   0.231E-02
   3 F= -.20169709E+03 E0= -.19905828E+03  d E =-.153523E+00
       N       E                     dE             d eps       ncg     rms          rms(c)
DAV:   1    -0.201903185778E+03   -0.20610E+00   -0.65426E+00 10944   0.444E+00    0.619E-01
DAV:   2    -0.201917183454E+03   -0.13998E-01   -0.15705E-01 11656   0.639E-01    0.573E-01
DAV:   3    -0.201921865567E+03   -0.46821E-02   -0.23107E-02 12656   0.725E-01    0.929E-01
DAV:   4    -0.201916143084E+03    0.57225E-02   -0.21874E-02 12556   0.660E-01    0.476E-01
DAV:   5    -0.201915454014E+03    0.68907E-03   -0.68452E-03 12080   0.442E-01    0.374E-01
DAV:   6    -0.201915013487E+03    0.44053E-03   -0.28107E-03 12080   0.332E-01    0.276E-01
DAV:   7    -0.201914444700E+03    0.56879E-03   -0.16427E-03 11792   0.246E-01    0.114E-01
DAV:   8    -0.201914443874E+03    0.82609E-06   -0.62377E-04 11224   0.131E-01    0.991E-02
DAV:   9    -0.201914355336E+03    0.88538E-04   -0.25694E-04 11176   0.860E-02    0.298E-02
DAV:  10    -0.201914362006E+03   -0.66699E-05   -0.45910E-05  8420   0.328E-02
   4 F= -.20191436E+03 E0= -.19928093E+03  d E =-.217272E+00
       N       E                     dE             d eps       ncg     rms          rms(c)
DAV:   1    -0.202166002697E+03   -0.25165E+00   -0.10680E+01 10944   0.566E+00    0.786E-01
DAV:   2    -0.202189170581E+03   -0.23168E-01   -0.25950E-01 11536   0.809E-01    0.704E-01
DAV:   3    -0.202195915792E+03   -0.67452E-02   -0.32443E-02 12544   0.870E-01    0.112E+00
DAV:   4    -0.202187808669E+03    0.81071E-02   -0.33667E-02 12404   0.815E-01    0.599E-01
DAV:   5    -0.202186939837E+03    0.86883E-03   -0.11454E-02 12036   0.567E-01    0.492E-01
DAV:   6    -0.202186121289E+03    0.81855E-03   -0.48295E-03 12092   0.436E-01    0.365E-01
DAV:   7    -0.202185005556E+03    0.11157E-02   -0.26731E-03 11748   0.318E-01    0.133E-01
DAV:   8    -0.202185062340E+03   -0.56784E-04   -0.10250E-03 11192   0.167E-01    0.134E-01
DAV:   9    -0.202184892100E+03    0.17024E-03   -0.40854E-04 11180   0.110E-01    0.345E-02
DAV:  10    -0.202184903246E+03   -0.11146E-04   -0.72832E-05 10784   0.400E-02    0.324E-02
DAV:  11    -0.202184907804E+03   -0.45580E-05   -0.24233E-05  6768   0.272E-02
   5 F= -.20218491E+03 E0= -.19955762E+03  d E =-.270546E+00
       N       E                     dE             d eps       ncg     rms          rms(c)
DAV:   1    -0.202465680804E+03   -0.28078E+00   -0.15629E+01 10944   0.676E+00    0.935E-01
DAV:   2    -0.202498855523E+03   -0.33175E-01   -0.37549E-01 11316   0.933E-01    0.773E-01
DAV:   3    -0.202506768430E+03   -0.79129E-02   -0.36520E-02 12540   0.939E-01    0.122E+00
DAV:   4    -0.202497798567E+03    0.89699E-02   -0.44030E-02 12180   0.930E-01    0.720E-01
DAV:   5    -0.202496669707E+03    0.11289E-02   -0.16970E-02 12016   0.680E-01    0.603E-01
DAV:   6    -0.202495217464E+03    0.14522E-02   -0.70539E-03 11840   0.525E-01    0.432E-01
DAV:   7    -0.202493577655E+03    0.16398E-02   -0.36967E-03 11684   0.373E-01    0.149E-01
DAV:   8    -0.202493644357E+03   -0.66702E-04   -0.13045E-03 11208   0.189E-01    0.148E-01
DAV:   9    -0.202493428364E+03    0.21599E-03   -0.48591E-04 11232   0.124E-01    0.397E-02
DAV:  10    -0.202493443304E+03   -0.14940E-04   -0.10123E-04 11284   0.471E-02    0.395E-02
DAV:  11    -0.202493451765E+03   -0.84616E-05   -0.34197E-05  7064   0.318E-02
   6 F= -.20249345E+03 E0= -.19987280E+03  d E =-.308544E+00
       N       E                     dE             d eps       ncg     rms          rms(c)
DAV:   1    -0.202786279779E+03   -0.29284E+00   -0.20133E+01 10944   0.755E+00    0.108E+00
DAV:   2    -0.202828545527E+03   -0.42266E-01   -0.48727E-01 11208   0.100E+00    0.799E-01
DAV:   3    -0.202830705302E+03   -0.21598E-02   -0.26224E-02 12948   0.777E-01    0.982E-01
DAV:   4    -0.202829989016E+03    0.71629E-03   -0.45782E-02 12212   0.953E-01    0.953E-01
DAV:   5    -0.202827799637E+03    0.21894E-02   -0.28863E-02 12200   0.841E-01    0.775E-01
DAV:   6    -0.202823781936E+03    0.40177E-02   -0.10314E-02 11936   0.619E-01    0.435E-01
DAV:   7    -0.202822177295E+03    0.16046E-02   -0.43524E-03 11700   0.395E-01    0.173E-01
DAV:   8    -0.202822179410E+03   -0.21148E-05   -0.14282E-03 11312   0.202E-01    0.154E-01
DAV:   9    -0.202821942453E+03    0.23696E-03   -0.50714E-04 11320   0.129E-01    0.410E-02
DAV:  10    -0.202821971541E+03   -0.29088E-04   -0.12623E-04 11500   0.527E-02    0.484E-02
DAV:  11    -0.202821983067E+03   -0.11526E-04   -0.53694E-05  8964   0.387E-02    0.179E-02
DAV:  12    -0.202822006708E+03   -0.23641E-04   -0.20673E-05  7000   0.225E-02    0.184E-02
DAV:  13    -0.202822026245E+03   -0.19537E-04   -0.11368E-05  6820   0.165E-02    0.711E-03
DAV:  14    -0.202822043379E+03   -0.17135E-04   -0.50890E-06  6612   0.977E-03    0.954E-03
DAV:  15    -0.202822057697E+03   -0.14318E-04   -0.33330E-06  6588   0.837E-03    0.469E-03
DAV:  16    -0.202822066427E+03   -0.87293E-05   -0.16304E-06  6440   0.499E-03
   7 F= -.20282207E+03 E0= -.20020757E+03  d E =-.328615E+00
       N       E                     dE             d eps       ncg     rms          rms(c)
DAV:   1    -0.203096271970E+03   -0.27421E+00   -0.23156E+01 10944   0.779E+00    0.126E+00
DAV:   2    -0.203138986627E+03   -0.42715E-01   -0.51926E-01 11132   0.986E-01    0.765E-01
DAV:   3    -0.203152846416E+03   -0.13860E-01   -0.47716E-02 12508   0.103E+00    0.152E+00
DAV:   4    -0.203136242382E+03    0.16604E-01   -0.57367E-02 12304   0.112E+00    0.703E-01
DAV:   5    -0.203136790261E+03   -0.54788E-03   -0.21978E-02 11752   0.753E-01    0.695E-01
DAV:   6    -0.203131889986E+03    0.49003E-02   -0.10861E-02 11748   0.594E-01    0.240E-01
DAV:   7    -0.203132073009E+03   -0.18302E-03   -0.31021E-03 11848   0.308E-01    0.252E-01
DAV:   8    -0.203131563726E+03    0.50928E-03   -0.12072E-03 11652   0.214E-01    0.130E-01
DAV:   9    -0.203131420626E+03    0.14310E-03   -0.33867E-04 11576   0.103E-01    0.482E-02
DAV:  10    -0.203131458149E+03   -0.37523E-04   -0.14275E-04 11656   0.566E-02    0.547E-02
DAV:  11    -0.203131448417E+03    0.97317E-05   -0.70237E-05 10124   0.459E-02
   8 F= -.20313145E+03 E0= -.20052159E+03  d E =-.309382E+00
       N       E                     dE             d eps       ncg     rms          rms(c)
DAV:   1    -0.203272815485E+03   -0.14136E+00   -0.14452E+01 10944   0.624E+00    0.108E+00
DAV:   2    -0.203306919245E+03   -0.34104E-01   -0.40880E-01 11300   0.113E+00    0.947E-01
DAV:   3    -0.203325400361E+03   -0.18481E-01   -0.75072E-02 12080   0.132E+00    0.174E+00
DAV:   4    -0.203302552311E+03    0.22848E-01   -0.62232E-02 12184   0.119E+00    0.774E-01
DAV:   5    -0.203298876659E+03    0.36757E-02   -0.20659E-02 11524   0.774E-01    0.536E-01
DAV:   6    -0.203297950429E+03    0.92623E-03   -0.95784E-03 11684   0.578E-01    0.486E-01
DAV:   7    -0.203295679941E+03    0.22705E-02   -0.43242E-03 11752   0.423E-01    0.189E-01
DAV:   8    -0.203295653957E+03    0.25984E-04   -0.16702E-03 11548   0.222E-01    0.165E-01
DAV:   9    -0.203295406558E+03    0.24740E-03   -0.59004E-04 11516   0.135E-01    0.571E-02
DAV:  10    -0.203295399990E+03    0.65673E-05   -0.11857E-04 11536   0.529E-02    0.343E-02
DAV:  11    -0.203295444995E+03   -0.45005E-04   -0.46957E-05  8420   0.312E-02    0.245E-02
DAV:  12    -0.203295459068E+03   -0.14074E-04   -0.23806E-05  7660   0.254E-02    0.155E-02
DAV:  13    -0.203295489388E+03   -0.30320E-04   -0.10735E-05  7096   0.140E-02    0.910E-03
DAV:  14    -0.203295501682E+03   -0.12293E-04   -0.67547E-06  6808   0.113E-02    0.867E-03
DAV:  15    -0.203295523674E+03   -0.21993E-04   -0.44778E-06  6668   0.798E-03    0.584E-03
DAV:  16    -0.203295529640E+03   -0.59656E-05   -0.15607E-06  6568   0.553E-03
   9 F= -.20329553E+03 E0= -.20068638E+03  d E =-.164081E+00
       N       E                     dE             d eps       ncg     rms          rms(c)
DAV:   1    -0.203353624140E+03   -0.58100E-01   -0.32459E+00 10944   0.268E+00    0.602E-01
DAV:   2    -0.203359751216E+03   -0.61271E-02   -0.90748E-02 11152   0.473E-01    0.419E-01
DAV:   3    -0.203361597065E+03   -0.18458E-02   -0.10982E-02 12204   0.516E-01    0.656E-01
DAV:   4    -0.203360348003E+03    0.12491E-02   -0.17361E-02 12444   0.609E-01    0.570E-01
DAV:   5    -0.203358163182E+03    0.21848E-02   -0.88758E-03 11912   0.479E-01    0.330E-01
DAV:   6    -0.203357365605E+03    0.79758E-03   -0.26351E-03 12052   0.314E-01    0.238E-01
DAV:   7    -0.203356803284E+03    0.56232E-03   -0.10317E-03 12048   0.194E-01    0.737E-02
DAV:   8    -0.203356802477E+03    0.80674E-06   -0.33342E-04 11640   0.946E-02    0.766E-02
DAV:   9    -0.203356748888E+03    0.53589E-04   -0.11302E-04 11244   0.592E-02    0.251E-02
DAV:  10    -0.203356757263E+03   -0.83747E-05   -0.37919E-05  8224   0.306E-02
  10 F= -.20335676E+03 E0= -.20074750E+03  d E =-.612276E-01
       N       E                     dE             d eps       ncg     rms          rms(c)
DAV:   1    -0.203380333543E+03   -0.23585E-01   -0.54422E-01 10944   0.125E+00    0.158E-01
DAV:   2    -0.203381283877E+03   -0.95033E-03   -0.11813E-02 11536   0.209E-01    0.143E-01
DAV:   3    -0.203381452523E+03   -0.16865E-03   -0.12393E-03 12052   0.165E-01    0.202E-01
DAV:   4    -0.203381303789E+03    0.14873E-03   -0.12724E-03 12044   0.166E-01    0.155E-01
DAV:   5    -0.203381135029E+03    0.16876E-03   -0.66069E-04 11840   0.132E-01    0.850E-02
DAV:   6    -0.203381114341E+03    0.20687E-04   -0.28857E-04 11672   0.889E-02    0.715E-02
DAV:   7    -0.203381071918E+03    0.42424E-04   -0.12277E-04 11248   0.636E-02    0.265E-02
DAV:   8    -0.203381077418E+03   -0.55003E-05   -0.34186E-05  7320   0.345E-02
  11 F= -.20338108E+03 E0= -.20077146E+03  d E =-.243202E-01
       N       E                     dE             d eps       ncg     rms          rms(c)
DAV:   1    -0.203409297849E+03   -0.28226E-01   -0.74265E-01 10944   0.149E+00    0.130E-01
DAV:   2    -0.203410187277E+03   -0.88943E-03   -0.10737E-02 11552   0.226E-01    0.125E-01
DAV:   3    -0.203410198969E+03   -0.11692E-04   -0.87816E-04 11888   0.138E-01    0.125E-01
DAV:   4    -0.203410277261E+03   -0.78292E-04   -0.79953E-04 12056   0.134E-01    0.160E-01
DAV:   5    -0.203410072382E+03    0.20488E-03   -0.50681E-04 12032   0.109E-01    0.667E-02
DAV:   6    -0.203410089854E+03   -0.17472E-04   -0.23636E-04 11612   0.804E-02    0.816E-02
DAV:   7    -0.203410030465E+03    0.59388E-04   -0.12557E-04 11688   0.664E-02    0.337E-02
DAV:   8    -0.203410022231E+03    0.82346E-05   -0.38239E-05  7816   0.338E-02
  12 F= -.20341002E+03 E0= -.20080014E+03  d E =-.289448E-01
       N       E                     dE             d eps       ncg     rms          rms(c)
DAV:   1    -0.203443741630E+03   -0.33711E-01   -0.12517E+00 10944   0.197E+00    0.149E-01
DAV:   2    -0.203445145139E+03   -0.14035E-02   -0.16937E-02 11600   0.287E-01    0.128E-01
DAV:   3    -0.203445177753E+03   -0.32614E-04   -0.12461E-03 11896   0.155E-01    0.130E-01
DAV:   4    -0.203445065653E+03    0.11210E-03   -0.42065E-04 11820   0.114E-01    0.825E-02
DAV:   5    -0.203445171372E+03   -0.10572E-03   -0.45689E-04 11904   0.105E-01    0.136E-01
DAV:   6    -0.203445116294E+03    0.55079E-04   -0.55724E-04 12032   0.112E-01    0.108E-01
DAV:   7    -0.203445026546E+03    0.89748E-04   -0.19677E-04 12000   0.790E-02    0.491E-02
DAV:   8    -0.203445002776E+03    0.23769E-04   -0.57917E-05  9576   0.402E-02    0.137E-02
DAV:   9    -0.203445005632E+03   -0.28554E-05   -0.10982E-05  6272   0.150E-02
  13 F= -.20344501E+03 E0= -.20083469E+03  d E =-.349834E-01
       N       E                     dE             d eps       ncg     rms          rms(c)
DAV:   1    -0.203482358182E+03   -0.37355E-01   -0.18203E+00 10944   0.238E+00    0.181E-01
DAV:   2    -0.203484501436E+03   -0.21433E-02   -0.24954E-02 11624   0.348E-01    0.157E-01
DAV:   3    -0.203484591762E+03   -0.90327E-04   -0.17272E-03 11756   0.195E-01    0.183E-01
DAV:   4    -0.203484398412E+03    0.19335E-03   -0.68133E-04 11944   0.146E-01    0.125E-01
DAV:   5    -0.203484457827E+03   -0.59416E-04   -0.76839E-04 12028   0.132E-01    0.152E-01
DAV:   6    -0.203484395769E+03    0.62059E-04   -0.65099E-04 12120   0.129E-01    0.122E-01
DAV:   7    -0.203484256196E+03    0.13957E-03   -0.27570E-04 12012   0.950E-02    0.426E-02
DAV:   8    -0.203484244895E+03    0.11301E-04   -0.97540E-05 11428   0.488E-02    0.264E-02
DAV:   9    -0.203484241932E+03    0.29625E-05   -0.20684E-05  6424   0.236E-02
  14 F= -.20348424E+03 E0= -.20087336E+03  d E =-.392363E-01
       N       E                     dE             d eps       ncg     rms          rms(c)
DAV:   1    -0.203521870919E+03   -0.37626E-01   -0.24863E+00 10944   0.280E+00    0.212E-01
DAV:   2    -0.203524917085E+03   -0.30462E-02   -0.34877E-02 11656   0.409E-01    0.171E-01
DAV:   3    -0.203525435055E+03   -0.51797E-03   -0.28650E-03 11940   0.246E-01    0.291E-01
DAV:   4    -0.203524997825E+03    0.43723E-03   -0.20936E-03 12048   0.218E-01    0.199E-01
DAV:   5    -0.203524729149E+03    0.26868E-03   -0.80715E-04 12016   0.148E-01    0.103E-01
DAV:   6    -0.203524841223E+03   -0.11207E-03   -0.50994E-04 11692   0.128E-01    0.138E-01
DAV:   7    -0.203524670868E+03    0.17035E-03   -0.34831E-04 11716   0.109E-01    0.425E-02
DAV:   8    -0.203524661295E+03    0.95732E-05   -0.97151E-05 11428   0.473E-02
  15 F= -.20352466E+03 E0= -.20091309E+03  d E =-.404194E-01
       N       E                     dE             d eps       ncg     rms          rms(c)
DAV:   1    -0.203548508891E+03   -0.23838E-01   -0.21617E+00 10944   0.254E+00    0.313E-01
DAV:   2    -0.203552119532E+03   -0.36106E-02   -0.44437E-02 11576   0.412E-01    0.259E-01
DAV:   3    -0.203552441628E+03   -0.32210E-03   -0.33106E-03 12060   0.282E-01    0.352E-01
DAV:   4    -0.203551931428E+03    0.51020E-03   -0.36512E-03 12028   0.288E-01    0.275E-01
DAV:   5    -0.203551726761E+03    0.20467E-03   -0.26598E-03 12200   0.260E-01    0.234E-01
DAV:   6    -0.203551365162E+03    0.36160E-03   -0.12264E-03 11868   0.201E-01    0.156E-01
DAV:   7    -0.203551117055E+03    0.24811E-03   -0.53693E-04 12056   0.139E-01    0.577E-02
DAV:   8    -0.203551110453E+03    0.66019E-05   -0.18854E-04 11628   0.688E-02    0.486E-02
DAV:   9    -0.203551087698E+03    0.22755E-04   -0.49345E-05  9064   0.395E-02    0.138E-02
DAV:  10    -0.203551091928E+03   -0.42300E-05   -0.14120E-05  6440   0.177E-02
  16 F= -.20355109E+03 E0= -.20093894E+03  d E =-.264306E-01
       N       E                     dE             d eps       ncg     rms          rms(c)
DAV:   1    -0.203557655157E+03   -0.65675E-02   -0.76746E-02 10996   0.373E-01    0.101E-01
DAV:   2    -0.203557816968E+03   -0.16181E-03   -0.24303E-03 11368   0.747E-02    0.758E-02
DAV:   3    -0.203558061094E+03   -0.24413E-03   -0.61798E-04 12640   0.121E-01    0.182E-01
DAV:   4    -0.203557789392E+03    0.27170E-03   -0.65355E-04 11940   0.119E-01    0.630E-02
DAV:   5    -0.203557792794E+03   -0.34027E-05   -0.19171E-04 11940   0.770E-02    0.664E-02
DAV:   6    -0.203557755648E+03    0.37146E-04   -0.73773E-05  9840   0.551E-02    0.313E-02
DAV:   7    -0.203557747061E+03    0.85873E-05   -0.26384E-05  7128   0.302E-02
  17 F= -.20355775E+03 E0= -.20094553E+03  d E =-.665513E-02
       N       E                     dE             d eps       ncg     rms          rms(c)
DAV:   1    -0.203565240523E+03   -0.74849E-02   -0.18599E-01 10988   0.721E-01    0.122E-01
DAV:   2    -0.203565618864E+03   -0.37834E-03   -0.49812E-03 11464   0.126E-01    0.904E-02
DAV:   3    -0.203565632194E+03   -0.13330E-04   -0.41085E-04 11916   0.102E-01    0.110E-01
DAV:   4    -0.203565627663E+03    0.45317E-05   -0.50932E-04 12052   0.111E-01    0.115E-01
DAV:   5    -0.203565586470E+03    0.41193E-04   -0.48448E-04 12052   0.105E-01    0.954E-02
DAV:   6    -0.203565531985E+03    0.54486E-04   -0.19667E-04 11968   0.798E-02    0.604E-02
DAV:   7    -0.203565492843E+03    0.39142E-04   -0.65693E-05  9076   0.510E-02    0.185E-02
DAV:   8    -0.203565494057E+03   -0.12144E-05   -0.21768E-05  6480   0.239E-02
  18 F= -.20356549E+03 E0= -.20095314E+03  d E =-.774700E-02
       N       E                     dE             d eps       ncg     rms          rms(c)
DAV:   1    -0.203572243010E+03   -0.67502E-02   -0.13699E-01 10952   0.668E-01    0.513E-02
DAV:   2    -0.203572444103E+03   -0.20109E-03   -0.21588E-03 11620   0.102E-01    0.445E-02
DAV:   3    -0.203572464937E+03   -0.20834E-04   -0.14771E-04 11656   0.553E-02    0.686E-02
DAV:   4    -0.203572434679E+03    0.30258E-04   -0.99279E-05  7588   0.474E-02    0.388E-02
DAV:   5    -0.203572427884E+03    0.67948E-05   -0.33065E-05  7100   0.315E-02
  19 F= -.20357243E+03 E0= -.20095998E+03  d E =-.693383E-02
       N       E                     dE             d eps       ncg     rms          rms(c)
DAV:   1    -0.203580569278E+03   -0.81346E-02   -0.25206E-01 10952   0.914E-01    0.640E-02
DAV:   2    -0.203581092545E+03   -0.52327E-03   -0.36745E-03 11688   0.176E-01    0.150E-01
DAV:   3    -0.203580888023E+03    0.20452E-03   -0.43865E-04 11712   0.121E-01    0.497E-02
DAV:   4    -0.203580903753E+03   -0.15730E-04   -0.11172E-04 11064   0.468E-02    0.659E-02
DAV:   5    -0.203580871865E+03    0.31889E-04   -0.75138E-05  6940   0.420E-02    0.290E-02
DAV:   6    -0.203580873786E+03   -0.19210E-05   -0.40054E-05  8048   0.309E-02
  20 F= -.20358087E+03 E0= -.20096822E+03  d E =-.844590E-02
       N       E                     dE             d eps       ncg     rms          rms(c)
DAV:   1    -0.203589158569E+03   -0.82867E-02   -0.40472E-01 10952   0.116E+00    0.718E-02
DAV:   2    -0.203589744961E+03   -0.58639E-03   -0.58529E-03 11648   0.180E-01    0.882E-02
DAV:   3    -0.203589767925E+03   -0.22964E-04   -0.52038E-04 11712   0.107E-01    0.102E-01
DAV:   4    -0.203589717607E+03    0.50318E-04   -0.28381E-04 11504   0.794E-02    0.707E-02
DAV:   5    -0.203589676041E+03    0.41566E-04   -0.72637E-05  7932   0.440E-02    0.299E-02
DAV:   6    -0.203589679818E+03   -0.37769E-05   -0.41979E-05  8844   0.314E-02
  21 F= -.20358968E+03 E0= -.20097681E+03  d E =-.880603E-02
       N       E                     dE             d eps       ncg     rms          rms(c)
DAV:   1    -0.203596871060E+03   -0.71950E-02   -0.57554E-01 10944   0.138E+00    0.935E-02
DAV:   2    -0.203597876414E+03   -0.10054E-02   -0.88082E-03 11548   0.235E-01    0.160E-01
DAV:   3    -0.203597746689E+03    0.12972E-03   -0.89475E-04 11808   0.156E-01    0.111E-01
DAV:   4    -0.203597749069E+03   -0.23800E-05   -0.48636E-04 11928   0.103E-01    0.114E-01
DAV:   5    -0.203597644100E+03    0.10497E-03   -0.17070E-04 10600   0.681E-02    0.410E-02
DAV:   6    -0.203597641005E+03    0.30955E-05   -0.48478E-05  9140   0.395E-02
  22 F= -.20359764E+03 E0= -.20098452E+03  d E =-.796119E-02
       N       E                     dE             d eps       ncg     rms          rms(c)
DAV:   1    -0.203602290709E+03   -0.46466E-02   -0.75688E-01 10944   0.157E+00    0.112E-01
DAV:   2    -0.203603511717E+03   -0.12210E-02   -0.11822E-02 11284   0.251E-01    0.139E-01
DAV:   3    -0.203603550119E+03   -0.38402E-04   -0.11647E-03 11736   0.163E-01    0.150E-01
DAV:   4    -0.203603470716E+03    0.79403E-04   -0.71253E-04 11848   0.126E-01    0.118E-01
DAV:   5    -0.203603350698E+03    0.12002E-03   -0.20613E-04 11224   0.743E-02    0.409E-02
DAV:   6    -0.203603377032E+03   -0.26334E-04   -0.10375E-04 11480   0.526E-02    0.607E-02
DAV:   7    -0.203603353338E+03    0.23694E-04   -0.81932E-05 10948   0.507E-02    0.311E-02
DAV:   8    -0.203603344882E+03    0.84560E-05   -0.24823E-05  6840   0.273E-02
  23 F= -.20360334E+03 E0= -.20099007E+03  d E =-.570388E-02
       N       E                     dE             d eps       ncg     rms          rms(c)
DAV:   1    -0.203607101560E+03   -0.37482E-02   -0.97830E-01 10944   0.176E+00    0.133E-01
DAV:   2    -0.203608668908E+03   -0.15673E-02   -0.15914E-02 11032   0.274E-01    0.127E-01
DAV:   3    -0.203608747604E+03   -0.78696E-04   -0.11573E-03 11860   0.164E-01    0.154E-01
DAV:   4    -0.203608697358E+03    0.50246E-04   -0.83389E-04 11816   0.137E-01    0.136E-01
DAV:   5    -0.203608543580E+03    0.15378E-03   -0.29937E-04 11792   0.882E-02    0.517E-02
DAV:   6    -0.203608569409E+03   -0.25829E-04   -0.12193E-04 11640   0.611E-02    0.674E-02
DAV:   7    -0.203608547290E+03    0.22118E-04   -0.10051E-04 11476   0.562E-02    0.404E-02
DAV:   8    -0.203608531762E+03    0.15528E-04   -0.40367E-05  7752   0.343E-02    0.113E-02
DAV:   9    -0.203608532092E+03   -0.32971E-06   -0.87127E-06  5816   0.128E-02
  24 F= -.20360853E+03 E0= -.20099510E+03  d E =-.518721E-02
       N       E                     dE             d eps       ncg     rms          rms(c)
DAV:   1    -0.203612176665E+03   -0.36449E-02   -0.12192E+00 10944   0.197E+00    0.148E-01
DAV:   2    -0.203614166181E+03   -0.19895E-02   -0.20132E-02 11052   0.307E-01    0.147E-01
DAV:   3    -0.203614258974E+03   -0.92793E-04   -0.14356E-03 11844   0.184E-01    0.175E-01
DAV:   4    -0.203614184363E+03    0.74612E-04   -0.10286E-03 11820   0.152E-01    0.151E-01
DAV:   5    -0.203614000057E+03    0.18431E-03   -0.36845E-04 11800   0.988E-02    0.615E-02
DAV:   6    -0.203614035040E+03   -0.34983E-04   -0.14765E-04 11728   0.714E-02    0.803E-02
DAV:   7    -0.203613995396E+03    0.39644E-04   -0.13505E-04 11748   0.648E-02    0.405E-02
DAV:   8    -0.203613981010E+03    0.14386E-04   -0.57124E-05  9028   0.388E-02    0.147E-02
DAV:   9    -0.203613980741E+03    0.26890E-06   -0.10413E-05  5836   0.148E-02
  25 F= -.20361398E+03 E0= -.20100038E+03  d E =-.544865E-02
       N       E                     dE             d eps       ncg     rms          rms(c)
DAV:   1    -0.203616233350E+03   -0.22523E-02   -0.14529E+00 10944   0.215E+00    0.168E-01
DAV:   2    -0.203618660479E+03   -0.24271E-02   -0.24664E-02 11072   0.339E-01    0.172E-01
DAV:   3    -0.203618866685E+03   -0.20621E-03   -0.20357E-03 11860   0.219E-01    0.227E-01
DAV:   4    -0.203618614309E+03    0.25238E-03   -0.14442E-03 11896   0.181E-01    0.157E-01
DAV:   5    -0.203618413658E+03    0.20065E-03   -0.42619E-04 11872   0.110E-01    0.715E-02
DAV:   6    -0.203618452659E+03   -0.39001E-04   -0.21231E-04 11716   0.865E-02    0.924E-02
DAV:   7    -0.203618389200E+03    0.63458E-04   -0.17373E-04 11920   0.741E-02    0.422E-02
DAV:   8    -0.203618374017E+03    0.15184E-04   -0.67733E-05  9752   0.413E-02    0.167E-02
DAV:   9    -0.203618373493E+03    0.52428E-06   -0.11444E-05  6032   0.159E-02
  26 F= -.20361837E+03 E0= -.20100460E+03  d E =-.439275E-02
       N       E                     dE             d eps       ncg     rms          rms(c)
DAV:   1    -0.203617375329E+03    0.99869E-03   -0.68253E-01 10944   0.130E+00    0.217E-01
DAV:   2    -0.203618904085E+03   -0.15288E-02   -0.19672E-02 10980   0.228E-01    0.177E-01
DAV:   3    -0.203618711913E+03    0.19217E-03   -0.82108E-04 11968   0.134E-01    0.145E-01
DAV:   4    -0.203618905951E+03   -0.19404E-03   -0.15352E-03 11592   0.188E-01    0.211E-01
DAV:   5    -0.203618991496E+03   -0.85544E-04   -0.20730E-03 12604   0.217E-01    0.231E-01
DAV:   6    -0.203618468354E+03    0.52314E-03   -0.85601E-04 12464   0.153E-01    0.565E-02
DAV:   7    -0.203618452057E+03    0.16298E-04   -0.12933E-04 11664   0.620E-02    0.423E-02
DAV:   8    -0.203618445463E+03    0.65932E-05   -0.41736E-05  8444   0.402E-02
  27 F= -.20361845E+03 E0= -.20100462E+03  d E =-.719707E-04
       N       E                     dE             d eps       ncg     rms          rms(c)
DAV:   1    -0.203620939754E+03   -0.24877E-02   -0.46039E-02 10964   0.312E-01    0.740E-02
DAV:   2    -0.203621060466E+03   -0.12071E-03   -0.16735E-03 11100   0.649E-02    0.606E-02
DAV:   3    -0.203621078761E+03   -0.18294E-04   -0.17734E-04 11268   0.655E-02    0.825E-02
DAV:   4    -0.203621058914E+03    0.19847E-04   -0.23256E-04  8516   0.723E-02    0.699E-02
DAV:   5    -0.203621037774E+03    0.21140E-04   -0.17279E-04 10576   0.658E-02    0.515E-02
DAV:   6    -0.203621012102E+03    0.25673E-04   -0.58771E-05  8108   0.405E-02    0.184E-02
DAV:   7    -0.203621009183E+03    0.29180E-05   -0.12735E-05  6680   0.198E-02
  28 F= -.20362101E+03 E0= -.20100719E+03  d E =-.256372E-02
       N       E                     dE             d eps       ncg     rms          rms(c)
DAV:   1    -0.203621415835E+03   -0.40373E-03   -0.12314E-01 10944   0.569E-01    0.100E-01
DAV:   2    -0.203621714380E+03   -0.29854E-03   -0.37616E-03 11044   0.104E-01    0.795E-02
DAV:   3    -0.203621740097E+03   -0.25718E-04   -0.31008E-04 11944   0.875E-02    0.107E-01
DAV:   4    -0.203621695699E+03    0.44398E-04   -0.37334E-04 10924   0.923E-02    0.850E-02
DAV:   5    -0.203621662902E+03    0.32797E-04   -0.23391E-04 11752   0.785E-02    0.650E-02
DAV:   6    -0.203621639939E+03    0.22963E-04   -0.10488E-04 11204   0.620E-02    0.505E-02
DAV:   7    -0.203621612698E+03    0.27241E-04   -0.41510E-05  8272   0.418E-02    0.148E-02
DAV:   8    -0.203621613576E+03   -0.87766E-06   -0.15431E-05  6112   0.201E-02
  29 F= -.20362161E+03 E0= -.20100777E+03  d E =-.604392E-03
       N       E                     dE             d eps       ncg     rms          rms(c)
DAV:   1    -0.203621258495E+03    0.35420E-03   -0.78981E-02 10944   0.469E-01    0.470E-02
DAV:   2    -0.203621401609E+03   -0.14311E-03   -0.15045E-03 10972   0.748E-02    0.423E-02
DAV:   3    -0.203621401769E+03   -0.16009E-06   -0.84621E-05 11492   0.469E-02    0.401E-02
DAV:   4    -0.203621401736E+03    0.32909E-07   -0.53145E-05  7516   0.388E-02
  30 F= -.20362140E+03 E0= -.20100757E+03  d E =0.211840E-03
       N       E                     dE             d eps       ncg     rms          rms(c)
DAV:   1    -0.203619914466E+03    0.14873E-02   -0.16541E-01 10944   0.680E-01    0.741E-02
DAV:   2    -0.203620806904E+03   -0.89244E-03   -0.38113E-03 11356   0.199E-01    0.268E-01
DAV:   3    -0.203620187402E+03    0.61950E-03   -0.12713E-03 11968   0.172E-01    0.593E-02
DAV:   4    -0.203620202305E+03   -0.14903E-04   -0.15114E-04 11544   0.622E-02    0.646E-02
DAV:   5    -0.203620171245E+03    0.31059E-04   -0.59968E-05  9320   0.496E-02    0.289E-02
DAV:   6    -0.203620177930E+03   -0.66851E-05   -0.43664E-05  8876   0.364E-02
  31 F= -.20362018E+03 E0= -.20100630E+03  d E =0.122381E-02
       N       E                     dE             d eps       ncg     rms          rms(c)
DAV:   1    -0.203617393494E+03    0.27778E-02   -0.28277E-01 10944   0.873E-01    0.879E-02
DAV:   2    -0.203617891233E+03   -0.49774E-03   -0.49910E-03 11016   0.140E-01    0.825E-02
DAV:   3    -0.203617939234E+03   -0.48001E-04   -0.43601E-04 11888   0.108E-01    0.104E-01
DAV:   4    -0.203617939999E+03   -0.76502E-06   -0.37229E-04 11324   0.933E-02    0.103E-01
DAV:   5    -0.203617853492E+03    0.86507E-04   -0.17775E-04  9540   0.673E-02    0.356E-02
DAV:   6    -0.203617867844E+03   -0.14352E-04   -0.53890E-05  8692   0.443E-02    0.465E-02
DAV:   7    -0.203617852685E+03    0.15160E-04   -0.36745E-05  7660   0.358E-02    0.178E-02
DAV:   8    -0.203617850460E+03    0.22244E-05   -0.12593E-05  5996   0.184E-02
  32 F= -.20361785E+03 E0= -.20100398E+03  d E =0.232747E-02
       N       E                     dE             d eps       ncg     rms          rms(c)
DAV:   1    -0.203613730438E+03    0.41222E-02   -0.46965E-01 10944   0.112E+00    0.113E-01
DAV:   2    -0.203614550229E+03   -0.81979E-03   -0.84368E-03 10976   0.176E-01    0.924E-02
DAV:   3    -0.203614562786E+03   -0.12557E-04   -0.53920E-04 11864   0.116E-01    0.857E-02
DAV:   4    -0.203614581170E+03   -0.18384E-04   -0.31510E-04 11684   0.916E-02    0.102E-01
DAV:   5    -0.203614509565E+03    0.71605E-04   -0.21723E-04  9800   0.703E-02    0.465E-02
DAV:   6    -0.203614526392E+03   -0.16827E-04   -0.11476E-04 10908   0.531E-02    0.530E-02
DAV:   7    -0.203614502573E+03    0.23819E-04   -0.65217E-05  9056   0.418E-02    0.147E-02
DAV:   8    -0.203614501339E+03    0.12342E-05   -0.10575E-05  5796   0.154E-02
  33 F= -.20361450E+03 E0= -.20100064E+03  d E =0.334912E-02
       N       E                     dE             d eps       ncg     rms          rms(c)
DAV:   1    -0.203609702781E+03    0.47998E-02   -0.64965E-01 10944   0.130E+00    0.136E-01
DAV:   2    -0.203610856694E+03   -0.11539E-02   -0.11990E-02 11016   0.207E-01    0.117E-01
DAV:   3    -0.203610883185E+03   -0.26492E-04   -0.71937E-04 11840   0.140E-01    0.117E-01
DAV:   4    -0.203610893908E+03   -0.10723E-04   -0.48666E-04 11788   0.117E-01    0.125E-01
DAV:   5    -0.203610813734E+03    0.80174E-04   -0.40251E-04 11424   0.964E-02    0.793E-02
DAV:   6    -0.203610819298E+03   -0.55640E-05   -0.19571E-04 11968   0.769E-02    0.740E-02
DAV:   7    -0.203610782314E+03    0.36984E-04   -0.98140E-05 11172   0.605E-02    0.362E-02
DAV:   8    -0.203610771554E+03    0.10760E-04   -0.44042E-05  7856   0.356E-02    0.158E-02
DAV:   9    -0.203610770473E+03    0.10815E-05   -0.92452E-06  5836   0.149E-02
  34 F= -.20361077E+03 E0= -.20099694E+03  d E =0.373087E-02
       N       E                     dE             d eps       ncg     rms          rms(c)
DAV:   1    -0.203603944389E+03    0.68272E-02   -0.89776E-01 10944   0.154E+00    0.164E-01
DAV:   2    -0.203605580097E+03   -0.16357E-02   -0.17166E-02 10968   0.245E-01    0.136E-01
DAV:   3    -0.203605716628E+03   -0.13653E-03   -0.12669E-03 11896   0.177E-01    0.175E-01
DAV:   4    -0.203605723887E+03   -0.72589E-05   -0.12121E-03 12012   0.168E-01    0.179E-01
DAV:   5    -0.203605455337E+03    0.26855E-03   -0.59913E-04 12012   0.122E-01    0.632E-02
DAV:   6    -0.203605505917E+03   -0.50580E-04   -0.22305E-04 11660   0.819E-02    0.872E-02
DAV:   7    -0.203605445200E+03    0.60716E-04   -0.12483E-04 11780   0.699E-02    0.369E-02
DAV:   8    -0.203605433879E+03    0.11322E-04   -0.39457E-05  7988   0.343E-02    0.153E-02
DAV:   9    -0.203605433414E+03    0.46463E-06   -0.88393E-06  5904   0.142E-02
  35 F= -.20360543E+03 E0= -.20099163E+03  d E =0.533706E-02
       N       E                     dE             d eps       ncg     rms          rms(c)
DAV:   1    -0.203601074661E+03    0.43592E-02   -0.69911E-01 10944   0.127E+00    0.189E-01
DAV:   2    -0.203602529527E+03   -0.14549E-02   -0.17514E-02 10972   0.213E-01    0.160E-01
DAV:   3    -0.203602501477E+03    0.28050E-04   -0.83368E-04 11992   0.141E-01    0.165E-01
DAV:   4    -0.203602633224E+03   -0.13175E-03   -0.13294E-03 12196   0.174E-01    0.204E-01
DAV:   5    -0.203602411374E+03    0.22185E-03   -0.11889E-03 12028   0.170E-01    0.129E-01
DAV:   6    -0.203602281398E+03    0.12998E-03   -0.36946E-04 11716   0.112E-01    0.733E-02
DAV:   7    -0.203602235738E+03    0.45660E-04   -0.13176E-04 11748   0.696E-02    0.362E-02
DAV:   8    -0.203602234074E+03    0.16637E-05   -0.48208E-05  8620   0.399E-02
  36 F= -.20360223E+03 E0= -.20098851E+03  d E =0.319934E-02
       N       E                     dE             d eps       ncg     rms          rms(c)
DAV:   1    -0.203601436735E+03    0.79900E-03   -0.15284E-01 10944   0.585E-01    0.121E-01
DAV:   2    -0.203601842064E+03   -0.40533E-03   -0.49645E-03 11036   0.118E-01    0.107E-01
DAV:   3    -0.203602035747E+03   -0.19368E-03   -0.79491E-04 12200   0.140E-01    0.185E-01
DAV:   4    -0.203601784644E+03    0.25110E-03   -0.72376E-04 12012   0.128E-01    0.910E-02
DAV:   5    -0.203601749483E+03    0.35160E-04   -0.28768E-04 11912   0.917E-02    0.740E-02
DAV:   6    -0.203601723902E+03    0.25581E-04   -0.13461E-04 11904   0.709E-02    0.594E-02
DAV:   7    -0.203601687663E+03    0.36239E-04   -0.61145E-05  9512   0.506E-02    0.201E-02
DAV:   8    -0.203601686435E+03    0.12283E-05   -0.22199E-05  6604   0.244E-02
  37 F= -.20360169E+03 E0= -.20098793E+03  d E =0.547640E-03
       N       E                     dE             d eps       ncg     rms          rms(c)
DAV:   1    -0.203600034402E+03    0.16533E-02   -0.11651E-01 10944   0.546E-01    0.582E-02
DAV:   2    -0.203600243038E+03   -0.20864E-03   -0.22026E-03 10968   0.851E-02    0.465E-02
DAV:   3    -0.203600248423E+03   -0.53846E-05   -0.12454E-04 11856   0.560E-02    0.474E-02
DAV:   4    -0.203600251572E+03   -0.31489E-05   -0.91402E-05  8288   0.488E-02
  38 F= -.20360025E+03 E0= -.20098650E+03  d E =0.143486E-02
       N       E                     dE             d eps       ncg     rms          rms(c)
DAV:   1    -0.203597175698E+03    0.30727E-02   -0.24945E-01 10944   0.802E-01    0.934E-02
DAV:   2    -0.203598091275E+03   -0.91558E-03   -0.52303E-03 11240   0.199E-01    0.245E-01
DAV:   3    -0.203597616962E+03    0.47431E-03   -0.13009E-03 12020   0.174E-01    0.840E-02
DAV:   4    -0.203597614420E+03    0.25425E-05   -0.25135E-04 11480   0.753E-02    0.719E-02
DAV:   5    -0.203597577424E+03    0.36996E-04   -0.12661E-04 10840   0.595E-02    0.309E-02
DAV:   6    -0.203597593096E+03   -0.15672E-04   -0.62087E-05 10324   0.408E-02    0.390E-02
DAV:   7    -0.203597579450E+03    0.13646E-04   -0.33742E-05  8504   0.336E-02    0.124E-02
DAV:   8    -0.203597578818E+03    0.63198E-06   -0.65325E-06  5780   0.134E-02
  39 F= -.20359758E+03 E0= -.20098383E+03  d E =0.267275E-02
       N       E                     dE             d eps       ncg     rms          rms(c)
DAV:   1    -0.203593032040E+03    0.45474E-02   -0.43420E-01 10944   0.105E+00    0.110E-01
DAV:   2    -0.203593794553E+03   -0.76251E-03   -0.79478E-03 10976   0.163E-01    0.833E-02
DAV:   3    -0.203593833456E+03   -0.38903E-04   -0.46115E-04 11856   0.108E-01    0.930E-02
DAV:   4    -0.203593864503E+03   -0.31048E-04   -0.38004E-04 11704   0.986E-02    0.112E-01
DAV:   5    -0.203593770461E+03    0.94042E-04   -0.24880E-04 10584   0.756E-02    0.453E-02
DAV:   6    -0.203593789112E+03   -0.18651E-04   -0.99670E-05 10760   0.525E-02    0.538E-02
DAV:   7    -0.203593768018E+03    0.21093E-04   -0.55011E-05  8992   0.442E-02    0.240E-02
DAV:   8    -0.203593763308E+03    0.47108E-05   -0.15586E-05  6428   0.218E-02
  40 F= -.20359376E+03 E0= -.20098007E+03  d E =0.381551E-02
       N       E                     dE             d eps       ncg     rms          rms(c)
DAV:   1    -0.203587325808E+03    0.64422E-02   -0.69953E-01 10944   0.133E+00    0.140E-01
DAV:   2    -0.203588565163E+03   -0.12394E-02   -0.12862E-02 10976   0.207E-01    0.109E-01
DAV:   3    -0.203588614483E+03   -0.49320E-04   -0.78872E-04 11840   0.142E-01    0.113E-01
DAV:   4    -0.203588538760E+03    0.75723E-04   -0.35535E-04 11524   0.104E-01    0.752E-02
DAV:   5    -0.203588575791E+03   -0.37031E-04   -0.26780E-04 10964   0.794E-02    0.947E-02
DAV:   6    -0.203588551009E+03    0.24782E-04   -0.26059E-04 11464   0.791E-02    0.690E-02
DAV:   7    -0.203588521761E+03    0.29248E-04   -0.86868E-05 10272   0.552E-02    0.361E-02
DAV:   8    -0.203588509188E+03    0.12574E-04   -0.24726E-05  6940   0.290E-02    0.919E-03
DAV:   9    -0.203588509720E+03   -0.53272E-06   -0.68714E-06  5720   0.116E-02
  41 F= -.20358851E+03 E0= -.20097485E+03  d E =0.525359E-02
       N       E                     dE             d eps       ncg     rms          rms(c)
DAV:   1    -0.203580545036E+03    0.79642E-02   -0.98039E-01 10944   0.157E+00    0.168E-01
DAV:   2    -0.203582295651E+03   -0.17506E-02   -0.18345E-02 11000   0.244E-01    0.133E-01
DAV:   3    -0.203582348178E+03   -0.52527E-04   -0.10252E-03 11856   0.162E-01    0.134E-01
DAV:   4    -0.203582360720E+03   -0.12542E-04   -0.70507E-04 11644   0.136E-01    0.144E-01
DAV:   5    -0.203582246402E+03    0.11432E-03   -0.52109E-04 11896   0.109E-01    0.842E-02
DAV:   6    -0.203582259397E+03   -0.12995E-04   -0.27278E-04 11708   0.825E-02    0.759E-02
DAV:   7    -0.203582208508E+03    0.50889E-04   -0.15243E-04 11328   0.645E-02    0.223E-02
DAV:   8    -0.203582209134E+03   -0.62662E-06   -0.31342E-05  6616   0.289E-02
  42 F= -.20358221E+03 E0= -.20096860E+03  d E =0.630059E-02
       N       E                     dE             d eps       ncg     rms          rms(c)
DAV:   1    -0.203571700760E+03    0.10508E-01   -0.13598E+00 10944   0.185E+00    0.202E-01
DAV:   2    -0.203574189568E+03   -0.24888E-02   -0.26077E-02 10972   0.291E-01    0.157E-01
DAV:   3    -0.203574390775E+03   -0.20121E-03   -0.17201E-03 11864   0.211E-01    0.200E-01
DAV:   4    -0.203574441568E+03   -0.50794E-04   -0.16037E-03 12008   0.199E-01    0.218E-01
DAV:   5    -0.203574061220E+03    0.38035E-03   -0.91732E-04 12000   0.148E-01    0.822E-02
DAV:   6    -0.203574123450E+03   -0.62229E-04   -0.31554E-04 11668   0.991E-02    0.103E-01
DAV:   7    -0.203574051533E+03    0.71917E-04   -0.18557E-04 11740   0.842E-02    0.500E-02
DAV:   8    -0.203574029075E+03    0.22458E-04   -0.65346E-05  9672   0.427E-02    0.155E-02
DAV:   9    -0.203574029267E+03   -0.19235E-06   -0.11824E-05  5980   0.162E-02
  43 F= -.20357403E+03 E0= -.20096049E+03  d E =0.817987E-02
       N       E                     dE             d eps       ncg     rms          rms(c)
DAV:   1    -0.203566179696E+03    0.78494E-02   -0.11647E+00 10944   0.164E+00    0.237E-01
DAV:   2    -0.203568624438E+03   -0.24447E-02   -0.28990E-02 10972   0.271E-01    0.197E-01
DAV:   3    -0.203568687219E+03   -0.62781E-04   -0.14550E-03 12076   0.185E-01    0.230E-01
DAV:   4    -0.203568678150E+03    0.90694E-05   -0.20531E-03 12208   0.216E-01    0.228E-01
DAV:   5    -0.203568464479E+03    0.21367E-03   -0.15987E-03 11892   0.202E-01    0.163E-01
DAV:   6    -0.203568291429E+03    0.17305E-03   -0.58323E-04 11792   0.146E-01    0.107E-01
DAV:   7    -0.203568184445E+03    0.10698E-03   -0.23106E-04 11872   0.950E-02    0.428E-02
DAV:   8    -0.203568183412E+03    0.10324E-05   -0.84520E-05 10724   0.495E-02
  44 F= -.20356818E+03 E0= -.20095478E+03  d E =0.584585E-02
       N       E                     dE             d eps       ncg     rms          rms(c)
DAV:   1    -0.203568143170E+03    0.41274E-04   -0.14422E-01 10948   0.542E-01    0.126E-01
DAV:   2    -0.203568562703E+03   -0.41953E-03   -0.51816E-03 11072   0.121E-01    0.118E-01
DAV:   3    -0.203568770453E+03   -0.20775E-03   -0.90603E-04 12264   0.149E-01    0.196E-01
DAV:   4    -0.203568484452E+03    0.28600E-03   -0.78153E-04 12088   0.133E-01    0.943E-02
DAV:   5    -0.203568449633E+03    0.34819E-04   -0.33202E-04 11904   0.975E-02    0.786E-02
DAV:   6    -0.203568418485E+03    0.31148E-04   -0.14742E-04 11884   0.743E-02    0.618E-02
DAV:   7    -0.203568379401E+03    0.39084E-04   -0.65742E-05  9508   0.523E-02    0.205E-02
DAV:   8    -0.203568378194E+03    0.12074E-05   -0.22827E-05  6696   0.248E-02
  45 F= -.20356838E+03 E0= -.20095495E+03  d E =-.194781E-03
       N       E                     dE             d eps       ncg     rms          rms(c)
DAV:   1    -0.203565766247E+03    0.26132E-02   -0.14243E-01 10944   0.599E-01    0.642E-02
DAV:   2    -0.203566021999E+03   -0.25575E-03   -0.26794E-03 10996   0.918E-02    0.467E-02
DAV:   3    -0.203566035163E+03   -0.13164E-04   -0.15606E-04 11780   0.625E-02    0.525E-02
DAV:   4    -0.203566023745E+03    0.11418E-04   -0.84429E-05  9352   0.495E-02    0.421E-02
DAV:   5    -0.203566020110E+03    0.36350E-05   -0.57794E-05  6716   0.364E-02
  46 F= -.20356602E+03 E0= -.20095259E+03  d E =0.235808E-02
       N       E                     dE             d eps       ncg     rms          rms(c)
DAV:   1    -0.203561991939E+03    0.40318E-02   -0.29225E-01 10944   0.854E-01    0.974E-02
DAV:   2    -0.203562599115E+03   -0.60718E-03   -0.55866E-03 10964   0.158E-01    0.126E-01
DAV:   3    -0.203562628158E+03   -0.29043E-04   -0.79399E-04 12112   0.140E-01    0.136E-01
DAV:   4    -0.203562567819E+03    0.60339E-04   -0.54665E-04 12028   0.111E-01    0.103E-01
DAV:   5    -0.203562483234E+03    0.84585E-04   -0.16957E-04 10840   0.706E-02    0.371E-02
DAV:   6    -0.203562505875E+03   -0.22641E-04   -0.65322E-05  9384   0.490E-02    0.532E-02
DAV:   7    -0.203562487786E+03    0.18089E-04   -0.49002E-05  8592   0.420E-02    0.223E-02
DAV:   8    -0.203562482976E+03    0.48105E-05   -0.16309E-05  6440   0.222E-02
  47 F= -.20356248E+03 E0= -.20094910E+03  d E =0.353713E-02
       N       E                     dE             d eps       ncg     rms          rms(c)
DAV:   1    -0.203556477548E+03    0.60102E-02   -0.52080E-01 10944   0.114E+00    0.122E-01
DAV:   2    -0.203557403767E+03   -0.92622E-03   -0.97098E-03 10976   0.171E-01    0.845E-02
DAV:   3    -0.203557482379E+03   -0.78611E-04   -0.53038E-04 11872   0.116E-01    0.111E-01
DAV:   4    -0.203557488910E+03   -0.65314E-05   -0.47733E-04 11800   0.109E-01    0.118E-01
DAV:   5    -0.203557387325E+03    0.10159E-03   -0.28136E-04 11224   0.806E-02    0.489E-02
DAV:   6    -0.203557407548E+03   -0.20223E-04   -0.12577E-04 11416   0.549E-02    0.549E-02
DAV:   7    -0.203557380703E+03    0.26846E-04   -0.70934E-05  9476   0.443E-02    0.121E-02
DAV:   8    -0.203557381211E+03   -0.50781E-06   -0.11494E-05  5808   0.163E-02
  48 F= -.20355738E+03 E0= -.20094407E+03  d E =0.510177E-02
       N       E                     dE             d eps       ncg     rms          rms(c)
DAV:   1    -0.203549111438E+03    0.82693E-02   -0.82448E-01 10944   0.143E+00    0.154E-01
DAV:   2    -0.203550594139E+03   -0.14827E-02   -0.15454E-02 10992   0.220E-01    0.115E-01
DAV:   3    -0.203550674367E+03   -0.80228E-04   -0.86467E-04 11828   0.151E-01    0.128E-01
DAV:   4    -0.203550587311E+03    0.87055E-04   -0.41937E-04 11588   0.117E-01    0.898E-02
DAV:   5    -0.203550615392E+03   -0.28081E-04   -0.34060E-04 11572   0.911E-02    0.104E-01
DAV:   6    -0.203550600475E+03    0.14917E-04   -0.30895E-04 12016   0.877E-02    0.825E-02
DAV:   7    -0.203550553434E+03    0.47041E-04   -0.11570E-04 10984   0.638E-02    0.388E-02
DAV:   8    -0.203550539027E+03    0.14407E-04   -0.39987E-05  7684   0.342E-02    0.113E-02
DAV:   9    -0.203550539453E+03   -0.42559E-06   -0.88361E-06  5756   0.133E-02
  49 F= -.20355054E+03 E0= -.20093730E+03  d E =0.684176E-02
       N       E                     dE             d eps       ncg     rms          rms(c)
DAV:   1    -0.203539662301E+03    0.10877E-01   -0.12297E+00 10944   0.174E+00    0.189E-01
DAV:   2    -0.203541870488E+03   -0.22082E-02   -0.23080E-02 10988   0.267E-01    0.136E-01
DAV:   3    -0.203541973594E+03   -0.10311E-03   -0.12555E-03 11844   0.178E-01    0.147E-01
DAV:   4    -0.203541836538E+03    0.13706E-03   -0.58643E-04 11532   0.134E-01    0.923E-02
DAV:   5    -0.203541938507E+03   -0.10197E-03   -0.49837E-04 11888   0.106E-01    0.133E-01
DAV:   6    -0.203541868682E+03    0.69825E-04   -0.46757E-04 11976   0.105E-01    0.847E-02
DAV:   7    -0.203541804095E+03    0.64587E-04   -0.16846E-04 11304   0.674E-02    0.225E-02
DAV:   8    -0.203541801869E+03    0.22266E-05   -0.29115E-05  6732   0.258E-02
  50 F= -.20354180E+03 E0= -.20092867E+03  d E =0.873758E-02
       N       E                     dE             d eps       ncg     rms          rms(c)
DAV:   1    -0.203528713198E+03    0.13091E-01   -0.16718E+00 10944   0.202E+00    0.221E-01
DAV:   2    -0.203531734607E+03   -0.30214E-02   -0.31767E-02 11008   0.311E-01    0.165E-01
DAV:   3    -0.203531937442E+03   -0.20283E-03   -0.17471E-03 11844   0.215E-01    0.199E-01
DAV:   4    -0.203531975230E+03   -0.37789E-04   -0.14685E-03 11776   0.196E-01    0.212E-01
DAV:   5    -0.203531675061E+03    0.30017E-03   -0.98868E-04 11844   0.150E-01    0.101E-01
DAV:   6    -0.203531754087E+03   -0.79026E-04   -0.40293E-04 11636   0.112E-01    0.117E-01
DAV:   7    -0.203531651581E+03    0.10251E-03   -0.23225E-04 11768   0.949E-02    0.512E-02
DAV:   8    -0.203531630598E+03    0.20983E-04   -0.87249E-05 10632   0.492E-02    0.220E-02
DAV:   9    -0.203531628931E+03    0.16674E-05   -0.17918E-05  6128   0.215E-02
  51 F= -.20353163E+03 E0= -.20091862E+03  d E =0.101729E-01
       N       E                     dE             d eps       ncg     rms          rms(c)
DAV:   1    -0.203515245358E+03    0.16385E-01   -0.22371E+00 10944   0.235E+00    0.262E-01
DAV:   2    -0.203519367318E+03   -0.41220E-02   -0.43516E-02 10988   0.359E-01    0.186E-01
DAV:   3    -0.203519728985E+03   -0.36167E-03   -0.25735E-03 11856   0.253E-01    0.247E-01
DAV:   4    -0.203519796492E+03   -0.67507E-04   -0.24851E-03 11896   0.245E-01    0.268E-01
DAV:   5    -0.203519227976E+03    0.56852E-03   -0.13952E-03 11908   0.181E-01    0.980E-02
DAV:   6    -0.203519333844E+03   -0.10587E-03   -0.52616E-04 11520   0.118E-01    0.123E-01
DAV:   7    -0.203519210865E+03    0.12298E-03   -0.29326E-04 11672   0.100E-01    0.472E-02
DAV:   8    -0.203519195107E+03    0.15758E-04   -0.67809E-05 10720   0.443E-02    0.226E-02
DAV:   9    -0.203519194007E+03    0.10994E-05   -0.15618E-05  6392   0.208E-02
  52 F= -.20351919E+03 E0= -.20090634E+03  d E =0.124349E-01
       N       E                     dE             d eps       ncg     rms          rms(c)
DAV:   1    -0.203506284774E+03    0.12910E-01   -0.17593E+00 10944   0.198E+00    0.310E-01
DAV:   2    -0.203510158154E+03   -0.38734E-02   -0.47302E-02 10976   0.330E-01    0.251E-01
DAV:   3    -0.203510312384E+03   -0.15423E-03   -0.23257E-03 12300   0.227E-01    0.311E-01
DAV:   4    -0.203510102529E+03    0.20986E-03   -0.34851E-03 12256   0.278E-01    0.270E-01
DAV:   5    -0.203509967684E+03    0.13484E-03   -0.26231E-03 11764   0.262E-01    0.230E-01
DAV:   6    -0.203509490433E+03    0.47725E-03   -0.10283E-03 11636   0.198E-01    0.115E-01
DAV:   7    -0.203509380944E+03    0.10949E-03   -0.32838E-04 11668   0.109E-01    0.566E-02
DAV:   8    -0.203509369874E+03    0.11070E-04   -0.10809E-04 11292   0.568E-02    0.405E-02
DAV:   9    -0.203509355385E+03    0.14489E-04   -0.35140E-05  7576   0.333E-02    0.128E-02
DAV:  10    -0.203509360304E+03   -0.49187E-05   -0.10962E-05  6252   0.153E-02
  53 F= -.20350936E+03 E0= -.20089661E+03  d E =0.983370E-02
       N       E                     dE             d eps       ncg     rms          rms(c)
DAV:   1    -0.203511780775E+03   -0.24254E-02   -0.79998E-02 10968   0.380E-01    0.103E-01
DAV:   2    -0.203512011149E+03   -0.23037E-03   -0.31669E-03 11180   0.819E-02    0.797E-02
DAV:   3    -0.203511987267E+03    0.23882E-04   -0.21154E-04 12204   0.711E-02    0.799E-02
DAV:   4    -0.203512017839E+03   -0.30572E-04   -0.37461E-04 11872   0.932E-02    0.102E-01
DAV:   5    -0.203512016897E+03    0.94193E-06   -0.43269E-04 11912   0.997E-02    0.101E-01
DAV:   6    -0.203511919171E+03    0.97726E-04   -0.17050E-04  9836   0.679E-02    0.278E-02
DAV:   7    -0.203511913484E+03    0.56870E-05   -0.22909E-05  7148   0.293E-02
  54 F= -.20351191E+03 E0= -.20089923E+03  d E =-.255318E-02
       N       E                     dE             d eps       ncg     rms          rms(c)
DAV:   1    -0.203509048183E+03    0.28710E-02   -0.20085E-01 10944   0.667E-01    0.123E-01
DAV:   2    -0.203509583660E+03   -0.53548E-03   -0.61818E-03 11044   0.140E-01    0.119E-01
DAV:   3    -0.203509661207E+03   -0.77547E-04   -0.67426E-04 12184   0.138E-01    0.156E-01
DAV:   4    -0.203509561697E+03    0.99510E-04   -0.69976E-04 12176   0.126E-01    0.123E-01
DAV:   5    -0.203509459450E+03    0.10225E-03   -0.35863E-04 12384   0.998E-02    0.713E-02
DAV:   6    -0.203509445976E+03    0.13474E-04   -0.18209E-04 11760   0.782E-02    0.660E-02
DAV:   7    -0.203509395581E+03    0.50395E-04   -0.85228E-05 10400   0.562E-02    0.140E-02
DAV:   8    -0.203509398617E+03   -0.30362E-05   -0.22746E-05  6996   0.233E-02
  55 F= -.20350940E+03 E0= -.20089669E+03  d E =0.251487E-02
       N       E                     dE             d eps       ncg     rms          rms(c)
DAV:   1    -0.203506007736E+03    0.33878E-02   -0.19727E-01 10944   0.687E-01    0.791E-02
DAV:   2    -0.203506376563E+03   -0.36883E-03   -0.39577E-03 11004   0.104E-01    0.570E-02
DAV:   3    -0.203506388424E+03   -0.11861E-04   -0.16469E-04 11864   0.643E-02    0.601E-02
DAV:   4    -0.203506393175E+03   -0.47508E-05   -0.14737E-04 10032   0.624E-02    0.643E-02
DAV:   5    -0.203506380051E+03    0.13124E-04   -0.13271E-04  7400   0.554E-02    0.503E-02
DAV:   6    -0.203506375559E+03    0.44918E-05   -0.60128E-05  7592   0.425E-02
  56 F= -.20350638E+03 E0= -.20089373E+03  d E =0.302306E-02
       N       E                     dE             d eps       ncg     rms          rms(c)
DAV:   1    -0.203500242034E+03    0.61380E-02   -0.39524E-01 10944   0.977E-01    0.111E-01
DAV:   2    -0.203501004936E+03   -0.76290E-03   -0.75595E-03 10984   0.163E-01    0.106E-01
DAV:   3    -0.203501038417E+03   -0.33482E-04   -0.53912E-04 11984   0.132E-01    0.109E-01
DAV:   4    -0.203500976452E+03    0.61965E-04   -0.22071E-04 11752   0.895E-02    0.751E-02
DAV:   5    -0.203500968324E+03    0.81281E-05   -0.19293E-04  9244   0.678E-02    0.687E-02
DAV:   6    -0.203500956464E+03    0.11860E-04   -0.13397E-04  9900   0.599E-02    0.519E-02
DAV:   7    -0.203500941194E+03    0.15270E-04   -0.53265E-05  8020   0.403E-02    0.222E-02
DAV:   8    -0.203500936882E+03    0.43121E-05   -0.17223E-05  6556   0.206E-02
  57 F= -.20350094E+03 E0= -.20088834E+03  d E =0.543868E-02
       N       E                     dE             d eps       ncg     rms          rms(c)
DAV:   1    -0.203493280690E+03    0.76605E-02   -0.64769E-01 10944   0.125E+00    0.140E-01
DAV:   2    -0.203494466354E+03   -0.11857E-02   -0.12452E-02 11000   0.192E-01    0.104E-01
DAV:   3    -0.203494580964E+03   -0.11461E-03   -0.75280E-04 11880   0.139E-01    0.137E-01
DAV:   4    -0.203494593703E+03   -0.12739E-04   -0.73017E-04 11860   0.132E-01    0.144E-01
DAV:   5    -0.203494436789E+03    0.15691E-03   -0.40735E-04 11868   0.978E-02    0.570E-02
DAV:   6    -0.203494458563E+03   -0.21774E-04   -0.16656E-04 11460   0.645E-02    0.613E-02
DAV:   7    -0.203494425420E+03    0.33143E-04   -0.92730E-05 10584   0.515E-02    0.149E-02
DAV:   8    -0.203494427095E+03   -0.16752E-05   -0.17488E-05  6400   0.216E-02
  58 F= -.20349443E+03 E0= -.20088194E+03  d E =0.650979E-02
       N       E                     dE             d eps       ncg     rms          rms(c)
DAV:   1    -0.203484128771E+03    0.10297E-01   -0.10001E+00 10944   0.156E+00    0.173E-01
DAV:   2    -0.203485954599E+03   -0.18258E-02   -0.19120E-02 11016   0.236E-01    0.122E-01
DAV:   3    -0.203486180606E+03   -0.22601E-03   -0.11119E-03 11904   0.173E-01    0.178E-01
DAV:   4    -0.203486123561E+03    0.57045E-04   -0.10319E-03 11940   0.162E-01    0.164E-01
DAV:   5    -0.203485931783E+03    0.19178E-03   -0.56429E-04 11952   0.115E-01    0.766E-02
DAV:   6    -0.203485962852E+03   -0.31068E-04   -0.20405E-04 11712   0.835E-02    0.826E-02
DAV:   7    -0.203485919562E+03    0.43290E-04   -0.12823E-04 11620   0.681E-02    0.397E-02
DAV:   8    -0.203485904800E+03    0.14762E-04   -0.45078E-05  7932   0.348E-02    0.109E-02
DAV:   9    -0.203485905796E+03   -0.99586E-06   -0.91305E-06  5852   0.135E-02
  59 F= -.20348591E+03 E0= -.20087352E+03  d E =0.852130E-02
       N       E                     dE             d eps       ncg     rms          rms(c)
DAV:   1    -0.203474885931E+03    0.11019E-01   -0.13283E+00 10944   0.178E+00    0.201E-01
DAV:   2    -0.203477331903E+03   -0.24460E-02   -0.26277E-02 10992   0.268E-01    0.141E-01
DAV:   3    -0.203477411391E+03   -0.79488E-04   -0.10362E-03 11876   0.161E-01    0.149E-01
DAV:   4    -0.203477366905E+03    0.44486E-04   -0.81209E-04 11528   0.149E-01    0.137E-01
DAV:   5    -0.203477394455E+03   -0.27551E-04   -0.76787E-04 11992   0.131E-01    0.139E-01
DAV:   6    -0.203477301715E+03    0.92740E-04   -0.45023E-04 11896   0.107E-01    0.801E-02
DAV:   7    -0.203477247984E+03    0.53731E-04   -0.17030E-04 11508   0.724E-02    0.328E-02
DAV:   8    -0.203477248925E+03   -0.94072E-06   -0.45069E-05  8260   0.388E-02
  60 F= -.20347725E+03 E0= -.20086505E+03  d E =0.865687E-02
       N       E                     dE             d eps       ncg     rms          rms(c)
DAV:   1    -0.203460989948E+03    0.16258E-01   -0.16750E+00 10944   0.200E+00    0.247E-01
DAV:   2    -0.203464401802E+03   -0.34119E-02   -0.36369E-02 11008   0.324E-01    0.205E-01
DAV:   3    -0.203465217216E+03   -0.81541E-03   -0.33320E-03 12056   0.290E-01    0.356E-01
DAV:   4    -0.203464485805E+03    0.73141E-03   -0.31866E-03 12036   0.269E-01    0.219E-01
DAV:   5    -0.203464146504E+03    0.33930E-03   -0.10698E-03 11992   0.175E-01    0.116E-01
DAV:   6    -0.203464214050E+03   -0.67546E-04   -0.49830E-04 11648   0.134E-01    0.131E-01
DAV:   7    -0.203464065146E+03    0.14890E-03   -0.30254E-04 11856   0.110E-01    0.549E-02
DAV:   8    -0.203464044590E+03    0.20555E-04   -0.11966E-04 11304   0.557E-02    0.276E-02
DAV:   9    -0.203464040268E+03    0.43225E-05   -0.21160E-05  6752   0.238E-02
  61 F= -.20346404E+03 E0= -.20085194E+03  d E =0.132087E-01
       N       E                     dE             d eps       ncg     rms          rms(c)
DAV:   1    -0.203458657604E+03    0.53870E-02   -0.94774E-01 10944   0.140E+00    0.261E-01
DAV:   2    -0.203460907719E+03   -0.22501E-02   -0.29228E-02 11004   0.247E-01    0.210E-01
DAV:   3    -0.203460959871E+03   -0.52151E-04   -0.14897E-03 12568   0.178E-01    0.258E-01
DAV:   4    -0.203460833696E+03    0.12618E-03   -0.25334E-03 12440   0.236E-01    0.227E-01
DAV:   5    -0.203460856567E+03   -0.22872E-04   -0.20313E-03 12216   0.232E-01    0.225E-01
DAV:   6    -0.203460355014E+03    0.50155E-03   -0.78442E-04 12084   0.179E-01    0.886E-02
DAV:   7    -0.203460288741E+03    0.66274E-04   -0.21868E-04 11744   0.842E-02    0.434E-02
DAV:   8    -0.203460276989E+03    0.11751E-04   -0.58756E-05  8900   0.383E-02    0.230E-02
DAV:   9    -0.203460274016E+03    0.29733E-05   -0.16417E-05  6960   0.204E-02
  62 F= -.20346027E+03 E0= -.20084828E+03  d E =0.376625E-02
       N       E                     dE             d eps       ncg     rms          rms(c)
DAV:   1    -0.203460363302E+03   -0.86313E-04   -0.60451E-02 10944   0.352E-01    0.794E-02
DAV:   2    -0.203460547455E+03   -0.18415E-03   -0.22153E-03 11132   0.796E-02    0.709E-02
DAV:   3    -0.203460563942E+03   -0.16487E-04   -0.25337E-04 12368   0.792E-02    0.887E-02
DAV:   4    -0.203460550036E+03    0.13907E-04   -0.27380E-04  9276   0.781E-02    0.822E-02
DAV:   5    -0.203460502214E+03    0.47822E-04   -0.18771E-04 10636   0.678E-02    0.434E-02
DAV:   6    -0.203460488777E+03    0.13437E-04   -0.55472E-05  7928   0.386E-02    0.270E-02
DAV:   7    -0.203460482304E+03    0.64730E-05   -0.18452E-05  6636   0.271E-02
  63 F= -.20346048E+03 E0= -.20084854E+03  d E =-.208288E-03
       N       E                     dE             d eps       ncg     rms          rms(c)
DAV:   1    -0.203457120633E+03    0.33681E-02   -0.15476E-01 10944   0.604E-01    0.865E-02
DAV:   2    -0.203457501531E+03   -0.38090E-03   -0.38838E-03 11044   0.120E-01    0.962E-02
DAV:   3    -0.203457493238E+03    0.82936E-05   -0.33534E-04 12120   0.103E-01    0.925E-02
DAV:   4    -0.203457504262E+03   -0.11025E-04   -0.32193E-04 11180   0.869E-02    0.102E-01
DAV:   5    -0.203457423271E+03    0.80991E-04   -0.21346E-04  9676   0.722E-02    0.434E-02
DAV:   6    -0.203457426644E+03   -0.33720E-05   -0.81458E-05  9924   0.516E-02
  64 F= -.20345743E+03 E0= -.20084538E+03  d E =0.305566E-02
       N       E                     dE             d eps       ncg     rms          rms(c)
DAV:   1    -0.203452957460E+03    0.44658E-02   -0.25322E-01 10944   0.780E-01    0.902E-02
DAV:   2    -0.203453451560E+03   -0.49410E-03   -0.49508E-03 11040   0.135E-01    0.915E-02
DAV:   3    -0.203453487823E+03   -0.36263E-04   -0.49908E-04 11948   0.113E-01    0.104E-01
DAV:   4    -0.203453507713E+03   -0.19891E-04   -0.42771E-04 11456   0.987E-02    0.111E-01
DAV:   5    -0.203453403038E+03    0.10468E-03   -0.19888E-04  9736   0.702E-02    0.298E-02
DAV:   6    -0.203453425259E+03   -0.22221E-04   -0.56533E-05  9308   0.415E-02    0.455E-02
DAV:   7    -0.203453410148E+03    0.15112E-04   -0.37035E-05  7852   0.385E-02    0.204E-02
DAV:   8    -0.203453407165E+03    0.29829E-05   -0.12104E-05  6076   0.194E-02
  65 F= -.20345341E+03 E0= -.20084154E+03  d E =0.401948E-02
       N       E                     dE             d eps       ncg     rms          rms(c)
DAV:   1    -0.203446732117E+03    0.66780E-02   -0.46925E-01 10944   0.106E+00    0.119E-01
DAV:   2    -0.203447589072E+03   -0.85696E-03   -0.90184E-03 11036   0.160E-01    0.820E-02
DAV:   3    -0.203447772783E+03   -0.18371E-03   -0.63630E-04 11904   0.127E-01    0.152E-01
DAV:   4    -0.203447658195E+03    0.11459E-03   -0.63548E-04 11908   0.121E-01    0.103E-01
DAV:   5    -0.203447582545E+03    0.75650E-04   -0.21400E-04 11268   0.754E-02    0.479E-02
DAV:   6    -0.203447606408E+03   -0.23864E-04   -0.95834E-05 11156   0.562E-02    0.575E-02
DAV:   7    -0.203447583876E+03    0.22533E-04   -0.56010E-05  9152   0.473E-02    0.273E-02
DAV:   8    -0.203447577149E+03    0.67268E-05   -0.19775E-05  6352   0.238E-02
  66 F= -.20344758E+03 E0= -.20083579E+03  d E =0.583002E-02
       N       E                     dE             d eps       ncg     rms          rms(c)
DAV:   1    -0.203439604600E+03    0.79793E-02   -0.72974E-01 10944   0.133E+00    0.148E-01
DAV:   2    -0.203440928677E+03   -0.13241E-02   -0.14092E-02 11040   0.196E-01    0.982E-02
DAV:   3    -0.203441166423E+03   -0.23775E-03   -0.85453E-04 11904   0.145E-01    0.176E-01
DAV:   4    -0.203441018977E+03    0.14745E-03   -0.87974E-04 11876   0.143E-01    0.123E-01
DAV:   5    -0.203440919188E+03    0.99788E-04   -0.33458E-04 11724   0.922E-02    0.607E-02
DAV:   6    -0.203440945376E+03   -0.26187E-04   -0.16830E-04 11556   0.670E-02    0.632E-02
DAV:   7    -0.203440911663E+03    0.33713E-04   -0.88282E-05 10448   0.540E-02    0.226E-02
DAV:   8    -0.203440909966E+03    0.16969E-05   -0.19630E-05  6420   0.254E-02
  67 F= -.20344091E+03 E0= -.20082921E+03  d E =0.666718E-02
       N       E                     dE             d eps       ncg     rms          rms(c)
DAV:   1    -0.203430967630E+03    0.99440E-02   -0.10552E+00 10944   0.160E+00    0.179E-01
DAV:   2    -0.203432906838E+03   -0.19392E-02   -0.20452E-02 10988   0.237E-01    0.119E-01
DAV:   3    -0.203433493668E+03   -0.58683E-03   -0.16889E-03 12032   0.202E-01    0.267E-01
DAV:   4    -0.203432990897E+03    0.50277E-03   -0.15726E-03 12008   0.189E-01    0.129E-01
DAV:   5    -0.203432883540E+03    0.10736E-03   -0.38453E-04 11592   0.103E-01    0.684E-02
DAV:   6    -0.203432928473E+03   -0.44933E-04   -0.23134E-04 11516   0.786E-02    0.769E-02
DAV:   7    -0.203432880137E+03    0.48336E-04   -0.12123E-04 11312   0.641E-02    0.286E-02
DAV:   8    -0.203432874505E+03    0.56324E-05   -0.24926E-05  6672   0.275E-02
  68 F= -.20343287E+03 E0= -.20082131E+03  d E =0.803546E-02
       N       E                     dE             d eps       ncg     rms          rms(c)
DAV:   1    -0.203422855517E+03    0.10025E-01   -0.13176E+00 10944   0.179E+00    0.203E-01
DAV:   2    -0.203425324694E+03   -0.24692E-02   -0.26733E-02 10984   0.267E-01    0.142E-01
DAV:   3    -0.203425752839E+03   -0.42815E-03   -0.15461E-03 11944   0.194E-01    0.248E-01
DAV:   4    -0.203425421297E+03    0.33154E-03   -0.16718E-03 11908   0.195E-01    0.159E-01
DAV:   5    -0.203425294745E+03    0.12655E-03   -0.66959E-04 11820   0.132E-01    0.990E-02
DAV:   6    -0.203425289657E+03    0.50875E-05   -0.34989E-04 11756   0.960E-02    0.773E-02
DAV:   7    -0.203425233219E+03    0.56438E-04   -0.17945E-04 11496   0.717E-02    0.195E-02
DAV:   8    -0.203425234467E+03   -0.12480E-05   -0.23934E-05  6796   0.233E-02
  69 F= -.20342523E+03 E0= -.20081383E+03  d E =0.764004E-02
       N       E                     dE             d eps       ncg     rms          rms(c)
DAV:   1    -0.203411199731E+03    0.14033E-01   -0.13692E+00 10944   0.183E+00    0.253E-01
DAV:   2    -0.203414312390E+03   -0.31127E-02   -0.34599E-02 10976   0.309E-01    0.216E-01
DAV:   3    -0.203415365688E+03   -0.10533E-02   -0.38486E-03 12152   0.303E-01    0.402E-01
DAV:   4    -0.203414130724E+03    0.12350E-02   -0.33337E-03 12084   0.273E-01    0.179E-01
DAV:   5    -0.203413994523E+03    0.13620E-03   -0.98073E-04 11784   0.174E-01    0.139E-01
DAV:   6    -0.203413989812E+03    0.47111E-05   -0.57156E-04 11796   0.146E-01    0.137E-01
DAV:   7    -0.203413799125E+03    0.19069E-03   -0.31189E-04 11968   0.112E-01    0.385E-02
DAV:   8    -0.203413803322E+03   -0.41963E-05   -0.10591E-04 11312   0.506E-02    0.388E-02
DAV:   9    -0.203413790087E+03    0.13235E-04   -0.32246E-05  7132   0.313E-02    0.117E-02
DAV:  10    -0.203413790345E+03   -0.25807E-06   -0.66994E-06  5900   0.126E-02
  70 F= -.20341379E+03 E0= -.20080251E+03  d E =0.114441E-01
       N       E                     dE             d eps       ncg     rms          rms(c)
DAV:   1    -0.203415971173E+03   -0.21811E-02   -0.31521E-01 10944   0.760E-01    0.179E-01
DAV:   2    -0.203416786546E+03   -0.81537E-03   -0.11484E-02 11084   0.148E-01    0.139E-01
DAV:   3    -0.203416582852E+03    0.20369E-03   -0.34635E-04 12836   0.624E-02    0.882E-02
DAV:   4    -0.203416850457E+03   -0.26761E-03   -0.10078E-03 11728   0.158E-01    0.186E-01
DAV:   5    -0.203416653381E+03    0.19708E-03   -0.86531E-04 12516   0.156E-01    0.139E-01
DAV:   6    -0.203416492064E+03    0.16132E-03   -0.38934E-04 12248   0.940E-02    0.508E-02
DAV:   7    -0.203416474753E+03    0.17311E-04   -0.79554E-05 10364   0.457E-02    0.290E-02
DAV:   8    -0.203416468806E+03    0.59463E-05   -0.26841E-05  6948   0.262E-02
  71 F= -.20341647E+03 E0= -.20080524E+03  d E =-.267846E-02
       N       E                     dE             d eps       ncg     rms          rms(c)
DAV:   1    -0.203413285550E+03    0.31892E-02   -0.17734E-01 10944   0.667E-01    0.810E-02
DAV:   2    -0.203413663100E+03   -0.37755E-03   -0.39349E-03 11016   0.109E-01    0.731E-02
DAV:   3    -0.203413787759E+03   -0.12466E-03   -0.47700E-04 12232   0.107E-01    0.134E-01
DAV:   4    -0.203413659344E+03    0.12842E-03   -0.38247E-04 11388   0.928E-02    0.648E-02
DAV:   5    -0.203413630520E+03    0.28824E-04   -0.89592E-05  8888   0.534E-02    0.350E-02
DAV:   6    -0.203413642993E+03   -0.12473E-04   -0.48106E-05  8752   0.423E-02    0.445E-02
DAV:   7    -0.203413625501E+03    0.17492E-04   -0.31790E-05  7368   0.362E-02    0.149E-02
DAV:   8    -0.203413625043E+03    0.45880E-06   -0.11259E-05  5972   0.170E-02
  72 F= -.20341363E+03 E0= -.20080246E+03  d E =0.284376E-02
       N       E                     dE             d eps       ncg     rms          rms(c)
DAV:   1    -0.203410144551E+03    0.34810E-02   -0.26287E-01 10944   0.803E-01    0.910E-02
DAV:   2    -0.203410646050E+03   -0.50150E-03   -0.53885E-03 10976   0.122E-01    0.689E-02
DAV:   3    -0.203410814578E+03   -0.16853E-03   -0.49254E-04 12144   0.109E-01    0.147E-01
DAV:   4    -0.203410650250E+03    0.16433E-03   -0.44823E-04 11720   0.100E-01    0.625E-02
DAV:   5    -0.203410634335E+03    0.15915E-04   -0.10361E-04  9784   0.560E-02    0.438E-02
DAV:   6    -0.203410642225E+03   -0.78898E-05   -0.63030E-05  8808   0.463E-02
  73 F= -.20341064E+03 E0= -.20079945E+03  d E =0.298282E-02
       N       E                     dE             d eps       ncg     rms          rms(c)
DAV:   1    -0.203405574574E+03    0.50598E-02   -0.42527E-01 10944   0.104E+00    0.118E-01
DAV:   2    -0.203406453644E+03   -0.87907E-03   -0.86467E-03 10960   0.176E-01    0.122E-01
DAV:   3    -0.203406640893E+03   -0.18725E-03   -0.10730E-03 12120   0.164E-01    0.181E-01
DAV:   4    -0.203406476282E+03    0.16461E-03   -0.86049E-04 12020   0.139E-01    0.119E-01
DAV:   5    -0.203406359589E+03    0.11669E-03   -0.20948E-04 11248   0.818E-02    0.434E-02
DAV:   6    -0.203406386242E+03   -0.26652E-04   -0.91638E-05 10976   0.565E-02    0.600E-02
DAV:   7    -0.203406363099E+03    0.23142E-04   -0.66791E-05  8900   0.475E-02    0.250E-02
DAV:   8    -0.203406358401E+03    0.46988E-05   -0.22194E-05  6820   0.236E-02
  74 F= -.20340636E+03 E0= -.20079534E+03  d E =0.428382E-02
       N       E                     dE             d eps       ncg     rms          rms(c)
DAV:   1    -0.203401438731E+03    0.49244E-02   -0.55376E-01 10944   0.117E+00    0.134E-01
DAV:   2    -0.203402519914E+03   -0.10812E-02   -0.11680E-02 10960   0.181E-01    0.104E-01
DAV:   3    -0.203402847419E+03   -0.32751E-03   -0.10171E-03 12168   0.157E-01    0.210E-01
DAV:   4    -0.203402523115E+03    0.32430E-03   -0.94931E-04 11996   0.145E-01    0.953E-02
DAV:   5    -0.203402487590E+03    0.35525E-04   -0.23597E-04 11620   0.855E-02    0.683E-02
DAV:   6    -0.203402505728E+03   -0.18137E-04   -0.14716E-04 11804   0.733E-02    0.709E-02
DAV:   7    -0.203402459256E+03    0.46472E-04   -0.89210E-05 10744   0.590E-02    0.245E-02
DAV:   8    -0.203402458738E+03    0.51723E-06   -0.32460E-05  6736   0.297E-02
  75 F= -.20340246E+03 E0= -.20079152E+03  d E =0.389966E-02
       N       E                     dE             d eps       ncg     rms          rms(c)
DAV:   1    -0.203395645652E+03    0.68136E-02   -0.65243E-01 10944   0.129E+00    0.163E-01
DAV:   2    -0.203397113689E+03   -0.14680E-02   -0.15665E-02 10972   0.215E-01    0.148E-01
DAV:   3    -0.203397622039E+03   -0.50835E-03   -0.19099E-03 12216   0.212E-01    0.275E-01
DAV:   4    -0.203397021990E+03    0.60005E-03   -0.14573E-03 12060   0.181E-01    0.111E-01
DAV:   5    -0.203396973222E+03    0.48768E-04   -0.33974E-04 11788   0.106E-01    0.858E-02
DAV:   6    -0.203396977556E+03   -0.43341E-05   -0.22155E-04 11760   0.907E-02    0.839E-02
DAV:   7    -0.203396910261E+03    0.67295E-04   -0.13437E-04 11720   0.716E-02    0.296E-02
DAV:   8    -0.203396909485E+03    0.77550E-06   -0.51222E-05  8416   0.359E-02
  76 F= -.20339691E+03 E0= -.20078607E+03  d E =0.554925E-02
       N       E                     dE             d eps       ncg     rms          rms(c)
DAV:   1    -0.203395228860E+03    0.16814E-02   -0.33682E-01 10944   0.847E-01    0.154E-01
DAV:   2    -0.203396049603E+03   -0.82074E-03   -0.10534E-02 11024   0.150E-01    0.122E-01
DAV:   3    -0.203395973407E+03    0.76196E-04   -0.36405E-04 12312   0.843E-02    0.111E-01
DAV:   4    -0.203396179052E+03   -0.20564E-03   -0.98472E-04 12460   0.147E-01    0.187E-01
DAV:   5    -0.203396014505E+03    0.16455E-03   -0.98835E-04 12336   0.151E-01    0.126E-01
DAV:   6    -0.203395849587E+03    0.16492E-03   -0.33084E-04 12068   0.988E-02    0.380E-02
DAV:   7    -0.203395839691E+03    0.98961E-05   -0.70874E-05 10284   0.423E-02
  77 F= -.20339584E+03 E0= -.20078504E+03  d E =0.106979E-02
       N       E                     dE             d eps       ncg     rms          rms(c)
DAV:   1    -0.203394356662E+03    0.14929E-02   -0.10352E-01 10944   0.501E-01    0.856E-02
DAV:   2    -0.203394657692E+03   -0.30103E-03   -0.32701E-03 11024   0.107E-01    0.899E-02
DAV:   3    -0.203394663022E+03   -0.53306E-05   -0.29844E-04 12256   0.960E-02    0.973E-02
DAV:   4    -0.203394648497E+03    0.14525E-04   -0.31396E-04 10896   0.849E-02    0.932E-02
DAV:   5    -0.203394586865E+03    0.61632E-04   -0.19874E-04 10280   0.713E-02    0.484E-02
DAV:   6    -0.203394584132E+03    0.27331E-05   -0.93137E-05 10736   0.536E-02
  78 F= -.20339458E+03 E0= -.20078381E+03  d E =0.125556E-02
       N       E                     dE             d eps       ncg     rms          rms(c)
DAV:   1    -0.203392515194E+03    0.20717E-02   -0.11797E-01 10944   0.547E-01    0.619E-02
DAV:   2    -0.203392761571E+03   -0.24638E-03   -0.24282E-03 10992   0.973E-02    0.668E-02
DAV:   3    -0.203392794122E+03   -0.32551E-04   -0.27223E-04 12016   0.838E-02    0.868E-02
DAV:   4    -0.203392765090E+03    0.29032E-04   -0.22303E-04  9448   0.708E-02    0.638E-02
DAV:   5    -0.203392733125E+03    0.31965E-04   -0.60710E-05  7268   0.434E-02    0.243E-02
DAV:   6    -0.203392741009E+03   -0.78840E-05   -0.23731E-05  6576   0.309E-02
  79 F= -.20339274E+03 E0= -.20078198E+03  d E =0.184312E-02
       N       E                     dE             d eps       ncg     rms          rms(c)
DAV:   1    -0.203389561734E+03    0.31714E-02   -0.22588E-01 10944   0.760E-01    0.838E-02
DAV:   2    -0.203390011819E+03   -0.45008E-03   -0.45025E-03 10960   0.122E-01    0.805E-02
DAV:   3    -0.203390162647E+03   -0.15083E-03   -0.61323E-04 12224   0.120E-01    0.146E-01
DAV:   4    -0.203390006507E+03    0.15614E-03   -0.43646E-04 11848   0.988E-02    0.643E-02
DAV:   5    -0.203389976319E+03    0.30188E-04   -0.84183E-05  8396   0.494E-02    0.292E-02
DAV:   6    -0.203389988422E+03   -0.12103E-04   -0.43913E-05  8128   0.354E-02    0.343E-02
DAV:   7    -0.203389979739E+03    0.86832E-05   -0.25435E-05  6780   0.310E-02
  80 F= -.20338998E+03 E0= -.20077939E+03  d E =0.276127E-02
       N       E                     dE             d eps       ncg     rms          rms(c)
DAV:   1    -0.203385991437E+03    0.39970E-02   -0.36464E-01 10944   0.966E-01    0.106E-01
DAV:   2    -0.203386735399E+03   -0.74396E-03   -0.73708E-03 10968   0.157E-01    0.106E-01
DAV:   3    -0.203386945903E+03   -0.21050E-03   -0.95361E-04 12304   0.152E-01    0.179E-01
DAV:   4    -0.203386729781E+03    0.21612E-03   -0.67946E-04 12096   0.124E-01    0.887E-02
DAV:   5    -0.203386671820E+03    0.57961E-04   -0.11157E-04 10488   0.664E-02    0.424E-02
DAV:   6    -0.203386687020E+03   -0.15200E-04   -0.71979E-05 10384   0.497E-02    0.478E-02
DAV:   7    -0.203386671118E+03    0.15902E-04   -0.48635E-05  8760   0.400E-02    0.174E-02
DAV:   8    -0.203386669234E+03    0.18839E-05   -0.14503E-05  6144   0.186E-02
  81 F= -.20338667E+03 E0= -.20077614E+03  d E =0.331051E-02
       N       E                     dE             d eps       ncg     rms          rms(c)
DAV:   1    -0.203381713300E+03    0.49578E-02   -0.53829E-01 10944   0.118E+00    0.128E-01
DAV:   2    -0.203382783144E+03   -0.10698E-02   -0.10868E-02 10952   0.186E-01    0.112E-01
DAV:   3    -0.203383180497E+03   -0.39735E-03   -0.13760E-03 12224   0.181E-01    0.229E-01
DAV:   4    -0.203382784092E+03    0.39641E-03   -0.10304E-03 12056   0.152E-01    0.944E-02
DAV:   5    -0.203382723325E+03    0.60767E-04   -0.16289E-04 11320   0.745E-02    0.496E-02
DAV:   6    -0.203382752674E+03   -0.29349E-04   -0.10033E-04 11488   0.594E-02    0.622E-02
DAV:   7    -0.203382727150E+03    0.25524E-04   -0.72480E-05  9688   0.516E-02    0.299E-02
DAV:   8    -0.203382719339E+03    0.78110E-05   -0.25704E-05  6696   0.264E-02
  82 F= -.20338272E+03 E0= -.20077229E+03  d E =0.394989E-02
       N       E                     dE             d eps       ncg     rms          rms(c)
DAV:   1    -0.203377330492E+03    0.53967E-02   -0.72805E-01 10944   0.138E+00    0.148E-01
DAV:   2    -0.203378762432E+03   -0.14319E-02   -0.14736E-02 10968   0.213E-01    0.123E-01
DAV:   3    -0.203379337400E+03   -0.57497E-03   -0.17914E-03 12272   0.206E-01    0.270E-01
DAV:   4    -0.203378755260E+03    0.58214E-03   -0.13649E-03 12108   0.175E-01    0.986E-02
DAV:   5    -0.203378703990E+03    0.51270E-04   -0.19751E-04 11832   0.834E-02    0.634E-02
DAV:   6    -0.203378731984E+03   -0.27994E-04   -0.13985E-04 11868   0.706E-02    0.691E-02
DAV:   7    -0.203378698008E+03    0.33976E-04   -0.97369E-05 10984   0.585E-02    0.317E-02
DAV:   8    -0.203378690024E+03    0.79833E-05   -0.33464E-05  7028   0.297E-02
  83 F= -.20337869E+03 E0= -.20076837E+03  d E =0.402932E-02
       N       E                     dE             d eps       ncg     rms          rms(c)
DAV:   1    -0.203372353607E+03    0.63444E-02   -0.94518E-01 10944   0.159E+00    0.171E-01
DAV:   2    -0.203374301226E+03   -0.19476E-02   -0.19610E-02 10944   0.252E-01    0.156E-01
DAV:   3    -0.203375011746E+03   -0.71052E-03   -0.25738E-03 12280   0.246E-01    0.309E-01
DAV:   4    -0.203374254555E+03    0.75719E-03   -0.17722E-03 12116   0.200E-01    0.117E-01
DAV:   5    -0.203374172695E+03    0.81860E-04   -0.24958E-04 11904   0.962E-02    0.701E-02
DAV:   6    -0.203374207526E+03   -0.34831E-04   -0.18171E-04 11752   0.797E-02    0.783E-02
DAV:   7    -0.203374161646E+03    0.45879E-04   -0.13028E-04 11580   0.661E-02    0.326E-02
DAV:   8    -0.203374154692E+03    0.69545E-05   -0.43677E-05  7776   0.327E-02
  84 F= -.20337415E+03 E0= -.20076397E+03  d E =0.453533E-02
       N       E                     dE             d eps       ncg     rms          rms(c)
DAV:   1    -0.203368450371E+03    0.57113E-02   -0.91481E-01 10944   0.151E+00    0.193E-01
DAV:   2    -0.203370431988E+03   -0.19816E-02   -0.22378E-02 10980   0.245E-01    0.161E-01
DAV:   3    -0.203371072777E+03   -0.64079E-03   -0.20813E-03 12320   0.222E-01    0.309E-01
DAV:   4    -0.203370307261E+03    0.76552E-03   -0.19177E-03 12072   0.205E-01    0.122E-01
DAV:   5    -0.203370354896E+03   -0.47636E-04   -0.61371E-04 11692   0.139E-01    0.135E-01
DAV:   6    -0.203370249227E+03    0.10567E-03   -0.37783E-04 11904   0.120E-01    0.870E-02
DAV:   7    -0.203370177010E+03    0.72217E-04   -0.17681E-04 11592   0.807E-02    0.361E-02
DAV:   8    -0.203370176998E+03    0.12162E-07   -0.66039E-05  9380   0.430E-02
  85 F= -.20337018E+03 E0= -.20076010E+03  d E =0.397769E-02
       N       E                     dE             d eps       ncg     rms          rms(c)
DAV:   1    -0.203370679424E+03   -0.50241E-03   -0.88987E-02 10952   0.448E-01    0.990E-02
DAV:   2    -0.203370984796E+03   -0.30537E-03   -0.37894E-03 11076   0.989E-02    0.909E-02
DAV:   3    -0.203371095298E+03   -0.11050E-03   -0.49453E-04 12400   0.109E-01    0.149E-01
DAV:   4    -0.203370922187E+03    0.17311E-03   -0.44096E-04 11268   0.979E-02    0.665E-02
DAV:   5    -0.203370937477E+03   -0.15291E-04   -0.21761E-04 11904   0.799E-02    0.787E-02
DAV:   6    -0.203370886096E+03    0.51381E-04   -0.11473E-04 11664   0.646E-02    0.422E-02
DAV:   7    -0.203370868236E+03    0.17860E-04   -0.39854E-05  7704   0.385E-02    0.166E-02
DAV:   8    -0.203370867961E+03    0.27466E-06   -0.15000E-05  6252   0.192E-02
  86 F= -.20337087E+03 E0= -.20076084E+03  d E =-.690963E-03
       N       E                     dE             d eps       ncg     rms          rms(c)
DAV:   1    -0.203369973375E+03    0.89486E-03   -0.63889E-02 10944   0.419E-01    0.438E-02
DAV:   2    -0.203370104749E+03   -0.13137E-03   -0.13217E-03 10960   0.668E-02    0.391E-02
DAV:   3    -0.203370149251E+03   -0.44502E-04   -0.16235E-04  9936   0.625E-02    0.776E-02
DAV:   4    -0.203370104798E+03    0.44453E-04   -0.11909E-04  7284   0.522E-02    0.341E-02
DAV:   5    -0.203370096607E+03    0.81909E-05   -0.18073E-05  6500   0.259E-02
[...]
DAV:   3    -0.203444677674E+03    0.88381E-04   -0.12190E-04 10820   0.663E-02    0.186E-02
DAV:   4    -0.203444676734E+03    0.93966E-06   -0.18051E-05  6008   0.192E-02
 359 F= -.20344468E+03 E0= -.20085694E+03  d E =-.700530E-04
       N       E                     dE             d eps       ncg     rms          rms(c)
DAV:   1    -0.203444728584E+03   -0.50910E-04   -0.45474E-03 10944   0.125E-01    0.206E-02
DAV:   2    -0.203444793454E+03   -0.64870E-04   -0.22126E-04 11452   0.556E-02    0.782E-02
DAV:   3    -0.203444739069E+03    0.54385E-04   -0.10706E-04  7092   0.498E-02    0.204E-02
DAV:   4    -0.203444737710E+03    0.13595E-05   -0.13717E-05  6200   0.188E-02
 360 F= -.20344474E+03 E0= -.20085700E+03  d E =-.609758E-04
       N       E                     dE             d eps       ncg     rms          rms(c)
DAV:   1    -0.203444782504E+03   -0.43435E-04   -0.48590E-03 10944   0.134E-01    0.186E-02
DAV:   2    -0.203444804464E+03   -0.21960E-04   -0.13029E-04 10952   0.379E-02    0.381E-02
DAV:   3    -0.203444791738E+03    0.12726E-04   -0.28165E-05  6480   0.316E-02    0.166E-02
DAV:   4    -0.203444793963E+03   -0.22250E-05   -0.15751E-05  5976   0.187E-02
 361 F= -.20344479E+03 E0= -.20085706E+03  d E =-.562533E-04
       N       E                     dE             d eps       ncg     rms          rms(c)
DAV:   1    -0.203444846836E+03   -0.55098E-04   -0.75272E-03 10944   0.166E-01    0.222E-02
DAV:   2    -0.203444880638E+03   -0.33802E-04   -0.19773E-04 11064   0.418E-02    0.482E-02
DAV:   3    -0.203444866094E+03    0.14544E-04   -0.65800E-05  6984   0.395E-02    0.287E-02
DAV:   4    -0.203444861950E+03    0.41439E-05   -0.20710E-05  6148   0.235E-02
 362 F= -.20344486E+03 E0= -.20085714E+03  d E =-.679872E-04
       N       E                     dE             d eps       ncg     rms          rms(c)
DAV:   1    -0.203444921864E+03   -0.55770E-04   -0.11192E-02 10944   0.202E-01    0.270E-02
DAV:   2    -0.203444958431E+03   -0.36567E-04   -0.26635E-04 11004   0.459E-02    0.438E-02
DAV:   3    -0.203444944399E+03    0.14032E-04   -0.46145E-05  7756   0.396E-02    0.241E-02
DAV:   4    -0.203444951108E+03   -0.67091E-05   -0.31802E-05  6364   0.275E-02
 363 F= -.20344495E+03 E0= -.20085726E+03  d E =-.891582E-04
       N       E                     dE             d eps       ncg     rms          rms(c)
DAV:   1    -0.203445005282E+03   -0.60882E-04   -0.14973E-02 10944   0.234E-01    0.312E-02
DAV:   2    -0.203445072089E+03   -0.66807E-04   -0.39015E-04 11144   0.573E-02    0.681E-02
DAV:   3    -0.203445041088E+03    0.31001E-04   -0.12774E-04  7832   0.543E-02    0.367E-02
DAV:   4    -0.203445035459E+03    0.56289E-05   -0.33665E-05  6640   0.307E-02
 364 F= -.20344504E+03 E0= -.20085736E+03  d E =-.843507E-04
       N       E                     dE             d eps       ncg     rms          rms(c)
DAV:   1    -0.203445094578E+03   -0.53490E-04   -0.19959E-02 10944   0.270E-01    0.365E-02
DAV:   2    -0.203445164644E+03   -0.70067E-04   -0.48392E-04 11144   0.639E-02    0.628E-02
DAV:   3    -0.203445134383E+03    0.30261E-04   -0.90985E-05 10612   0.550E-02    0.317E-02
DAV:   4    -0.203445148396E+03   -0.14012E-04   -0.59717E-05  6676   0.377E-02    0.491E-02
DAV:   5    -0.203445129146E+03    0.19250E-04   -0.42556E-05  6584   0.323E-02    0.158E-02
DAV:   6    -0.203445129243E+03   -0.97105E-07   -0.77561E-06  5696   0.164E-02
 365 F= -.20344513E+03 E0= -.20085751E+03  d E =-.937840E-04
       N       E                     dE             d eps       ncg     rms          rms(c)
DAV:   1    -0.203445189608E+03   -0.60462E-04   -0.24153E-02 10944   0.296E-01    0.323E-02
DAV:   2    -0.203445238893E+03   -0.49285E-04   -0.53056E-04 10964   0.420E-02    0.234E-02
DAV:   3    -0.203445246462E+03   -0.75685E-05   -0.40823E-05  7136   0.332E-02    0.367E-02
DAV:   4    -0.203445240862E+03    0.55998E-05   -0.39867E-05  6552   0.306E-02
 366 F= -.20344524E+03 E0= -.20085761E+03  d E =-.111619E-03
       N       E                     dE             d eps       ncg     rms          rms(c)
DAV:   1    -0.203445307666E+03   -0.61205E-04   -0.30775E-02 10944   0.334E-01    0.408E-02
DAV:   2    -0.203445385445E+03   -0.77779E-04   -0.70857E-04 11172   0.593E-02    0.526E-02
DAV:   3    -0.203445395097E+03   -0.96518E-05   -0.14885E-04  9668   0.594E-02    0.608E-02
DAV:   4    -0.203445374900E+03    0.20197E-04   -0.89713E-05  7060   0.464E-02    0.368E-02
DAV:   5    -0.203445365001E+03    0.98987E-05   -0.21646E-05  6536   0.280E-02
 367 F= -.20344537E+03 E0= -.20085780E+03  d E =-.124139E-03
       N       E                     dE             d eps       ncg     rms          rms(c)
DAV:   1    -0.203445480303E+03   -0.10540E-03   -0.26501E-02 10944   0.307E-01    0.437E-02
DAV:   2    -0.203445601411E+03   -0.12111E-03   -0.77385E-04 11008   0.864E-02    0.858E-02
DAV:   3    -0.203445535172E+03    0.66239E-04   -0.14273E-04 11296   0.705E-02    0.339E-02
DAV:   4    -0.203445539418E+03   -0.42458E-05   -0.46389E-05  7032   0.342E-02
 368 F= -.20344554E+03 E0= -.20085805E+03  d E =-.174417E-03
       N       E                     dE             d eps       ncg     rms          rms(c)
DAV:   1    -0.203445621068E+03   -0.85896E-04   -0.17279E-02 10944   0.245E-01    0.431E-02
DAV:   2    -0.203446232328E+03   -0.61126E-03   -0.14836E-03 12280   0.163E-01    0.247E-01
DAV:   3    -0.203445663327E+03    0.56900E-03   -0.95684E-04 12280   0.145E-01    0.359E-02
DAV:   4    -0.203445661141E+03    0.21868E-05   -0.52401E-05  8672   0.359E-02
 369 F= -.20344566E+03 E0= -.20085815E+03  d E =-.121723E-03
       N       E                     dE             d eps       ncg     rms          rms(c)
DAV:   1    -0.203445735668E+03   -0.72340E-04   -0.41455E-03 10944   0.121E-01    0.251E-02
DAV:   2    -0.203445791579E+03   -0.55912E-04   -0.21821E-04 11292   0.634E-02    0.676E-02
DAV:   3    -0.203445745955E+03    0.45625E-04   -0.68882E-05  8648   0.505E-02    0.198E-02
DAV:   4    -0.203445746412E+03   -0.45711E-06   -0.17745E-05  5956   0.195E-02
 370 F= -.20344575E+03 E0= -.20085825E+03  d E =-.852711E-04
       N       E                     dE             d eps       ncg     rms          rms(c)
DAV:   1    -0.203445807393E+03   -0.61438E-04   -0.57950E-03 10944   0.147E-01    0.244E-02
DAV:   2    -0.203445904322E+03   -0.96929E-04   -0.27701E-04 11528   0.690E-02    0.971E-02
DAV:   3    -0.203445821861E+03    0.82461E-04   -0.16717E-04  7420   0.624E-02    0.283E-02
DAV:   4    -0.203445817089E+03    0.47711E-05   -0.22601E-05  6312   0.248E-02
 371 F= -.20344582E+03 E0= -.20085833E+03  d E =-.706778E-04
       N       E                     dE             d eps       ncg     rms          rms(c)
DAV:   1    -0.203445871607E+03   -0.49746E-04   -0.87106E-03 10944   0.179E-01    0.261E-02
DAV:   2    -0.203445913365E+03   -0.41758E-04   -0.23778E-04 11036   0.535E-02    0.533E-02
DAV:   3    -0.203445887000E+03    0.26364E-04   -0.53266E-05  8320   0.436E-02    0.191E-02
DAV:   4    -0.203445890610E+03   -0.36092E-05   -0.20038E-05  6204   0.227E-02
 372 F= -.20344589E+03 E0= -.20085843E+03  d E =-.735202E-04
       N       E                     dE             d eps       ncg     rms          rms(c)
DAV:   1    -0.203445934549E+03   -0.47548E-04   -0.12136E-02 10944   0.211E-01    0.326E-02
DAV:   2    -0.203446159646E+03   -0.22510E-03   -0.61340E-04 11924   0.101E-01    0.149E-01
DAV:   3    -0.203445959567E+03    0.20008E-03   -0.37237E-04 11464   0.916E-02    0.309E-02
DAV:   4    -0.203445956490E+03    0.30768E-05   -0.32780E-05  6692   0.305E-02
 373 F= -.20344596E+03 E0= -.20085852E+03  d E =-.658807E-04
       N       E                     dE             d eps       ncg     rms          rms(c)
DAV:   1    -0.203446023041E+03   -0.63474E-04   -0.16481E-02 10944   0.246E-01    0.339E-02
DAV:   2    -0.203446083628E+03   -0.60587E-04   -0.40873E-04 11040   0.619E-02    0.597E-02
DAV:   3    -0.203446055360E+03    0.28268E-04   -0.81924E-05 10188   0.520E-02    0.297E-02
DAV:   4    -0.203446064546E+03   -0.91856E-05   -0.48947E-05  6620   0.344E-02
 374 F= -.20344606E+03 E0= -.20085866E+03  d E =-.108056E-03
       N       E                     dE             d eps       ncg     rms          rms(c)
DAV:   1    -0.203446157994E+03   -0.10263E-03   -0.21101E-02 10944   0.279E-01    0.394E-02
DAV:   2    -0.203446302703E+03   -0.14471E-03   -0.64111E-04 11344   0.872E-02    0.109E-01
DAV:   3    -0.203446211631E+03    0.91072E-04   -0.27346E-04 11256   0.798E-02    0.493E-02
DAV:   4    -0.203446198946E+03    0.12685E-04   -0.65296E-05  7780   0.420E-02    0.316E-02
DAV:   5    -0.203446195309E+03    0.36367E-05   -0.21225E-05  6504   0.267E-02
 375 F= -.20344620E+03 E0= -.20085876E+03  d E =-.130763E-03
       N       E                     dE             d eps       ncg     rms          rms(c)
DAV:   1    -0.203446324447E+03   -0.12550E-03   -0.27104E-02 10944   0.316E-01    0.390E-02
DAV:   2    -0.203446387976E+03   -0.63529E-04   -0.60716E-04 11124   0.569E-02    0.438E-02
DAV:   3    -0.203446387351E+03    0.62533E-06   -0.91495E-05 10836   0.517E-02    0.434E-02
DAV:   4    -0.203446390233E+03   -0.28826E-05   -0.68931E-05  6736   0.412E-02
 376 F= -.20344639E+03 E0= -.20085897E+03  d E =-.194924E-03
       N       E                     dE             d eps       ncg     rms          rms(c)
DAV:   1    -0.203446528569E+03   -0.14122E-03   -0.30166E-02 10944   0.334E-01    0.447E-02
DAV:   2    -0.203446676910E+03   -0.14834E-03   -0.80730E-04 11144   0.876E-02    0.104E-01
DAV:   3    -0.203446602396E+03    0.74514E-04   -0.26325E-04 11540   0.804E-02    0.541E-02
DAV:   4    -0.203446593766E+03    0.86296E-05   -0.89145E-05  8292   0.480E-02
 377 F= -.20344659E+03 E0= -.20085920E+03  d E =-.203533E-03
       N       E                     dE             d eps       ncg     rms          rms(c)
DAV:   1    -0.203446706478E+03   -0.10408E-03   -0.34978E-02 10944   0.357E-01    0.462E-02
DAV:   2    -0.203446793585E+03   -0.87107E-04   -0.83018E-04 11232   0.663E-02    0.523E-02
DAV:   3    -0.203446787712E+03    0.58732E-05   -0.10991E-04 11152   0.581E-02    0.459E-02
DAV:   4    -0.203446794148E+03   -0.64362E-05   -0.75713E-05  7068   0.446E-02
 378 F= -.20344679E+03 E0= -.20085942E+03  d E =-.200382E-03
       N       E                     dE             d eps       ncg     rms          rms(c)
DAV:   1    -0.203446866488E+03   -0.78776E-04   -0.14712E-02 10944   0.224E-01    0.423E-02
DAV:   2    -0.203447204577E+03   -0.33809E-03   -0.96483E-04 11704   0.127E-01    0.180E-01
DAV:   3    -0.203446915722E+03    0.28886E-03   -0.53576E-04 11816   0.113E-01    0.480E-02
DAV:   4    -0.203446902296E+03    0.13426E-04   -0.57120E-05  8152   0.392E-02    0.308E-02
DAV:   5    -0.203446898128E+03    0.41684E-05   -0.22898E-05  6928   0.240E-02
 379 F= -.20344690E+03 E0= -.20085962E+03  d E =-.103980E-03
       N       E                     dE             d eps       ncg     rms          rms(c)
DAV:   1    -0.203446956105E+03   -0.53809E-04   -0.35685E-03 10944   0.113E-01    0.233E-02
DAV:   2    -0.203446991501E+03   -0.35396E-04   -0.18840E-04 11204   0.564E-02    0.525E-02
DAV:   3    -0.203446968663E+03    0.22837E-04   -0.69214E-05  8184   0.454E-02    0.299E-02
DAV:   4    -0.203446962555E+03    0.61081E-05   -0.24199E-05  6108   0.226E-02
 380 F= -.20344696E+03 E0= -.20085965E+03  d E =-.644273E-04
       N       E                     dE             d eps       ncg     rms          rms(c)
DAV:   1    -0.203447006530E+03   -0.37867E-04   -0.42243E-03 10944   0.125E-01    0.209E-02
DAV:   2    -0.203447053168E+03   -0.46638E-04   -0.15750E-04 11388   0.537E-02    0.639E-02
DAV:   3    -0.203447017804E+03    0.35364E-04   -0.73376E-05  7320   0.471E-02    0.275E-02
DAV:   4    -0.203447013007E+03    0.47968E-05   -0.20679E-05  5960   0.210E-02
 381 F= -.20344701E+03 E0= -.20085972E+03  d E =-.504519E-04
       N       E                     dE             d eps       ncg     rms          rms(c)
DAV:   1    -0.203447075478E+03   -0.57674E-04   -0.61131E-03 10944   0.150E-01    0.207E-02
DAV:   2    -0.203447095252E+03   -0.19774E-04   -0.15428E-04 10984   0.368E-02    0.320E-02
DAV:   3    -0.203447091090E+03    0.41618E-05   -0.36889E-05  6616   0.320E-02    0.275E-02
DAV:   4    -0.203447087275E+03    0.38152E-05   -0.20666E-05  6072   0.216E-02
 382 F= -.20344709E+03 E0= -.20085980E+03  d E =-.742674E-04
       N       E                     dE             d eps       ncg     rms          rms(c)
DAV:   1    -0.203447162220E+03   -0.71130E-04   -0.92204E-03 10944   0.184E-01    0.252E-02
DAV:   2    -0.203447204787E+03   -0.42567E-04   -0.23439E-04 11136   0.492E-02    0.535E-02
DAV:   3    -0.203447182894E+03    0.21893E-04   -0.64187E-05  7812   0.440E-02    0.281E-02
DAV:   4    -0.203447183282E+03   -0.38774E-06   -0.31917E-05  6368   0.268E-02
 383 F= -.20344718E+03 E0= -.20085993E+03  d E =-.960075E-04
       N       E                     dE             d eps       ncg     rms          rms(c)
DAV:   1    -0.203447262217E+03   -0.79323E-04   -0.12597E-02 10944   0.216E-01    0.279E-02
DAV:   2    -0.203447293676E+03   -0.31460E-04   -0.28484E-04 11000   0.410E-02    0.346E-02
DAV:   3    -0.203447298600E+03   -0.49238E-05   -0.65495E-05  7056   0.405E-02    0.431E-02
DAV:   4    -0.203447287745E+03    0.10856E-04   -0.42330E-05  6376   0.318E-02    0.232E-02
DAV:   5    -0.203447285285E+03    0.24600E-05   -0.10836E-05  5964   0.195E-02
 384 F= -.20344729E+03 E0= -.20086003E+03  d E =-.102002E-03
       N       E                     dE             d eps       ncg     rms          rms(c)
DAV:   1    -0.203447373054E+03   -0.85309E-04   -0.16724E-02 10944   0.248E-01    0.310E-02
DAV:   2    -0.203447420427E+03   -0.47374E-04   -0.39036E-04 11036   0.508E-02    0.452E-02
DAV:   3    -0.203447409680E+03    0.10747E-04   -0.62573E-05  9028   0.446E-02    0.311E-02
DAV:   4    -0.203447415995E+03   -0.63150E-05   -0.45715E-05  6428   0.329E-02
 385 F= -.20344742E+03 E0= -.20086015E+03  d E =-.130711E-03
       N       E                     dE             d eps       ncg     rms          rms(c)
DAV:   1    -0.203447493885E+03   -0.84205E-04   -0.20893E-02 10944   0.278E-01    0.362E-02
DAV:   2    -0.203447571116E+03   -0.77231E-04   -0.51402E-04 11068   0.631E-02    0.690E-02
DAV:   3    -0.203447545681E+03    0.25435E-04   -0.14502E-04  8820   0.589E-02    0.452E-02
DAV:   4    -0.203447538563E+03    0.71173E-05   -0.58362E-05  6928   0.389E-02
 386 F= -.20344754E+03 E0= -.20086035E+03  d E =-.122568E-03
       N       E                     dE             d eps       ncg     rms          rms(c)
DAV:   1    -0.203447626124E+03   -0.80444E-04   -0.26412E-02 10944   0.312E-01    0.416E-02
DAV:   2    -0.203447705873E+03   -0.79748E-04   -0.61905E-04 11032   0.681E-02    0.627E-02
DAV:   3    -0.203447678257E+03    0.27615E-04   -0.99118E-05 11120   0.582E-02    0.338E-02
DAV:   4    -0.203447676739E+03    0.15187E-05   -0.30053E-05  6664   0.304E-02
 387 F= -.20344768E+03 E0= -.20086050E+03  d E =-.138175E-03
       N       E                     dE             d eps       ncg     rms          rms(c)
DAV:   1    -0.203447799244E+03   -0.12099E-03   -0.28968E-02 10944   0.326E-01    0.526E-02
DAV:   2    -0.203448706028E+03   -0.90678E-03   -0.20481E-03 12072   0.197E-01    0.304E-01
DAV:   3    -0.203447839529E+03    0.86650E-03   -0.13211E-03 12216   0.175E-01    0.302E-02
DAV:   4    -0.203447851200E+03   -0.11671E-04   -0.55586E-05  9984   0.344E-02    0.367E-02
DAV:   5    -0.203447843432E+03    0.77679E-05   -0.31169E-05  7076   0.319E-02
 388 F= -.20344784E+03 E0= -.20086067E+03  d E =-.166693E-03
       N       E                     dE             d eps       ncg     rms          rms(c)
DAV:   1    -0.203447956705E+03   -0.10550E-03   -0.31646E-02 10944   0.337E-01    0.434E-02
DAV:   2    -0.203448044164E+03   -0.87459E-04   -0.82217E-04 11312   0.715E-02    0.532E-02
DAV:   3    -0.203448027357E+03    0.16807E-04   -0.11503E-04 11256   0.580E-02    0.383E-02
DAV:   4    -0.203448034901E+03   -0.75444E-05   -0.62482E-05  6812   0.399E-02
 389 F= -.20344803E+03 E0= -.20086086E+03  d E =-.191469E-03
       N       E                     dE             d eps       ncg     rms          rms(c)
DAV:   1    -0.203448129463E+03   -0.10211E-03   -0.73863E-03 10944   0.158E-01    0.360E-02
DAV:   2    -0.203448521555E+03   -0.39209E-03   -0.90349E-04 12008   0.135E-01    0.197E-01
DAV:   3    -0.203448165583E+03    0.35597E-03   -0.62192E-04 12056   0.120E-01    0.479E-02
DAV:   4    -0.203448146623E+03    0.18959E-04   -0.44935E-05  7136   0.340E-02    0.194E-02
DAV:   5    -0.203448145511E+03    0.11129E-05   -0.12143E-05  6356   0.151E-02
 390 F= -.20344815E+03 E0= -.20086100E+03  d E =-.110609E-03
       N       E                     dE             d eps       ncg     rms          rms(c)
DAV:   1    -0.203448215767E+03   -0.69144E-04   -0.39508E-03 10944   0.121E-01    0.187E-02
DAV:   2    -0.203448231849E+03   -0.16081E-04   -0.12459E-04 11288   0.372E-02    0.309E-02
DAV:   3    -0.203448224645E+03    0.72033E-05   -0.31322E-05  6540   0.300E-02    0.186E-02
DAV:   4    -0.203448224965E+03   -0.31937E-06   -0.16106E-05  5916   0.186E-02
 391 F= -.20344822E+03 E0= -.20086107E+03  d E =-.794543E-04
       N       E                     dE             d eps       ncg     rms          rms(c)
DAV:   1    -0.203448291461E+03   -0.66816E-04   -0.50176E-03 10944   0.137E-01    0.188E-02
DAV:   2    -0.203448318094E+03   -0.26633E-04   -0.13754E-04 10996   0.397E-02    0.440E-02
DAV:   3    -0.203448304219E+03    0.13875E-04   -0.44881E-05  6576   0.353E-02    0.245E-02
DAV:   4    -0.203448301499E+03    0.27208E-05   -0.18653E-05  5952   0.206E-02
 392 F= -.20344830E+03 E0= -.20086118E+03  d E =-.765338E-04
       N       E                     dE             d eps       ncg     rms          rms(c)
DAV:   1    -0.203448360995E+03   -0.56776E-04   -0.75038E-03 10944   0.166E-01    0.221E-02
DAV:   2    -0.203448382159E+03   -0.21164E-04   -0.17518E-04 10956   0.361E-02    0.314E-02
DAV:   3    -0.203448376311E+03    0.58480E-05   -0.28750E-05  6752   0.307E-02    0.207E-02
DAV:   4    -0.203448379739E+03   -0.34278E-05   -0.21361E-05  6100   0.225E-02
 393 F= -.20344838E+03 E0= -.20086127E+03  d E =-.782400E-04
       N       E                     dE             d eps       ncg     rms          rms(c)
DAV:   1    -0.203448425019E+03   -0.48708E-04   -0.10502E-02 10944   0.197E-01    0.273E-02
DAV:   2    -0.203448493269E+03   -0.68250E-04   -0.30874E-04 11220   0.601E-02    0.744E-02
DAV:   3    -0.203448450238E+03    0.43031E-04   -0.12063E-04  7532   0.544E-02    0.324E-02
DAV:   4    -0.203448446540E+03    0.36986E-05   -0.32833E-05  6416   0.294E-02
 394 F= -.20344845E+03 E0= -.20086137E+03  d E =-.668012E-04
       N       E                     dE             d eps       ncg     rms          rms(c)
DAV:   1    -0.203448501062E+03   -0.50823E-04   -0.14016E-02 10944   0.227E-01    0.306E-02
DAV:   2    -0.203448537146E+03   -0.36085E-04   -0.32219E-04 10980   0.471E-02    0.386E-02
DAV:   3    -0.203448529131E+03    0.80149E-05   -0.46863E-05  8588   0.398E-02    0.264E-02
DAV:   4    -0.203448527029E+03    0.21028E-05   -0.16122E-05  6388   0.238E-02
 395 F= -.20344853E+03 E0= -.20086148E+03  d E =-.804889E-04
       N       E                     dE             d eps       ncg     rms          rms(c)
DAV:   1    -0.203448621808E+03   -0.92677E-04   -0.18084E-02 10944   0.258E-01    0.338E-02
DAV:   2    -0.203448750124E+03   -0.12832E-03   -0.54482E-04 11456   0.765E-02    0.105E-01
DAV:   3    -0.203448656321E+03    0.93803E-04   -0.21038E-04 10512   0.698E-02    0.270E-02
DAV:   4    -0.203448655551E+03    0.76912E-06   -0.25292E-05  6576   0.253E-02
 396 F= -.20344866E+03 E0= -.20086155E+03  d E =-.128523E-03
