 vasp.6.5.1 10Mar25 (build Apr 25 2025 15:31:43) complex                        
  
 executed on             LinuxIFC date 2025.12.08  14:54:14
 running  384 mpi-ranks, on   16 nodes
 each image running on   48 cores
 distrk:  each k-point on   24 cores,    2 groups
 distr:  one band on NCORE=   6 cores,    4 groups


--------------------------------------------------------------------------------------------------------


 INCAR:
   SYSTEM = PBE-grap
   NWRITE = 0    write-flag
   ISTART = 0    job   : 0-new, 1-cont, 2-samecut
   ICHARG = 2    charge: 0-wave, 1-file, 2-atom, >10-const
   INIWAV = 1    electr: 0-lowe 1-rand  2-diag
   GGA = PE
   PREC = Normal   low | medium | high
   ENCUT = 370
   NELMDL = -5    number of delayed ELM steps
   NELMIN = 4
   NELM = 150    number of ELM steps
   EDIFF = 1E-05    energy stopping-criterion for ELM
   LREAL = AUTO   real-space projection (.FALSE., .TRUE., On, Auto)
   IALGO = 38    algorithm (8\=CG for small, 48\=RMM for big systems)
   LCHARG = .FALSE.
   LVTOT = .FALSE.
   LWAVE = .FALSE.
   NSW = 1000   max number of geometry steps
   EDIFFG = -0.026   force (eV/A) stopping-criterion for geometry steps
   ISIF = 2     (1:force\=y stress\=trace only ions\=y shape\=n volume\=n)
   ISYM = 0     (1-use symmetry, 0-no symmetry)
   ISMEAR = 0    (-1-Fermi, 1-Methfessel/Paxton)
   SIGMA = 0.41   broadening in eV
   IOPT = 3
   TIMESTEP = 0.05
   ICHAIN = 0     turn on NEB
   LCLIMB = .TRUE.
   POTIM = 0
   IBRION = 3
   IMAGES = 8      image number
   SPRING = -5     spring constant between images
   LPLANE = .TRUE.
   NPAR = 4
   KPAR = 2

 POTCAR:    PAW_PBE Pd 04Jan2005                  
 POTCAR:    PAW_PBE C 08Apr2002                   
 POTCAR:    PAW_PBE O 08Apr2002                   
 POTCAR:    PAW_PBE Pd 04Jan2005                  
  local pseudopotential read in
  partial core-charges read in
  partial kinetic energy density read in
  atomic valenz-charges read in
  non local Contribution for L=           2  read in
    real space projection operators read in
  non local Contribution for L=           2  read in
    real space projection operators read in
  non local Contribution for L=           0  read in
    real space projection operators read in
  non local Contribution for L=           0  read in
    real space projection operators read in
  non local Contribution for L=           1  read in
    real space projection operators read in
  non local Contribution for L=           1  read in
    real space projection operators read in
    PAW grid and wavefunctions read in
 
   number of l-projection  operators is LMAX  =           6
   number of lm-projection operators is LMMAX =          18
 
 POTCAR:    PAW_PBE C 08Apr2002                   
  local pseudopotential read in
  partial core-charges read in
  partial kinetic energy density read in
  atomic valenz-charges read in
  non local Contribution for L=           0  read in
    real space projection operators read in
  non local Contribution for L=           0  read in
    real space projection operators read in
  non local Contribution for L=           1  read in
    real space projection operators read in
  non local Contribution for L=           1  read in
    real space projection operators read in
    PAW grid and wavefunctions read in
 
   number of l-projection  operators is LMAX  =           4
   number of lm-projection operators is LMMAX =           8
 
 POTCAR:    PAW_PBE O 08Apr2002                   
  local pseudopotential read in
  partial core-charges read in
  partial kinetic energy density read in
  kinetic energy density of atom read in
  atomic valenz-charges read in
  non local Contribution for L=           0  read in
    real space projection operators read in
  non local Contribution for L=           0  read in
    real space projection operators read in
  non local Contribution for L=           1  read in
    real space projection operators read in
  non local Contribution for L=           1  read in
    real space projection operators read in
    PAW grid and wavefunctions read in
 
   number of l-projection  operators is LMAX  =           4
   number of lm-projection operators is LMMAX =           8
 
 Optimization of the real space projectors (new method)

 maximal supplied QI-value         = 14.36
 optimisation between [QCUT,QGAM] = [  9.77, 19.68] = [ 26.71,108.41] Ry 
 Optimized for a Real-space Cutoff    1.52 Angstroem

   l    n(q)    QCUT    max X(q) W(low)/X(q) W(high)/X(q)  e(spline) 
   2      8     9.766    59.108    0.18E-03    0.12E-03    0.98E-07
   2      8     9.766    58.101    0.18E-03    0.12E-03    0.10E-06
   0      9     9.766   102.235    0.37E-04    0.68E-04    0.73E-07
   0      9     9.766    58.388    0.33E-04    0.64E-04    0.69E-07
   1      8     9.766    22.191    0.23E-03    0.61E-04    0.11E-06
   1      8     9.766    15.590    0.19E-03    0.52E-04    0.93E-07
 Optimization of the real space projectors (new method)

 maximal supplied QI-value         = 25.13
 optimisation between [QCUT,QGAM] = [  9.80, 19.60] = [ 26.90,107.62] Ry 
 Optimized for a Real-space Cutoff    1.35 Angstroem

   l    n(q)    QCUT    max X(q) W(low)/X(q) W(high)/X(q)  e(spline) 
   0      8     9.802   115.676    0.45E-03    0.67E-03    0.24E-06
   0      8     9.802    87.132    0.44E-03    0.67E-03    0.24E-06
   1      7     9.802     4.429    0.38E-03    0.18E-03    0.24E-06
   1      7     9.802     2.733    0.25E-03    0.72E-04    0.26E-06
 Optimization of the real space projectors (new method)

 maximal supplied QI-value         = 24.76
 optimisation between [QCUT,QGAM] = [  9.65, 19.56] = [ 26.10,107.10] Ry 
 Optimized for a Real-space Cutoff    1.44 Angstroem

   l    n(q)    QCUT    max X(q) W(low)/X(q) W(high)/X(q)  e(spline) 
   0      8     9.655    20.381    0.19E-03    0.21E-03    0.36E-06
   0      8     9.655    15.268    0.21E-03    0.24E-03    0.37E-06
   1      8     9.655     5.964    0.43E-03    0.39E-03    0.31E-06
   1      8     9.655     5.382    0.36E-03    0.33E-03    0.28E-06
  PAW_PBE Pd 04Jan2005                  :
 energy of atom  1       EATOM= -809.7530
 kinetic energy error for atom=    0.0177 (will be added to EATOM!!)
  PAW_PBE C 08Apr2002                   :
 energy of atom  2       EATOM= -147.1560
 kinetic energy error for atom=    0.0545 (will be added to EATOM!!)
  PAW_PBE O 08Apr2002                   :
 energy of atom  3       EATOM= -432.3788
 kinetic energy error for atom=    0.2342 (will be added to EATOM!!)
 
 
 POSCAR: Pd  C  O
  positions in direct lattice
  velocities in cartesian coordinates


 exchange-correlation table for PE
   RHO(1)=    0.500       N(1)  =     2000
   RHO(2)=  100.500       N(2)  =     4000

 VTST: version 4.2, (11/09/24)

 CHAIN: initializing optimizer
 
 OPT: Using Quick-Min optimizer
 OPT: QM, Init
 OPT: QM, MAXMOVE       0.200000
 OPT: QM, TIMESTEP      0.050000
 
 CHAIN: Read ICHAIN            0
 CHAIN: Running the NEB
 NEB:          SPRING     -5.000000
 NEB:          LCLIMB      T
 NEB:     LTANGENTOLD      F
 NEB:           LDNEB      F
 NEB:        LDNEBORG      F
 NEB:        LNEBCELL      F
 NEB:          EFIRST      0.000000
 NEB:           ELAST      0.000000
 
 POSCAR: Pd  C  O
  positions in cartesian coordinates
  No initial velocities read in
 
 POSCAR: Pd  C  O
  positions in cartesian coordinates
  No initial velocities read in
 
 POSCAR: Pd  C  O
  positions in cartesian coordinates
  No initial velocities read in
 
 POSCAR: Pd  C  O
  positions in cartesian coordinates
  No initial velocities read in
 


--------------------------------------------------------------------------------------------------------


 ion  position               nearest neighbor table
   1  0.999  0.998  0.440-   4 2.76  19 2.76  25 2.77  13 2.77   7 2.78  10 2.78   3 2.81  27 2.83
                             9 2.83
   2  0.111  0.223  0.160-  31 2.77  32 2.77  28 2.77   5 2.77   8 2.77  26 2.77  20 2.77  14 2.77
                            11 2.77   9 2.80  12 2.80   3 2.81
   3  0.222  0.113  0.300-  15 2.74  12 2.75   6 2.77   9 2.77  27 2.78  21 2.78   4 2.81   2 2.81
                             1 2.81   5 2.81  20 2.82  13 2.95
   4  0.332  0.000  0.440-   1 2.76  16 2.77   7 2.77  22 2.78  19 2.78  13 2.79   3 2.81  21 2.83
                             6 2.84
   5  0.444  0.223  0.160-  32 2.77  29 2.77  33 2.77   2 2.77  20 2.77  23 2.77   8 2.77  17 2.77
                            14 2.77   6 2.79  15 2.80   3 2.81
   6  0.554  0.111  0.298-  21 2.76   3 2.77  24 2.77  15 2.77  18 2.77   9 2.78  23 2.78  16 2.78
                             5 2.79   7 2.79   8 2.79   4 2.84
   7  0.665  0.999  0.436-  22 2.76  10 2.77  25 2.77  16 2.77   4 2.77   1 2.78   9 2.78  24 2.78
                             6 2.79
   8  0.778  0.223  0.160-  33 2.77  31 2.77  30 2.77   2 2.77  26 2.77  23 2.77  11 2.77   5 2.77
                            17 2.77  18 2.78   6 2.79   9 2.80
   9  0.889  0.112  0.299-  27 2.76  12 2.76  18 2.76   3 2.77  24 2.78   6 2.78   7 2.78  26 2.80
                             2 2.80   8 2.80  10 2.82   1 2.83
  10  0.997  0.333  0.440-  13 2.75  16 2.76  19 2.76   7 2.77  22 2.78   1 2.78   9 2.82  12 2.82
                            18 2.83
  11  0.111  0.557  0.160-  34 2.77  35 2.77  31 2.77  14 2.77  17 2.77  23 2.77  20 2.77   8 2.77
                             2 2.77  18 2.79  21 2.79  12 2.81
  12  0.221  0.444  0.300-  15 2.75   3 2.75   9 2.76  24 2.77  18 2.77  21 2.78  22 2.79   2 2.80
                            14 2.81  11 2.81  10 2.82  13 2.95
  13  0.329  0.333  0.451-  38 2.44  10 2.75  22 2.76   1 2.77   4 2.79  25 2.79  16 2.81  12 2.95
                             3 2.95  15 2.97
  14  0.444  0.557  0.160-  35 2.77  36 2.77  32 2.77  11 2.77  23 2.77  26 2.77   2 2.77  17 2.77
                             5 2.77  24 2.78  15 2.80  12 2.81
  15  0.552  0.443  0.300-   3 2.74  12 2.75  25 2.77  16 2.77  24 2.77   6 2.77  18 2.79  27 2.79
                             5 2.80  14 2.80  17 2.82  13 2.97
  16  0.665  0.333  0.436-  10 2.76  19 2.77   4 2.77  25 2.77  15 2.77   7 2.77   6 2.78  18 2.79
                            13 2.81
  17  0.778  0.557  0.160-  36 2.77  34 2.77  33 2.77  11 2.77  26 2.77  20 2.77  14 2.77   8 2.77
                             5 2.77  27 2.78  18 2.79  15 2.82
  18  0.888  0.444  0.298-   9 2.76  12 2.77   6 2.77  19 2.78  21 2.78   8 2.78  27 2.78  16 2.79
                            11 2.79  15 2.79  17 2.79  10 2.83
  19  0.998  0.665  0.436-  25 2.76   1 2.76  10 2.76  16 2.77  18 2.78   4 2.78  22 2.78  21 2.78
                            27 2.79
  20  0.111  0.890  0.160-  29 2.77  28 2.77  34 2.77  23 2.77  26 2.77  11 2.77  17 2.77   5 2.77
                             2 2.77  27 2.79  21 2.79   3 2.82
  21  0.222  0.779  0.299-   6 2.76  24 2.76  27 2.78  12 2.78  18 2.78   3 2.78  19 2.78  11 2.79
                            23 2.79  20 2.79  22 2.81   4 2.83
  22  0.333  0.667  0.438-  13 2.76   7 2.76  25 2.77   4 2.78  19 2.78  10 2.78  12 2.79  21 2.81
                            24 2.81
  23  0.444  0.890  0.160-  29 2.77  35 2.77  30 2.77  20 2.77  11 2.77  14 2.77   5 2.77   8 2.77
                            26 2.77   6 2.78  24 2.78  21 2.79
  24  0.554  0.778  0.298-  21 2.76   6 2.77  12 2.77  15 2.77  27 2.77   9 2.78  14 2.78  23 2.78
                             7 2.78  26 2.79  25 2.79  22 2.81
  25  0.666  0.666  0.436-  19 2.76   1 2.77  16 2.77  22 2.77  15 2.77   7 2.77  27 2.79  24 2.79
                            13 2.79
  26  0.778  0.890  0.160-  28 2.77  30 2.77  36 2.77  20 2.77  17 2.77   8 2.77   2 2.77  14 2.77
                            23 2.77  27 2.78  24 2.79   9 2.80
  27  0.888  0.779  0.298-   9 2.76  24 2.77  21 2.78   3 2.78  26 2.78  18 2.78  17 2.78  19 2.79
                            20 2.79  25 2.79  15 2.79   1 2.83
  28  1.000  0.001  0.023-  26 2.77  20 2.77   2 2.77  30 2.77  29 2.77  31 2.77  32 2.77  36 2.77
                            34 2.77
  29  0.333  0.001  0.023-  20 2.77  23 2.77   5 2.77  28 2.77  32 2.77  34 2.77  35 2.77  33 2.77
                            30 2.77
  30  0.666  0.001  0.023-  26 2.77   8 2.77  23 2.77  28 2.77  31 2.77  33 2.77  36 2.77  35 2.77
                            29 2.77
  31  1.000  0.334  0.023-   2 2.77   8 2.77  11 2.77  33 2.77  32 2.77  28 2.77  30 2.77  35 2.77
                            34 2.77
  32  0.333  0.334  0.023-   5 2.77   2 2.77  14 2.77  31 2.77  29 2.77  28 2.77  33 2.77  35 2.77
                            36 2.77
  33  0.666  0.334  0.023-   8 2.77   5 2.77  17 2.77  31 2.77  30 2.77  29 2.77  34 2.77  32 2.77
                            36 2.77
  34  1.000  0.668  0.023-  11 2.77  17 2.77  20 2.77  36 2.77  35 2.77  28 2.77  29 2.77  33 2.77
                            31 2.77
  35  0.333  0.668  0.023-  14 2.77  11 2.77  23 2.77  34 2.77  29 2.77  30 2.77  31 2.77  36 2.77
                            32 2.77
  36  0.666  0.668  0.023-  17 2.77  26 2.77  14 2.77  34 2.77  28 2.77  30 2.77  35 2.77  32 2.77
                            33 2.77
  37  0.227  0.143  0.601-  39 1.21  38 1.51
  38  0.236  0.328  0.591-  37 1.51  13 2.44
  39  0.215  0.034  0.653-  37 1.21
 

IMPORTANT INFORMATION: All symmetrisations will be switched off!
NOSYMM: (Re-)initialisation of all symmetry stuff for point group C_1.


----------------------------------------------------------------------------------------

                                     Primitive cell                                     

  volume of cell :     988.1533

  direct lattice vectors                    reciprocal lattice vectors
     8.309900284  0.000000000  0.000000000     0.120338387  0.069477400  0.000000000
    -4.154950142  7.196584749  0.000000000     0.000000000  0.138954801  0.000000000
     0.000000000  0.000000000 16.523500443     0.000000000  0.000000000  0.060519864

  length of vectors
     8.309900284  8.309900284 16.523500443     0.138954801  0.138954801  0.060519864

  position of ions in fractional coordinates (direct lattice)
     0.999050123  0.998440990  0.440084413
     0.110930000  0.223300000  0.160240000
     0.222140392  0.113092783  0.300394812
     0.331692725  0.000229360  0.440050653
     0.444260000  0.223300000  0.160240000
     0.553797936  0.110808544  0.298342919
     0.665120016  0.999370300  0.436370918
     0.777600000  0.223300000  0.160240000
     0.888559643  0.111583160  0.299153826
     0.997362073  0.332646709  0.439996727
     0.110930000  0.556640000  0.160240000
     0.221422130  0.443978947  0.299803133
     0.328583722  0.333484583  0.450956897
     0.444260000  0.556640000  0.160240000
     0.551877721  0.443360251  0.299830935
     0.664933803  0.332799025  0.436182456
     0.777600000  0.556640000  0.160240000
     0.888025714  0.443964375  0.298411975
     0.997861902  0.665472951  0.435934759
     0.110930000  0.889970000  0.160240000
     0.222096125  0.778531118  0.298839530
     0.332962083  0.666722885  0.438192718
     0.444260000  0.889970000  0.160240000
     0.554121713  0.777788734  0.298202863
     0.665822732  0.666313901  0.436331741
     0.777600000  0.889970000  0.160240000
     0.888130463  0.778835474  0.298188142
     0.999820000  0.001080000  0.023370000
     0.333150000  0.001080000  0.023370000
     0.666490000  0.001080000  0.023370000
     0.999820000  0.334410000  0.023370000
     0.333150000  0.334410000  0.023370000
     0.666490000  0.334410000  0.023370000
     0.999820000  0.667750000  0.023370000
     0.333150000  0.667750000  0.023370000
     0.666490000  0.667750000  0.023370000
     0.227007513  0.142762209  0.601313235
     0.236467133  0.328248926  0.591360643
     0.214607991  0.033784226  0.653286576

  ion indices of the primitive-cell ions
   primitive index   ion index
                 1           1
                 2           2
                 3           3
                 4           4
                 5           5
                 6           6
                 7           7
                 8           8
                 9           9
                10          10
                11          11
                12          12
                13          13
                14          14
                15          15
                16          16
                17          17
                18          18
                19          19
                20          20
                21          21
                22          22
                23          23
                24          24
                25          25
                26          26
                27          27
                28          28
                29          29
                30          30
                31          31
                32          32
                33          33
                34          34
                35          35
                36          36
                37          37
                38          38
                39          39

----------------------------------------------------------------------------------------

 
 
 KPOINTS: Automatic mesh                          

Automatic generation of k-mesh.
 Grid dimensions read from file:
 generate k-points for:    4    4    1

 Generating k-lattice:

  Cartesian coordinates                     Fractional coordinates (reciprocal lattice)
     0.030084597  0.017369350  0.000000000     0.250000000  0.000000000  0.000000000
     0.000000000  0.034738700  0.000000000     0.000000000  0.250000000  0.000000000
     0.000000000  0.000000000  0.060519864     0.000000000  0.000000000  1.000000000

  Length of vectors
     0.034738700  0.034738700  0.060519864

  Shift w.r.t. Gamma in fractional coordinates (k-lattice)
     0.500000000  0.500000000  0.000000000

 
 Subroutine IBZKPT returns following result:
 ===========================================
 
 Found     24 irreducible k-points:
 
 Following reciprocal coordinates:
            Coordinates               Weight
  0.125000  0.125000  0.000000      2.000000
 -0.125000  0.250000  0.000000      2.000000
 -0.250000  0.125000  0.000000      2.000000
  0.375000  0.125000  0.000000      2.000000
 -0.125000  0.500000  0.000000      2.000000
  0.500000  0.375000  0.000000      2.000000
 -0.375000  0.500000  0.000000      2.000000
  0.125000  0.375000  0.000000      2.000000
  0.500000 -0.125000  0.000000      2.000000
 -0.375000  0.125000  0.000000      2.000000
 -0.125000 -0.250000  0.000000      2.000000
  0.250000 -0.375000  0.000000      2.000000
  0.375000 -0.250000  0.000000      2.000000
  0.125000 -0.375000  0.000000      2.000000
 -0.250000 -0.125000  0.000000      2.000000
 -0.125000  0.125000  0.000000      2.000000
 -0.125000  0.000000  0.000000      2.000000
  0.000000 -0.125000  0.000000      2.000000
  0.375000  0.375000  0.000000      2.000000
 -0.375000 -0.250000  0.000000      2.000000
  0.250000  0.375000  0.000000      2.000000
 -0.375000  0.375000  0.000000      2.000000
 -0.375000  0.000000  0.000000      2.000000
  0.000000 -0.375000  0.000000      2.000000
 
 Following cartesian coordinates:
            Coordinates               Weight
  0.015042  0.026054  0.000000      2.000000
 -0.015042  0.026054  0.000000      2.000000
 -0.030085  0.000000  0.000000      2.000000
  0.045127  0.043423  0.000000      2.000000
 -0.015042  0.060793  0.000000      2.000000
  0.060169  0.086847  0.000000      2.000000
 -0.045127  0.043423  0.000000      2.000000
  0.015042  0.060793  0.000000      2.000000
  0.060169  0.017369  0.000000      2.000000
 -0.045127 -0.008685  0.000000      2.000000
 -0.015042 -0.043423  0.000000      2.000000
  0.030085 -0.034739  0.000000      2.000000
  0.045127 -0.008685  0.000000      2.000000
  0.015042 -0.043423  0.000000      2.000000
 -0.030085 -0.034739  0.000000      2.000000
 -0.015042  0.008685  0.000000      2.000000
 -0.015042 -0.008685  0.000000      2.000000
  0.000000 -0.017369  0.000000      2.000000
  0.045127  0.078162  0.000000      2.000000
 -0.045127 -0.060793  0.000000      2.000000
  0.030085  0.069477  0.000000      2.000000
 -0.045127  0.026054  0.000000      2.000000
 -0.045127 -0.026054  0.000000      2.000000
  0.000000 -0.052108  0.000000      2.000000
 


--------------------------------------------------------------------------------------------------------




 Dimension of arrays:
   k-points           NKPTS =     24   k-points in BZ     NKDIM =     24   number of bands    NBANDS=    228
   number of dos      NEDOS =    301   number of ions     NIONS =     39
   non local maximal  LDIM  =      6   non local SUM 2l+1 LMDIM =     18
   total plane-waves  NPLWV = 128000
   max r-space proj   IRMAX =   1966   max aug-charges    IRDMAX=   6482
   dimension x,y,z NGX =    40 NGY =   40 NGZ =   80
   dimension x,y,z NGXF=    80 NGYF=   80 NGZF=  160
   support grid    NGXF=    80 NGYF=   80 NGZF=  160
   ions per type =              36   1   2
   NGX,Y,Z   is equivalent  to a cutoff of   8.00,  8.00,  8.05 a.u.
   NGXF,Y,Z  is equivalent  to a cutoff of  16.00, 16.00, 16.10 a.u.

 SYSTEM =  PBE-grap                                
 POSCAR =  Pd  C  O                                

 Startparameter for this run:
   NWRITE =      0    write-flag & timer
   PREC   = normal    normal or accurate (medium, high low for compatibility)
   ISTART =      0    job   : 0-new  1-cont  2-samecut
   ICHARG =      2    charge: 1-file 2-atom 10-const
   ISPIN  =      1    spin polarized calculation?
   LNONCOLLINEAR =      F non collinear calculations
   LSORBIT =      F    spin-orbit coupling
   INIWAV =      1    electr: 0-lowe 1-rand  2-diag
   LASPH  =      F    aspherical Exc in radial PAW
 Electronic Relaxation 1
   ENCUT  =  370.0 eV  27.19 Ry    5.21 a.u.  13.03 13.03 25.92*2*pi/ulx,y,z
   ENINI  =  370.0     initial cutoff
   ENAUG  =  644.9 eV  augmentation charge cutoff
   NELM   =    150;   NELMIN=  4; NELMDL= -5     # of ELM steps 
   EDIFF  = 0.1E-04   stopping-criterion for ELM
   LREAL  =      T    real-space projection
   NLSPLINE    = F    spline interpolate recip. space projectors
   LCOMPAT=      F    compatible to vasp.4.4
   GGA_COMPAT  = T    GGA compatible to vasp.4.4-vasp.4.6
   LMAXPAW     = -100 max onsite density
   LMAXMIX     =    2 max onsite mixed and CHGCAR
   VOSKOWN=      0    Vosko Wilk Nusair interpolation
   ROPT   =   -0.00050  -0.00050  -0.00050
 Ionic relaxation
   EDIFFG = -.3E-01   stopping-criterion for IOM
   NSW    =   1000    number of steps for IOM
   NBLOCK =      1;   KBLOCK =   1000    inner block; outer block 
   IBRION =      3    ionic relax: 0-MD 1-quasi-New 2-CG
   NFREE  =      0    steps in history (QN), initial steepest desc. (CG)
   ISIF   =      2    stress and relaxation
   IWAVPR =     11    prediction:  0-non 1-charg 2-wave 3-comb
   ISYM   =      0    0-nonsym 1-usesym 2-fastsym
   LCORR  =      T    Harris-Foulkes like correction to forces

   POTIM  = 0.0000    time-step for ionic-motion
   TEIN   =    0.0    initial temperature
   TEBEG  =    0.0;   TEEND  =   0.0 temperature during run
   SMASS  =  -3.00    Nose mass-parameter (am)
   estimated Nose-frequenzy (Omega)   =  0.10E-29 period in steps = 0.00E+00 mass=  -0.158E-26a.u.
   SCALEE = 1.0000    scale energy and forces
   NPACO  =    256;   APACO  = 10.0  distance and # of slots for P.C.
   PSTRESS=    0.0 pullay stress

  Mass of Ions in am
   POMASS = 106.42 12.01 16.00
  Ionic Valenz
   ZVAL   =  10.00  4.00  6.00
  Atomic Wigner-Seitz radii
   RWIGS  =  -1.00 -1.00 -1.00
  virtual crystal weights 
   VCA    =   1.00  1.00  1.00
   NELECT =     376.0000    total number of electrons
   NUPDOWN=      -1.0000    fix difference up-down

 DOS related values:
   EMIN   =  10.00;   EMAX   =-10.00  energy-range for DOS
   EFERMI =   0.00;   METHOD = LEGACY      
   ISMEAR =     0;   SIGMA  =   0.41  broadening in eV -4-tet -1-fermi 0-gaus
   EFERMI_NEDOS =   21; number of points for ismear=-14 and -15

 Electronic relaxation 2 (details)
   IALGO  =     38    algorithm
   LDIAG  =      T    sub-space diagonalisation (order eigenvalues)
   LSUBROT=      F    optimize rotation matrix (better conditioning)
   LROBUST=      F    robust break criterion during scf (extrapolated energy error)
   ISEARCH=      0    line search for conjugate gradient (0, 1=use gradient)
   TURBO    =      0    0=normal 1=particle mesh
   IRESTART =      0    0=no restart 2=restart with 2 vectors
   NREBOOT  =      0    no. of reboots
   NMIN     =      0    reboot dimension
   EREF     =   0.00    reference energy to select bands
   IMIX   =      4    mixing-type and parameters
     AMIX     =   0.40;   BMIX     =  1.00
     AMIX_MAG =   1.60;   BMIX_MAG =  1.00
     AMIN     =   0.10
     WC   =   100.;   INIMIX=   1;  MIXPRE=   1;  MAXMIX= -45

 Intra band minimization:
   WEIMIN = 0.0010     energy-eigenvalue tresh-hold
   EBREAK =  0.11E-07  absolut break condition
   DEPER  =   0.30     relativ break condition  

   TIME   =   0.40     timestep for ELM

  volume/ion in A,a.u.               =      25.34       170.98
  Fermi-wavevector in a.u.,A,eV,Ry     =   1.186304  2.241790 19.147714  1.407317
  Thomas-Fermi vector in A             =   2.322480
 
 Write flags
   LWAVE        =      F    write WAVECAR
   LDOWNSAMPLE  =      F    k-point downsampling of WAVECAR
   LCHARG       =      F    write CHGCAR
   LVTOT        =      F    write LOCPOT, total local potential
   LVHAR        =      F    write LOCPOT, Hartree potential only
   WRT_POTENTIAL= false  ! write potential to hdf5 file
   LELF         =      F    write electronic localiz. function (ELF)
   LORBIT       =      0    0 simple, 1 ext, 2 COOP (PROOUT), +10 PAW based schemes


 Python interface
   PLUGINS active      =      F    recompile with -DPLUGINS to activate
 
 Dipole corrections
   LMONO      =      F    monopole corrections only (constant potential shift)
   LDIPOL     =      F    correct potential (dipole corrections)
   IDIPOL     =      0    1-x, 2-y, 3-z, 4-all directions 
   EPSILON    =  1.0000000 bulk dielectric constant
   LVACPOTAV  =      F  vacuum potentials using an averaging scheme for the charge density
   VACPOTFLAT =  0.1000000 required flatness to determine vacuum potential
 
Coulomb truncation method
  LTRUNCATE          =      F  Coulomb kernel truncation to be used

 
 Exchange correlation treatment:
   GGA     = PE    functional components
   XC_C    = 1    coefficients multiplying the functional components
   LIBXC   =     F    Libxc                    
   VOSKOWN =     0    Vosko Wilk Nusair interpolation
   LHFCALC =     F    Hartree Fock is set to
   LHFONE  =     F    Hartree Fock one center treatment
   AEXX    =    0.0000 exact exchange contribution

 Parameters of functionals:
   PE:
     No parameter
 
 Van der Waals corrections
   IVDW    =     0    specifies the selected vdW correction

 Linear response parameters
   LEPSILON=     F    determine dielectric tensor
   LRPA    =     F    only Hartree local field effects (RPA)
   LNABLA  =     F    use nabla operator in PAW spheres
   LVEL    =     F    velocity operator in full k-point grid
   CSHIFT  =0.1000    complex shift for real part using Kramers Kronig
   OMEGAMAX=  -1.0    maximum frequency
   DEG_THRESHOLD= 0.2000000E-02 threshold for treating states as degnerate
   RTIME   =   -0.100 relaxation time in fs
  (WPLASMAI=    0.000 imaginary part of plasma frequency in eV, 0.658/RTIME)
   DFIELD  = 0.0000000 0.0000000 0.0000000 field for delta impulse in time
 
  Optional k-point grid parameters
   LKPOINTS_OPT  =     F    use optional k-point grid
   KPOINTS_OPT_MODE=     1    mode for optional k-point grid
 
 Orbital magnetization related:
   ORBITALMAG=     F  switch on orbital magnetization
   LCHIMAG   =     F  perturbation theory with respect to B field
   DQ        =  0.001000  dq finite difference perturbation B field
   LLRAUG    =     F  two centre corrections for induced B field
   LBONE     =     F  B-component reconstruction in AE one-centre
   LVGVCALC  =     T  calculate vGv susceptibility
   LVGVAPPL  =     F  apply vGv susceptibility instead of pGv for G=0

 Random number generation:
   RANDOM_GENERATOR = DEFAULT
   PCG_SEED         = not used


--------------------------------------------------------------------------------------------------------


 quickmin algorithm: (dynamic with friction)
   using selective dynamics as specified on POSCAR
 charge density and potential will be updated during run
 non-spin polarized calculation
 Variant of blocked Davidson
 Davidson routine will perform the subspace rotation
 perform sub-space diagonalisation
    after iterative eigenvector-optimisation
 modified Broyden-mixing scheme, WC =      100.0
 initial mixing is a Kerker type mixing with AMIX =  0.4000 and BMIX =      1.0000
 Hartree-type preconditioning will be used
 using additional bands           40
 real space projection scheme for non local part
 use partial core corrections
 calculate Harris-corrections to forces 
   (improved forces if not selfconsistent)
 use gradient corrections 
 use of overlap-Matrix (Vanderbilt PP)
 Gauss-broadening in eV      SIGMA  =   0.41


--------------------------------------------------------------------------------------------------------


  energy-cutoff  :      370.00
  volume of cell :      988.15
      direct lattice vectors                 reciprocal lattice vectors
     8.309900284  0.000000000  0.000000000     0.120338387  0.069477400  0.000000000
    -4.154950142  7.196584749  0.000000000     0.000000000  0.138954801  0.000000000
     0.000000000  0.000000000 16.523500443     0.000000000  0.000000000  0.060519864

  length of vectors
     8.309900284  8.309900284 16.523500443     0.138954801  0.138954801  0.060519864


 
 k-points in units of 2pi/SCALE and weight: Automatic mesh                          
   0.01504230  0.02605403  0.00000000       0.042
  -0.01504230  0.02605403  0.00000000       0.042
  -0.03008460  0.00000000  0.00000000       0.042
   0.04512690  0.04342338  0.00000000       0.042
  -0.01504230  0.06079273  0.00000000       0.042
   0.06016919  0.08684675  0.00000000       0.042
  -0.04512690  0.04342338  0.00000000       0.042
   0.01504230  0.06079273  0.00000000       0.042
   0.06016919  0.01736935  0.00000000       0.042
  -0.04512690 -0.00868468  0.00000000       0.042
  -0.01504230 -0.04342338  0.00000000       0.042
   0.03008460 -0.03473870  0.00000000       0.042
   0.04512690 -0.00868468  0.00000000       0.042
   0.01504230 -0.04342338  0.00000000       0.042
  -0.03008460 -0.03473870  0.00000000       0.042
  -0.01504230  0.00868468  0.00000000       0.042
  -0.01504230 -0.00868468  0.00000000       0.042
   0.00000000 -0.01736935  0.00000000       0.042
   0.04512690  0.07816208  0.00000000       0.042
  -0.04512690 -0.06079273  0.00000000       0.042
   0.03008460  0.06947740  0.00000000       0.042
  -0.04512690  0.02605403  0.00000000       0.042
  -0.04512690 -0.02605403  0.00000000       0.042
   0.00000000 -0.05210805  0.00000000       0.042
 
 k-points in reciprocal lattice and weights: Automatic mesh                          
   0.12500000  0.12500000  0.00000000       0.042
  -0.12500000  0.25000000  0.00000000       0.042
  -0.25000000  0.12500000  0.00000000       0.042
   0.37500000  0.12500000  0.00000000       0.042
  -0.12500000  0.50000000  0.00000000       0.042
   0.50000000  0.37500000  0.00000000       0.042
  -0.37500000  0.50000000  0.00000000       0.042
   0.12500000  0.37500000  0.00000000       0.042
   0.50000000 -0.12500000  0.00000000       0.042
  -0.37500000  0.12500000  0.00000000       0.042
  -0.12500000 -0.25000000  0.00000000       0.042
   0.25000000 -0.37500000  0.00000000       0.042
   0.37500000 -0.25000000  0.00000000       0.042
   0.12500000 -0.37500000  0.00000000       0.042
  -0.25000000 -0.12500000  0.00000000       0.042
  -0.12500000  0.12500000  0.00000000       0.042
  -0.12500000  0.00000000  0.00000000       0.042
   0.00000000 -0.12500000  0.00000000       0.042
   0.37500000  0.37500000  0.00000000       0.042
  -0.37500000 -0.25000000  0.00000000       0.042
   0.25000000  0.37500000  0.00000000       0.042
  -0.37500000  0.37500000  0.00000000       0.042
  -0.37500000  0.00000000  0.00000000       0.042
   0.00000000 -0.37500000  0.00000000       0.042
 
 position of ions in fractional coordinates (direct lattice) 
   0.99905012  0.99844099  0.44008441
   0.11093000  0.22330000  0.16024000
   0.22214039  0.11309278  0.30039481
   0.33169273  0.00022936  0.44005065
   0.44426000  0.22330000  0.16024000
   0.55379794  0.11080854  0.29834292
   0.66512002  0.99937030  0.43637092
   0.77760000  0.22330000  0.16024000
   0.88855964  0.11158316  0.29915383
   0.99736207  0.33264671  0.43999673
   0.11093000  0.55664000  0.16024000
   0.22142213  0.44397895  0.29980313
   0.32858372  0.33348458  0.45095690
   0.44426000  0.55664000  0.16024000
   0.55187772  0.44336025  0.29983094
   0.66493380  0.33279903  0.43618246
   0.77760000  0.55664000  0.16024000
   0.88802571  0.44396438  0.29841197
   0.99786190  0.66547295  0.43593476
   0.11093000  0.88997000  0.16024000
   0.22209612  0.77853112  0.29883953
   0.33296208  0.66672288  0.43819272
   0.44426000  0.88997000  0.16024000
   0.55412171  0.77778873  0.29820286
   0.66582273  0.66631390  0.43633174
   0.77760000  0.88997000  0.16024000
   0.88813046  0.77883547  0.29818814
   0.99982000  0.00108000  0.02337000
   0.33315000  0.00108000  0.02337000
   0.66649000  0.00108000  0.02337000
   0.99982000  0.33441000  0.02337000
   0.33315000  0.33441000  0.02337000
   0.66649000  0.33441000  0.02337000
   0.99982000  0.66775000  0.02337000
   0.33315000  0.66775000  0.02337000
   0.66649000  0.66775000  0.02337000
   0.22700751  0.14276221  0.60131324
   0.23646713  0.32824893  0.59136064
   0.21460799  0.03378423  0.65328658
 
 position of ions in cartesian coordinates  (Angst):
   4.15353437  7.18536520  7.27173499
  -0.00598313  1.60699737  2.64772571
   1.37606963  0.81388180  4.96357381
   2.75538049  0.00165061  7.27117716
   2.76395593  1.60699737  2.64772571
   4.14160165  0.79744308  4.92966936
   1.37474724  7.19205306  7.21037505
   5.53397809  1.60699737  2.64772571
   6.92021957  0.80301767  4.94306838
   6.90584888  2.39392024  7.27028611
  -1.39099421  4.00590693  2.64772571
  -0.00471457  3.19513212  4.95379719
   1.34488615  2.39995006  7.45138649
   1.37894485  4.00590693  2.64772571
   2.74390910  3.19067962  4.95425659
   4.14277024  2.39501639  7.20726100
   4.14896701  4.00590693  2.64772571
   5.53475529  3.19502725  4.93081039
   5.52712597  4.78913249  7.20316818
  -2.77596374  6.40474453  2.64772571
  -1.38916133  5.60276517  4.93787511
  -0.00331863  4.79812774  7.24047758
  -0.00602468  6.40474453  2.64772571
   1.37302277  5.59742254  4.92735515
   2.76441947  4.79518446  7.20972772
   2.76399748  6.40474453  2.64772571
   4.14425302  5.60495550  4.92711189
   8.30391716  0.00777231  0.38615421
   2.76395593  0.00777231  0.38615421
   5.53397809  0.00777231  0.38615421
   6.91894762  2.40660991  0.38615421
   1.37898640  2.40660991  0.38615421
   4.14900856  2.40660991  0.38615421
   5.53393654  4.80551947  0.38615421
  -0.00602468  4.80551947  0.38615421
   2.76399748  4.80551947  0.38615421
   1.29323993  1.02740034  9.93579951
   0.60116037  2.36227122  9.77134784
   1.64299923  0.24313105 10.79458103
 


--------------------------------------------------------------------------------------------------------


 k-point     1 :   0.1250 0.1250 0.0000  plane waves:   15951
 k-point     2 :  -0.1250 0.2500 0.0000  plane waves:   15951
 k-point     3 :  -0.2500 0.1250 0.0000  plane waves:   15951
 k-point     4 :   0.3750 0.1250 0.0000  plane waves:   15982
 k-point     5 :  -0.1250 0.5000 0.0000  plane waves:   15982
 k-point     6 :   0.5000 0.3750 0.0000  plane waves:   15982
 k-point     7 :  -0.3750 0.5000 0.0000  plane waves:   15982
 k-point     8 :   0.1250 0.3750 0.0000  plane waves:   15982
 k-point     9 :   0.5000-0.1250 0.0000  plane waves:   15982
 k-point    10 :  -0.3750 0.1250 0.0000  plane waves:   15967
 k-point    11 :  -0.1250-0.2500 0.0000  plane waves:   15967
 k-point    12 :   0.2500-0.3750 0.0000  plane waves:   15967
 k-point    13 :   0.3750-0.2500 0.0000  plane waves:   15967
 k-point    14 :   0.1250-0.3750 0.0000  plane waves:   15967
 k-point    15 :  -0.2500-0.1250 0.0000  plane waves:   15967
 k-point    16 :  -0.1250 0.1250 0.0000  plane waves:   15947
 k-point    17 :  -0.1250 0.0000 0.0000  plane waves:   15947
 k-point    18 :   0.0000-0.1250 0.0000  plane waves:   15947
 k-point    19 :   0.3750 0.3750 0.0000  plane waves:   16001
 k-point    20 :  -0.3750-0.2500 0.0000  plane waves:   16001
 k-point    21 :   0.2500 0.3750 0.0000  plane waves:   16001
 k-point    22 :  -0.3750 0.3750 0.0000  plane waves:   15956
 k-point    23 :  -0.3750 0.0000 0.0000  plane waves:   15956
 k-point    24 :   0.0000-0.3750 0.0000  plane waves:   15956

 maximum and minimum number of plane-waves per node :      2691     2615

 maximum number of plane-waves:     16001
 maximum index in each direction: 
   IXMAX=   13   IYMAX=   13   IZMAX=   25
   IXMIN=  -13   IYMIN=  -13   IZMIN=  -25


 real space projection operators:
  total allocation   :       9691.67 KBytes
  max/ min on nodes  :       1709.20       1433.30


 parallel 3D FFT for wavefunctions:
    minimum data exchange during FFTs selected (reduces bandwidth)
 parallel 3D FFT for charge:
    minimum data exchange during FFTs selected (reduces bandwidth)


 total amount of memory used by VASP MPI-rank0   101481. kBytes
=======================================================================

   base                                    :      30000. kBytes
   nonlr-proj                              :       3354. kBytes
   fftplans                                :       2350. kBytes
   grid                                    :       4208. kBytes
   one-center                              :        108. kBytes
   wavefun                                 :      61461. kBytes
 
     INWAV:  cpu time      0.0000: real time      0.0000
 Broyden mixing: mesh for mixing (old mesh)
   NGX = 27   NGY = 27   NGZ = 51
  (NGX  = 80   NGY  = 80   NGZ  =160)
  gives a total of  37179 points

 initial charge density was supplied:
 charge density of overlapping atoms calculated
 number of electron     376.0000000 magnetization 
 keeping initial charge density in first step


--------------------------------------------------------------------------------------------------------


 Maximum index for non-local projection operator          382
 Maximum index for augmentation-charges          591 (set IRDMAX)


--------------------------------------------------------------------------------------------------------


 First call to EWALD:  gamma=   0.178
 Maximum number of real-space cells   4x   4x   2
 Maximum number of reciprocal cells   2x   2x   4

    FEWALD:  cpu time      0.0073: real time      0.0097


--------------------------------------- Ionic step        1  -------------------------------------------




--------------------------------------- Iteration      1(   1)  ---------------------------------------


    POTLOK:  cpu time      0.0554: real time      0.0566
    SETDIJ:  cpu time      0.0186: real time      0.0197
     EDDAV:  cpu time     14.8235: real time     14.9862
       DOS:  cpu time      0.0363: real time      0.0365
    --------------------------------------------
      LOOP:  cpu time     14.9338: real time     15.0990

 eigenvalue-minimisations  : 10968
 total energy-change (2. order) : 0.2094607E+04  (-0.1520964E+05)
 number of electron     376.0000000 magnetization 
 augmentation part      376.0000000 magnetization 

 Free energy of the ion-electron system (eV)
  ---------------------------------------------------
  alpha Z        PSCENC =       918.22725072
  Ewald energy   TEWEN  =     21325.36000037
  -Hartree energ DENC   =    -53988.56298277
  -exchange      EXHF   =         0.00000000
  -V(xc)+E(xc)   XCENC  =      -994.44561587
  PAW double counting   =     29844.20032359   -27608.36462881
  entropy T*S    EENTRO =        -1.24112426
  eigenvalues    EBANDS =      2437.57018040
  atomic energy  EATOM  =     30161.86332653
  Solvation  Ediel_sol  =         0.00000000
  ---------------------------------------------------
  free energy    TOTEN  =      2094.60672991 eV

  energy without entropy =     2095.84785417  energy(sigma->0) =     2095.22729204


--------------------------------------------------------------------------------------------------------




--------------------------------------- Iteration      1(   2)  ---------------------------------------


     EDDAV:  cpu time     15.8964: real time     16.0008
       DOS:  cpu time      0.0375: real time      0.0377
    --------------------------------------------
      LOOP:  cpu time     15.9340: real time     16.0385

 eigenvalue-minimisations  : 11912
 total energy-change (2. order) :-0.2187302E+04  (-0.2058508E+04)
 number of electron     376.0000000 magnetization 
 augmentation part      376.0000000 magnetization 

 Free energy of the ion-electron system (eV)
  ---------------------------------------------------
  alpha Z        PSCENC =       918.22725072
  Ewald energy   TEWEN  =     21325.36000037
  -Hartree energ DENC   =    -53988.56298277
  -exchange      EXHF   =         0.00000000
  -V(xc)+E(xc)   XCENC  =      -994.44561587
  PAW double counting   =     29844.20032359   -27608.36462881
  entropy T*S    EENTRO =        -3.50086104
  eigenvalues    EBANDS =       252.52770467
  atomic energy  EATOM  =     30161.86332653
  Solvation  Ediel_sol  =         0.00000000
  ---------------------------------------------------
  free energy    TOTEN  =       -92.69548261 eV

  energy without entropy =      -89.19462157  energy(sigma->0) =      -90.94505209


--------------------------------------------------------------------------------------------------------




--------------------------------------- Iteration      1(   3)  ---------------------------------------


     EDDAV:  cpu time     16.8798: real time     16.9838
       DOS:  cpu time      0.0323: real time      0.0324
    --------------------------------------------
      LOOP:  cpu time     16.9120: real time     17.0162

 eigenvalue-minimisations  : 12464
 total energy-change (2. order) :-0.1152352E+03  (-0.1043966E+03)
 number of electron     376.0000000 magnetization 
 augmentation part      376.0000000 magnetization 

 Free energy of the ion-electron system (eV)
  ---------------------------------------------------
  alpha Z        PSCENC =       918.22725072
  Ewald energy   TEWEN  =     21325.36000037
  -Hartree energ DENC   =    -53988.56298277
  -exchange      EXHF   =         0.00000000
  -V(xc)+E(xc)   XCENC  =      -994.44561587
  PAW double counting   =     29844.20032359   -27608.36462881
  entropy T*S    EENTRO =        -5.35856793
  eigenvalues    EBANDS =       139.15019764
  atomic energy  EATOM  =     30161.86332653
  Solvation  Ediel_sol  =         0.00000000
  ---------------------------------------------------
  free energy    TOTEN  =      -207.93069653 eV

  energy without entropy =     -202.57212860  energy(sigma->0) =     -205.25141256


--------------------------------------------------------------------------------------------------------




--------------------------------------- Iteration      1(   4)  ---------------------------------------


     EDDAV:  cpu time     17.1407: real time     17.2476
       DOS:  cpu time      0.0323: real time      0.0324
    --------------------------------------------
      LOOP:  cpu time     17.1730: real time     17.2800

 eigenvalue-minimisations  : 12644
 total energy-change (2. order) :-0.3755346E+01  (-0.3651345E+01)
 number of electron     376.0000000 magnetization 
 augmentation part      376.0000000 magnetization 

 Free energy of the ion-electron system (eV)
  ---------------------------------------------------
  alpha Z        PSCENC =       918.22725072
  Ewald energy   TEWEN  =     21325.36000037
  -Hartree energ DENC   =    -53988.56298277
  -exchange      EXHF   =         0.00000000
  -V(xc)+E(xc)   XCENC  =      -994.44561587
  PAW double counting   =     29844.20032359   -27608.36462881
  entropy T*S    EENTRO =        -5.45356365
  eigenvalues    EBANDS =       135.48984695
  atomic energy  EATOM  =     30161.86332653
  Solvation  Ediel_sol  =         0.00000000
  ---------------------------------------------------
  free energy    TOTEN  =      -211.68604294 eV

  energy without entropy =     -206.23247929  energy(sigma->0) =     -208.95926111


--------------------------------------------------------------------------------------------------------




--------------------------------------- Iteration      1(   5)  ---------------------------------------


     EDDAV:  cpu time     18.2706: real time     18.3854
       DOS:  cpu time      0.0311: real time      0.0312
    CHARGE:  cpu time      0.2712: real time      0.2742
    MIXING:  cpu time      0.0876: real time      0.0889
    --------------------------------------------
      LOOP:  cpu time     18.6605: real time     18.7797

 eigenvalue-minimisations  : 13788
 total energy-change (2. order) :-0.1275861E+00  (-0.1273813E+00)
 number of electron     376.0000080 magnetization 
 augmentation part      146.4748439 magnetization 

 Broyden mixing:
  rms(total) = 0.39381E+01    rms(broyden)= 0.39372E+01
  rms(prec ) = 0.41042E+01
  weight for this iteration     100.00

 Free energy of the ion-electron system (eV)
  ---------------------------------------------------
  alpha Z        PSCENC =       918.22725072
  Ewald energy   TEWEN  =     21325.36000037
  -Hartree energ DENC   =    -53988.56298277
  -exchange      EXHF   =         0.00000000
  -V(xc)+E(xc)   XCENC  =      -994.44561587
  PAW double counting   =     29844.20032359   -27608.36462881
  entropy T*S    EENTRO =        -5.45571649
  eigenvalues    EBANDS =       135.36441373
  atomic energy  EATOM  =     30161.86332653
  Solvation  Ediel_sol  =         0.00000000
  ---------------------------------------------------
  free energy    TOTEN  =      -211.81362900 eV

  energy without entropy =     -206.35791250  energy(sigma->0) =     -209.08577075


--------------------------------------------------------------------------------------------------------




--------------------------------------- Iteration      1(   6)  ---------------------------------------


    POTLOK:  cpu time      0.0538: real time      0.0567
    SETDIJ:  cpu time      0.0198: real time      0.0199
     EDDAV:  cpu time     17.1107: real time     17.2200
       DOS:  cpu time      0.0327: real time      0.0329
    CHARGE:  cpu time      0.2729: real time      0.2741
    MIXING:  cpu time      0.0880: real time      0.0910
    --------------------------------------------
      LOOP:  cpu time     17.5780: real time     17.6946

 eigenvalue-minimisations  : 12768
 total energy-change (2. order) : 0.8554583E+01  (-0.3735691E+01)
 number of electron     376.0000085 magnetization 
 augmentation part      153.1327695 magnetization 

 Broyden mixing:
  rms(total) = 0.21882E+01    rms(broyden)= 0.21873E+01
  rms(prec ) = 0.23302E+01
  weight for this iteration     100.00

 eigenvalues of (default mixing * dielectric matrix)
  average eigenvalue GAMMA=   1.1774
  1.1774

 Free energy of the ion-electron system (eV)
  ---------------------------------------------------
  alpha Z        PSCENC =       918.22725072
  Ewald energy   TEWEN  =     21325.36000037
  -Hartree energ DENC   =    -53779.51720926
  -exchange      EXHF   =         0.00000000
  -V(xc)+E(xc)   XCENC  =     -1000.14569716
  PAW double counting   =     31882.56884472   -29690.46809609
  entropy T*S    EENTRO =        -5.16135964
  eigenvalues    EBANDS =       -15.98610647
  atomic energy  EATOM  =     30161.86332653
  Solvation  Ediel_sol  =         0.00000000
  ---------------------------------------------------
  free energy    TOTEN  =      -203.25904629 eV

  energy without entropy =     -198.09768664  energy(sigma->0) =     -200.67836646


--------------------------------------------------------------------------------------------------------




--------------------------------------- Iteration      1(   7)  ---------------------------------------


    POTLOK:  cpu time      0.0533: real time      0.0535
    SETDIJ:  cpu time      0.0243: real time      0.0243
     EDDAV:  cpu time     20.1575: real time     20.2892
       DOS:  cpu time      0.0335: real time      0.0336
    CHARGE:  cpu time      0.2745: real time      0.2756
    MIXING:  cpu time      0.0880: real time      0.0894
    --------------------------------------------
      LOOP:  cpu time     20.6310: real time     20.7658

 eigenvalue-minimisations  : 15856
 total energy-change (2. order) :-0.4449829E+01  (-0.1661307E+01)
 number of electron     376.0000071 magnetization 
 augmentation part      151.5213470 magnetization 

 Broyden mixing:
  rms(total) = 0.22517E+01    rms(broyden)= 0.22504E+01
  rms(prec ) = 0.37965E+01
  weight for this iteration     100.00

 eigenvalues of (default mixing * dielectric matrix)
  average eigenvalue GAMMA=   0.9702
  1.5283  0.4121

 Free energy of the ion-electron system (eV)
  ---------------------------------------------------
  alpha Z        PSCENC =       918.22725072
  Ewald energy   TEWEN  =     21325.36000037
  -Hartree energ DENC   =    -53868.94665388
  -exchange      EXHF   =         0.00000000
  -V(xc)+E(xc)   XCENC  =     -1001.56116217
  PAW double counting   =     33259.73858498   -31082.33626764
  entropy T*S    EENTRO =        -4.83780286
  eigenvalues    EBANDS =        84.78384885
  atomic energy  EATOM  =     30161.86332653
  Solvation  Ediel_sol  =         0.00000000
  ---------------------------------------------------
  free energy    TOTEN  =      -207.70887510 eV

  energy without entropy =     -202.87107224  energy(sigma->0) =     -205.28997367


--------------------------------------------------------------------------------------------------------




--------------------------------------- Iteration      1(   8)  ---------------------------------------


    POTLOK:  cpu time      0.0542: real time      0.0554
    SETDIJ:  cpu time      0.0221: real time      0.0221
     EDDAV:  cpu time     17.2721: real time     17.3796
       DOS:  cpu time      0.0294: real time      0.0295
    CHARGE:  cpu time      0.2704: real time      0.2716
    MIXING:  cpu time      0.0884: real time      0.0886
    --------------------------------------------
      LOOP:  cpu time     17.7365: real time     17.8469

 eigenvalue-minimisations  : 13096
 total energy-change (2. order) :-0.6523870E+01  (-0.1918191E+01)
 number of electron     376.0000092 magnetization 
 augmentation part      151.5646047 magnetization 

 Broyden mixing:
  rms(total) = 0.29122E+01    rms(broyden)= 0.29118E+01
  rms(prec ) = 0.51209E+01
  weight for this iteration     100.00

 eigenvalues of (default mixing * dielectric matrix)
  average eigenvalue GAMMA=   0.8857
  1.9619  0.5679  0.1273

 Free energy of the ion-electron system (eV)
  ---------------------------------------------------
  alpha Z        PSCENC =       918.22725072
  Ewald energy   TEWEN  =     21325.36000037
  -Hartree energ DENC   =    -53862.33940601
  -exchange      EXHF   =         0.00000000
  -V(xc)+E(xc)   XCENC  =     -1001.58501587
  PAW double counting   =     33717.57135337   -31546.50989192
  entropy T*S    EENTRO =        -4.22148785
  eigenvalues    EBANDS =        77.40112571
  atomic energy  EATOM  =     30161.86332653
  Solvation  Ediel_sol  =         0.00000000
  ---------------------------------------------------
  free energy    TOTEN  =      -214.23274497 eV

  energy without entropy =     -210.01125712  energy(sigma->0) =     -212.12200104


--------------------------------------------------------------------------------------------------------




--------------------------------------- Iteration      1(   9)  ---------------------------------------


    POTLOK:  cpu time      0.0533: real time      0.0536
    SETDIJ:  cpu time      0.0154: real time      0.0155
     EDDAV:  cpu time     18.4618: real time     18.5794
       DOS:  cpu time      0.0319: real time      0.0320
    CHARGE:  cpu time      0.2914: real time      0.2927
    MIXING:  cpu time      0.0884: real time      0.0887
    --------------------------------------------
      LOOP:  cpu time     18.9423: real time     19.0619

 eigenvalue-minimisations  : 13920
 total energy-change (2. order) : 0.1113230E+02  (-0.1243051E+01)
 number of electron     376.0000084 magnetization 
 augmentation part      152.9041000 magnetization 

 Broyden mixing:
  rms(total) = 0.11275E+01    rms(broyden)= 0.11265E+01
  rms(prec ) = 0.16214E+01
  weight for this iteration     100.00

 eigenvalues of (default mixing * dielectric matrix)
  average eigenvalue GAMMA=   0.7989
  2.0754  0.6550  0.3329  0.1323

 Free energy of the ion-electron system (eV)
  ---------------------------------------------------
  alpha Z        PSCENC =       918.22725072
  Ewald energy   TEWEN  =     21325.36000037
  -Hartree energ DENC   =    -53846.71679101
  -exchange      EXHF   =         0.00000000
  -V(xc)+E(xc)   XCENC  =     -1001.67226318
  PAW double counting   =     34535.50090032   -32376.35839097
  entropy T*S    EENTRO =        -4.94722805
  eigenvalues    EBANDS =        85.64274587
  atomic energy  EATOM  =     30161.86332653
  Solvation  Ediel_sol  =         0.00000000
  ---------------------------------------------------
  free energy    TOTEN  =      -203.10044941 eV

  energy without entropy =     -198.15322136  energy(sigma->0) =     -200.62683539


--------------------------------------------------------------------------------------------------------




--------------------------------------- Iteration      1(  10)  ---------------------------------------


    POTLOK:  cpu time      0.0534: real time      0.0552
    SETDIJ:  cpu time      0.0176: real time      0.0177
     EDDAV:  cpu time     15.9706: real time     16.0699
       DOS:  cpu time      0.0363: real time      0.0364
    CHARGE:  cpu time      0.2874: real time      0.2886
    MIXING:  cpu time      0.0901: real time      0.0904
    --------------------------------------------
      LOOP:  cpu time     16.4554: real time     16.5582

 eigenvalue-minimisations  : 11740
 total energy-change (2. order) : 0.9495820E+00  (-0.5286817E+00)
 number of electron     376.0000086 magnetization 
 augmentation part      153.1722248 magnetization 

 Broyden mixing:
  rms(total) = 0.88488E+00    rms(broyden)= 0.88448E+00
  rms(prec ) = 0.11680E+01
  weight for this iteration     100.00

 eigenvalues of (default mixing * dielectric matrix)
  average eigenvalue GAMMA=   0.7858
  2.2832  0.8905  0.4466  0.1311  0.1775

 Free energy of the ion-electron system (eV)
  ---------------------------------------------------
  alpha Z        PSCENC =       918.22725072
  Ewald energy   TEWEN  =     21325.36000037
  -Hartree energ DENC   =    -53819.21293510
  -exchange      EXHF   =         0.00000000
  -V(xc)+E(xc)   XCENC  =     -1001.50479002
  PAW double counting   =     34710.62848932   -32552.87772199
  entropy T*S    EENTRO =        -5.10268242
  eigenvalues    EBANDS =        60.46819518
  atomic energy  EATOM  =     30161.86332653
  Solvation  Ediel_sol  =         0.00000000
  ---------------------------------------------------
  free energy    TOTEN  =      -202.15086741 eV

  energy without entropy =     -197.04818500  energy(sigma->0) =     -199.59952620


--------------------------------------------------------------------------------------------------------




--------------------------------------- Iteration      1(  11)  ---------------------------------------


    POTLOK:  cpu time      0.0530: real time      0.0532
    SETDIJ:  cpu time      0.0227: real time      0.0228
     EDDAV:  cpu time     16.0333: real time     16.1336
       DOS:  cpu time      0.0327: real time      0.0328
    CHARGE:  cpu time      0.2713: real time      0.2726
    MIXING:  cpu time      0.0888: real time      0.0890
    --------------------------------------------
      LOOP:  cpu time     16.5018: real time     16.6040

 eigenvalue-minimisations  : 11924
 total energy-change (2. order) : 0.4898954E+00  (-0.1586647E+00)
 number of electron     376.0000082 magnetization 
 augmentation part      152.8376252 magnetization 

 Broyden mixing:
  rms(total) = 0.41693E+00    rms(broyden)= 0.41676E+00
  rms(prec ) = 0.52516E+00
  weight for this iteration     100.00

 eigenvalues of (default mixing * dielectric matrix)
  average eigenvalue GAMMA=   0.7343
  2.3197  0.9572  0.3993  0.3993  0.1323  0.1981

 Free energy of the ion-electron system (eV)
  ---------------------------------------------------
  alpha Z        PSCENC =       918.22725072
  Ewald energy   TEWEN  =     21325.36000037
  -Hartree energ DENC   =    -53849.65582398
  -exchange      EXHF   =         0.00000000
  -V(xc)+E(xc)   XCENC  =     -1001.40005516
  PAW double counting   =     35074.16331557   -32919.07531227
  entropy T*S    EENTRO =        -5.21890175
  eigenvalues    EBANDS =        94.07522799
  atomic energy  EATOM  =     30161.86332653
  Solvation  Ediel_sol  =         0.00000000
  ---------------------------------------------------
  free energy    TOTEN  =      -201.66097199 eV

  energy without entropy =     -196.44207024  energy(sigma->0) =     -199.05152111


--------------------------------------------------------------------------------------------------------




--------------------------------------- Iteration      1(  12)  ---------------------------------------


    POTLOK:  cpu time      0.0540: real time      0.0552
    SETDIJ:  cpu time      0.0193: real time      0.0194
     EDDAV:  cpu time     15.3970: real time     15.4929
       DOS:  cpu time      0.0331: real time      0.0332
    CHARGE:  cpu time      0.2708: real time      0.2721
    MIXING:  cpu time      0.0894: real time      0.0896
    --------------------------------------------
      LOOP:  cpu time     15.8636: real time     15.9624

 eigenvalue-minimisations  : 11284
 total energy-change (2. order) : 0.1307004E+00  (-0.6035893E-01)
 number of electron     376.0000084 magnetization 
 augmentation part      152.7775456 magnetization 

 Broyden mixing:
  rms(total) = 0.28971E+00    rms(broyden)= 0.28964E+00
  rms(prec ) = 0.36368E+00
  weight for this iteration     100.00

 eigenvalues of (default mixing * dielectric matrix)
  average eigenvalue GAMMA=   0.7258
  2.3437  0.8928  0.6424  0.6424  0.2479  0.1321  0.1794

 Free energy of the ion-electron system (eV)
  ---------------------------------------------------
  alpha Z        PSCENC =       918.22725072
  Ewald energy   TEWEN  =     21325.36000037
  -Hartree energ DENC   =    -53850.62557611
  -exchange      EXHF   =         0.00000000
  -V(xc)+E(xc)   XCENC  =     -1001.35928878
  PAW double counting   =     35132.38417731   -32977.46019184
  entropy T*S    EENTRO =        -5.24313788
  eigenvalues    EBANDS =        95.32316806
  atomic energy  EATOM  =     30161.86332653
  Solvation  Ediel_sol  =         0.00000000
  ---------------------------------------------------
  free energy    TOTEN  =      -201.53027162 eV

  energy without entropy =     -196.28713375  energy(sigma->0) =     -198.90870268


--------------------------------------------------------------------------------------------------------




--------------------------------------- Iteration      1(  13)  ---------------------------------------


    POTLOK:  cpu time      0.0533: real time      0.0536
    SETDIJ:  cpu time      0.0282: real time      0.0284
     EDDAV:  cpu time     15.6261: real time     15.7249
       DOS:  cpu time      0.0314: real time      0.0315
    CHARGE:  cpu time      0.2697: real time      0.2710
    MIXING:  cpu time      0.0891: real time      0.0893
    --------------------------------------------
      LOOP:  cpu time     16.0978: real time     16.1987

 eigenvalue-minimisations  : 11480
 total energy-change (2. order) : 0.3627513E-01  (-0.2048954E-01)
 number of electron     376.0000083 magnetization 
 augmentation part      152.7259479 magnetization 

 Broyden mixing:
  rms(total) = 0.17798E+00    rms(broyden)= 0.17793E+00
  rms(prec ) = 0.21877E+00
  weight for this iteration     100.00

 eigenvalues of (default mixing * dielectric matrix)
  average eigenvalue GAMMA=   0.7302
  2.3478  1.0372  1.0372  0.5363  0.3247  0.1322  0.2427  0.1837

 Free energy of the ion-electron system (eV)
  ---------------------------------------------------
  alpha Z        PSCENC =       918.22725072
  Ewald energy   TEWEN  =     21325.36000037
  -Hartree energ DENC   =    -53856.71968483
  -exchange      EXHF   =         0.00000000
  -V(xc)+E(xc)   XCENC  =     -1001.36256465
  PAW double counting   =     35153.78263727   -32998.88898488
  entropy T*S    EENTRO =        -5.25704942
  eigenvalues    EBANDS =       101.50107240
  atomic energy  EATOM  =     30161.86332653
  Solvation  Ediel_sol  =         0.00000000
  ---------------------------------------------------
  free energy    TOTEN  =      -201.49399649 eV

  energy without entropy =     -196.23694707  energy(sigma->0) =     -198.86547178


--------------------------------------------------------------------------------------------------------




--------------------------------------- Iteration      1(  14)  ---------------------------------------


    POTLOK:  cpu time      0.0537: real time      0.0551
    SETDIJ:  cpu time      0.0158: real time      0.0158
     EDDAV:  cpu time     15.4829: real time     15.5876
       DOS:  cpu time      0.0317: real time      0.0319
    CHARGE:  cpu time      0.2670: real time      0.2682
    MIXING:  cpu time      0.0899: real time      0.0902
    --------------------------------------------
      LOOP:  cpu time     15.9410: real time     16.0487

 eigenvalue-minimisations  : 11328
 total energy-change (2. order) : 0.2406994E-01  (-0.1034120E-01)
 number of electron     376.0000083 magnetization 
 augmentation part      152.7072913 magnetization 

 Broyden mixing:
  rms(total) = 0.91135E-01    rms(broyden)= 0.91074E-01
  rms(prec ) = 0.11322E+00
  weight for this iteration     100.00

 eigenvalues of (default mixing * dielectric matrix)
  average eigenvalue GAMMA=   0.7572
  2.3617  1.2725  1.2725  0.5472  0.5472  0.1322  0.2752  0.1820  0.2245

 Free energy of the ion-electron system (eV)
  ---------------------------------------------------
  alpha Z        PSCENC =       918.22725072
  Ewald energy   TEWEN  =     21325.36000037
  -Hartree energ DENC   =    -53860.28401492
  -exchange      EXHF   =         0.00000000
  -V(xc)+E(xc)   XCENC  =     -1001.33453081
  PAW double counting   =     35151.17689664   -32996.13148962
  entropy T*S    EENTRO =        -5.27755433
  eigenvalues    EBANDS =       104.93018889
  atomic energy  EATOM  =     30161.86332653
  Solvation  Ediel_sol  =         0.00000000
  ---------------------------------------------------
  free energy    TOTEN  =      -201.46992654 eV

  energy without entropy =     -196.19237221  energy(sigma->0) =     -198.83114938


--------------------------------------------------------------------------------------------------------




--------------------------------------- Iteration      1(  15)  ---------------------------------------


    POTLOK:  cpu time      0.0531: real time      0.0534
    SETDIJ:  cpu time      0.0160: real time      0.0160
     EDDAV:  cpu time     15.4833: real time     15.5825
       DOS:  cpu time      0.0340: real time      0.0342
    CHARGE:  cpu time      0.2702: real time      0.2714
    MIXING:  cpu time      0.0899: real time      0.0902
    --------------------------------------------
      LOOP:  cpu time     15.9465: real time     16.0477

 eigenvalue-minimisations  : 11404
 total energy-change (2. order) : 0.3111050E-02  (-0.2664340E-02)
 number of electron     376.0000083 magnetization 
 augmentation part      152.6755994 magnetization 

 Broyden mixing:
  rms(total) = 0.67109E-01    rms(broyden)= 0.67096E-01
  rms(prec ) = 0.83623E-01
  weight for this iteration     100.00

 eigenvalues of (default mixing * dielectric matrix)
  average eigenvalue GAMMA=   0.7693
  2.3869  1.8411  1.1543  0.5945  0.5945  0.1322  0.2911  0.2911  0.1823  0.2249

 Free energy of the ion-electron system (eV)
  ---------------------------------------------------
  alpha Z        PSCENC =       918.22725072
  Ewald energy   TEWEN  =     21325.36000037
  -Hartree energ DENC   =    -53866.32438011
  -exchange      EXHF   =         0.00000000
  -V(xc)+E(xc)   XCENC  =     -1001.26471614
  PAW double counting   =     35144.62739608   -32989.37085932
  entropy T*S    EENTRO =        -5.28572386
  eigenvalues    EBANDS =       110.70089024
  atomic energy  EATOM  =     30161.86332653
  Solvation  Ediel_sol  =         0.00000000
  ---------------------------------------------------
  free energy    TOTEN  =      -201.46681549 eV

  energy without entropy =     -196.18109163  energy(sigma->0) =     -198.82395356


--------------------------------------------------------------------------------------------------------




--------------------------------------- Iteration      1(  16)  ---------------------------------------


    POTLOK:  cpu time      0.0540: real time      0.0552
    SETDIJ:  cpu time      0.0154: real time      0.0154
     EDDAV:  cpu time     15.4982: real time     15.5986
       DOS:  cpu time      0.0326: real time      0.0327
    CHARGE:  cpu time      0.2694: real time      0.2705
    MIXING:  cpu time      0.0904: real time      0.0907
    --------------------------------------------
      LOOP:  cpu time     15.9598: real time     16.0631

 eigenvalue-minimisations  : 11616
 total energy-change (2. order) : 0.4172122E-02  (-0.1125975E-02)
 number of electron     376.0000083 magnetization 
 augmentation part      152.6643633 magnetization 

 Broyden mixing:
  rms(total) = 0.31224E-01    rms(broyden)= 0.31214E-01
  rms(prec ) = 0.41523E-01
  weight for this iteration     100.00

 eigenvalues of (default mixing * dielectric matrix)
  average eigenvalue GAMMA=   0.7949
  2.3994  1.9767  1.2612  0.7470  0.7470  0.5193  0.1322  0.3026  0.1821  0.2510
  0.2251

 Free energy of the ion-electron system (eV)
  ---------------------------------------------------
  alpha Z        PSCENC =       918.22725072
  Ewald energy   TEWEN  =     21325.36000037
  -Hartree energ DENC   =    -53870.16881857
  -exchange      EXHF   =         0.00000000
  -V(xc)+E(xc)   XCENC  =     -1001.21809046
  PAW double counting   =     35137.59293688   -32982.20733135
  entropy T*S    EENTRO =        -5.28972581
  eigenvalues    EBANDS =       114.37780832
  atomic energy  EATOM  =     30161.86332653
  Solvation  Ediel_sol  =         0.00000000
  ---------------------------------------------------
  free energy    TOTEN  =      -201.46264337 eV

  energy without entropy =     -196.17291756  energy(sigma->0) =     -198.81778046


--------------------------------------------------------------------------------------------------------




--------------------------------------- Iteration      1(  17)  ---------------------------------------


    POTLOK:  cpu time      0.0533: real time      0.0536
    SETDIJ:  cpu time      0.0205: real time      0.0206
     EDDAV:  cpu time     15.3599: real time     15.4609
       DOS:  cpu time      0.0319: real time      0.0320
    CHARGE:  cpu time      0.2695: real time      0.2707
    MIXING:  cpu time      0.0906: real time      0.0908
    --------------------------------------------
      LOOP:  cpu time     15.8258: real time     15.9286

 eigenvalue-minimisations  : 11464
 total energy-change (2. order) :-0.7725701E-04  (-0.4630507E-03)
 number of electron     376.0000083 magnetization 
 augmentation part      152.6701101 magnetization 

 Broyden mixing:
  rms(total) = 0.30023E-01    rms(broyden)= 0.30016E-01
  rms(prec ) = 0.39619E-01
  weight for this iteration     100.00

 eigenvalues of (default mixing * dielectric matrix)
  average eigenvalue GAMMA=   0.7767
  2.4064  1.9988  1.3797  0.8720  0.7280  0.5290  0.1322  0.3104  0.3104  0.1822
  0.2499  0.2210

 Free energy of the ion-electron system (eV)
  ---------------------------------------------------
  alpha Z        PSCENC =       918.22725072
  Ewald energy   TEWEN  =     21325.36000037
  -Hartree energ DENC   =    -53874.42278011
  -exchange      EXHF   =         0.00000000
  -V(xc)+E(xc)   XCENC  =     -1001.18122755
  PAW double counting   =     35125.93496816   -32970.46240012
  entropy T*S    EENTRO =        -5.28742132
  eigenvalues    EBANDS =       118.50556269
  atomic energy  EATOM  =     30161.86332653
  Solvation  Ediel_sol  =         0.00000000
  ---------------------------------------------------
  free energy    TOTEN  =      -201.46272063 eV

  energy without entropy =     -196.17529930  energy(sigma->0) =     -198.81900997


--------------------------------------------------------------------------------------------------------




--------------------------------------- Iteration      1(  18)  ---------------------------------------


    POTLOK:  cpu time      0.0537: real time      0.0551
    SETDIJ:  cpu time      0.0217: real time      0.0218
     EDDAV:  cpu time     15.3908: real time     15.4919
       DOS:  cpu time      0.0336: real time      0.0337
    CHARGE:  cpu time      0.2688: real time      0.2701
    MIXING:  cpu time      0.0913: real time      0.0916
    --------------------------------------------
      LOOP:  cpu time     15.8600: real time     15.9642

 eigenvalue-minimisations  : 11496
 total energy-change (2. order) : 0.6150680E-03  (-0.2391419E-03)
 number of electron     376.0000083 magnetization 
 augmentation part      152.6711102 magnetization 

 Broyden mixing:
  rms(total) = 0.15820E-01    rms(broyden)= 0.15815E-01
  rms(prec ) = 0.22825E-01
  weight for this iteration     100.00

 eigenvalues of (default mixing * dielectric matrix)
  average eigenvalue GAMMA=   0.7988
  2.4486  2.1366  1.4629  0.9845  0.7378  0.7378  0.5192  0.1322  0.3133  0.1822
  0.2620  0.2445  0.2227

 Free energy of the ion-electron system (eV)
  ---------------------------------------------------
  alpha Z        PSCENC =       918.22725072
  Ewald energy   TEWEN  =     21325.36000037
  -Hartree energ DENC   =    -53876.51946244
  -exchange      EXHF   =         0.00000000
  -V(xc)+E(xc)   XCENC  =     -1001.16633307
  PAW double counting   =     35120.45735156   -32964.95570557
  entropy T*S    EENTRO =        -5.28750350
  eigenvalues    EBANDS =       120.55896985
  atomic energy  EATOM  =     30161.86332653
  Solvation  Ediel_sol  =         0.00000000
  ---------------------------------------------------
  free energy    TOTEN  =      -201.46210556 eV

  energy without entropy =     -196.17460206  energy(sigma->0) =     -198.81835381


--------------------------------------------------------------------------------------------------------




--------------------------------------- Iteration      1(  19)  ---------------------------------------


    POTLOK:  cpu time      0.0530: real time      0.0532
    SETDIJ:  cpu time      0.0213: real time      0.0214
     EDDAV:  cpu time     15.2542: real time     15.3546
       DOS:  cpu time      0.0331: real time      0.0333
    CHARGE:  cpu time      0.2671: real time      0.2683
    MIXING:  cpu time      0.0911: real time      0.0913
    --------------------------------------------
      LOOP:  cpu time     15.7198: real time     15.8221

 eigenvalue-minimisations  : 11368
 total energy-change (2. order) :-0.2155090E-03  (-0.1112779E-03)
 number of electron     376.0000083 magnetization 
 augmentation part      152.6684421 magnetization 

 Broyden mixing:
  rms(total) = 0.15062E-01    rms(broyden)= 0.15058E-01
  rms(prec ) = 0.20187E-01
  weight for this iteration     100.00

 eigenvalues of (default mixing * dielectric matrix)
  average eigenvalue GAMMA=   0.7960
  2.4990  2.2638  1.4371  1.2007  0.8585  0.7402  0.5247  0.1322  0.3013  0.3013
  0.1822  0.2552  0.2242  0.2242

 Free energy of the ion-electron system (eV)
  ---------------------------------------------------
  alpha Z        PSCENC =       918.22725072
  Ewald energy   TEWEN  =     21325.36000037
  -Hartree energ DENC   =    -53879.26409956
  -exchange      EXHF   =         0.00000000
  -V(xc)+E(xc)   XCENC  =     -1001.14912252
  PAW double counting   =     35113.79996481   -32958.27358572
  entropy T*S    EENTRO =        -5.28812929
  eigenvalues    EBANDS =       123.26207360
  atomic energy  EATOM  =     30161.86332653
  Solvation  Ediel_sol  =         0.00000000
  ---------------------------------------------------
  free energy    TOTEN  =      -201.46232107 eV

  energy without entropy =     -196.17419178  energy(sigma->0) =     -198.81825642


--------------------------------------------------------------------------------------------------------




--------------------------------------- Iteration      1(  20)  ---------------------------------------


    POTLOK:  cpu time      0.0539: real time      0.0551
    SETDIJ:  cpu time      0.0158: real time      0.0159
     EDDAV:  cpu time     15.2890: real time     15.3868
       DOS:  cpu time      0.0301: real time      0.0302
    CHARGE:  cpu time      0.2666: real time      0.2678
    MIXING:  cpu time      0.0920: real time      0.0922
    --------------------------------------------
      LOOP:  cpu time     15.7473: real time     15.8480

 eigenvalue-minimisations  : 11436
 total energy-change (2. order) : 0.4300218E-04  (-0.6479154E-04)
 number of electron     376.0000083 magnetization 
 augmentation part      152.6652603 magnetization 

 Broyden mixing:
  rms(total) = 0.67189E-02    rms(broyden)= 0.67118E-02
  rms(prec ) = 0.10445E-01
  weight for this iteration     100.00

 eigenvalues of (default mixing * dielectric matrix)
  average eigenvalue GAMMA=   0.8343
  2.6539  2.4394  1.4388  1.4388  0.8579  0.8579  0.6979  0.5213  0.1322  0.3200
  0.1822  0.2803  0.2520  0.2226  0.2199

 Free energy of the ion-electron system (eV)
  ---------------------------------------------------
  alpha Z        PSCENC =       918.22725072
  Ewald energy   TEWEN  =     21325.36000037
  -Hartree energ DENC   =    -53881.26038975
  -exchange      EXHF   =         0.00000000
  -V(xc)+E(xc)   XCENC  =     -1001.13534616
  PAW double counting   =     35108.97274932   -32953.42834862
  entropy T*S    EENTRO =        -5.28957359
  eigenvalues    EBANDS =       125.22805312
  atomic energy  EATOM  =     30161.86332653
  Solvation  Ediel_sol  =         0.00000000
  ---------------------------------------------------
  free energy    TOTEN  =      -201.46227807 eV

  energy without entropy =     -196.17270447  energy(sigma->0) =     -198.81749127


--------------------------------------------------------------------------------------------------------




--------------------------------------- Iteration      1(  21)  ---------------------------------------


    POTLOK:  cpu time      0.0533: real time      0.0535
    SETDIJ:  cpu time      0.0186: real time      0.0188
     EDDAV:  cpu time     15.2012: real time     15.2978
       DOS:  cpu time      0.0293: real time      0.0294
    CHARGE:  cpu time      0.2684: real time      0.2696
    MIXING:  cpu time      0.0923: real time      0.0926
    --------------------------------------------
      LOOP:  cpu time     15.6630: real time     15.7616

 eigenvalue-minimisations  : 11296
 total energy-change (2. order) :-0.1798668E-03  (-0.3917925E-04)
 number of electron     376.0000083 magnetization 
 augmentation part      152.6635834 magnetization 

 Broyden mixing:
  rms(total) = 0.78023E-02    rms(broyden)= 0.78012E-02
  rms(prec ) = 0.11051E-01
  weight for this iteration     100.00

 eigenvalues of (default mixing * dielectric matrix)
  average eigenvalue GAMMA=   0.8265
  2.7705  2.4764  1.6185  1.3805  0.9062  0.9062  0.7159  0.5219  0.1322  0.3142
  0.3038  0.3038  0.1822  0.2479  0.2263  0.2181

 Free energy of the ion-electron system (eV)
  ---------------------------------------------------
  alpha Z        PSCENC =       918.22725072
  Ewald energy   TEWEN  =     21325.36000037
  -Hartree energ DENC   =    -53883.85994247
  -exchange      EXHF   =         0.00000000
  -V(xc)+E(xc)   XCENC  =     -1001.11386134
  PAW double counting   =     35103.13469256   -32947.57257458
  entropy T*S    EENTRO =        -5.28971459
  eigenvalues    EBANDS =       127.78836486
  atomic energy  EATOM  =     30161.86332653
  Solvation  Ediel_sol  =         0.00000000
  ---------------------------------------------------
  free energy    TOTEN  =      -201.46245793 eV

  energy without entropy =     -196.17274335  energy(sigma->0) =     -198.81760064


--------------------------------------------------------------------------------------------------------




--------------------------------------- Iteration      1(  22)  ---------------------------------------


    POTLOK:  cpu time      0.0537: real time      0.0550
    SETDIJ:  cpu time      0.0277: real time      0.0278
     EDDAV:  cpu time     15.4246: real time     15.5228
       DOS:  cpu time      0.0326: real time      0.0327
    CHARGE:  cpu time      0.2689: real time      0.2701
    MIXING:  cpu time      0.0925: real time      0.0929
    --------------------------------------------
      LOOP:  cpu time     15.9001: real time     16.0013

 eigenvalue-minimisations  : 11588
 total energy-change (2. order) :-0.1110811E-04  (-0.1785714E-04)
 number of electron     376.0000083 magnetization 
 augmentation part      152.6632347 magnetization 

 Broyden mixing:
  rms(total) = 0.48598E-02    rms(broyden)= 0.48589E-02
  rms(prec ) = 0.78068E-02
  weight for this iteration     100.00

 eigenvalues of (default mixing * dielectric matrix)
  average eigenvalue GAMMA=   0.8802
  2.9501  2.5698  2.1353  1.4428  1.1582  0.8164  0.8164  0.6753  0.5246  0.1322
  0.3211  0.1822  0.2885  0.2584  0.2499  0.2235  0.2191

 Free energy of the ion-electron system (eV)
  ---------------------------------------------------
  alpha Z        PSCENC =       918.22725072
  Ewald energy   TEWEN  =     21325.36000037
  -Hartree energ DENC   =    -53884.85772704
  -exchange      EXHF   =         0.00000000
  -V(xc)+E(xc)   XCENC  =     -1001.10730173
  PAW double counting   =     35101.51897299   -32945.96180421
  entropy T*S    EENTRO =        -5.28971358
  eigenvalues    EBANDS =       128.78452691
  atomic energy  EATOM  =     30161.86332653
  Solvation  Ediel_sol  =         0.00000000
  ---------------------------------------------------
  free energy    TOTEN  =      -201.46246904 eV

  energy without entropy =     -196.17275546  energy(sigma->0) =     -198.81761225


--------------------------------------------------------------------------------------------------------




--------------------------------------- Iteration      1(  23)  ---------------------------------------


    POTLOK:  cpu time      0.0531: real time      0.0533
    SETDIJ:  cpu time      0.0200: real time      0.0201
     EDDAV:  cpu time     14.6007: real time     14.7024
       DOS:  cpu time      0.0316: real time      0.0317
    CHARGE:  cpu time      0.2823: real time      0.2835
    MIXING:  cpu time      0.0932: real time      0.0935
    --------------------------------------------
      LOOP:  cpu time     15.0809: real time     15.1845

 eigenvalue-minimisations  : 10816
 total energy-change (2. order) :-0.1163477E-03  (-0.1146832E-04)
[...]
  0.000000000000000E+000  0.000000000000000E+000  0.000000000000000E+000
   1.00000000000000        1.00000000000000        1.00000000000000     
   1.00000000000000        1.00000000000000        1.00000000000000     
  0.000000000000000E+000  0.000000000000000E+000  0.000000000000000E+000
   1.00000000000000        1.00000000000000        1.00000000000000     
   1.00000000000000        1.00000000000000        1.00000000000000     
  0.000000000000000E+000  0.000000000000000E+000  0.000000000000000E+000
   1.00000000000000        1.00000000000000        1.00000000000000     
   1.00000000000000        1.00000000000000        1.00000000000000     
  0.000000000000000E+000  0.000000000000000E+000  0.000000000000000E+000
   1.00000000000000        1.00000000000000        1.00000000000000     
   1.00000000000000        1.00000000000000        1.00000000000000     
  0.000000000000000E+000  0.000000000000000E+000  0.000000000000000E+000
   1.00000000000000        1.00000000000000        1.00000000000000     
   1.00000000000000        1.00000000000000        1.00000000000000     
  0.000000000000000E+000  0.000000000000000E+000  0.000000000000000E+000
   1.00000000000000        1.00000000000000        1.00000000000000     
   1.00000000000000        1.00000000000000        1.00000000000000     
  0.000000000000000E+000  0.000000000000000E+000  0.000000000000000E+000
   1.00000000000000        1.00000000000000        1.00000000000000     
  0.000000000000000E+000  0.000000000000000E+000  0.000000000000000E+000
  0.000000000000000E+000  0.000000000000000E+000  0.000000000000000E+000
  0.000000000000000E+000  0.000000000000000E+000  0.000000000000000E+000
  0.000000000000000E+000  0.000000000000000E+000  0.000000000000000E+000
  0.000000000000000E+000  0.000000000000000E+000  0.000000000000000E+000
  0.000000000000000E+000  0.000000000000000E+000  0.000000000000000E+000
  0.000000000000000E+000  0.000000000000000E+000  0.000000000000000E+000
  0.000000000000000E+000  0.000000000000000E+000  0.000000000000000E+000
  0.000000000000000E+000  0.000000000000000E+000  0.000000000000000E+000
   1.00000000000000        1.00000000000000        1.00000000000000     
   1.00000000000000        1.00000000000000        1.00000000000000     
   1.00000000000000        1.00000000000000        1.00000000000000     
 NEB: the previous image is higher in energy: T
 NEB: the next image is higher in energy    : F
 NEB: only prev energy greater

 NEB: Tangent
 ----------------------------------------------
      0.08848      0.05073      0.01450
      0.00000      0.00000      0.00000
      0.00731     -0.01023     -0.00039
      0.08989     -0.04700     -0.13851
      0.00000      0.00000      0.00000
      0.02488      0.00365     -0.02650
      0.05306     -0.00156      0.00223
      0.00000      0.00000      0.00000
      0.01347     -0.00732     -0.00560
     -0.00001     -0.00917     -0.08426
      0.00000      0.00000      0.00000
      0.00866     -0.00770     -0.00517
     -0.02659     -0.05182      0.01450
      0.00000      0.00000      0.00000
     -0.00835     -0.01041      0.00674
     -0.00225     -0.00821     -0.00593
      0.00000      0.00000      0.00000
     -0.00925      0.00659     -0.02105
      0.00708      0.02393      0.00359
      0.00000      0.00000      0.00000
      0.00708     -0.01506     -0.01566
      0.02554     -0.03126     -0.00975
      0.00000      0.00000      0.00000
      0.00929     -0.00363      0.00273
      0.02425      0.00688      0.00975
      0.00000      0.00000      0.00000
      0.00303     -0.00892     -0.01093
      0.00000      0.00000      0.00000
      0.00000      0.00000      0.00000
      0.00000      0.00000      0.00000
      0.00000      0.00000      0.00000
      0.00000      0.00000      0.00000
      0.00000      0.00000      0.00000
      0.00000      0.00000      0.00000
      0.00000      0.00000      0.00000
      0.00000      0.00000      0.00000
     -0.44793      0.33561      0.27998
      0.34746      0.15436      0.57319
     -0.15295     -0.20273     -0.10143

 NEB: forces: par spring, perp REAL, dneb     0.003978    0.094993    0.000000
 NEB: distance to prev, next image, angle between     1.021771    1.020975  117.508959
 NEB: projections on to tangent (spring, REAL)    -0.003978    0.483119

 stress matrix after NEB project (eV)
    -10.87913      0.07928     -0.22902
      0.07928    -10.47167     -0.67941
     -0.22902     -0.67941     -1.89590
 after stress write
 before force*Free
 force:  -6.346172077519988E-003 -8.583415654081095E-003 -1.222735334103529E-002
  0.000000000000000E+000  0.000000000000000E+000  0.000000000000000E+000
 -1.686034677490296E-003 -2.069584525414289E-003 -1.745832159915209E-003
 -4.833487244406590E-003 -5.341164611418004E-003  8.290228416951218E-004
  0.000000000000000E+000  0.000000000000000E+000  0.000000000000000E+000
 -2.130315862430648E-003 -2.297362886021325E-003  1.419514352150064E-004
 -4.641896468120015E-003 -5.414823610526020E-003 -1.874625029314671E-003
  0.000000000000000E+000  0.000000000000000E+000  0.000000000000000E+000
 -2.007611854213687E-003 -1.487253011784088E-003 -1.441673625974534E-003
 -3.548126343391512E-003 -4.904862846925867E-003 -1.763309900605936E-003
  0.000000000000000E+000  0.000000000000000E+000  0.000000000000000E+000
 -1.703590614759226E-003 -6.725827450793833E-004  5.141498314971350E-004
 -3.860541685320506E-003 -7.605487580109945E-003  1.105525554070911E-003
  0.000000000000000E+000  0.000000000000000E+000  0.000000000000000E+000
 -2.315112807152117E-003 -2.724760648314134E-003  1.000168272421691E-003
 -1.582963951454747E-003 -5.275646565298987E-003  1.682982126420856E-004
  0.000000000000000E+000  0.000000000000000E+000  0.000000000000000E+000
 -1.666585251337569E-003 -2.547499260433266E-003 -6.306654051265407E-004
 -3.082013389123846E-003 -6.846115965636378E-003 -1.481646789506307E-003
  0.000000000000000E+000  0.000000000000000E+000  0.000000000000000E+000
 -1.818627390717526E-003 -2.750790150079865E-003  7.483058467453623E-004
 -2.947482509396999E-003 -4.820122535632541E-003  1.139173830674283E-004
  0.000000000000000E+000  0.000000000000000E+000  0.000000000000000E+000
 -1.358345218879068E-003 -1.626699623549570E-003  5.343836618546678E-004
 -3.640822270767309E-003 -5.673950919284217E-003 -1.870843581550251E-003
  0.000000000000000E+000  0.000000000000000E+000  0.000000000000000E+000
 -1.795613230335986E-003 -4.214466906833280E-003 -1.583527302887435E-003
  0.000000000000000E+000  0.000000000000000E+000  0.000000000000000E+000
  0.000000000000000E+000  0.000000000000000E+000  0.000000000000000E+000
  0.000000000000000E+000  0.000000000000000E+000  0.000000000000000E+000
  0.000000000000000E+000  0.000000000000000E+000  0.000000000000000E+000
  0.000000000000000E+000  0.000000000000000E+000  0.000000000000000E+000
  0.000000000000000E+000  0.000000000000000E+000  0.000000000000000E+000
  0.000000000000000E+000  0.000000000000000E+000  0.000000000000000E+000
  0.000000000000000E+000  0.000000000000000E+000  0.000000000000000E+000
  0.000000000000000E+000  0.000000000000000E+000  0.000000000000000E+000
  1.098721054554136E-002 -3.948985395795684E-002 -1.529134871848538E-002
  4.099582670600073E-002 -3.544678247611861E-002 -7.265205801937007E-003
 -2.117590959589675E-002 -5.330545671182293E-002 -9.827685273814262E-003
 A:    8.30990028380000       0.000000000000000E+000  0.000000000000000E+000
  -4.15495014190000        7.19658474870000       0.000000000000000E+000
  0.000000000000000E+000  0.000000000000000E+000   16.5235004425000     
 B:   0.120338387447258       6.947740038638753E-002  0.000000000000000E+000
  0.000000000000000E+000  0.138954800772775       0.000000000000000E+000
  0.000000000000000E+000  0.000000000000000E+000  6.051986402517384E-002
 force:  -1.360041520352946E-003 -1.192706812162757E-003 -7.399977615872110E-004
  0.000000000000000E+000  0.000000000000000E+000  0.000000000000000E+000
 -3.466840469750195E-004 -2.875787054113607E-004 -1.056575249288440E-004
 -9.527442929758703E-004 -7.421804644741852E-004  5.017234965315199E-005
  0.000000000000000E+000  0.000000000000000E+000  0.000000000000000E+000
 -4.159735767031483E-004 -3.192296021298607E-004  8.590881557390459E-006
 -9.348062036808637E-004 -7.524157360203615E-004 -1.134520518723114E-004
  0.000000000000000E+000  0.000000000000000E+000  0.000000000000000E+000
 -3.449232461316578E-004 -2.066609459511677E-004 -8.724989181265812E-005
 -7.677529224790541E-004 -6.815542397123701E-004 -1.067152754189140E-004
  0.000000000000000E+000  0.000000000000000E+000  0.000000000000000E+000
 -2.517366481232634E-004 -9.345860134571186E-005  3.111627789077265E-005
 -9.929808668213838E-004 -1.056819011473992E-003  6.690625620872652E-005
  0.000000000000000E+000  0.000000000000000E+000  0.000000000000000E+000
 -4.679062284911735E-004 -3.786185730399879E-004  6.053004784925374E-005
 -5.570295380195509E-004 -7.330764174286957E-004  1.018538494477881E-005
  0.000000000000000E+000  0.000000000000000E+000  0.000000000000000E+000
 -3.775478077904937E-004 -3.539872522022963E-004 -3.816778456363942E-005
 -8.465348613741796E-004 -9.513006800723174E-004 -8.966906223425704E-005
  0.000000000000000E+000  0.000000000000000E+000  0.000000000000000E+000
 -4.099684362023905E-004 -3.822354972720596E-004  4.528736809427190E-005
 -6.895848755294226E-004 -6.697791666391830E-004  6.894264533344400E-006
  0.000000000000000E+000  0.000000000000000E+000  0.000000000000000E+000
 -2.764799342903385E-004 -2.260377221074787E-004  3.234082655271897E-005
 -8.323420408380216E-004 -7.884227195836422E-004 -1.132231991677904E-004
  0.000000000000000E+000  0.000000000000000E+000  0.000000000000000E+000
 -5.088914053188296E-004 -5.856204094024720E-004 -9.583485705089787E-005
  0.000000000000000E+000  0.000000000000000E+000  0.000000000000000E+000
  0.000000000000000E+000  0.000000000000000E+000  0.000000000000000E+000
  0.000000000000000E+000  0.000000000000000E+000  0.000000000000000E+000
  0.000000000000000E+000  0.000000000000000E+000  0.000000000000000E+000
  0.000000000000000E+000  0.000000000000000E+000  0.000000000000000E+000
  0.000000000000000E+000  0.000000000000000E+000  0.000000000000000E+000
  0.000000000000000E+000  0.000000000000000E+000  0.000000000000000E+000
  0.000000000000000E+000  0.000000000000000E+000  0.000000000000000E+000
  0.000000000000000E+000  0.000000000000000E+000  0.000000000000000E+000
 -1.421469195042987E-003 -5.487304789273875E-003 -9.254303452042514E-004
  2.470621379364866E-003 -4.925500597004956E-003 -4.396892672481317E-004
 -6.251799372245692E-003 -7.407049117493140E-003 -5.947701764534425E-004
 Free:    1.00000000000000        1.00000000000000        1.00000000000000     
  0.000000000000000E+000  0.000000000000000E+000  0.000000000000000E+000
   1.00000000000000        1.00000000000000        1.00000000000000     
   1.00000000000000        1.00000000000000        1.00000000000000     
  0.000000000000000E+000  0.000000000000000E+000  0.000000000000000E+000
   1.00000000000000        1.00000000000000        1.00000000000000     
   1.00000000000000        1.00000000000000        1.00000000000000     
  0.000000000000000E+000  0.000000000000000E+000  0.000000000000000E+000
   1.00000000000000        1.00000000000000        1.00000000000000     
   1.00000000000000        1.00000000000000        1.00000000000000     
  0.000000000000000E+000  0.000000000000000E+000  0.000000000000000E+000
   1.00000000000000        1.00000000000000        1.00000000000000     
   1.00000000000000        1.00000000000000        1.00000000000000     
  0.000000000000000E+000  0.000000000000000E+000  0.000000000000000E+000
   1.00000000000000        1.00000000000000        1.00000000000000     
   1.00000000000000        1.00000000000000        1.00000000000000     
  0.000000000000000E+000  0.000000000000000E+000  0.000000000000000E+000
   1.00000000000000        1.00000000000000        1.00000000000000     
   1.00000000000000        1.00000000000000        1.00000000000000     
  0.000000000000000E+000  0.000000000000000E+000  0.000000000000000E+000
   1.00000000000000        1.00000000000000        1.00000000000000     
   1.00000000000000        1.00000000000000        1.00000000000000     
  0.000000000000000E+000  0.000000000000000E+000  0.000000000000000E+000
   1.00000000000000        1.00000000000000        1.00000000000000     
   1.00000000000000        1.00000000000000        1.00000000000000     
  0.000000000000000E+000  0.000000000000000E+000  0.000000000000000E+000
   1.00000000000000        1.00000000000000        1.00000000000000     
  0.000000000000000E+000  0.000000000000000E+000  0.000000000000000E+000
  0.000000000000000E+000  0.000000000000000E+000  0.000000000000000E+000
  0.000000000000000E+000  0.000000000000000E+000  0.000000000000000E+000
  0.000000000000000E+000  0.000000000000000E+000  0.000000000000000E+000
  0.000000000000000E+000  0.000000000000000E+000  0.000000000000000E+000
  0.000000000000000E+000  0.000000000000000E+000  0.000000000000000E+000
  0.000000000000000E+000  0.000000000000000E+000  0.000000000000000E+000
  0.000000000000000E+000  0.000000000000000E+000  0.000000000000000E+000
  0.000000000000000E+000  0.000000000000000E+000  0.000000000000000E+000
   1.00000000000000        1.00000000000000        1.00000000000000     
   1.00000000000000        1.00000000000000        1.00000000000000     
   1.00000000000000        1.00000000000000        1.00000000000000     
 force:  -1.360041520352946E-003 -1.192706812162757E-003 -7.399977615872110E-004
  0.000000000000000E+000  0.000000000000000E+000  0.000000000000000E+000
 -3.466840469750195E-004 -2.875787054113607E-004 -1.056575249288440E-004
 -9.527442929758703E-004 -7.421804644741852E-004  5.017234965315199E-005
  0.000000000000000E+000  0.000000000000000E+000  0.000000000000000E+000
 -4.159735767031483E-004 -3.192296021298607E-004  8.590881557390459E-006
 -9.348062036808637E-004 -7.524157360203615E-004 -1.134520518723114E-004
  0.000000000000000E+000  0.000000000000000E+000  0.000000000000000E+000
 -3.449232461316578E-004 -2.066609459511677E-004 -8.724989181265812E-005
 -7.677529224790541E-004 -6.815542397123701E-004 -1.067152754189140E-004
  0.000000000000000E+000  0.000000000000000E+000  0.000000000000000E+000
 -2.517366481232634E-004 -9.345860134571186E-005  3.111627789077265E-005
 -9.929808668213838E-004 -1.056819011473992E-003  6.690625620872652E-005
  0.000000000000000E+000  0.000000000000000E+000  0.000000000000000E+000
 -4.679062284911735E-004 -3.786185730399879E-004  6.053004784925374E-005
 -5.570295380195509E-004 -7.330764174286957E-004  1.018538494477881E-005
  0.000000000000000E+000  0.000000000000000E+000  0.000000000000000E+000
 -3.775478077904937E-004 -3.539872522022963E-004 -3.816778456363942E-005
 -8.465348613741796E-004 -9.513006800723174E-004 -8.966906223425704E-005
  0.000000000000000E+000  0.000000000000000E+000  0.000000000000000E+000
 -4.099684362023905E-004 -3.822354972720596E-004  4.528736809427190E-005
 -6.895848755294226E-004 -6.697791666391830E-004  6.894264533344400E-006
  0.000000000000000E+000  0.000000000000000E+000  0.000000000000000E+000
 -2.764799342903385E-004 -2.260377221074787E-004  3.234082655271897E-005
 -8.323420408380216E-004 -7.884227195836422E-004 -1.132231991677904E-004
  0.000000000000000E+000  0.000000000000000E+000  0.000000000000000E+000
 -5.088914053188296E-004 -5.856204094024720E-004 -9.583485705089787E-005
  0.000000000000000E+000  0.000000000000000E+000  0.000000000000000E+000
  0.000000000000000E+000  0.000000000000000E+000  0.000000000000000E+000
  0.000000000000000E+000  0.000000000000000E+000  0.000000000000000E+000
  0.000000000000000E+000  0.000000000000000E+000  0.000000000000000E+000
  0.000000000000000E+000  0.000000000000000E+000  0.000000000000000E+000
  0.000000000000000E+000  0.000000000000000E+000  0.000000000000000E+000
  0.000000000000000E+000  0.000000000000000E+000  0.000000000000000E+000
  0.000000000000000E+000  0.000000000000000E+000  0.000000000000000E+000
  0.000000000000000E+000  0.000000000000000E+000  0.000000000000000E+000
 -1.421469195042987E-003 -5.487304789273875E-003 -9.254303452042514E-004
  2.470621379364866E-003 -4.925500597004956E-003 -4.396892672481317E-004
 -6.251799372245692E-003 -7.407049117493140E-003 -5.947701764534425E-004
 after force*Free
 -6.346172077519988E-003 -8.583415654081095E-003 -1.222735334103529E-002
  0.000000000000000E+000  0.000000000000000E+000  0.000000000000000E+000
 -1.686034677490295E-003 -2.069584525414289E-003 -1.745832159915209E-003
 -4.833487244406591E-003 -5.341164611418004E-003  8.290228416951217E-004
  0.000000000000000E+000  0.000000000000000E+000  0.000000000000000E+000
 -2.130315862430648E-003 -2.297362886021325E-003  1.419514352150063E-004
 -4.641896468120014E-003 -5.414823610526019E-003 -1.874625029314671E-003
  0.000000000000000E+000  0.000000000000000E+000  0.000000000000000E+000
 -2.007611854213687E-003 -1.487253011784088E-003 -1.441673625974534E-003
 -3.548126343391512E-003 -4.904862846925867E-003 -1.763309900605936E-003
  0.000000000000000E+000  0.000000000000000E+000  0.000000000000000E+000
 -1.703590614759226E-003 -6.725827450793833E-004  5.141498314971349E-004
 -3.860541685320506E-003 -7.605487580109945E-003  1.105525554070911E-003
  0.000000000000000E+000  0.000000000000000E+000  0.000000000000000E+000
 -2.315112807152117E-003 -2.724760648314134E-003  1.000168272421690E-003
 -1.582963951454745E-003 -5.275646565298987E-003  1.682982126420856E-004
  0.000000000000000E+000  0.000000000000000E+000  0.000000000000000E+000
 -1.666585251337569E-003 -2.547499260433266E-003 -6.306654051265407E-004
 -3.082013389123847E-003 -6.846115965636378E-003 -1.481646789506306E-003
  0.000000000000000E+000  0.000000000000000E+000  0.000000000000000E+000
 -1.818627390717526E-003 -2.750790150079865E-003  7.483058467453622E-004
 -2.947482509396999E-003 -4.820122535632541E-003  1.139173830674283E-004
  0.000000000000000E+000  0.000000000000000E+000  0.000000000000000E+000
 -1.358345218879068E-003 -1.626699623549570E-003  5.343836618546678E-004
 -3.640822270767308E-003 -5.673950919284217E-003 -1.870843581550251E-003
  0.000000000000000E+000  0.000000000000000E+000  0.000000000000000E+000
 -1.795613230335986E-003 -4.214466906833280E-003 -1.583527302887435E-003
  0.000000000000000E+000  0.000000000000000E+000  0.000000000000000E+000
  0.000000000000000E+000  0.000000000000000E+000  0.000000000000000E+000
  0.000000000000000E+000  0.000000000000000E+000  0.000000000000000E+000
  0.000000000000000E+000  0.000000000000000E+000  0.000000000000000E+000
  0.000000000000000E+000  0.000000000000000E+000  0.000000000000000E+000
  0.000000000000000E+000  0.000000000000000E+000  0.000000000000000E+000
  0.000000000000000E+000  0.000000000000000E+000  0.000000000000000E+000
  0.000000000000000E+000  0.000000000000000E+000  0.000000000000000E+000
  0.000000000000000E+000  0.000000000000000E+000  0.000000000000000E+000
  1.098721054554136E-002 -3.948985395795684E-002 -1.529134871848538E-002
  4.099582670600072E-002 -3.544678247611861E-002 -7.265205801937006E-003
 -2.117590959589675E-002 -5.330545671182293E-002 -9.827685273814260E-003
 before force check
 after force check
 before ML stuff 
  FORCES: max atom, RMS     0.058193    0.015224
  FORCE total and by dimension    0.095076    0.053305
 into some ML stuff
  Stress total and by dimension   15.252750   10.879127
 
 OPT: Flag T
 OPT: QM Step
 another before ML stuff


--------------------------------------------------------------------------------------------------------


      MLFF:  cpu time      1.4455: real time      1.4563
    WAVPRE:  cpu time      0.0240: real time      0.0241
    FEWALD:  cpu time      0.0063: real time      0.0063

 real space projection operators:
  total allocation   :       9691.02 KBytes
  max/ min on nodes  :       1710.20       1431.84

