<?xml version="1.0" encoding="ISO-8859-1"?>
<modeling>
 <generator>
  <i name="program" type="string">vasp </i>
  <i name="version" type="string">6.5.1  </i>
  <i name="subversion" type="string">10Mar25 (build Apr 25 2025 15:31:43) complex                          parallel </i>
  <i name="platform" type="string">LinuxIFC </i>
  <i name="date" type="string">2025 12 08 </i>
  <i name="time" type="string">14:54:14 </i>
 </generator>
 <incar>
  <i type="string" name="SYSTEM">PBE-grap</i>
  <i type="int" name="ISTART">     0</i>
  <i type="string" name="PREC">Normal   low | medium | high</i>
  <i type="int" name="IALGO">    38</i>
  <i type="int" name="ICHARG">     2</i>
  <i type="int" name="INIWAV">     1</i>
  <i type="int" name="NELM">   150</i>
  <i type="int" name="NELMDL">    -5</i>
  <i type="int" name="NELMIN">     4</i>
  <i type="int" name="IBRION">     3</i>
  <i name="EDIFF">      0.00001000</i>
  <i name="EDIFFG">     -0.02600000</i>
  <i type="int" name="NSW">  1000</i>
  <i type="int" name="ISIF">     2</i>
  <i type="int" name="ISYM">     0</i>
  <i name="ENCUT">    370.00000000</i>
  <i name="POTIM">      0.00000000</i>
  <i type="string" name="LREAL">AUTO   real-space projection (.FALSE., .TRUE., On, Auto)</i>
  <i type="logical" name="LPLANE"> T  </i>
  <i type="int" name="ISMEAR">     0</i>
  <i name="SIGMA">      0.41000000</i>
  <i type="int" name="NWRITE">     0</i>
  <i type="logical" name="LWAVE"> F  </i>
  <i type="logical" name="LCHARG"> F  </i>
  <i type="logical" name="LVTOT"> F  </i>
  <i type="string" name="GGA">PE</i>
  <i name="SPRING">     -5.00000000</i>
 </incar>
 <primitive_cell>
  <structure name="primitive_cell" >
   <crystal>
    <varray name="basis" >
     <v>       8.30990028       0.00000000       0.00000000 </v>
     <v>      -4.15495014       7.19658475       0.00000000 </v>
     <v>       0.00000000       0.00000000      16.52350044 </v>
    </varray>
    <i name="volume">    988.15327180 </i>
    <varray name="rec_basis" >
     <v>       0.12033839       0.06947740       0.00000000 </v>
     <v>       0.00000000       0.13895480       0.00000000 </v>
     <v>       0.00000000       0.00000000       0.06051986 </v>
    </varray>
   </crystal>
   <varray name="positions" >
    <v>       0.99905012       0.99844099       0.44008441 </v>
    <v>       0.11093000       0.22330000       0.16024000 </v>
    <v>       0.22214039       0.11309278       0.30039481 </v>
    <v>       0.33169273       0.00022936       0.44005065 </v>
    <v>       0.44426000       0.22330000       0.16024000 </v>
    <v>       0.55379794       0.11080854       0.29834292 </v>
    <v>       0.66512002       0.99937030       0.43637092 </v>
    <v>       0.77760000       0.22330000       0.16024000 </v>
    <v>       0.88855964       0.11158316       0.29915383 </v>
    <v>       0.99736207       0.33264671       0.43999673 </v>
    <v>       0.11093000       0.55664000       0.16024000 </v>
    <v>       0.22142213       0.44397895       0.29980313 </v>
    <v>       0.32858372       0.33348458       0.45095690 </v>
    <v>       0.44426000       0.55664000       0.16024000 </v>
    <v>       0.55187772       0.44336025       0.29983094 </v>
    <v>       0.66493380       0.33279903       0.43618246 </v>
    <v>       0.77760000       0.55664000       0.16024000 </v>
    <v>       0.88802571       0.44396438       0.29841197 </v>
    <v>       0.99786190       0.66547295       0.43593476 </v>
    <v>       0.11093000       0.88997000       0.16024000 </v>
    <v>       0.22209612       0.77853112       0.29883953 </v>
    <v>       0.33296208       0.66672288       0.43819272 </v>
    <v>       0.44426000       0.88997000       0.16024000 </v>
    <v>       0.55412171       0.77778873       0.29820286 </v>
    <v>       0.66582273       0.66631390       0.43633174 </v>
    <v>       0.77760000       0.88997000       0.16024000 </v>
    <v>       0.88813046       0.77883547       0.29818814 </v>
    <v>       0.99982000       0.00108000       0.02337000 </v>
    <v>       0.33315000       0.00108000       0.02337000 </v>
    <v>       0.66649000       0.00108000       0.02337000 </v>
    <v>       0.99982000       0.33441000       0.02337000 </v>
    <v>       0.33315000       0.33441000       0.02337000 </v>
    <v>       0.66649000       0.33441000       0.02337000 </v>
    <v>       0.99982000       0.66775000       0.02337000 </v>
    <v>       0.33315000       0.66775000       0.02337000 </v>
    <v>       0.66649000       0.66775000       0.02337000 </v>
    <v>       0.22700751       0.14276221       0.60131324 </v>
    <v>       0.23646713       0.32824893       0.59136064 </v>
    <v>       0.21460799       0.03378423       0.65328658 </v>
   </varray>
  </structure>
  <varray name="primitive_index" >
   <v type="int" >        1 </v>
   <v type="int" >        2 </v>
   <v type="int" >        3 </v>
   <v type="int" >        4 </v>
   <v type="int" >        5 </v>
   <v type="int" >        6 </v>
   <v type="int" >        7 </v>
   <v type="int" >        8 </v>
   <v type="int" >        9 </v>
   <v type="int" >       10 </v>
   <v type="int" >       11 </v>
   <v type="int" >       12 </v>
   <v type="int" >       13 </v>
   <v type="int" >       14 </v>
   <v type="int" >       15 </v>
   <v type="int" >       16 </v>
   <v type="int" >       17 </v>
   <v type="int" >       18 </v>
   <v type="int" >       19 </v>
   <v type="int" >       20 </v>
   <v type="int" >       21 </v>
   <v type="int" >       22 </v>
   <v type="int" >       23 </v>
   <v type="int" >       24 </v>
   <v type="int" >       25 </v>
   <v type="int" >       26 </v>
   <v type="int" >       27 </v>
   <v type="int" >       28 </v>
   <v type="int" >       29 </v>
   <v type="int" >       30 </v>
   <v type="int" >       31 </v>
   <v type="int" >       32 </v>
   <v type="int" >       33 </v>
   <v type="int" >       34 </v>
   <v type="int" >       35 </v>
   <v type="int" >       36 </v>
   <v type="int" >       37 </v>
   <v type="int" >       38 </v>
   <v type="int" >       39 </v>
  </varray>
 </primitive_cell>
 <kpoints>
  <generation param="Monkhorst-Pack">
   <v type="int" name="divisions">       4        4        1 </v>
   <v name="usershift">      0.00000000       0.00000000       0.00000000 </v>
   <v name="genvec1">      0.25000000       0.00000000       0.00000000 </v>
   <v name="genvec2">      0.00000000       0.25000000       0.00000000 </v>
   <v name="genvec3">      0.00000000       0.00000000       1.00000000 </v>
   <v name="shift">      0.50000000       0.50000000       0.00000000 </v>
  </generation>
  <varray name="kpointlist" >
   <v>       0.12500000       0.12500000       0.00000000 </v>
   <v>      -0.12500000       0.25000000       0.00000000 </v>
   <v>      -0.25000000       0.12500000       0.00000000 </v>
   <v>       0.37500000       0.12500000       0.00000000 </v>
   <v>      -0.12500000       0.50000000       0.00000000 </v>
   <v>       0.50000000       0.37500000       0.00000000 </v>
   <v>      -0.37500000       0.50000000       0.00000000 </v>
   <v>       0.12500000       0.37500000       0.00000000 </v>
   <v>       0.50000000      -0.12500000       0.00000000 </v>
   <v>      -0.37500000       0.12500000       0.00000000 </v>
   <v>      -0.12500000      -0.25000000       0.00000000 </v>
   <v>       0.25000000      -0.37500000       0.00000000 </v>
   <v>       0.37500000      -0.25000000       0.00000000 </v>
   <v>       0.12500000      -0.37500000       0.00000000 </v>
   <v>      -0.25000000      -0.12500000       0.00000000 </v>
   <v>      -0.12500000       0.12500000       0.00000000 </v>
   <v>      -0.12500000       0.00000000       0.00000000 </v>
   <v>       0.00000000      -0.12500000       0.00000000 </v>
   <v>       0.37500000       0.37500000       0.00000000 </v>
   <v>      -0.37500000      -0.25000000       0.00000000 </v>
   <v>       0.25000000       0.37500000       0.00000000 </v>
   <v>      -0.37500000       0.37500000       0.00000000 </v>
   <v>      -0.37500000       0.00000000       0.00000000 </v>
   <v>       0.00000000      -0.37500000       0.00000000 </v>
  </varray>
  <varray name="weights" >
   <v>       0.04166667 </v>
   <v>       0.04166667 </v>
   <v>       0.04166667 </v>
   <v>       0.04166667 </v>
   <v>       0.04166667 </v>
   <v>       0.04166667 </v>
   <v>       0.04166667 </v>
   <v>       0.04166667 </v>
   <v>       0.04166667 </v>
   <v>       0.04166667 </v>
   <v>       0.04166667 </v>
   <v>       0.04166667 </v>
   <v>       0.04166667 </v>
   <v>       0.04166667 </v>
   <v>       0.04166667 </v>
   <v>       0.04166667 </v>
   <v>       0.04166667 </v>
   <v>       0.04166667 </v>
   <v>       0.04166667 </v>
   <v>       0.04166667 </v>
   <v>       0.04166667 </v>
   <v>       0.04166667 </v>
   <v>       0.04166667 </v>
   <v>       0.04166667 </v>
  </varray>
 </kpoints>
 <parameters>
  <separator name="general" >
   <i type="string" name="SYSTEM">PBE-grap</i>
   <i type="logical" name="LCOMPAT"> F  </i>
  </separator>
  <separator name="electronic" >
   <i type="string" name="PREC">normal</i>
   <i name="ENMAX">    370.00000000</i>
   <i name="ENAUG">    644.87300000</i>
   <i name="EDIFF">      0.00001000</i>
   <i type="int" name="IALGO">    38</i>
   <i type="int" name="IWAVPR">    11</i>
   <i type="int" name="NBANDS">   228</i>
   <i type="int" name="NBANDSLOW">    -1</i>
   <i type="int" name="NBANDSHIGH">    -1</i>
   <i name="NELECT">    376.00000000</i>
   <i type="int" name="TURBO">     0</i>
   <i type="int" name="IRESTART">     0</i>
   <i type="int" name="NREBOOT">     0</i>
   <i type="int" name="NMIN">     0</i>
   <i name="EREF">      0.00000000</i>
   <separator name="electronic smearing" >
    <i type="int" name="ISMEAR">     0</i>
    <i name="SIGMA">      0.41000000</i>
    <i name="KSPACING">      0.50000000</i>
    <i type="logical" name="KGAMMA"> T  </i>
    <i type="logical" name="KBLOWUP"> T  </i>
   </separator>
   <separator name="electronic projectors" >
    <i type="logical" name="LREAL"> T  </i>
    <v name="ROPT">     -0.00050000     -0.00050000     -0.00050000</v>
    <i type="int" name="LMAXPAW">  -100</i>
    <i type="int" name="LMAXMIX">     2</i>
    <i type="logical" name="NLSPLINE"> F  </i>
   </separator>
   <separator name="electronic startup" >
    <i type="int" name="ISTART">     0</i>
    <i type="int" name="ICHARG">     2</i>
    <i type="int" name="INIWAV">     1</i>
   </separator>
   <separator name="electronic spin" >
    <i type="int" name="ISPIN">     1</i>
    <i type="logical" name="LNONCOLLINEAR"> F  </i>
    <v name="MAGMOM">      1.00000000      1.00000000      1.00000000      1.00000000      1.00000000      1.00000000      1.00000000      1.00000000      1.00000000      1.00000000      1.00000000      1.00000000      1.00000000      1.00000000      1.00000000      1.00000000      1.00000000      1.00000000      1.00000000      1.00000000
      1.00000000      1.00000000      1.00000000      1.00000000      1.00000000      1.00000000      1.00000000      1.00000000      1.00000000      1.00000000      1.00000000      1.00000000      1.00000000      1.00000000      1.00000000      1.00000000      1.00000000      1.00000000      1.00000000</v>
    <i name="NUPDOWN">     -1.00000000</i>
    <i type="logical" name="LSORBIT"> F  </i>
    <v name="SAXIS">      0.00000000      0.00000000      1.00000000</v>
    <i type="logical" name="LSPIRAL"> F  </i>
    <v name="QSPIRAL">      0.00000000      0.00000000      0.00000000</v>
    <i type="logical" name="LZEROZ"> F  </i>
   </separator>
   <separator name="electronic exchange-correlation" >
    <i type="logical" name="LASPH"> F  </i>
   </separator>
   <separator name="electronic convergence" >
    <i type="int" name="NELM">   150</i>
    <i type="int" name="NELMDL">    -5</i>
    <i type="int" name="NELMIN">     4</i>
    <i name="ENINI">    370.00000000</i>
    <separator name="electronic convergence detail" >
     <i type="logical" name="LDIAG"> T  </i>
     <i type="logical" name="LSUBROT"> F  </i>
     <i type="logical" name="LROBUST"> F  </i>
     <i type="int" name="ISEARCH">     0</i>
     <i name="WEIMIN">      0.00100000</i>
     <i name="EBREAK">      0.00000001</i>
     <i name="DEPER">      0.30000000</i>
     <i type="int" name="NRMM">     4</i>
     <i name="TIME">      0.40000000</i>
    </separator>
   </separator>
   <separator name="electronic mixer" >
    <i name="AMIX">      0.40000000</i>
    <i name="BMIX">      1.00000000</i>
    <i name="AMIN">      0.10000000</i>
    <i name="AMIX_MAG">      1.60000000</i>
    <i name="BMIX_MAG">      1.00000000</i>
    <separator name="electronic mixer details" >
     <i type="int" name="IMIX">     4</i>
     <i type="logical" name="MIXFIRST"> F  </i>
     <i type="int" name="MAXMIX">   -45</i>
     <i name="WC">    100.00000000</i>
     <i type="int" name="INIMIX">     1</i>
     <i type="int" name="MIXPRE">     1</i>
     <i type="int" name="MREMOVE">     5</i>
    </separator>
   </separator>
   <separator name="electronic dipolcorrection" >
    <i type="logical" name="LDIPOL"> F  </i>
    <i type="logical" name="LMONO"> F  </i>
    <i type="int" name="IDIPOL">     0</i>
    <i name="EPSILON">      1.00000000</i>
    <v name="DIPOL">   -100.00000000   -100.00000000   -100.00000000</v>
    <i name="EFIELD">      0.00000000</i>
    <i type="logical" name="LVACPOTAV"> F  </i>
   </separator>
  </separator>
  <separator name="grids" >
   <i type="int" name="NGX">    40</i>
   <i type="int" name="NGY">    40</i>
   <i type="int" name="NGZ">    80</i>
   <i type="int" name="NGXF">    80</i>
   <i type="int" name="NGYF">    80</i>
   <i type="int" name="NGZF">   160</i>
   <i type="logical" name="ADDGRID"> F  </i>
  </separator>
  <separator name="ionic" >
   <i type="int" name="NSW">  1000</i>
   <i type="int" name="IBRION">     3</i>
   <i type="int" name="MDALGO">     0</i>
   <i type="int" name="ISIF">     2</i>
   <i name="PSTRESS">      0.00000000</i>
   <i name="EDIFFG">     -0.02600000</i>
   <i type="int" name="NFREE">     0</i>
   <i name="POTIM">      0.00000000</i>
   <i name="SMASS">     -3.00000000</i>
   <i name="SCALEE">      1.00000000</i>
  </separator>
  <separator name="ionic md" >
   <i name="TEBEG">      0.00010000</i>
   <i name="TEEND">      0.00010000</i>
   <i type="int" name="NBLOCK">     1</i>
   <i type="int" name="KBLOCK">  1000</i>
   <i type="int" name="NPACO">   256</i>
   <i name="APACO">     10.00000000</i>
  </separator>
  <separator name="symmetry" >
   <i type="int" name="ISYM">     0</i>
   <i name="SYMPREC">      0.00001000</i>
  </separator>
  <separator name="dos" >
   <i type="int" name="LORBIT">     0</i>
   <v name="RWIGS">     -1.00000000     -1.00000000     -1.00000000</v>
   <i type="int" name="NEDOS">   301</i>
   <i name="EMIN">     10.00000000</i>
   <i name="EMAX">    -10.00000000</i>
   <i name="EFERMI">      0.00000000</i>
  </separator>
  <separator name="writing" >
   <i type="int" name="NWRITE">     0</i>
   <i type="logical" name="LWAVE"> F  </i>
   <i type="logical" name="LDOWNSAMPLE"> F  </i>
   <i type="logical" name="LCHARG"> F  </i>
   <i type="logical" name="LPARD"> F  </i>
   <i type="logical" name="LVTOT"> F  </i>
   <i type="logical" name="LVHAR"> F  </i>
   <i type="logical" name="LELF"> F  </i>
   <i type="logical" name="LOPTICS"> F  </i>
   <v name="STM">      0.00000000      0.00000000      0.00000000      0.00000000      0.00000000      0.00000000      0.00000000</v>
  </separator>
  <separator name="performance" >
   <i type="int" name="NPAR">     4</i>
   <i type="int" name="NSIM">     4</i>
   <i type="int" name="NBLK">    -1</i>
   <i type="logical" name="LPLANE"> T  </i>
   <i type="logical" name="LSCALAPACK"> T  </i>
   <i type="logical" name="LSCAAWARE"> F  </i>
   <i type="logical" name="LSCALU"> F  </i>
   <i type="logical" name="LASYNC"> F  </i>
   <i type="logical" name="LORBITALREAL"> F  </i>
  </separator>
  <separator name="miscellaneous" >
   <i type="int" name="IDIOT">     3</i>
   <i type="int" name="PHON_NSTRUCT">    -1</i>
   <i type="logical" name="LMUSIC"> F  </i>
   <v name="POMASS">    106.42000000     12.01100000     16.00000000</v>
   <v name="DARWINR">      0.00000000      0.00000000      0.00000000</v>
   <v name="DARWINV">      1.00000000      1.00000000      1.00000000</v>
   <i type="logical" name="LCORR"> T  </i>
  </separator>
  <i type="logical" name="GGA_COMPAT"> T  </i>
  <i type="logical" name="LBERRY"> F  </i>
  <i type="int" name="ICORELEVEL">     0</i>
  <i type="logical" name="LDAU"> F  </i>
  <i type="int" name="I_CONSTRAINED_M">     0</i>
  <separator name="electronic exchange-correlation" >
   <i type="string" name="GGA    ">PE</i>
   <i type="string" name="XC_C">1</i>
   <i type="int" name="VOSKOWN">     0</i>
   <i type="logical" name="LHFCALC"> F  </i>
   <i type="string" name="PRECFOCK"></i>
   <i type="logical" name="LSYMGRAD"> F  </i>
   <i type="logical" name="LHFONE"> F  </i>
   <i type="logical" name="LRHFCALC"> F  </i>
   <i type="logical" name="LTHOMAS"> F  </i>
   <i type="logical" name="LMODELHF"> F  </i>
   <i type="logical" name="LFOCKACE"> F  </i>
   <i name="ENCUT4O">     -1.00000000</i>
   <i type="int" name="EXXOEP">     0</i>
   <i type="int" name="FOURORBIT">     0</i>
   <i name="AEXX">      0.00000000</i>
   <i name="HFALPHA">      0.00000000</i>
   <i name="MCALPHA">      0.00000000</i>
   <i name="ALDAX">      1.00000000</i>
   <i name="AGGAX">      1.00000000</i>
   <i name="AMGGAX">      1.00000000</i>
   <i name="ALDAC">      1.00000000</i>
   <i name="AGGAC">      1.00000000</i>
   <i name="AMGGAC">      1.00000000</i>
   <i type="int" name="NKREDX">     1</i>
   <i type="int" name="NKREDY">     1</i>
   <i type="int" name="NKREDZ">     1</i>
   <i type="logical" name="SHIFTRED"> F  </i>
   <i type="logical" name="ODDONLY"> F  </i>
   <i type="logical" name="EVENONLY"> F  </i>
   <i type="int" name="LMAXFOCK">     0</i>
   <i type="int" name="NMAXFOCKAE">     0</i>
   <i type="logical" name="LFOCKAEDFT"> F  </i>
   <i name="HFSCREEN">      0.00000000</i>
   <i name="HFSCREENC">      0.00000000</i>
   <i type="int" name="NBANDSGWLOW">     0</i>
  </separator>
  <separator name="vdW DFT" >
   <i type="logical" name="LUSE_VDW"> F  </i>
   <i type="int" name="IVDW_NL">    -1</i>
   <i type="logical" name="LSPIN_VDW"> F  </i>
   <i name="ZAB_VDW">     -0.84910000</i>
   <i name="GAMMA_VDW">      1.39626340</i>
   <i name="ALPHA_VDW">      0.00000000</i>
   <i name="PARAM1">      0.12340000</i>
   <i name="PARAM2">      1.00000000</i>
   <i name="BPARAM">      6.30000000</i>
   <i name="CPARAM">      0.00930000</i>
  </separator>
  <separator name="model GW" >
   <i type="int" name="MODEL_GW">     0</i>
   <i name="MODEL_EPS0">     15.20235803</i>
   <i name="MODEL_ALPHA">      1.00000000</i>
  </separator>
  <separator name="linear response parameters" >
   <i type="logical" name="LEPSILON"> F  </i>
   <i type="logical" name="LRPA"> F  </i>
   <i type="logical" name="LNABLA"> F  </i>
   <i type="logical" name="LVEL"> F  </i>
   <i name="CSHIFT">      0.10000000</i>
   <i name="OMEGAMAX">     -1.00000000</i>
   <i name="DEG_THRESHOLD">      0.00200000</i>
   <i name="RTIME">     -0.10000000</i>
   <i name="WPLASMAI">      0.00000000</i>
   <v name="DFIELD">      0.00000000      0.00000000      0.00000000</v>
   <v name="WPLASMA">      0.00000000      0.00000000      0.00000000      0.00000000      0.00000000      0.00000000      0.00000000      0.00000000      0.00000000</v>
  </separator>
  <separator name="orbital magnetization" >
   <i type="logical" name="NUCIND"> F  </i>
   <v name="MAGPOS">      0.00000000      0.00000000      0.00000000</v>
   <i type="logical" name="LNICSALL"> T  </i>
   <i type="logical" name="ORBITALMAG"> F  </i>
   <i type="logical" name="LMAGBLOCH"> F  </i>
   <i type="logical" name="LCHIMAG"> F  </i>
   <i type="logical" name="LGAUGE"> T  </i>
   <i type="int" name="MAGATOM">     0</i>
   <v name="MAGDIPOL">      0.00000000      0.00000000      0.00000000</v>
   <v name="AVECCONST">      0.00000000      0.00000000      0.00000000</v>
  </separator>
  <separator name="response functions" >
   <i type="logical" name="LALL_IN_ONE"> F  </i>
   <i type="int" name="IALL_IN_ONE">    -1</i>
   <i type="int" name="NBANDS_WAVE">    -1</i>
   <i type="logical" name="LFINITE_TEMPERATURE"> F  </i>
   <i type="logical" name="LADDER"> F  </i>
   <i type="logical" name="LRPAFORCE"> F  </i>
   <i type="logical" name="LFXC"> F  </i>
   <i type="logical" name="LHARTREE"> T  </i>
   <i type="int" name="IBSE">     2</i>
   <v type="int" name="KPOINT">    -1     0     0     0</v>
   <i type="logical" name="LTCTC"> F  </i>
   <i type="logical" name="LTCTE"> F  </i>
   <i type="logical" name="LTETE"> F  </i>
   <i type="logical" name="LTRIPLET"> F  </i>
   <i type="logical" name="LFXCEPS"> F  </i>
   <i type="logical" name="LFXHEG"> F  </i>
   <i type="int" name="NATURALO">     2</i>
   <i type="logical" name="LHOLEGF"> F  </i>
   <i type="logical" name="L2ORDER"> F  </i>
   <i type="logical" name="LDMP1"> F  </i>
   <i type="logical" name="LMP2LT"> F  </i>
   <i type="logical" name="LSMP2LT"> F  </i>
   <i type="logical" name="LGWLF"> F  </i>
   <i name="ENCUTGW">     -1.60000002</i>
   <i name="ENCUTGWSOFT">     -1.60000002</i>
   <i name="ENCUTLF">     -1.00000000</i>
   <i type="logical" name="ESF_SPLINES"> F  </i>
   <i name="ESF_CONV">      0.01000000</i>
   <i type="int" name="ESF_NINTER">    15</i>
   <i type="int" name="LMAXMP2">    -1</i>
   <i name="SCISSOR">      0.00000000</i>
   <i type="int" name="NOMEGA">     0</i>
   <i type="int" name="NOMEGAR">     0</i>
   <i type="int" name="NBANDSGW">    -1</i>
   <i type="int" name="NBANDSO">    -1</i>
   <i type="int" name="NBANDSV">    -1</i>
   <i type="int" name="NELMGW">     1</i>
   <i type="int" name="NELMHF">     1</i>
   <i type="int" name="DIM">     3</i>
   <i type="int" name="IESPILON">     4</i>
   <i type="int" name="ANTIRES">     0</i>
   <i name="OMEGAMAX">    -30.00000000</i>
   <i name="OMEGAMIN">    -30.00000000</i>
   <i name="OMEGATL">   -200.00000000</i>
   <i type="int" name="OMEGAGRID">     0</i>
   <i name="CSHIFT">     -0.10000000</i>
   <i type="logical" name="LSELFENERGY"> F  </i>
   <i type="logical" name="LSPECTRAL"> F  </i>
   <i type="logical" name="LSPECTRALGW"> F  </i>
   <i type="logical" name="LSINGLES"> F  </i>
   <i type="logical" name="LFERMIGW"> F  </i>
   <i type="logical" name="ODDONLYGW"> F  </i>
   <i type="logical" name="EVENONLYGW"> F  </i>
   <i type="int" name="NKREDLFX">     1</i>
   <i type="int" name="NKREDLFY">     1</i>
   <i type="int" name="NKREDLFZ">     1</i>
   <i type="int" name="MAXMEM">  2800</i>
   <i type="int" name="TELESCOPE">     0</i>
   <i type="int" name="NTAUPAR">    -1</i>
   <i type="int" name="NOMEGAPAR">    -1</i>
   <i name="DAMP_NEWTON">      0.80000001</i>
   <i name="LAMBDA">      1.00000000</i>
  </separator>
  <separator name="External order field" >
   <i name="OFIELD_KAPPA">      0.00000000</i>
   <v name="OFIELD_K">      0.00000000      0.00000000      0.00000000</v>
   <i name="OFIELD_Q6_NEAR">      0.00000000</i>
   <i name="OFIELD_Q6_FAR">      0.00000000</i>
   <i name="OFIELD_A">      0.00000000</i>
  </separator>
  <separator name="optional k-points parameters" >
   <i type="int" name="KPOINTS_OPT_MODE">     1</i>
   <i type="logical" name="LKPOINTS_OPT"> F  </i>
  </separator>
 </parameters>
 <atominfo>
  <atoms>      39 </atoms>
  <types>       3 </types>
  <array name="atoms" >
   <dimension dim="1">ion</dimension>
   <field type="string">element</field>
   <field type="int">atomtype</field>
   <set>
    <rc><c>Pd</c><c>   1</c></rc>
    <rc><c>Pd</c><c>   1</c></rc>
    <rc><c>Pd</c><c>   1</c></rc>
    <rc><c>Pd</c><c>   1</c></rc>
    <rc><c>Pd</c><c>   1</c></rc>
    <rc><c>Pd</c><c>   1</c></rc>
    <rc><c>Pd</c><c>   1</c></rc>
    <rc><c>Pd</c><c>   1</c></rc>
    <rc><c>Pd</c><c>   1</c></rc>
    <rc><c>Pd</c><c>   1</c></rc>
    <rc><c>Pd</c><c>   1</c></rc>
    <rc><c>Pd</c><c>   1</c></rc>
    <rc><c>Pd</c><c>   1</c></rc>
    <rc><c>Pd</c><c>   1</c></rc>
    <rc><c>Pd</c><c>   1</c></rc>
    <rc><c>Pd</c><c>   1</c></rc>
    <rc><c>Pd</c><c>   1</c></rc>
    <rc><c>Pd</c><c>   1</c></rc>
    <rc><c>Pd</c><c>   1</c></rc>
    <rc><c>Pd</c><c>   1</c></rc>
    <rc><c>Pd</c><c>   1</c></rc>
    <rc><c>Pd</c><c>   1</c></rc>
    <rc><c>Pd</c><c>   1</c></rc>
    <rc><c>Pd</c><c>   1</c></rc>
    <rc><c>Pd</c><c>   1</c></rc>
    <rc><c>Pd</c><c>   1</c></rc>
    <rc><c>Pd</c><c>   1</c></rc>
    <rc><c>Pd</c><c>   1</c></rc>
    <rc><c>Pd</c><c>   1</c></rc>
    <rc><c>Pd</c><c>   1</c></rc>
    <rc><c>Pd</c><c>   1</c></rc>
    <rc><c>Pd</c><c>   1</c></rc>
    <rc><c>Pd</c><c>   1</c></rc>
    <rc><c>Pd</c><c>   1</c></rc>
    <rc><c>Pd</c><c>   1</c></rc>
    <rc><c>Pd</c><c>   1</c></rc>
    <rc><c>C </c><c>   2</c></rc>
    <rc><c>O </c><c>   3</c></rc>
    <rc><c>O </c><c>   3</c></rc>
   </set>
  </array>
  <array name="atomtypes" >
   <dimension dim="1">type</dimension>
   <field type="int">atomspertype</field>
   <field type="string">element</field>
   <field>mass</field>
   <field>valence</field>
   <field type="string">pseudopotential</field>
   <set>
    <rc><c>  36</c><c>Pd</c><c>    106.42000000</c><c>     10.00000000</c><c>  PAW_PBE Pd 04Jan2005                  </c></rc>
    <rc><c>   1</c><c>C </c><c>     12.01100000</c><c>      4.00000000</c><c>  PAW_PBE C 08Apr2002                   </c></rc>
    <rc><c>   2</c><c>O </c><c>     16.00000000</c><c>      6.00000000</c><c>  PAW_PBE O 08Apr2002                   </c></rc>
   </set>
  </array>
 </atominfo>
 <structure name="initialpos" >
  <crystal>
   <varray name="basis" >
    <v>       8.30990028       0.00000000       0.00000000 </v>
    <v>      -4.15495014       7.19658475       0.00000000 </v>
    <v>       0.00000000       0.00000000      16.52350044 </v>
   </varray>
   <i name="volume">    988.15327180 </i>
   <varray name="rec_basis" >
    <v>       0.12033839       0.06947740       0.00000000 </v>
    <v>       0.00000000       0.13895480       0.00000000 </v>
    <v>       0.00000000       0.00000000       0.06051986 </v>
   </varray>
  </crystal>
  <varray name="positions" >
   <v>       0.99905012       0.99844099       0.44008441 </v>
   <v>       0.11093000       0.22330000       0.16024000 </v>
   <v>       0.22214039       0.11309278       0.30039481 </v>
   <v>       0.33169273       0.00022936       0.44005065 </v>
   <v>       0.44426000       0.22330000       0.16024000 </v>
   <v>       0.55379794       0.11080854       0.29834292 </v>
   <v>       0.66512002       0.99937030       0.43637092 </v>
   <v>       0.77760000       0.22330000       0.16024000 </v>
   <v>       0.88855964       0.11158316       0.29915383 </v>
   <v>       0.99736207       0.33264671       0.43999673 </v>
   <v>       0.11093000       0.55664000       0.16024000 </v>
   <v>       0.22142213       0.44397895       0.29980313 </v>
   <v>       0.32858372       0.33348458       0.45095690 </v>
   <v>       0.44426000       0.55664000       0.16024000 </v>
   <v>       0.55187772       0.44336025       0.29983094 </v>
   <v>       0.66493380       0.33279903       0.43618246 </v>
   <v>       0.77760000       0.55664000       0.16024000 </v>
   <v>       0.88802571       0.44396438       0.29841197 </v>
   <v>       0.99786190       0.66547295       0.43593476 </v>
   <v>       0.11093000       0.88997000       0.16024000 </v>
   <v>       0.22209612       0.77853112       0.29883953 </v>
   <v>       0.33296208       0.66672288       0.43819272 </v>
   <v>       0.44426000       0.88997000       0.16024000 </v>
   <v>       0.55412171       0.77778873       0.29820286 </v>
   <v>       0.66582273       0.66631390       0.43633174 </v>
   <v>       0.77760000       0.88997000       0.16024000 </v>
   <v>       0.88813046       0.77883547       0.29818814 </v>
   <v>       0.99982000       0.00108000       0.02337000 </v>
   <v>       0.33315000       0.00108000       0.02337000 </v>
   <v>       0.66649000       0.00108000       0.02337000 </v>
   <v>       0.99982000       0.33441000       0.02337000 </v>
   <v>       0.33315000       0.33441000       0.02337000 </v>
   <v>       0.66649000       0.33441000       0.02337000 </v>
   <v>       0.99982000       0.66775000       0.02337000 </v>
   <v>       0.33315000       0.66775000       0.02337000 </v>
   <v>       0.66649000       0.66775000       0.02337000 </v>
   <v>       0.22700751       0.14276221       0.60131324 </v>
   <v>       0.23646713       0.32824893       0.59136064 </v>
   <v>       0.21460799       0.03378423       0.65328658 </v>
  </varray>
  <varray name="selective"  type="logical" >
   <v type="logical" >  T  T  T </v>
   <v type="logical" >  F  F  F </v>
   <v type="logical" >  T  T  T </v>
   <v type="logical" >  T  T  T </v>
   <v type="logical" >  F  F  F </v>
   <v type="logical" >  T  T  T </v>
   <v type="logical" >  T  T  T </v>
   <v type="logical" >  F  F  F </v>
   <v type="logical" >  T  T  T </v>
   <v type="logical" >  T  T  T </v>
   <v type="logical" >  F  F  F </v>
   <v type="logical" >  T  T  T </v>
   <v type="logical" >  T  T  T </v>
   <v type="logical" >  F  F  F </v>
   <v type="logical" >  T  T  T </v>
   <v type="logical" >  T  T  T </v>
   <v type="logical" >  F  F  F </v>
   <v type="logical" >  T  T  T </v>
   <v type="logical" >  T  T  T </v>
   <v type="logical" >  F  F  F </v>
   <v type="logical" >  T  T  T </v>
   <v type="logical" >  T  T  T </v>
   <v type="logical" >  F  F  F </v>
   <v type="logical" >  T  T  T </v>
   <v type="logical" >  T  T  T </v>
   <v type="logical" >  F  F  F </v>
   <v type="logical" >  T  T  T </v>
   <v type="logical" >  F  F  F </v>
   <v type="logical" >  F  F  F </v>
   <v type="logical" >  F  F  F </v>
   <v type="logical" >  F  F  F </v>
   <v type="logical" >  F  F  F </v>
   <v type="logical" >  F  F  F </v>
   <v type="logical" >  F  F  F </v>
   <v type="logical" >  F  F  F </v>
   <v type="logical" >  F  F  F </v>
   <v type="logical" >  T  T  T </v>
   <v type="logical" >  T  T  T </v>
   <v type="logical" >  T  T  T </v>
  </varray>
  <nose>
   <v>      -3.00000000       0.00000000       0.00010000       0.00010000 </v>
  </nose>
 </structure>
 <calculation>
  <scstep>
   <time name="dav">   14.82   14.99</time>
   <time name="total">   14.93   15.10</time>
   <energy>
    <i name="alphaZ">    918.22725072 </i>
    <i name="ewald">  21325.36000037 </i>
    <i name="hartreedc"> -53988.56298277 </i>
    <i name="XCdc">   -994.44561587 </i>
    <i name="pawpsdc">  29844.20032359 </i>
    <i name="pawaedc"> -27608.36462881 </i>
    <i name="eentropy">     -1.24112426 </i>
    <i name="bandstr">   2437.57018040 </i>
    <i name="atom">  30161.86332653 </i>
    <i name="e_fr_energy">   2094.60672991 </i>
    <i name="e_wo_entrp">   2095.84785417 </i>
    <i name="e_0_energy">   2095.22729204 </i>
   </energy>
  </scstep>
  <scstep>
   <time name="dav">   15.90   16.00</time>
   <time name="total">   15.93   16.04</time>
   <energy>
    <i name="e_fr_energy">    -92.69548261 </i>
    <i name="e_wo_entrp">    -89.19462157 </i>
    <i name="e_0_energy">    -90.94505209 </i>
   </energy>
  </scstep>
  <scstep>
   <time name="dav">   16.88   16.98</time>
   <time name="total">   16.91   17.02</time>
   <energy>
    <i name="e_fr_energy">   -207.93069653 </i>
    <i name="e_wo_entrp">   -202.57212860 </i>
    <i name="e_0_energy">   -205.25141256 </i>
   </energy>
  </scstep>
  <scstep>
   <time name="dav">   17.14   17.25</time>
   <time name="total">   17.17   17.28</time>
   <energy>
    <i name="e_fr_energy">   -211.68604294 </i>
    <i name="e_wo_entrp">   -206.23247929 </i>
    <i name="e_0_energy">   -208.95926111 </i>
   </energy>
  </scstep>
  <scstep>
   <time name="dav">   18.27   18.39</time>
   <time name="total">   18.66   18.78</time>
   <energy>
    <i name="e_fr_energy">   -211.81362900 </i>
    <i name="e_wo_entrp">   -206.35791250 </i>
    <i name="e_0_energy">   -209.08577075 </i>
   </energy>
  </scstep>
  <scstep>
   <time name="dav">   17.11   17.22</time>
   <time name="total">   17.58   17.69</time>
   <energy>
    <i name="e_fr_energy">   -203.25904629 </i>
    <i name="e_wo_entrp">   -198.09768664 </i>
    <i name="e_0_energy">   -200.67836646 </i>
   </energy>
  </scstep>
  <scstep>
   <time name="dav">   20.16   20.29</time>
   <time name="total">   20.63   20.77</time>
   <energy>
    <i name="e_fr_energy">   -207.70887510 </i>
    <i name="e_wo_entrp">   -202.87107224 </i>
    <i name="e_0_energy">   -205.28997367 </i>
   </energy>
  </scstep>
  <scstep>
   <time name="dav">   17.27   17.38</time>
   <time name="total">   17.74   17.85</time>
   <energy>
    <i name="e_fr_energy">   -214.23274497 </i>
    <i name="e_wo_entrp">   -210.01125712 </i>
    <i name="e_0_energy">   -212.12200104 </i>
   </energy>
  </scstep>
  <scstep>
   <time name="dav">   18.46   18.58</time>
   <time name="total">   18.94   19.06</time>
   <energy>
    <i name="e_fr_energy">   -203.10044941 </i>
    <i name="e_wo_entrp">   -198.15322136 </i>
    <i name="e_0_energy">   -200.62683539 </i>
   </energy>
  </scstep>
  <scstep>
   <time name="dav">   15.97   16.07</time>
   <time name="total">   16.46   16.56</time>
   <energy>
    <i name="e_fr_energy">   -202.15086741 </i>
    <i name="e_wo_entrp">   -197.04818500 </i>
    <i name="e_0_energy">   -199.59952620 </i>
   </energy>
  </scstep>
  <scstep>
   <time name="dav">   16.03   16.13</time>
   <time name="total">   16.50   16.60</time>
   <energy>
    <i name="e_fr_energy">   -201.66097199 </i>
    <i name="e_wo_entrp">   -196.44207024 </i>
    <i name="e_0_energy">   -199.05152111 </i>
   </energy>
  </scstep>
  <scstep>
   <time name="dav">   15.40   15.49</time>
   <time name="total">   15.86   15.96</time>
   <energy>
    <i name="e_fr_energy">   -201.53027162 </i>
    <i name="e_wo_entrp">   -196.28713375 </i>
    <i name="e_0_energy">   -198.90870268 </i>
   </energy>
  </scstep>
  <scstep>
   <time name="dav">   15.63   15.72</time>
   <time name="total">   16.10   16.20</time>
   <energy>
    <i name="e_fr_energy">   -201.49399649 </i>
    <i name="e_wo_entrp">   -196.23694707 </i>
    <i name="e_0_energy">   -198.86547178 </i>
   </energy>
  </scstep>
  <scstep>
   <time name="dav">   15.48   15.59</time>
   <time name="total">   15.94   16.05</time>
   <energy>
    <i name="e_fr_energy">   -201.46992654 </i>
    <i name="e_wo_entrp">   -196.19237221 </i>
    <i name="e_0_energy">   -198.83114938 </i>
   </energy>
  </scstep>
  <scstep>
   <time name="dav">   15.48   15.58</time>
   <time name="total">   15.95   16.05</time>
   <energy>
    <i name="e_fr_energy">   -201.46681549 </i>
    <i name="e_wo_entrp">   -196.18109163 </i>
    <i name="e_0_energy">   -198.82395356 </i>
   </energy>
  </scstep>
  <scstep>
   <time name="dav">   15.50   15.60</time>
   <time name="total">   15.96   16.06</time>
   <energy>
    <i name="e_fr_energy">   -201.46264337 </i>
    <i name="e_wo_entrp">   -196.17291756 </i>
    <i name="e_0_energy">   -198.81778046 </i>
   </energy>
  </scstep>
  <scstep>
   <time name="dav">   15.36   15.46</time>
   <time name="total">   15.83   15.93</time>
   <energy>
    <i name="e_fr_energy">   -201.46272063 </i>
    <i name="e_wo_entrp">   -196.17529930 </i>
    <i name="e_0_energy">   -198.81900997 </i>
   </energy>
  </scstep>
  <scstep>
   <time name="dav">   15.39   15.49</time>
   <time name="total">   15.86   15.96</time>
   <energy>
    <i name="e_fr_energy">   -201.46210556 </i>
    <i name="e_wo_entrp">   -196.17460206 </i>
    <i name="e_0_energy">   -198.81835381 </i>
   </energy>
  </scstep>
  <scstep>
   <time name="dav">   15.25   15.35</time>
   <time name="total">   15.72   15.82</time>
   <energy>
    <i name="e_fr_energy">   -201.46232107 </i>
    <i name="e_wo_entrp">   -196.17419178 </i>
    <i name="e_0_energy">   -198.81825642 </i>
   </energy>
  </scstep>
  <scstep>
   <time name="dav">   15.29   15.39</time>
   <time name="total">   15.75   15.85</time>
   <energy>
    <i name="e_fr_energy">   -201.46227807 </i>
    <i name="e_wo_entrp">   -196.17270447 </i>
    <i name="e_0_energy">   -198.81749127 </i>
   </energy>
  </scstep>
  <scstep>
   <time name="dav">   15.20   15.30</time>
   <time name="total">   15.66   15.76</time>
   <energy>
    <i name="e_fr_energy">   -201.46245793 </i>
    <i name="e_wo_entrp">   -196.17274335 </i>
    <i name="e_0_energy">   -198.81760064 </i>
   </energy>
  </scstep>
  <scstep>
   <time name="dav">   15.42   15.52</time>
   <time name="total">   15.90   16.00</time>
   <energy>
    <i name="e_fr_energy">   -201.46246904 </i>
    <i name="e_wo_entrp">   -196.17275546 </i>
    <i name="e_0_energy">   -198.81761225 </i>
   </energy>
  </scstep>
  <scstep>
   <time name="dav">   14.60   14.70</time>
   <time name="total">   15.08   15.18</time>
   <energy>
    <i name="e_fr_energy">   -201.46258539 </i>
    <i name="e_wo_entrp">   -196.17279171 </i>
    <i name="e_0_energy">   -198.81768855 </i>
   </energy>
  </scstep>
  <scstep>
   <time name="dav">   12.65   12.73</time>
   <time name="total">   13.11   13.20</time>
   <energy>
    <i name="e_fr_energy">   -201.46266489 </i>
    <i name="e_wo_entrp">   -196.17277741 </i>
    <i name="e_0_energy">   -198.81772115 </i>
   </energy>
  </scstep>
  <scstep>
   <time name="dav">   11.64   11.72</time>
   <time name="total">   12.11   12.18</time>
   <energy>
    <i name="e_fr_energy">   -201.46278319 </i>
    <i name="e_wo_entrp">   -196.17266872 </i>
    <i name="e_0_energy">   -198.81772595 </i>
   </energy>
  </scstep>
  <scstep>
   <time name="dav">   10.69   10.76</time>
   <time name="total">   11.16   11.23</time>
   <energy>
    <i name="e_fr_energy">   -201.46282547 </i>
    <i name="e_wo_entrp">   -196.17263040 </i>
    <i name="e_0_energy">   -198.81772793 </i>
   </energy>
  </scstep>
  <scstep>
   <time name="dav">   10.54   10.61</time>
   <time name="total">   11.01   11.08</time>
   <energy>
    <i name="e_fr_energy">   -201.46286029 </i>
    <i name="e_wo_entrp">   -196.17257336 </i>
    <i name="e_0_energy">   -198.81771683 </i>
   </energy>
  </scstep>
  <scstep>
   <time name="dav">   10.60   10.67</time>
   <time name="total">   11.08   11.16</time>
   <energy>
    <i name="e_fr_energy">   -201.46288009 </i>
    <i name="e_wo_entrp">   -196.17256957 </i>
    <i name="e_0_energy">   -198.81772483 </i>
   </energy>
  </scstep>
  <scstep>
   <time name="dav">   10.45   10.52</time>
   <time name="total">   10.92   10.99</time>
   <energy>
    <i name="e_fr_energy">   -201.46289388 </i>
    <i name="e_wo_entrp">   -196.17263040 </i>
    <i name="e_0_energy">   -198.81776214 </i>
   </energy>
  </scstep>
  <scstep>
   <time name="dav">   10.63   10.70</time>
   <time name="total">   10.74   10.81</time>
   <energy>
    <i name="alphaZ">    918.22725072 </i>
    <i name="ewald">  21325.36000037 </i>
    <i name="hartreedc"> -53887.46151886 </i>
    <i name="XCdc">  -1001.09684468 </i>
    <i name="pawpsdc">  35101.32433667 </i>
    <i name="pawaedc"> -32945.80988098 </i>
    <i name="eentropy">     -5.29024753 </i>
    <i name="bandstr">    131.42067989 </i>
    <i name="atom">  30161.86332653 </i>
    <i name="e_fr_energy">   -201.46289787 </i>
    <i name="e_wo_entrp">   -196.17265034 </i>
    <i name="e_0_energy">   -198.81777410 </i>
   </energy>
  </scstep>
  <structure>
   <crystal>
    <varray name="basis" >
     <v>       8.30990028       0.00000000       0.00000000 </v>
     <v>      -4.15495014       7.19658475       0.00000000 </v>
     <v>       0.00000000       0.00000000      16.52350044 </v>
    </varray>
    <i name="volume">    988.15327180 </i>
    <varray name="rec_basis" >
     <v>       0.12033839       0.06947740       0.00000000 </v>
     <v>       0.00000000       0.13895480       0.00000000 </v>
     <v>       0.00000000       0.00000000       0.06051986 </v>
    </varray>
   </crystal>
   <varray name="positions" >
    <v>       0.99905012       0.99844099       0.44008441 </v>
    <v>       0.11093000       0.22330000       0.16024000 </v>
    <v>       0.22214039       0.11309278       0.30039481 </v>
    <v>       0.33169273       0.00022936       0.44005065 </v>
    <v>       0.44426000       0.22330000       0.16024000 </v>
    <v>       0.55379794       0.11080854       0.29834292 </v>
    <v>       0.66512002       0.99937030       0.43637092 </v>
    <v>       0.77760000       0.22330000       0.16024000 </v>
    <v>       0.88855964       0.11158316       0.29915383 </v>
    <v>       0.99736207       0.33264671       0.43999673 </v>
    <v>       0.11093000       0.55664000       0.16024000 </v>
    <v>       0.22142213       0.44397895       0.29980313 </v>
    <v>       0.32858372       0.33348458       0.45095690 </v>
    <v>       0.44426000       0.55664000       0.16024000 </v>
    <v>       0.55187772       0.44336025       0.29983094 </v>
    <v>       0.66493380       0.33279903       0.43618246 </v>
    <v>       0.77760000       0.55664000       0.16024000 </v>
    <v>       0.88802571       0.44396438       0.29841197 </v>
    <v>       0.99786190       0.66547295       0.43593476 </v>
    <v>       0.11093000       0.88997000       0.16024000 </v>
    <v>       0.22209612       0.77853112       0.29883953 </v>
    <v>       0.33296208       0.66672288       0.43819272 </v>
    <v>       0.44426000       0.88997000       0.16024000 </v>
    <v>       0.55412171       0.77778873       0.29820286 </v>
    <v>       0.66582273       0.66631390       0.43633174 </v>
    <v>       0.77760000       0.88997000       0.16024000 </v>
    <v>       0.88813046       0.77883547       0.29818814 </v>
    <v>       0.99982000       0.00108000       0.02337000 </v>
    <v>       0.33315000       0.00108000       0.02337000 </v>
    <v>       0.66649000       0.00108000       0.02337000 </v>
    <v>       0.99982000       0.33441000       0.02337000 </v>
    <v>       0.33315000       0.33441000       0.02337000 </v>
    <v>       0.66649000       0.33441000       0.02337000 </v>
    <v>       0.99982000       0.66775000       0.02337000 </v>
    <v>       0.33315000       0.66775000       0.02337000 </v>
    <v>       0.66649000       0.66775000       0.02337000 </v>
    <v>       0.22700751       0.14276221       0.60131324 </v>
    <v>       0.23646713       0.32824893       0.59136064 </v>
    <v>       0.21460799       0.03378423       0.65328658 </v>
   </varray>
  </structure>
  <varray name="forces" >
   <v>       0.01511475       0.02644313       0.08022767 </v>
   <v>       0.01562930      -0.00813529       0.26774683 </v>
   <v>       0.00651365       0.02632748       0.12876137 </v>
   <v>      -0.03456577       0.03307696       0.08263896 </v>
   <v>      -0.03079107       0.00501562       0.22895780 </v>
   <v>      -0.00220683      -0.00499750       0.02854451 </v>
   <v>      -0.00905507       0.00182701       0.01472383 </v>
   <v>       0.00607429      -0.00582324       0.15842174 </v>
   <v>       0.01085254      -0.00009426       0.01686071 </v>
   <v>      -0.05272615       0.00653847      -0.16695577 </v>
   <v>       0.00591881      -0.00738878       0.18138379 </v>
   <v>       0.02105520      -0.00442017       0.10544696 </v>
   <v>      -0.01109138      -0.04919579       0.12146768 </v>
   <v>      -0.00337752      -0.04058410       0.22559216 </v>
   <v>      -0.04726399      -0.01777503       0.11028640 </v>
   <v>       0.00324841      -0.01343265       0.03741540 </v>
   <v>      -0.02100133      -0.03033693       0.19631024 </v>
   <v>       0.00434577       0.00480605       0.01899294 </v>
   <v>       0.02386442       0.02114600       0.04501383 </v>
   <v>       0.00487300       0.01933756       0.22514452 </v>
   <v>      -0.01084840       0.01185214       0.01813286 </v>
   <v>      -0.05471099       0.03054863      -0.11048934 </v>
   <v>      -0.01761884      -0.00640762       0.16108713 </v>
   <v>       0.00938106      -0.00448262      -0.00957565 </v>
   <v>      -0.01765164       0.02092248       0.02339177 </v>
   <v>       0.00328306       0.01376504       0.18147899 </v>
   <v>       0.00443638       0.00008819       0.02227263 </v>
   <v>       0.00374224      -0.00672868      -0.13316577 </v>
   <v>      -0.00351689      -0.00114133      -0.14193050 </v>
   <v>       0.00391644      -0.00248520      -0.14063854 </v>
   <v>       0.00170215       0.00221879      -0.13449931 </v>
   <v>       0.00284348       0.00194615      -0.14490831 </v>
   <v>      -0.00242967       0.00204053      -0.13404779 </v>
   <v>       0.00558798       0.00403926      -0.15096325 </v>
   <v>      -0.00236869       0.00107797      -0.14665218 </v>
   <v>      -0.00197527      -0.00003798      -0.14263469 </v>
   <v>      -2.47966481       4.20360025       1.25621399 </v>
   <v>       3.43489677      -6.13157381       0.12260469 </v>
   <v>      -0.78441540       1.89842330      -2.50265830 </v>
  </varray>
  <varray name="stress" >
   <v>     -27.86606028       7.60702006      -0.96689497 </v>
   <v>       7.60702023     -38.51828661       4.27665956 </v>
   <v>      -0.96689518       4.27665951     -19.99001429 </v>
  </varray>
  <energy>
   <i name="e_fr_energy">   -201.46289787 </i>
   <i name="e_wo_entrp">   -196.17265034 </i>
   <i name="e_0_energy">   -198.81777410 </i>
  </energy>
  <time name="totalsc">  600.19  603.67</time>
 </calculation>
 <calculation>
  <scstep>
   <time name="dav">   14.47   14.57</time>
   <time name="total">   14.93   15.03</time>
   <energy>
    <i name="alphaZ">    918.22725072 </i>
    <i name="ewald">  21335.99544475 </i>
    <i name="hartreedc"> -53897.30971812 </i>
    <i name="XCdc">  -1001.05517335 </i>
    <i name="pawpsdc">  35101.34148748 </i>
    <i name="pawaedc"> -32945.82688930 </i>
    <i name="eentropy">     -5.28269857 </i>
    <i name="bandstr">    130.50467809 </i>
    <i name="atom">  30161.86332653 </i>
    <i name="e_fr_energy">   -201.54229176 </i>
    <i name="e_wo_entrp">   -196.25959319 </i>
    <i name="e_0_energy">   -198.90094248 </i>
   </energy>
  </scstep>
  <scstep>
   <time name="dav">   15.08   15.18</time>
   <time name="total">   15.55   15.65</time>
   <energy>
    <i name="e_fr_energy">   -201.54398613 </i>
    <i name="e_wo_entrp">   -196.25532443 </i>
    <i name="e_0_energy">   -198.89965528 </i>
   </energy>
  </scstep>
  <scstep>
   <time name="dav">   16.13   16.24</time>
   <time name="total">   16.60   16.71</time>
   <energy>
    <i name="e_fr_energy">   -201.54489029 </i>
    <i name="e_wo_entrp">   -196.26169237 </i>
    <i name="e_0_energy">   -198.90329133 </i>
   </energy>
  </scstep>
  <scstep>
   <time name="dav">   16.27   16.39</time>
   <time name="total">   16.73   16.85</time>
   <energy>
    <i name="e_fr_energy">   -201.54390434 </i>
    <i name="e_wo_entrp">   -196.25993475 </i>
    <i name="e_0_energy">   -198.90191955 </i>
   </energy>
  </scstep>
  <scstep>
   <time name="dav">   15.85   15.95</time>
   <time name="total">   16.31   16.42</time>
   <energy>
    <i name="e_fr_energy">   -201.54370931 </i>
    <i name="e_wo_entrp">   -196.25914420 </i>
    <i name="e_0_energy">   -198.90142676 </i>
   </energy>
  </scstep>
  <scstep>
   <time name="dav">   15.70   15.80</time>
   <time name="total">   16.17   16.27</time>
   <energy>
    <i name="e_fr_energy">   -201.54363239 </i>
    <i name="e_wo_entrp">   -196.25731829 </i>
    <i name="e_0_energy">   -198.90047534 </i>
   </energy>
  </scstep>
  <scstep>
   <time name="dav">   14.96   15.05</time>
   <time name="total">   15.42   15.52</time>
   <energy>
    <i name="e_fr_energy">   -201.54358708 </i>
    <i name="e_wo_entrp">   -196.25771697 </i>
    <i name="e_0_energy">   -198.90065203 </i>
   </energy>
  </scstep>
  <scstep>
   <time name="dav">   13.34   13.42</time>
   <time name="total">   13.80   13.89</time>
   <energy>
    <i name="e_fr_energy">   -201.54357171 </i>
    <i name="e_wo_entrp">   -196.25782757 </i>
    <i name="e_0_energy">   -198.90069964 </i>
   </energy>
  </scstep>
  <scstep>
   <time name="dav">   10.99   11.06</time>
   <time name="total">   11.09   11.16</time>
   <energy>
    <i name="alphaZ">    918.22725072 </i>
    <i name="ewald">  21335.99544475 </i>
    <i name="hartreedc"> -53899.11444398 </i>
    <i name="XCdc">  -1001.03495082 </i>
    <i name="pawpsdc">  35111.28735527 </i>
    <i name="pawaedc"> -32955.78197625 </i>
    <i name="eentropy">     -5.28572875 </i>
    <i name="bandstr">    132.30015572 </i>
    <i name="atom">  30161.86332653 </i>
    <i name="e_fr_energy">   -201.54356681 </i>
    <i name="e_wo_entrp">   -196.25783806 </i>
    <i name="e_0_energy">   -198.90070243 </i>
   </energy>
  </scstep>
  <structure>
   <crystal>
    <varray name="basis" >
     <v>       8.30990028       0.00000000       0.00000000 </v>
     <v>      -4.15495014       7.19658475       0.00000000 </v>
     <v>       0.00000000       0.00000000      16.52350044 </v>
    </varray>
    <i name="volume">    988.15327180 </i>
    <varray name="rec_basis" >
     <v>       0.12033839       0.06947740       0.00000000 </v>
     <v>       0.00000000       0.13895480       0.00000000 </v>
     <v>       0.00000000       0.00000000       0.06051986 </v>
    </varray>
   </crystal>
   <varray name="positions" >
    <v>       0.99905143       0.99843381       0.44009884 </v>
    <v>       0.11093000       0.22330000       0.16024000 </v>
    <v>       0.22214521       0.11310176       0.30041199 </v>
    <v>       0.33168630       0.00023744       0.44006641 </v>
    <v>       0.44426000       0.22330000       0.16024000 </v>
    <v>       0.55379066       0.11080349       0.29834630 </v>
    <v>       0.66511491       0.99936630       0.43636961 </v>
    <v>       0.77760000       0.22330000       0.16024000 </v>
    <v>       0.88856335       0.11158480       0.29916062 </v>
    <v>       0.99736313       0.33265311       0.44001562 </v>
    <v>       0.11093000       0.55664000       0.16024000 </v>
    <v>       0.22142160       0.44397360       0.29981637 </v>
    <v>       0.32855431       0.33351872       0.45103884 </v>
    <v>       0.44426000       0.55664000       0.16024000 </v>
    <v>       0.55185928       0.44335031       0.29984619 </v>
    <v>       0.66493034       0.33279430       0.43618279 </v>
    <v>       0.77760000       0.55664000       0.16024000 </v>
    <v>       0.88802615       0.44395928       0.29841612 </v>
    <v>       0.99785991       0.66547087       0.43593549 </v>
    <v>       0.11093000       0.88997000       0.16024000 </v>
    <v>       0.22209652       0.77853274       0.29884470 </v>
    <v>       0.33295206       0.66671662       0.43820333 </v>
    <v>       0.44426000       0.88997000       0.16024000 </v>
    <v>       0.55411645       0.77778450       0.29820399 </v>
    <v>       0.66582416       0.66631700       0.43633197 </v>
    <v>       0.77760000       0.88997000       0.16024000 </v>
    <v>       0.88813067       0.77883559       0.29818951 </v>
    <v>       0.99982000       0.00108000       0.02337000 </v>
    <v>       0.33315000       0.00108000       0.02337000 </v>
    <v>       0.66649000       0.00108000       0.02337000 </v>
    <v>       0.99982000       0.33441000       0.02337000 </v>
    <v>       0.33315000       0.33441000       0.02337000 </v>
    <v>       0.66649000       0.33441000       0.02337000 </v>
    <v>       0.99982000       0.66775000       0.02337000 </v>
    <v>       0.33315000       0.66775000       0.02337000 </v>
    <v>       0.66649000       0.66775000       0.02337000 </v>
    <v>       0.22690755       0.14313075       0.60115558 </v>
    <v>       0.23638002       0.32753370       0.59093285 </v>
    <v>       0.21462540       0.03440726       0.65283357 </v>
   </varray>
  </structure>
  <varray name="forces" >
   <v>       0.01406895       0.02414387       0.07584225 </v>
   <v>       0.01597701      -0.00801546       0.26876962 </v>
   <v>       0.00674275       0.02578928       0.12761575 </v>
   <v>      -0.03306299       0.03140881       0.07671090 </v>
   <v>      -0.03114360       0.00515590       0.22974302 </v>
   <v>      -0.00204755      -0.00443519       0.02816471 </v>
   <v>      -0.00917474       0.00188173       0.01578552 </v>
   <v>       0.00609424      -0.00591562       0.15870087 </v>
   <v>       0.01078073       0.00024316       0.01651939 </v>
   <v>      -0.05634633       0.00656807      -0.17214054 </v>
   <v>       0.00612848      -0.00748093       0.18193830 </v>
   <v>       0.02111660      -0.00488931       0.10425681 </v>
   <v>      -0.00428156      -0.05025268       0.09547907 </v>
   <v>      -0.00334213      -0.04088550       0.22634202 </v>
   <v>      -0.04751428      -0.01784817       0.11074194 </v>
   <v>       0.00315246      -0.01361012       0.03803590 </v>
   <v>      -0.02133285      -0.03056723       0.19697516 </v>
   <v>       0.00309351       0.00488624       0.01808839 </v>
   <v>       0.02370777       0.02157287       0.04596064 </v>
   <v>       0.00490968       0.01963495       0.22552507 </v>
   <v>      -0.01117862       0.01149136       0.01763150 </v>
   <v>      -0.05521842       0.03374227      -0.11206096 </v>
   <v>      -0.01757638      -0.00645425       0.16122640 </v>
   <v>       0.00953128      -0.00468789      -0.00955929 </v>
   <v>      -0.01736327       0.02168066       0.02379379 </v>
   <v>       0.00319867       0.01376091       0.18170903 </v>
   <v>       0.00454545      -0.00033622       0.02176182 </v>
   <v>       0.00378702      -0.00670995      -0.13324223 </v>
   <v>      -0.00356323      -0.00111963      -0.14187566 </v>
   <v>       0.00395884      -0.00243906      -0.14091857 </v>
   <v>       0.00169563       0.00232472      -0.13461755 </v>
   <v>       0.00288012       0.00203918      -0.14454634 </v>
   <v>      -0.00242467       0.00216872      -0.13404184 </v>
   <v>       0.00560667       0.00400294      -0.15105275 </v>
   <v>      -0.00236905       0.00097125      -0.14659224 </v>
   <v>      -0.00194267      -0.00013837      -0.14246021 </v>
   <v>      -2.58210336       4.43728307       1.03431523 </v>
   <v>       3.43508709      -6.13759932       0.15931998 </v>
   <v>      -0.68407725       1.67263495      -2.27784491 </v>
  </varray>
  <varray name="stress" >
   <v>     -27.76455954       7.43027015      -0.84704725 </v>
   <v>       7.43027037     -38.13626730       3.99512871 </v>
   <v>      -0.84704708       3.99512874     -19.45699948 </v>
  </varray>
  <energy>
   <i name="e_fr_energy">   -201.54356681 </i>
   <i name="e_wo_entrp">   -196.25783806 </i>
   <i name="e_0_energy">   -198.90070243 </i>
  </energy>
  <time name="totalsc">  175.65  176.70</time>
 </calculation>
 <calculation>
  <scstep>
   <time name="dav">   14.64   14.73</time>
   <time name="total">   15.10   15.20</time>
   <energy>
    <i name="alphaZ">    918.22725072 </i>
    <i name="ewald">  21356.78596603 </i>
    <i name="hartreedc"> -53918.59505253 </i>
    <i name="XCdc">  -1000.96126190 </i>
    <i name="pawpsdc">  35111.31626341 </i>
    <i name="pawaedc"> -32955.81121723 </i>
    <i name="eentropy">     -5.27239156 </i>
    <i name="bandstr">    130.75516445 </i>
    <i name="atom">  30161.86332653 </i>
    <i name="e_fr_energy">   -201.69195208 </i>
    <i name="e_wo_entrp">   -196.41956052 </i>
    <i name="e_0_energy">   -199.05575630 </i>
   </energy>
  </scstep>
  <scstep>
   <time name="dav">   15.31   15.41</time>
   <time name="total">   15.77   15.88</time>
   <energy>
    <i name="e_fr_energy">   -201.69857678 </i>
    <i name="e_wo_entrp">   -196.41611988 </i>
    <i name="e_0_energy">   -199.05734833 </i>
   </energy>
  </scstep>
  <scstep>
   <time name="dav">   16.28   16.39</time>
   <time name="total">   16.74   16.84</time>
   <energy>
    <i name="e_fr_energy">   -201.70148851 </i>
    <i name="e_wo_entrp">   -196.42860845 </i>
    <i name="e_0_energy">   -199.06504848 </i>
   </energy>
  </scstep>
  <scstep>
   <time name="dav">   16.55   16.66</time>
   <time name="total">   17.01   17.12</time>
   <energy>
    <i name="e_fr_energy">   -201.69812628 </i>
    <i name="e_wo_entrp">   -196.42341068 </i>
    <i name="e_0_energy">   -199.06076848 </i>
   </energy>
  </scstep>
  <scstep>
   <time name="dav">   16.06   16.16</time>
   <time name="total">   16.52   16.63</time>
   <energy>
    <i name="e_fr_energy">   -201.69758191 </i>
    <i name="e_wo_entrp">   -196.42193760 </i>
    <i name="e_0_energy">   -199.05975976 </i>
   </energy>
  </scstep>
  <scstep>
   <time name="dav">   15.92   16.02</time>
   <time name="total">   16.38   16.49</time>
   <energy>
    <i name="e_fr_energy">   -201.69736159 </i>
    <i name="e_wo_entrp">   -196.41885207 </i>
    <i name="e_0_energy">   -199.05810683 </i>
   </energy>
  </scstep>
  <scstep>
   <time name="dav">   15.56   15.66</time>
   <time name="total">   16.02   16.12</time>
   <energy>
    <i name="e_fr_energy">   -201.69713809 </i>
    <i name="e_wo_entrp">   -196.41951787 </i>
    <i name="e_0_energy">   -199.05832798 </i>
   </energy>
  </scstep>
  <scstep>
   <time name="dav">   15.07   15.16</time>
   <time name="total">   15.53   15.63</time>
   <energy>
    <i name="e_fr_energy">   -201.69710622 </i>
    <i name="e_wo_entrp">   -196.41969861 </i>
    <i name="e_0_energy">   -199.05840241 </i>
   </energy>
  </scstep>
  <scstep>
   <time name="dav">   14.61   14.70</time>
   <time name="total">   15.08   15.17</time>
   <energy>
    <i name="e_fr_energy">   -201.69708791 </i>
    <i name="e_wo_entrp">   -196.41965247 </i>
    <i name="e_0_energy">   -199.05837019 </i>
   </energy>
  </scstep>
  <scstep>
   <time name="dav">   10.47   10.54</time>
   <time name="total">   10.57   10.64</time>
   <energy>
    <i name="alphaZ">    918.22725072 </i>
    <i name="ewald">  21356.78596603 </i>
    <i name="hartreedc"> -53921.93203780 </i>
    <i name="XCdc">  -1000.92514531 </i>
    <i name="pawpsdc">  35127.87413747 </i>
    <i name="pawaedc"> -32972.38686309 </i>
    <i name="eentropy">     -5.27762346 </i>
    <i name="bandstr">    134.07389911 </i>
    <i name="atom">  30161.86332653 </i>
    <i name="e_fr_energy">   -201.69708982 </i>
    <i name="e_wo_entrp">   -196.41946635 </i>
    <i name="e_0_energy">   -199.05827808 </i>
   </energy>
  </scstep>
  <structure>
   <crystal>
    <varray name="basis" >
     <v>       8.30990028       0.00000000       0.00000000 </v>
     <v>      -4.15495014       7.19658475       0.00000000 </v>
     <v>       0.00000000       0.00000000      16.52350044 </v>
    </varray>
    <i name="volume">    988.15327180 </i>
    <varray name="rec_basis" >
     <v>       0.12033839       0.06947740       0.00000000 </v>
     <v>       0.00000000       0.13895480       0.00000000 </v>
     <v>       0.00000000       0.00000000       0.06051986 </v>
    </varray>
   </crystal>
   <varray name="positions" >
    <v>       0.99905315       0.99841829       0.44012639 </v>
    <v>       0.11093000       0.22330000       0.16024000 </v>
    <v>       0.22215517       0.11312023       0.30044690 </v>
    <v>       0.33167321       0.00025396       0.44009690 </v>
    <v>       0.44426000       0.22330000       0.16024000 </v>
    <v>       0.55377586       0.11079351       0.29835326 </v>
    <v>       0.66510463       0.99935846       0.43636714 </v>
    <v>       0.77760000       0.22330000       0.16024000 </v>
    <v>       0.88857114       0.11158845       0.29917444 </v>
    <v>       0.99736540       0.33266688       0.44005454 </v>
    <v>       0.11093000       0.55664000       0.16024000 </v>
    <v>       0.22142019       0.44396227       0.29984330 </v>
    <v>       0.32849568       0.33359358       0.45120478 </v>
    <v>       0.44426000       0.55664000       0.16024000 </v>
    <v>       0.55182155       0.44332994       0.29987758 </v>
    <v>       0.66492292       0.33278486       0.43618371 </v>
    <v>       0.77760000       0.55664000       0.16024000 </v>
    <v>       0.88802648       0.44394866       0.29842469 </v>
    <v>       0.99785626       0.66546722       0.43593737 </v>
    <v>       0.11093000       0.88997000       0.16024000 </v>
    <v>       0.22209728       0.77853601       0.29885532 </v>
    <v>       0.33293200       0.66670545       0.43822491 </v>
    <v>       0.44426000       0.88997000       0.16024000 </v>
    <v>       0.55410567       0.77777570       0.29820635 </v>
    <v>       0.66582729       0.66632361       0.43633273 </v>
    <v>       0.77760000       0.88997000       0.16024000 </v>
    <v>       0.88813112       0.77883576       0.29819235 </v>
    <v>       0.99982000       0.00108000       0.02337000 </v>
    <v>       0.33315000       0.00108000       0.02337000 </v>
    <v>       0.66649000       0.00108000       0.02337000 </v>
    <v>       0.99982000       0.33441000       0.02337000 </v>
    <v>       0.33315000       0.33441000       0.02337000 </v>
    <v>       0.66649000       0.33441000       0.02337000 </v>
    <v>       0.99982000       0.66775000       0.02337000 </v>
    <v>       0.33315000       0.66775000       0.02337000 </v>
    <v>       0.66649000       0.66775000       0.02337000 </v>
    <v>       0.22672469       0.14398746       0.60076268 </v>
    <v>       0.23621058       0.32614302       0.59006656 </v>
    <v>       0.21464067       0.03548650       0.65200529 </v>
   </varray>
  </structure>
  <varray name="forces" >
   <v>       0.01133264       0.02103042       0.06757695 </v>
   <v>       0.01602293      -0.00834385       0.27028931 </v>
   <v>       0.00663330       0.02419488       0.12737089 </v>
   <v>      -0.02952859       0.02864002       0.06679564 </v>
   <v>      -0.03132162       0.00475147       0.23084112 </v>
   <v>      -0.00186838      -0.00337520       0.02666881 </v>
   <v>      -0.00937799       0.00212857       0.01778104 </v>
   <v>       0.00615464      -0.00645258       0.15930460 </v>
   <v>       0.01008761       0.00044402       0.01565125 </v>
   <v>      -0.06364436       0.00571409      -0.18317665 </v>
   <v>       0.00609161      -0.00737812       0.18291871 </v>
   <v>       0.02057010      -0.00453955       0.10441915 </v>
   <v>       0.01070730      -0.05319522       0.04222491 </v>
   <v>      -0.00344468      -0.04083187       0.22723321 </v>
   <v>      -0.04715479      -0.01727889       0.11185770 </v>
   <v>       0.00315290      -0.01421603       0.03902805 </v>
   <v>      -0.02149265      -0.03077492       0.19814386 </v>
   <v>       0.00273183       0.00514427       0.01556592 </v>
   <v>       0.02339155       0.02234599       0.04710357 </v>
   <v>       0.00503134       0.01985368       0.22621584 </v>
   <v>      -0.01188663       0.01103520       0.01609010 </v>
   <v>      -0.05635081       0.03965241      -0.11528973 </v>
   <v>      -0.01753324      -0.00636715       0.16161859 </v>
   <v>       0.00964514      -0.00414992      -0.00977152 </v>
   <v>      -0.01689752       0.02337100       0.02430782 </v>
   <v>       0.00293763       0.01403931       0.18219572 </v>
   <v>       0.00487925      -0.00095712       0.02022745 </v>
   <v>       0.00379260      -0.00697149      -0.13284498 </v>
   <v>      -0.00361786      -0.00146649      -0.14158470 </v>
   <v>       0.00401260      -0.00234048      -0.13982149 </v>
   <v>       0.00133873       0.00242154      -0.13440057 </v>
   <v>       0.00286215       0.00193875      -0.14546097 </v>
   <v>      -0.00204934       0.00226731      -0.13406593 </v>
   <v>       0.00569368       0.00410007      -0.15156797 </v>
   <v>      -0.00272686       0.00114882      -0.14681552 </v>
   <v>      -0.00164297       0.00009061      -0.14290580 </v>
   <v>      -2.72147734       4.75577672       0.73626233 </v>
   <v>       3.42848333      -6.13782185       0.23539493 </v>
   <v>      -0.54353724       1.35637156      -1.97538165 </v>
  </varray>
  <varray name="stress" >
   <v>     -27.61342668       7.13659298      -0.70144346 </v>
   <v>       7.13659297     -37.54561338       3.63317804 </v>
   <v>      -0.70144348       3.63317795     -18.70881970 </v>
  </varray>
  <energy>
   <i name="e_fr_energy">   -201.69708982 </i>
   <i name="e_wo_entrp">   -196.41946635 </i>
   <i name="e_0_energy">   -199.05827808 </i>
  </energy>
  <time name="totalsc">  184.03  185.15</time>
 </calculation>
 <calculation>
  <scstep>
   <time name="dav">   14.81   14.91</time>
   <time name="total">   15.27   15.37</time>
   <energy>
    <i name="alphaZ">    918.22725072 </i>
    <i name="ewald">  21386.42416768 </i>
    <i name="hartreedc"> -53950.11784582 </i>
    <i name="XCdc">  -1000.83605643 </i>
    <i name="pawpsdc">  35127.87782673 </i>
    <i name="pawaedc"> -32972.39089483 </i>
    <i name="eentropy">     -5.26114551 </i>
    <i name="bandstr">    132.31018516 </i>
    <i name="atom">  30161.86332653 </i>
    <i name="e_fr_energy">   -201.90318578 </i>
    <i name="e_wo_entrp">   -196.64204026 </i>
    <i name="e_0_energy">   -199.27261302 </i>
   </energy>
  </scstep>
  <scstep>
   <time name="dav">   15.59   15.69</time>
   <time name="total">   16.06   16.16</time>
   <energy>
    <i name="e_fr_energy">   -201.91718345 </i>
    <i name="e_wo_entrp">   -196.64467946 </i>
    <i name="e_0_energy">   -199.28093146 </i>
   </energy>
  </scstep>
  <scstep>
   <time name="dav">   16.58   16.69</time>
   <time name="total">   17.05   17.15</time>
   <energy>
    <i name="e_fr_energy">   -201.92186557 </i>
    <i name="e_wo_entrp">   -196.66110196 </i>
    <i name="e_0_energy">   -199.29148376 </i>
   </energy>
  </scstep>
  <scstep>
   <time name="dav">   16.49   16.59</time>
   <time name="total">   16.95   17.05</time>
   <energy>
    <i name="e_fr_energy">   -201.91614308 </i>
    <i name="e_wo_entrp">   -196.65232685 </i>
    <i name="e_0_energy">   -199.28423497 </i>
   </energy>
  </scstep>
  <scstep>
   <time name="dav">   15.99   16.10</time>
   <time name="total">   16.45   16.56</time>
   <energy>
    <i name="e_fr_energy">   -201.91545401 </i>
    <i name="e_wo_entrp">   -196.65039197 </i>
    <i name="e_0_energy">   -199.28292299 </i>
   </energy>
  </scstep>
  <scstep>
   <time name="dav">   16.24   16.34</time>
   <time name="total">   16.70   16.80</time>
   <energy>
    <i name="e_fr_energy">   -201.91501349 </i>
    <i name="e_wo_entrp">   -196.64683603 </i>
    <i name="e_0_energy">   -199.28092476 </i>
   </energy>
  </scstep>
  <scstep>
   <time name="dav">   15.76   15.86</time>
   <time name="total">   16.22   16.32</time>
   <energy>
    <i name="e_fr_energy">   -201.91444470 </i>
    <i name="e_wo_entrp">   -196.64780421 </i>
    <i name="e_0_energy">   -199.28112445 </i>
   </energy>
  </scstep>
  <scstep>
   <time name="dav">   15.18   15.28</time>
   <time name="total">   15.64   15.74</time>
   <energy>
    <i name="e_fr_energy">   -201.91444387 </i>
    <i name="e_wo_entrp">   -196.64783678 </i>
    <i name="e_0_energy">   -199.28114033 </i>
   </energy>
  </scstep>
  <scstep>
   <time name="dav">   15.02   15.11</time>
   <time name="total">   15.49   15.58</time>
   <energy>
    <i name="e_fr_energy">   -201.91435534 </i>
    <i name="e_wo_entrp">   -196.64770764 </i>
    <i name="e_0_energy">   -199.28103149 </i>
   </energy>
  </scstep>
  <scstep>
   <time name="dav">   12.23   12.30</time>
   <time name="total">   12.34   12.41</time>
   <energy>
    <i name="alphaZ">    918.22725072 </i>
    <i name="ewald">  21386.42416768 </i>
    <i name="hartreedc"> -53953.96118935 </i>
    <i name="XCdc">  -1000.79377137 </i>
    <i name="pawpsdc">  35144.75050528 </i>
    <i name="pawaedc"> -32989.28174442 </i>
    <i name="eentropy">     -5.26685774 </i>
    <i name="bandstr">    136.12395066 </i>
    <i name="atom">  30161.86332653 </i>
    <i name="e_fr_energy">   -201.91436201 </i>
    <i name="e_wo_entrp">   -196.64750427 </i>
    <i name="e_0_energy">   -199.28093314 </i>
   </energy>
  </scstep>
  <structure>
   <crystal>
    <varray name="basis" >
     <v>       8.30990028       0.00000000       0.00000000 </v>
     <v>      -4.15495014       7.19658475       0.00000000 </v>
     <v>       0.00000000       0.00000000      16.52350044 </v>
    </varray>
    <i name="volume">    988.15327180 </i>
    <varray name="rec_basis" >
     <v>       0.12033839       0.06947740       0.00000000 </v>
     <v>       0.00000000       0.13895480       0.00000000 </v>
     <v>       0.00000000       0.00000000       0.06051986 </v>
    </varray>
   </crystal>
   <varray name="positions" >
    <v>       0.99905352       0.99839400       0.44016343 </v>
    <v>       0.11093000       0.22330000       0.16024000 </v>
    <v>       0.22217028       0.11314886       0.30050174 </v>
    <v>       0.33165385       0.00028069       0.44014002 </v>
    <v>       0.44426000       0.22330000       0.16024000 </v>
    <v>       0.55375308       0.11077916       0.29836389 </v>
    <v>       0.66508939       0.99934764       0.43636399 </v>
    <v>       0.77760000       0.22330000       0.16024000 </v>
    <v>       0.88858310       0.11159444       0.29919548 </v>
    <v>       0.99736802       0.33268916       0.44011398 </v>
    <v>       0.11093000       0.55664000       0.16024000 </v>
    <v>       0.22141724       0.44394500       0.29988621 </v>
    <v>       0.32841065       0.33372310       0.45145590 </v>
    <v>       0.44426000       0.55664000       0.16024000 </v>
    <v>       0.55176406       0.44329906       0.29992720 </v>
    <v>       0.66491035       0.33277066       0.43618591 </v>
    <v>       0.77760000       0.55664000       0.16024000 </v>
    <v>       0.88802749       0.44393184       0.29843796 </v>
    <v>       0.99785226       0.66546365       0.43594132 </v>
    <v>       0.11093000       0.88997000       0.16024000 </v>
    <v>       0.22209836       0.77854144       0.29887171 </v>
    <v>       0.33290177       0.66669341       0.43825689 </v>
    <v>       0.44426000       0.88997000       0.16024000 </v>
    <v>       0.55408952       0.77776273       0.29820995 </v>
    <v>       0.66583266       0.66633509       0.43633489 </v>
    <v>       0.77760000       0.88997000       0.16024000 </v>
    <v>       0.88813220       0.77883611       0.29819675 </v>
    <v>       0.99982000       0.00108000       0.02337000 </v>
    <v>       0.33315000       0.00108000       0.02337000 </v>
    <v>       0.66649000       0.00108000       0.02337000 </v>
    <v>       0.99982000       0.33441000       0.02337000 </v>
    <v>       0.33315000       0.33441000       0.02337000 </v>
    <v>       0.66649000       0.33441000       0.02337000 </v>
    <v>       0.99982000       0.66775000       0.02337000 </v>
    <v>       0.33315000       0.66775000       0.02337000 </v>
    <v>       0.66649000       0.66775000       0.02337000 </v>
    <v>       0.22648885       0.14550281       0.60002254 </v>
    <v>       0.23597687       0.32415972       0.58876269 </v>
    <v>       0.21462331       0.03672678       0.65094737 </v>
   </varray>
  </structure>
  <varray name="forces" >
   <v>       0.00702026       0.01679975       0.05634588 </v>
   <v>       0.01658767      -0.00813905       0.27320028 </v>
   <v>       0.00665047       0.02279029       0.12530074 </v>
   <v>      -0.02431253       0.02533946       0.05539320 </v>
   <v>      -0.03236200       0.00501564       0.23305204 </v>
   <v>      -0.00141656      -0.00217754       0.02554088 </v>
   <v>      -0.00980061       0.00247998       0.02096114 </v>
   <v>       0.00599079      -0.00678169       0.16057331 </v>
   <v>       0.00940238       0.00116519       0.01477836 </v>
   <v>      -0.07548808       0.00233367      -0.20067924 </v>
   <v>       0.00628476      -0.00744580       0.18478252 </v>
   <v>       0.01945387      -0.00482332       0.10286340 </v>
   <v>       0.03598722      -0.05644334      -0.04446870 </v>
   <v>      -0.00357673      -0.04146872       0.22923854 </v>
   <v>      -0.04767248      -0.01727652       0.11061389 </v>
   <v>       0.00320421      -0.01452905       0.04047350 </v>
   <v>      -0.02248193      -0.03133920       0.20015453 </v>
   <v>       0.00261078       0.00729587       0.01252561 </v>
   <v>       0.02253566       0.02312662       0.04947277 </v>
   <v>       0.00497370       0.02057518       0.22738891 </v>
   <v>      -0.01292563       0.00992255       0.01366293 </v>
   <v>      -0.05691579       0.04794559      -0.12039683 </v>
   <v>      -0.01766909      -0.00641725       0.16218322 </v>
   <v>       0.01115861      -0.00444070      -0.01007802 </v>
   <v>      -0.01643258       0.02583161       0.02511092 </v>
   <v>       0.00248305       0.01413668       0.18300836 </v>
   <v>       0.00484059      -0.00177349       0.01747741 </v>
   <v>       0.00378491      -0.00699932      -0.13247047 </v>
   <v>      -0.00401956      -0.00151957      -0.14127195 </v>
   <v>       0.00392024      -0.00214761      -0.13943183 </v>
   <v>       0.00100621       0.00279388      -0.13419549 </v>
   <v>       0.00276650       0.00211198      -0.14510609 </v>
   <v>      -0.00210918       0.00270798      -0.13373101 </v>
   <v>       0.00554478       0.00411919      -0.15196741 </v>
   <v>      -0.00313478       0.00100414      -0.14666552 </v>
   <v>      -0.00156342      -0.00004932      -0.14269069 </v>
   <v>      -2.76068427       4.86684240       0.64789827 </v>
   <v>       3.39703925      -6.10084729       0.34774960 </v>
   <v>      -0.48068071       1.21028113      -1.87659693 </v>
  </varray>
  <varray name="stress" >
   <v>     -27.41597705       6.84270277      -0.66919192 </v>
   <v>       6.84270265     -36.97547411       3.50344387 </v>
   <v>      -0.66919183       3.50344375     -18.06886987 </v>
  </varray>
  <energy>
   <i name="e_fr_energy">   -201.91436201 </i>
   <i name="e_wo_entrp">   -196.64750427 </i>
   <i name="e_0_energy">   -199.28093314 </i>
  </energy>
  <time name="totalsc">  181.91  183.02</time>
 </calculation>
 <calculation>
  <scstep>
   <time name="dav">   14.70   14.79</time>
   <time name="total">   15.16   15.25</time>
   <energy>
    <i name="alphaZ">    918.22725072 </i>
    <i name="ewald">  21424.38144516 </i>
    <i name="hartreedc"> -53990.17001308 </i>
    <i name="XCdc">  -1000.68404040 </i>
    <i name="pawpsdc">  35144.76834126 </i>
    <i name="pawaedc"> -32989.29974930 </i>
    <i name="eentropy">     -5.24925900 </i>
    <i name="bandstr">    133.99669541 </i>
    <i name="atom">  30161.86332653 </i>
    <i name="e_fr_energy">   -202.16600270 </i>
    <i name="e_wo_entrp">   -196.91674370 </i>
    <i name="e_0_energy">   -199.54137320 </i>
   </energy>
  </scstep>
  <scstep>
   <time name="dav">   15.40   15.50</time>
   <time name="total">   15.86   15.96</time>
   <energy>
    <i name="e_fr_energy">   -202.18917058 </i>
    <i name="e_wo_entrp">   -196.92965175 </i>
    <i name="e_0_energy">   -199.55941117 </i>
   </energy>
  </scstep>
  <scstep>
   <time name="dav">   16.33   16.43</time>
   <time name="total">   16.79   16.90</time>
   <energy>
    <i name="e_fr_energy">   -202.19591579 </i>
    <i name="e_wo_entrp">   -196.94871903 </i>
    <i name="e_0_energy">   -199.57231741 </i>
   </energy>
  </scstep>
  <scstep>
   <time name="dav">   16.19   16.29</time>
   <time name="total">   16.65   16.76</time>
   <energy>
    <i name="e_fr_energy">   -202.18780867 </i>
    <i name="e_wo_entrp">   -196.93644184 </i>
    <i name="e_0_energy">   -199.56212526 </i>
   </energy>
  </scstep>
  <scstep>
   <time name="dav">   15.90   16.00</time>
   <time name="total">   16.36   16.47</time>
   <energy>
    <i name="e_fr_energy">   -202.18693984 </i>
    <i name="e_wo_entrp">   -196.93409449 </i>
    <i name="e_0_energy">   -199.56051716 </i>
   </energy>
  </scstep>
  <scstep>
   <time name="dav">   15.86   15.96</time>
   <time name="total">   16.33   16.44</time>
   <energy>
    <i name="e_fr_energy">   -202.18612129 </i>
    <i name="e_wo_entrp">   -196.93007774 </i>
    <i name="e_0_energy">   -199.55809952 </i>
   </energy>
  </scstep>
  <scstep>
   <time name="dav">   15.58   15.67</time>
   <time name="total">   16.05   16.15</time>
   <energy>
    <i name="e_fr_energy">   -202.18500556 </i>
    <i name="e_wo_entrp">   -196.93111365 </i>
    <i name="e_0_energy">   -199.55805960 </i>
   </energy>
  </scstep>
  <scstep>
   <time name="dav">   14.96   15.05</time>
   <time name="total">   15.42   15.52</time>
   <energy>
    <i name="e_fr_energy">   -202.18506234 </i>
    <i name="e_wo_entrp">   -196.93088821 </i>
    <i name="e_0_energy">   -199.55797527 </i>
   </energy>
  </scstep>
  <scstep>
   <time name="dav">   14.74   14.83</time>
   <time name="total">   15.19   15.29</time>
   <energy>
    <i name="e_fr_energy">   -202.18489210 </i>
    <i name="e_wo_entrp">   -196.93062652 </i>
    <i name="e_0_energy">   -199.55775931 </i>
   </energy>
  </scstep>
  <scstep>
   <time name="dav">   14.37   14.46</time>
   <time name="total">   14.83   14.93</time>
   <energy>
    <i name="e_fr_energy">   -202.18490325 </i>
    <i name="e_wo_entrp">   -196.93043242 </i>
    <i name="e_0_energy">   -199.55766783 </i>
   </energy>
  </scstep>
  <scstep>
   <time name="dav">   10.44   10.51</time>
   <time name="total">   10.55   10.62</time>
   <energy>
    <i name="alphaZ">    918.22725072 </i>
    <i name="ewald">  21424.38144516 </i>
    <i name="hartreedc"> -53994.62366334 </i>
    <i name="XCdc">  -1000.63173743 </i>
    <i name="pawpsdc">  35164.67360540 </i>
    <i name="pawaedc"> -33009.22671243 </i>
    <i name="eentropy">     -5.25456914 </i>
    <i name="bandstr">    138.40614674 </i>
    <i name="atom">  30161.86332653 </i>
    <i name="e_fr_energy">   -202.18490780 </i>
    <i name="e_wo_entrp">   -196.93033867 </i>
    <i name="e_0_energy">   -199.55762323 </i>
   </energy>
  </scstep>
  <structure>
   <crystal>
    <varray name="basis" >
     <v>       8.30990028       0.00000000       0.00000000 </v>
     <v>      -4.15495014       7.19658475       0.00000000 </v>
     <v>       0.00000000       0.00000000      16.52350044 </v>
    </varray>
    <i name="volume">    988.15327180 </i>
    <varray name="rec_basis" >
     <v>       0.12033839       0.06947740       0.00000000 </v>
     <v>       0.00000000       0.13895480       0.00000000 </v>
     <v>       0.00000000       0.00000000       0.06051986 </v>
    </varray>
   </crystal>
   <varray name="positions" >
    <v>       0.99905039       0.99836204       0.44020483 </v>
    <v>       0.11093000       0.22330000       0.16024000 </v>
    <v>       0.22219199       0.11319070       0.30057942 </v>
    <v>       0.33162929       0.00032272       0.44019453 </v>
    <v>       0.44426000       0.22330000       0.16024000 </v>
    <v>       0.55372207       0.11076099       0.29837944 </v>
    <v>       0.66506944       0.99933572       0.43636138 </v>
    <v>       0.77760000       0.22330000       0.16024000 </v>
    <v>       0.88860038       0.11160392       0.29922406 </v>
    <v>       0.99736384       0.33271818       0.44018955 </v>
    <v>       0.11093000       0.55664000       0.16024000 </v>
    <v>       0.22141124       0.44392049       0.29994792 </v>
    <v>       0.32830911       0.33392885       0.45178664 </v>
    <v>       0.44426000       0.55664000       0.16024000 </v>
    <v>       0.55168309       0.44325604       0.29999718 </v>
    <v>       0.66489119       0.33275263       0.43619125 </v>
    <v>       0.77760000       0.55664000       0.16024000 </v>
[...]
    <v>       0.44426000       0.88997000       0.16024000 </v>
    <v>       0.55783640       0.78225635       0.29764093 </v>
    <v>       0.67370740       0.67653861       0.43629084 </v>
    <v>       0.77760000       0.88997000       0.16024000 </v>
    <v>       0.89070380       0.78187878       0.29808646 </v>
    <v>       0.99982000       0.00108000       0.02337000 </v>
    <v>       0.33315000       0.00108000       0.02337000 </v>
    <v>       0.66649000       0.00108000       0.02337000 </v>
    <v>       0.99982000       0.33441000       0.02337000 </v>
    <v>       0.33315000       0.33441000       0.02337000 </v>
    <v>       0.66649000       0.33441000       0.02337000 </v>
    <v>       0.99982000       0.66775000       0.02337000 </v>
    <v>       0.33315000       0.66775000       0.02337000 </v>
    <v>       0.66649000       0.66775000       0.02337000 </v>
    <v>       0.14817593       0.08327674       0.55388203 </v>
    <v>       0.20620278       0.25581990       0.55572080 </v>
    <v>       0.13543514      -0.03740357       0.59918816 </v>
   </varray>
  </structure>
  <varray name="forces" >
   <v>       0.03740905       0.01697830      -0.00568098 </v>
   <v>      -0.01210423      -0.00419791       0.15089597 </v>
   <v>       0.00183126      -0.00700287      -0.00222767 </v>
   <v>       0.03881080      -0.02796162      -0.06700552 </v>
   <v>       0.00420763       0.04046359       0.13410864 </v>
   <v>       0.00980043      -0.00074014      -0.01335512 </v>
   <v>       0.02065787      -0.00648068       0.00003359 </v>
   <v>       0.00082399       0.01678416       0.11383858 </v>
   <v>       0.00488808      -0.00526260      -0.00450364 </v>
   <v>      -0.00297381      -0.00952909      -0.04230466 </v>
   <v>      -0.03138192       0.02451960       0.07380939 </v>
   <v>       0.00269452      -0.00432650      -0.00231029 </v>
   <v>      -0.01685249      -0.03315967       0.00780692 </v>
   <v>       0.04003265       0.01018430       0.12591160 </v>
   <v>      -0.00675808      -0.00788436       0.00377842 </v>
   <v>      -0.00240365      -0.00922460      -0.00212084 </v>
   <v>      -0.01817297      -0.01281860       0.13077622 </v>
   <v>      -0.00611183       0.00071107      -0.01134984 </v>
   <v>       0.00055575       0.00416129       0.00141373 </v>
   <v>      -0.01665121       0.00235791       0.12122420 </v>
   <v>       0.00156379      -0.00988336      -0.00756383 </v>
   <v>       0.00958034      -0.01986162      -0.00423278 </v>
   <v>       0.00289856       0.03243240       0.10805505 </v>
   <v>       0.00332595      -0.00320351       0.00102655 </v>
   <v>       0.00837112      -0.00184766       0.00373987 </v>
   <v>       0.01942266       0.02665168       0.15223061 </v>
   <v>      -0.00035955      -0.00827871      -0.00772705 </v>
   <v>       0.00235307      -0.00688301      -0.13097839 </v>
   <v>      -0.00120781      -0.00608840      -0.14998846 </v>
   <v>      -0.00198810      -0.00287264      -0.14328325 </v>
   <v>       0.00105231      -0.00178662      -0.14040466 </v>
   <v>       0.00024012       0.00013434      -0.15149153 </v>
   <v>      -0.00525397      -0.00856586      -0.12515507 </v>
   <v>       0.01954433       0.01452584      -0.15545692 </v>
   <v>      -0.00353217       0.00090643      -0.15378826 </v>
   <v>      -0.01095510      -0.00411325      -0.13998626 </v>
   <v>      -0.20692456       0.12299661       0.12060888 </v>
   <v>       0.20909906       0.03997053       0.27025390 </v>
   <v>      -0.09553188      -0.15180477      -0.05859710 </v>
  </varray>
  <varray name="stress" >
   <v>     -17.67713270       0.12605244      -0.38102215 </v>
   <v>       0.12605246     -17.02272716      -1.11450156 </v>
   <v>      -0.38102216      -1.11450170      -3.15660923 </v>
  </varray>
  <energy>
   <i name="e_fr_energy">   -203.44844654 </i>
   <i name="e_wo_entrp">   -198.27429933 </i>
   <i name="e_0_energy">   -200.86137293 </i>
  </energy>
  <time name="totalsc">  162.48  163.17</time>
 </calculation>
 <calculation>
  <scstep>
   <time name="dav">   14.22   14.32</time>
   <time name="total">   14.67   14.77</time>
   <energy>
    <i name="alphaZ">    918.22725072 </i>
    <i name="ewald">  23834.83726762 </i>
    <i name="hartreedc"> -56380.06671221 </i>
    <i name="XCdc">   -998.06238113 </i>
    <i name="pawpsdc">  35481.01309117 </i>
    <i name="pawaedc"> -33327.47877591 </i>
    <i name="eentropy">     -5.17414846 </i>
    <i name="bandstr">    111.39258061 </i>
    <i name="atom">  30161.86332653 </i>
    <i name="e_fr_energy">   -203.44850106 </i>
    <i name="e_wo_entrp">   -198.27435260 </i>
    <i name="e_0_energy">   -200.86142683 </i>
   </energy>
  </scstep>
  <scstep>
   <time name="dav">   14.26   14.35</time>
   <time name="total">   14.71   14.81</time>
   <energy>
    <i name="e_fr_energy">   -203.44853715 </i>
    <i name="e_wo_entrp">   -198.27436291 </i>
    <i name="e_0_energy">   -200.86145003 </i>
   </energy>
  </scstep>
  <scstep>
   <time name="dav">   12.03   12.11</time>
   <time name="total">   12.49   12.57</time>
   <energy>
    <i name="e_fr_energy">   -203.44852913 </i>
    <i name="e_wo_entrp">   -198.27436423 </i>
    <i name="e_0_energy">   -200.86144668 </i>
   </energy>
  </scstep>
  <scstep>
   <time name="dav">    9.89    9.95</time>
   <time name="total">    9.99   10.06</time>
   <energy>
    <i name="alphaZ">    918.22725072 </i>
    <i name="ewald">  23834.83726762 </i>
    <i name="hartreedc"> -56380.09742185 </i>
    <i name="XCdc">   -998.06240871 </i>
    <i name="pawpsdc">  35481.10785193 </i>
    <i name="pawaedc"> -33327.57474216 </i>
    <i name="eentropy">     -5.17409238 </i>
    <i name="bandstr">    111.42444128 </i>
    <i name="atom">  30161.86332653 </i>
    <i name="e_fr_energy">   -203.44852703 </i>
    <i name="e_wo_entrp">   -198.27443465 </i>
    <i name="e_0_energy">   -200.86148084 </i>
   </energy>
  </scstep>
  <structure>
   <crystal>
    <varray name="basis" >
     <v>       8.30990028       0.00000000       0.00000000 </v>
     <v>      -4.15495014       7.19658475       0.00000000 </v>
     <v>       0.00000000       0.00000000      16.52350044 </v>
    </varray>
    <i name="volume">    988.15327180 </i>
    <varray name="rec_basis" >
     <v>       0.12033839       0.06947740       0.00000000 </v>
     <v>       0.00000000       0.13895480       0.00000000 </v>
     <v>       0.00000000       0.00000000       0.06051986 </v>
    </varray>
   </crystal>
   <varray name="positions" >
    <v>       1.00531197       1.00235146       0.44228148 </v>
    <v>       0.11093000       0.22330000       0.16024000 </v>
    <v>       0.22292426       0.11433298       0.29792445 </v>
    <v>       0.34064819       0.00895036       0.43675874 </v>
    <v>       0.44426000       0.22330000       0.16024000 </v>
    <v>       0.55713110       0.11498850       0.29807132 </v>
    <v>       0.67177216       1.00776384       0.43642670 </v>
    <v>       0.77760000       0.22330000       0.16024000 </v>
    <v>       0.89119871       0.11436621       0.29866457 </v>
    <v>       1.00327478       0.34150985       0.43572198 </v>
    <v>       0.11093000       0.55664000       0.16024000 </v>
    <v>       0.22368324       0.44891686       0.29706882 </v>
    <v>       0.34355635       0.34790614       0.43513919 </v>
    <v>       0.44426000       0.55664000       0.16024000 </v>
    <v>       0.55555960       0.44787789       0.29901645 </v>
    <v>       0.67379561       0.34175558       0.43611995 </v>
    <v>       0.77760000       0.55664000       0.16024000 </v>
    <v>       0.89064677       0.44794825       0.29772411 </v>
    <v>       1.00448619       0.67264883       0.43592267 </v>
    <v>       0.11093000       0.88997000       0.16024000 </v>
    <v>       0.22398983       0.78229275       0.29751671 </v>
    <v>       0.33891158       0.67736323       0.43517699 </v>
    <v>       0.44426000       0.88997000       0.16024000 </v>
    <v>       0.55783176       0.78225266       0.29764058 </v>
    <v>       0.67369276       0.67652523       0.43628966 </v>
    <v>       0.77760000       0.88997000       0.16024000 </v>
    <v>       0.89069457       0.78186865       0.29808375 </v>
    <v>       0.99982000       0.00108000       0.02337000 </v>
    <v>       0.33315000       0.00108000       0.02337000 </v>
    <v>       0.66649000       0.00108000       0.02337000 </v>
    <v>       0.99982000       0.33441000       0.02337000 </v>
    <v>       0.33315000       0.33441000       0.02337000 </v>
    <v>       0.66649000       0.33441000       0.02337000 </v>
    <v>       0.99982000       0.66775000       0.02337000 </v>
    <v>       0.33315000       0.66775000       0.02337000 </v>
    <v>       0.66649000       0.66775000       0.02337000 </v>
    <v>       0.14815090       0.08316831       0.55386289 </v>
    <v>       0.20624365       0.25572678       0.55570815 </v>
    <v>       0.13532080      -0.03753937       0.59917817 </v>
   </varray>
  </structure>
  <varray name="forces" >
   <v>       0.03707934       0.01619629      -0.00611792 </v>
   <v>      -0.01212991      -0.00400773       0.15057199 </v>
   <v>       0.00179665      -0.00698674      -0.00212951 </v>
   <v>       0.03906903      -0.02853490      -0.06756779 </v>
   <v>       0.00428138       0.04060790       0.13387148 </v>
   <v>       0.00974026      -0.00066498      -0.01314226 </v>
   <v>       0.02114303      -0.00596605      -0.00014057 </v>
   <v>       0.00080087       0.01689794       0.11356436 </v>
   <v>       0.00469004      -0.00515678      -0.00437529 </v>
   <v>      -0.00354031      -0.00943451      -0.04301595 </v>
   <v>      -0.03136497       0.02459569       0.07358330 </v>
   <v>       0.00357999      -0.00526615      -0.00177992 </v>
   <v>      -0.01710297      -0.03339110       0.00804838 </v>
   <v>       0.04003907       0.01027139       0.12576356 </v>
   <v>      -0.00682222      -0.00791697       0.00415295 </v>
   <v>      -0.00284440      -0.00948212      -0.00223097 </v>
   <v>      -0.01815370      -0.01278989       0.13050175 </v>
   <v>      -0.00624757       0.00066678      -0.01116836 </v>
   <v>       0.00043427       0.00397855       0.00170761 </v>
   <v>      -0.01659635       0.00240460       0.12090980 </v>
   <v>       0.00149811      -0.00987936      -0.00736913 </v>
   <v>       0.00943838      -0.02018339      -0.00401687 </v>
   <v>       0.00290466       0.03250907       0.10786117 </v>
   <v>       0.00322323      -0.00321433       0.00115425 </v>
   <v>       0.00803465      -0.00238253       0.00414194 </v>
   <v>       0.01940109       0.02676727       0.15195220 </v>
   <v>      -0.00039154      -0.00845858      -0.00777007 </v>
   <v>       0.00239215      -0.00676795      -0.13109760 </v>
   <v>      -0.00115311      -0.00596795      -0.15007895 </v>
   <v>      -0.00193587      -0.00274049      -0.14338439 </v>
   <v>       0.00109343      -0.00166309      -0.13991023 </v>
   <v>       0.00028165       0.00026962      -0.15119610 </v>
   <v>      -0.00519411      -0.00842358      -0.12502117 </v>
   <v>       0.01958972       0.01467373      -0.15552383 </v>
   <v>      -0.00348802       0.00105183      -0.15371490 </v>
   <v>      -0.01089470      -0.00396670      -0.14017990 </v>
   <v>      -0.20633623       0.12186239       0.12141840 </v>
   <v>       0.20933351       0.04085810       0.27108794 </v>
   <v>      -0.09564856      -0.15036528      -0.05935940 </v>
  </varray>
  <varray name="stress" >
   <v>     -17.66939302       0.12822222      -0.37793712 </v>
   <v>       0.12822238     -17.01365019      -1.11430629 </v>
   <v>      -0.37793703      -1.11430648      -3.13633384 </v>
  </varray>
  <energy>
   <i name="e_fr_energy">   -203.44852703 </i>
   <i name="e_wo_entrp">   -198.27443465 </i>
   <i name="e_0_energy">   -200.86148084 </i>
  </energy>
  <time name="totalsc">  165.74  166.44</time>
 </calculation>
 <calculation>
  <scstep>
   <time name="dav">   14.15   14.25</time>
   <time name="total">   14.61   14.71</time>
   <energy>
    <i name="alphaZ">    918.22725072 </i>
    <i name="ewald">  23836.01209358 </i>
    <i name="hartreedc"> -56381.23889910 </i>
    <i name="XCdc">   -998.06163598 </i>
    <i name="pawpsdc">  35481.08732431 </i>
    <i name="pawaedc"> -33327.55445944 </i>
    <i name="eentropy">     -5.17414711 </i>
    <i name="bandstr">    111.39052468 </i>
    <i name="atom">  30161.86332653 </i>
    <i name="e_fr_energy">   -203.44862181 </i>
    <i name="e_wo_entrp">   -198.27447470 </i>
    <i name="e_0_energy">   -200.86154825 </i>
   </energy>
  </scstep>
  <scstep>
   <time name="dav">   14.69   14.79</time>
   <time name="total">   15.15   15.25</time>
   <energy>
    <i name="e_fr_energy">   -203.44875012 </i>
    <i name="e_wo_entrp">   -198.27459790 </i>
    <i name="e_0_energy">   -200.86167401 </i>
   </energy>
  </scstep>
  <scstep>
   <time name="dav">   13.82   13.92</time>
   <time name="total">   14.28   14.38</time>
   <energy>
    <i name="e_fr_energy">   -203.44865632 </i>
    <i name="e_wo_entrp">   -198.27462897 </i>
    <i name="e_0_energy">   -200.86164265 </i>
   </energy>
  </scstep>
  <scstep>
   <time name="dav">   10.03   10.10</time>
   <time name="total">   10.14   10.21</time>
   <energy>
    <i name="alphaZ">    918.22725072 </i>
    <i name="ewald">  23836.01209358 </i>
    <i name="hartreedc"> -56381.21196819 </i>
    <i name="XCdc">   -998.06150240 </i>
    <i name="pawpsdc">  35481.19046103 </i>
    <i name="pawaedc"> -33327.65894984 </i>
    <i name="eentropy">     -5.17420322 </i>
    <i name="bandstr">    111.36483624 </i>
    <i name="atom">  30161.86332653 </i>
    <i name="e_fr_energy">   -203.44865555 </i>
    <i name="e_wo_entrp">   -198.27445233 </i>
    <i name="e_0_energy">   -200.86155394 </i>
   </energy>
  </scstep>
  <structure>
   <crystal>
    <varray name="basis" >
     <v>       8.30990028       0.00000000       0.00000000 </v>
     <v>      -4.15495014       7.19658475       0.00000000 </v>
     <v>       0.00000000       0.00000000      16.52350044 </v>
    </varray>
    <i name="volume">    988.15327180 </i>
    <varray name="rec_basis" >
     <v>       0.12033839       0.06947740       0.00000000 </v>
     <v>       0.00000000       0.13895480       0.00000000 </v>
     <v>       0.00000000       0.00000000       0.06051986 </v>
    </varray>
   </crystal>
   <varray name="positions" >
    <v>       1.00528372       1.00232621       0.44226442 </v>
    <v>       0.11093000       0.22330000       0.16024000 </v>
    <v>       0.22291677       0.11432710       0.29792195 </v>
    <v>       0.34062763       0.00893385       0.43675872 </v>
    <v>       0.44426000       0.22330000       0.16024000 </v>
    <v>       0.55712135       0.11498129       0.29807104 </v>
    <v>       0.67175232       1.00774849       0.43642512 </v>
    <v>       0.77760000       0.22330000       0.16024000 </v>
    <v>       0.89119155       0.11436153       0.29866245 </v>
    <v>       1.00325834       0.34149526       0.43571948 </v>
    <v>       0.11093000       0.55664000       0.16024000 </v>
    <v>       0.22367936       0.44891241       0.29706978 </v>
    <v>       0.34353374       0.34788222       0.43514042 </v>
    <v>       0.44426000       0.55664000       0.16024000 </v>
    <v>       0.55554835       0.44786950       0.29901757 </v>
    <v>       0.67378303       0.34173943       0.43612082 </v>
    <v>       0.77760000       0.55664000       0.16024000 </v>
    <v>       0.89063857       0.44794076       0.29772295 </v>
    <v>       1.00446707       0.67262612       0.43592263 </v>
    <v>       0.11093000       0.88997000       0.16024000 </v>
    <v>       0.22398108       0.78228530       0.29751706 </v>
    <v>       0.33889654       0.67734872       0.43517794 </v>
    <v>       0.44426000       0.88997000       0.16024000 </v>
    <v>       0.55782626       0.78224839       0.29764035 </v>
    <v>       0.67367461       0.67650836       0.43628887 </v>
    <v>       0.77760000       0.88997000       0.16024000 </v>
    <v>       0.89068369       0.78185649       0.29808058 </v>
    <v>       0.99982000       0.00108000       0.02337000 </v>
    <v>       0.33315000       0.00108000       0.02337000 </v>
    <v>       0.66649000       0.00108000       0.02337000 </v>
    <v>       0.99982000       0.33441000       0.02337000 </v>
    <v>       0.33315000       0.33441000       0.02337000 </v>
    <v>       0.66649000       0.33441000       0.02337000 </v>
    <v>       0.99982000       0.66775000       0.02337000 </v>
    <v>       0.33315000       0.66775000       0.02337000 </v>
    <v>       0.66649000       0.66775000       0.02337000 </v>
    <v>       0.14812006       0.08304458       0.55384335 </v>
    <v>       0.20629543       0.25562481       0.55569725 </v>
    <v>       0.13519028      -0.03769183       0.59916539 </v>
   </varray>
  </structure>
  <varray name="forces" >
   <v>       0.03675240       0.01612682      -0.00516417 </v>
   <v>      -0.01215226      -0.00405772       0.15058313 </v>
   <v>       0.00187671      -0.00705403      -0.00193617 </v>
   <v>       0.03895056      -0.02823349      -0.06663793 </v>
   <v>       0.00431368       0.04042080       0.13383892 </v>
   <v>       0.00999013      -0.00052003      -0.01276767 </v>
   <v>       0.02120183      -0.00617421      -0.00078770 </v>
   <v>       0.00071847       0.01674397       0.11359974 </v>
   <v>       0.00455589      -0.00505085      -0.00416848 </v>
   <v>      -0.00355126      -0.00936961      -0.04280548 </v>
   <v>      -0.03132694       0.02441906       0.07361372 </v>
   <v>       0.00251584      -0.00442272      -0.00200532 </v>
   <v>      -0.01681026      -0.03284859       0.00817016 </v>
   <v>       0.03993780       0.01004533       0.12565043 </v>
   <v>      -0.00638005      -0.00779643       0.00428255 </v>
   <v>      -0.00267981      -0.00927375      -0.00272223 </v>
   <v>      -0.01817979      -0.01309667       0.13018909 </v>
   <v>      -0.00617221       0.00066007      -0.01088336 </v>
   <v>       0.00036490       0.00481202       0.00026683 </v>
   <v>      -0.01648549       0.00235558       0.12039508 </v>
   <v>       0.00162984      -0.01008810      -0.00688108 </v>
   <v>       0.00949393      -0.02004456      -0.00463442 </v>
   <v>       0.00281387       0.03248991       0.10766744 </v>
   <v>       0.00316615      -0.00339545       0.00186279 </v>
   <v>       0.00816955      -0.00232278       0.00287819 </v>
   <v>       0.01933320       0.02681477       0.15141952 </v>
   <v>      -0.00031771      -0.00856170      -0.00690509 </v>
   <v>       0.00242361      -0.00713322      -0.13064071 </v>
   <v>      -0.00110550      -0.00618335      -0.14966240 </v>
   <v>      -0.00193976      -0.00300786      -0.14283817 </v>
   <v>       0.00100885      -0.00183784      -0.14103320 </v>
   <v>       0.00047726       0.00011553      -0.15199561 </v>
   <v>      -0.00522579      -0.00856201      -0.12531926 </v>
   <v>       0.01947811       0.01486370      -0.15522480 </v>
   <v>      -0.00341410       0.00132352      -0.15374871 </v>
   <v>      -0.01079448      -0.00382693      -0.13944072 </v>
   <v>      -0.20719949       0.12398630       0.12108766 </v>
   <v>       0.21024125       0.03974154       0.27193299 </v>
   <v>      -0.09567894      -0.15205700      -0.05923554 </v>
  </varray>
  <varray name="stress" >
   <v>     -17.63925761       0.12854945      -0.37132463 </v>
   <v>       0.12854953     -16.97861457      -1.10157767 </v>
   <v>      -0.37132463      -1.10157784      -3.07399138 </v>
  </varray>
  <energy>
   <i name="e_fr_energy">   -203.44865555 </i>
   <i name="e_wo_entrp">   -198.27445233 </i>
   <i name="e_0_energy">   -200.86155394 </i>
  </energy>
