PBE-grap                                
           1
     8.309900    0.000000    0.000000
    -4.154950    7.196585    0.000000
     0.000000    0.000000   16.523500
   Pd   C    O 
    36     1     2
Direct configuration=     1
   0.99905143  0.99843381  0.44009884
   0.11093000  0.22330000  0.16024000
   0.22214521  0.11310176  0.30041199
   0.33168630  0.00023744  0.44006641
   0.44426000  0.22330000  0.16024000
   0.55379066  0.11080349  0.29834630
   0.66511491  0.99936630  0.43636961
   0.77760000  0.22330000  0.16024000
   0.88856335  0.11158480  0.29916062
   0.99736313  0.33265311  0.44001562
   0.11093000  0.55664000  0.16024000
   0.22142160  0.44397360  0.29981637
   0.32855431  0.33351872  0.45103884
   0.44426000  0.55664000  0.16024000
   0.55185928  0.44335031  0.29984619
   0.66493034  0.33279430  0.43618279
   0.77760000  0.55664000  0.16024000
   0.88802615  0.44395928  0.29841612
   0.99785991  0.66547087  0.43593549
   0.11093000  0.88997000  0.16024000
   0.22209652  0.77853274  0.29884470
   0.33295206  0.66671662  0.43820333
   0.44426000  0.88997000  0.16024000
   0.55411645  0.77778450  0.29820399
   0.66582416  0.66631700  0.43633197
   0.77760000  0.88997000  0.16024000
   0.88813067  0.77883559  0.29818951
   0.99982000  0.00108000  0.02337000
   0.33315000  0.00108000  0.02337000
   0.66649000  0.00108000  0.02337000
   0.99982000  0.33441000  0.02337000
   0.33315000  0.33441000  0.02337000
   0.66649000  0.33441000  0.02337000
   0.99982000  0.66775000  0.02337000
   0.33315000  0.66775000  0.02337000
   0.66649000  0.66775000  0.02337000
   0.22690755  0.14313075  0.60115558
   0.23638002  0.32753370  0.59093285
   0.21462540  0.03440726  0.65283357
Direct configuration=     2
   0.99905315  0.99841829  0.44012639
   0.11093000  0.22330000  0.16024000
   0.22215517  0.11312023  0.30044690
   0.33167321  0.00025396  0.44009690
   0.44426000  0.22330000  0.16024000
   0.55377586  0.11079351  0.29835326
   0.66510463  0.99935846  0.43636714
   0.77760000  0.22330000  0.16024000
   0.88857114  0.11158845  0.29917444
   0.99736540  0.33266688  0.44005454
   0.11093000  0.55664000  0.16024000
   0.22142019  0.44396227  0.29984330
   0.32849568  0.33359358  0.45120478
   0.44426000  0.55664000  0.16024000
   0.55182155  0.44332994  0.29987758
   0.66492292  0.33278486  0.43618371
   0.77760000  0.55664000  0.16024000
   0.88802648  0.44394866  0.29842469
   0.99785626  0.66546722  0.43593737
   0.11093000  0.88997000  0.16024000
   0.22209728  0.77853601  0.29885532
   0.33293200  0.66670545  0.43822491
   0.44426000  0.88997000  0.16024000
   0.55410567  0.77777570  0.29820635
   0.66582729  0.66632361  0.43633273
   0.77760000  0.88997000  0.16024000
   0.88813112  0.77883576  0.29819235
   0.99982000  0.00108000  0.02337000
   0.33315000  0.00108000  0.02337000
   0.66649000  0.00108000  0.02337000
   0.99982000  0.33441000  0.02337000
   0.33315000  0.33441000  0.02337000
   0.66649000  0.33441000  0.02337000
   0.99982000  0.66775000  0.02337000
   0.33315000  0.66775000  0.02337000
   0.66649000  0.66775000  0.02337000
   0.22672469  0.14398746  0.60076268
   0.23621058  0.32614302  0.59006656
   0.21464067  0.03548650  0.65200529
Direct configuration=     3
   0.99905352  0.99839400  0.44016343
   0.11093000  0.22330000  0.16024000
   0.22217028  0.11314886  0.30050174
   0.33165385  0.00028069  0.44014002
   0.44426000  0.22330000  0.16024000
   0.55375308  0.11077916  0.29836389
   0.66508939  0.99934764  0.43636399
   0.77760000  0.22330000  0.16024000
   0.88858310  0.11159444  0.29919548
   0.99736802  0.33268916  0.44011398
   0.11093000  0.55664000  0.16024000
   0.22141724  0.44394500  0.29988621
   0.32841065  0.33372310  0.45145590
   0.44426000  0.55664000  0.16024000
   0.55176406  0.44329906  0.29992720
   0.66491035  0.33277066  0.43618591
   0.77760000  0.55664000  0.16024000
   0.88802749  0.44393184  0.29843796
   0.99785226  0.66546365  0.43594132
   0.11093000  0.88997000  0.16024000
   0.22209836  0.77854144  0.29887171
   0.33290177  0.66669341  0.43825689
   0.44426000  0.88997000  0.16024000
   0.55408952  0.77776273  0.29820995
   0.66583266  0.66633509  0.43633489
   0.77760000  0.88997000  0.16024000
   0.88813220  0.77883611  0.29819675
   0.99982000  0.00108000  0.02337000
   0.33315000  0.00108000  0.02337000
   0.66649000  0.00108000  0.02337000
   0.99982000  0.33441000  0.02337000
   0.33315000  0.33441000  0.02337000
   0.66649000  0.33441000  0.02337000
   0.99982000  0.66775000  0.02337000
   0.33315000  0.66775000  0.02337000
   0.66649000  0.66775000  0.02337000
   0.22648885  0.14550281  0.60002254
   0.23597687  0.32415972  0.58876269
   0.21462331  0.03672678  0.65094737
Direct configuration=     4
   0.99905039  0.99836204  0.44020483
   0.11093000  0.22330000  0.16024000
   0.22219199  0.11319070  0.30057942
   0.33162929  0.00032272  0.44019453
   0.44426000  0.22330000  0.16024000
   0.55372207  0.11076099  0.29837944
   0.66506944  0.99933572  0.43636138
   0.77760000  0.22330000  0.16024000
   0.88860038  0.11160392  0.29922406
   0.99736384  0.33271818  0.44018955
   0.11093000  0.55664000  0.16024000
   0.22141124  0.44392049  0.29994792
   0.32830911  0.33392885  0.45178664
   0.44426000  0.55664000  0.16024000
   0.55168309  0.44325604  0.29999718
   0.66489119  0.33275263  0.43619125
   0.77760000  0.55664000  0.16024000
   0.88803205  0.44391104  0.29845702
   0.99785061  0.66546336  0.43595012
   0.11093000  0.88997000  0.16024000
   0.22209910  0.77854949  0.29889416
   0.33286247  0.66668934  0.43829506
   0.44426000  0.88997000  0.16024000
   0.55406981  0.77774445  0.29821455
   0.66584056  0.66635415  0.43634033
   0.77760000  0.88997000  0.16024000
   0.88813395  0.77883687  0.29820285
   0.99982000  0.00108000  0.02337000
   0.33315000  0.00108000  0.02337000
   0.66649000  0.00108000  0.02337000
   0.99982000  0.33441000  0.02337000
   0.33315000  0.33441000  0.02337000
   0.66649000  0.33441000  0.02337000
   0.99982000  0.66775000  0.02337000
   0.33315000  0.66775000  0.02337000
   0.66649000  0.66775000  0.02337000
   0.22620490  0.14755519  0.59900355
   0.23571533  0.32161162  0.58705704
   0.21458221  0.03812408  0.64968072
Direct configuration=     5
   0.99904091  0.99832490  0.44024436
   0.11093000  0.22330000  0.16024000
   0.22222054  0.11324910  0.30068523
   0.33160195  0.00038775  0.44025862
   0.44426000  0.22330000  0.16024000
   0.55368351  0.11073930  0.29840179
   0.66504579  0.99932574  0.43635912
   0.77760000  0.22330000  0.16024000
   0.88862391  0.11161693  0.29926004
   0.99733954  0.33275853  0.44026998
   0.11093000  0.55664000  0.16024000
   0.22140332  0.44388980  0.30003454
   0.32820945  0.33423230  0.45217531
   0.44426000  0.55664000  0.16024000
   0.55157317  0.44319871  0.30009626
   0.66486389  0.33273143  0.43620385
   0.77760000  0.55664000  0.16024000
   0.88804078  0.44388795  0.29848303
   0.99785700  0.66547182  0.43596700
   0.11093000  0.88997000  0.16024000
   0.22209842  0.77856270  0.29892409
   0.33281182  0.66670996  0.43833004
   0.44426000  0.88997000  0.16024000
   0.55404757  0.77772146  0.29821978
   0.66585296  0.66638665  0.43635316
   0.77760000  0.88997000  0.16024000
   0.88813771  0.77883596  0.29821236
   0.99982000  0.00108000  0.02337000
   0.33315000  0.00108000  0.02337000
   0.66649000  0.00108000  0.02337000
   0.99982000  0.33441000  0.02337000
   0.33315000  0.33441000  0.02337000
   0.66649000  0.33441000  0.02337000
   0.99982000  0.66775000  0.02337000
   0.33315000  0.66775000  0.02337000
   0.66649000  0.66775000  0.02337000
   0.22586316  0.14986554  0.59791490
   0.23547737  0.31842937  0.58502982
   0.21455372  0.03987183  0.64814689
Direct configuration=     6
   0.99900961  0.99827765  0.44026507
   0.11093000  0.22330000  0.16024000
   0.22225843  0.11332558  0.30082589
   0.33157448  0.00048231  0.44032362
   0.44426000  0.22330000  0.16024000
   0.55363848  0.11071732  0.29843311
   0.66501817  0.99932309  0.43636248
   0.77760000  0.22330000  0.16024000
   0.88865496  0.11163089  0.29929961
   0.99725775  0.33280934  0.44032368
   0.11093000  0.55664000  0.16024000
   0.22139861  0.44385321  0.30015641
   0.32818072  0.33466834  0.45253085
   0.44426000  0.55664000  0.16024000
   0.55143214  0.44313159  0.30023781
   0.66482483  0.33270883  0.43623073
   0.77760000  0.55664000  0.16024000
   0.88804994  0.44386604  0.29851789
   0.99787943  0.66549979  0.43600124
   0.11093000  0.88997000  0.16024000
   0.22209254  0.77858585  0.29896074
   0.33275156  0.66679844  0.43834306
   0.44426000  0.88997000  0.16024000
   0.55402681  0.77769387  0.29822367
   0.66587332  0.66644538  0.43637893
   0.77760000  0.88997000  0.16024000
   0.88814122  0.77883078  0.29822527
   0.99982000  0.00108000  0.02337000
   0.33315000  0.00108000  0.02337000
   0.66649000  0.00108000  0.02337000
   0.99982000  0.33441000  0.02337000
   0.33315000  0.33441000  0.02337000
   0.66649000  0.33441000  0.02337000
   0.99982000  0.66775000  0.02337000
   0.33315000  0.66775000  0.02337000
   0.66649000  0.66775000  0.02337000
   0.22551403  0.15262265  0.59686903
   0.23533814  0.31446445  0.58283000
   0.21452728  0.04168962  0.64647734
Direct configuration=     7
   0.99891541  0.99821296  0.44023063
   0.11093000  0.22330000  0.16024000
   0.22230452  0.11341009  0.30100661
   0.33156762  0.00061224  0.44036901
   0.44426000  0.22330000  0.16024000
   0.55360181  0.11070513  0.29847185
   0.66498896  0.99933761  0.43637918
   0.77760000  0.22330000  0.16024000
   0.88869463  0.11164595  0.29933082
   0.99704161  0.33285684  0.44025793
   0.11093000  0.55664000  0.16024000
   0.22141410  0.44382064  0.30031694
   0.32840286  0.33520765  0.45249582
   0.44426000  0.55664000  0.16024000
   0.55125973  0.44305754  0.30042375
   0.66477169  0.33268445  0.43628847
   0.77760000  0.55664000  0.16024000
   0.88805142  0.44385635  0.29855371
   0.99793016  0.66556550  0.43606481
   0.11093000  0.88997000  0.16024000
   0.22206342  0.77862105  0.29899276
   0.33268855  0.66702493  0.43829075
   0.44426000  0.88997000  0.16024000
   0.55401976  0.77767141  0.29822160
   0.66590637  0.66655529  0.43642694
   0.77760000  0.88997000  0.16024000
   0.88814929  0.77881489  0.29823899
   0.99982000  0.00108000  0.02337000
   0.33315000  0.00108000  0.02337000
   0.66649000  0.00108000  0.02337000
   0.99982000  0.33441000  0.02337000
   0.33315000  0.33441000  0.02337000
   0.66649000  0.33441000  0.02337000
   0.99982000  0.66775000  0.02337000
   0.33315000  0.66775000  0.02337000
   0.66649000  0.66775000  0.02337000
   0.22517553  0.15552928  0.59660758
   0.23535051  0.30953302  0.58095932
   0.21456636  0.04371326  0.64452705
Direct configuration=     8
   0.99869522  0.99810744  0.44008047
   0.11093000  0.22330000  0.16024000
   0.22233184  0.11344496  0.30115602
   0.33160758  0.00068588  0.44031912
   0.44426000  0.22330000  0.16024000
   0.55360600  0.11072288  0.29849913
   0.66496134  0.99936794  0.43642573
   0.77760000  0.22330000  0.16024000
   0.88872096  0.11165644  0.29933290
   0.99669251  0.33287464  0.43997556
   0.11093000  0.55664000  0.16024000
   0.22145164  0.44381364  0.30046305
   0.32909324  0.33563734  0.45146390
   0.44426000  0.55664000  0.16024000
   0.55110531  0.44299885  0.30059775
   0.66472346  0.33265542  0.43638035
   0.77760000  0.55664000  0.16024000
   0.88803784  0.44389189  0.29856032
   0.99800924  0.66567325  0.43615989
   0.11093000  0.88997000  0.16024000
   0.22200244  0.77865238  0.29899649
   0.33263118  0.66738553  0.43815119
   0.44426000  0.88997000  0.16024000
   0.55404372  0.77766805  0.29820851
   0.66596268  0.66672136  0.43649457
   0.77760000  0.88997000  0.16024000
   0.88814966  0.77877236  0.29824329
   0.99982000  0.00108000  0.02337000
   0.33315000  0.00108000  0.02337000
   0.66649000  0.00108000  0.02337000
   0.99982000  0.33441000  0.02337000
   0.33315000  0.33441000  0.02337000
   0.66649000  0.33441000  0.02337000
   0.99982000  0.66775000  0.02337000
   0.33315000  0.66775000  0.02337000
   0.66649000  0.66775000  0.02337000
   0.22508875  0.15974008  0.59722138
   0.23549105  0.30578146  0.58012176
   0.21443338  0.04272122  0.64344417
Direct configuration=     9
   0.99861415  0.99807204  0.44001781
   0.11093000  0.22330000  0.16024000
   0.22232692  0.11343253  0.30117697
   0.33162920  0.00066245  0.44027529
   0.44426000  0.22330000  0.16024000
   0.55361965  0.11073398  0.29850127
   0.66495691  0.99937514  0.43644423
   0.77760000  0.22330000  0.16024000
   0.88872183  0.11165641  0.29932434
   0.99658664  0.33286914  0.43984888
   0.11093000  0.55664000  0.16024000
   0.22146274  0.44382068  0.30048297
   0.32934997  0.33565350  0.45093935
   0.44426000  0.55664000  0.16024000
   0.55108589  0.44299531  0.30062448
   0.66472171  0.33264347  0.43640674
   0.77760000  0.55664000  0.16024000
   0.88803096  0.44391416  0.29854967
   0.99803137  0.66570317  0.43618638
   0.11093000  0.88997000  0.16024000
   0.22198187  0.77865598  0.29898810
   0.33261939  0.66748041  0.43809994
   0.44426000  0.88997000  0.16024000
   0.55405736  0.77767284  0.29820300
   0.66597580  0.66676897  0.43651080
   0.77760000  0.88997000  0.16024000
   0.88814832  0.77875615  0.29823964
   0.99982000  0.00108000  0.02337000
   0.33315000  0.00108000  0.02337000
   0.66649000  0.00108000  0.02337000
   0.99982000  0.33441000  0.02337000
   0.33315000  0.33441000  0.02337000
   0.66649000  0.33441000  0.02337000
   0.99982000  0.66775000  0.02337000
   0.33315000  0.66775000  0.02337000
   0.66649000  0.66775000  0.02337000
   0.22492031  0.15909907  0.59838624
   0.23553249  0.30539756  0.58017803
   0.21453301  0.04367482  0.64257039
Direct configuration=    10
   0.99855370  0.99804806  0.43996616
   0.11093000  0.22330000  0.16024000
   0.22232162  0.11342419  0.30119091
   0.33164367  0.00065338  0.44024343
   0.44426000  0.22330000  0.16024000
   0.55362797  0.11074166  0.29850360
   0.66495321  0.99938151  0.43645677
   0.77760000  0.22330000  0.16024000
   0.88872186  0.11165565  0.29931763
   0.99652253  0.33286919  0.43977221
   0.11093000  0.55664000  0.16024000
   0.22146644  0.44382552  0.30049518
   0.32952212  0.33570232  0.45060243
   0.44426000  0.55664000  0.16024000
   0.55107446  0.44299342  0.30064330
   0.66471824  0.33263756  0.43642702
   0.77760000  0.55664000  0.16024000
   0.88802474  0.44392861  0.29854345
   0.99804638  0.66572641  0.43620583
   0.11093000  0.88997000  0.16024000
   0.22196786  0.77866062  0.29898251
   0.33260926  0.66754924  0.43806728
   0.44426000  0.88997000  0.16024000
   0.55406654  0.77767660  0.29819899
   0.66598810  0.66680494  0.43652411
   0.77760000  0.88997000  0.16024000
   0.88814768  0.77874534  0.29823802
   0.99982000  0.00108000  0.02337000
   0.33315000  0.00108000  0.02337000
   0.66649000  0.00108000  0.02337000
   0.99982000  0.33441000  0.02337000
   0.33315000  0.33441000  0.02337000
   0.66649000  0.33441000  0.02337000
   0.99982000  0.66775000  0.02337000
   0.33315000  0.66775000  0.02337000
   0.66649000  0.66775000  0.02337000
   0.22491763  0.15985644  0.59864305
   0.23558724  0.30528053  0.58011674
   0.21446974  0.04293404  0.64252359
Direct configuration=    11
   0.99847588  0.99801681  0.43989865
   0.11093000  0.22330000  0.16024000
   0.22231370  0.11341033  0.30120604
   0.33166295  0.00063778  0.44020035
   0.44426000  0.22330000  0.16024000
   0.55363951  0.11075211  0.29850632
   0.66494865  0.99938958  0.43647418
   0.77760000  0.22330000  0.16024000
   0.88872056  0.11165391  0.29930844
   0.99644046  0.33286946  0.43966894
   0.11093000  0.55664000  0.16024000
   0.22147097  0.44383307  0.30050810
   0.32975084  0.33575678  0.45014092
   0.44426000  0.55664000  0.16024000
   0.55106409  0.44299314  0.30066462
   0.66471587  0.33263003  0.43645336
   0.77760000  0.55664000  0.16024000
   0.88801593  0.44394844  0.29853431
   0.99806541  0.66575634  0.43623155
   0.11093000  0.88997000  0.16024000
   0.22194914  0.77866606  0.29897434
   0.33259698  0.66763697  0.43802410
   0.44426000  0.88997000  0.16024000
   0.55407883  0.77768147  0.29819383
   0.66600456  0.66685234  0.43654096
   0.77760000  0.88997000  0.16024000
   0.88814614  0.77873018  0.29823546
   0.99982000  0.00108000  0.02337000
   0.33315000  0.00108000  0.02337000
   0.66649000  0.00108000  0.02337000
   0.99982000  0.33441000  0.02337000
   0.33315000  0.33441000  0.02337000
   0.66649000  0.33441000  0.02337000
   0.99982000  0.66775000  0.02337000
   0.33315000  0.66775000  0.02337000
   0.66649000  0.66775000  0.02337000
   0.22486088  0.16023936  0.59920327
   0.23565061  0.30516505  0.58007475
   0.21444030  0.04255200  0.64224739
Direct configuration=    12
   0.99836943  0.99797661  0.43980388
   0.11093000  0.22330000  0.16024000
   0.22230057  0.11338829  0.30122297
   0.33168725  0.00062275  0.44014466
   0.44426000  0.22330000  0.16024000
   0.55365438  0.11076615  0.29851065
   0.66494238  0.99940189  0.43649798
   0.77760000  0.22330000  0.16024000
   0.88871646  0.11165024  0.29929589
   0.99634015  0.33287354  0.43953683
   0.11093000  0.55664000  0.16024000
   0.22147378  0.44384519  0.30052166
   0.33006738  0.33585306  0.44951296
   0.44426000  0.55664000  0.16024000
   0.55105576  0.44299532  0.30069083
   0.66471412  0.33262265  0.43649112
   0.77760000  0.55664000  0.16024000
   0.88800239  0.44397538  0.29852203
   0.99809027  0.66579851  0.43626719
   0.11093000  0.88997000  0.16024000
   0.22192348  0.77867482  0.29896271
   0.33257887  0.66775748  0.43796768
   0.44426000  0.88997000  0.16024000
   0.55409437  0.77768828  0.29818623
   0.66602924  0.66691905  0.43656549
   0.77760000  0.88997000  0.16024000
   0.88814339  0.77870904  0.29823200
   0.99982000  0.00108000  0.02337000
   0.33315000  0.00108000  0.02337000
   0.66649000  0.00108000  0.02337000
   0.99982000  0.33441000  0.02337000
   0.33315000  0.33441000  0.02337000
   0.66649000  0.33441000  0.02337000
   0.99982000  0.66775000  0.02337000
   0.33315000  0.66775000  0.02337000
   0.66649000  0.66775000  0.02337000
   0.22479269  0.16083807  0.59982880
   0.23574293  0.30513364  0.57998051
   0.21437444  0.04179748  0.64199493
Direct configuration=    13
   0.99823604  0.99793024  0.43967921
   0.11093000  0.22330000  0.16024000
   0.22227906  0.11335524  0.30123382
   0.33171567  0.00060084  0.44007055
   0.44426000  0.22330000  0.16024000
   0.55367487  0.11078495  0.29851531
   0.66493582  0.99941880  0.43652807
   0.77760000  0.22330000  0.16024000
   0.88870823  0.11164481  0.29927677
   0.99622944  0.33288173  0.43937829
   0.11093000  0.55664000  0.16024000
   0.22147205  0.44386524  0.30052818
   0.33044532  0.33597502  0.44873347
   0.44426000  0.55664000  0.16024000
   0.55105812  0.44300457  0.30071443
   0.66471655  0.33261721  0.43653902
   0.77760000  0.55664000  0.16024000
   0.88798613  0.44400967  0.29850585
   0.99811953  0.66585110  0.43631080
   0.11093000  0.88997000  0.16024000
   0.22189193  0.77868428  0.29894666
   0.33255648  0.66789674  0.43790128
   0.44426000  0.88997000  0.16024000
   0.55411461  0.77769920  0.29817655
   0.66605899  0.66700012  0.43659559
   0.77760000  0.88997000  0.16024000
   0.88813836  0.77868147  0.29822666
   0.99982000  0.00108000  0.02337000
   0.33315000  0.00108000  0.02337000
   0.66649000  0.00108000  0.02337000
   0.99982000  0.33441000  0.02337000
   0.33315000  0.33441000  0.02337000
   0.66649000  0.33441000  0.02337000
   0.99982000  0.66775000  0.02337000
   0.33315000  0.66775000  0.02337000
   0.66649000  0.66775000  0.02337000
   0.22469978  0.16129898  0.60063326
   0.23585380  0.30516327  0.57988563
   0.21430354  0.04106444  0.64164841
Direct configuration=    14
   0.99808231  0.99788873  0.43952314
   0.11093000  0.22330000  0.16024000
   0.22224521  0.11330526  0.30123360
   0.33174303  0.00058503  0.43998768
   0.44426000  0.22330000  0.16024000
   0.55369906  0.11080797  0.29852286
   0.66492800  0.99944300  0.43656394
   0.77760000  0.22330000  0.16024000
   0.88869364  0.11163556  0.29924988
   0.99611381  0.33289515  0.43919920
   0.11093000  0.55664000  0.16024000
   0.22145585  0.44389186  0.30052150
   0.33090425  0.33616340  0.44779862
   0.44426000  0.55664000  0.16024000
   0.55107992  0.44302484  0.30073229
   0.66472641  0.33261893  0.43660189
   0.77760000  0.55664000  0.16024000
   0.88796529  0.44404761  0.29848756
   0.99815051  0.66591603  0.43636204
   0.11093000  0.88997000  0.16024000
   0.22185210  0.77869796  0.29892574
   0.33252987  0.66806401  0.43782725
   0.44426000  0.88997000  0.16024000
   0.55414100  0.77771604  0.29816563
   0.66610274  0.66710904  0.43663627
   0.77760000  0.88997000  0.16024000
   0.88812982  0.77864613  0.29822012
   0.99982000  0.00108000  0.02337000
   0.33315000  0.00108000  0.02337000
   0.66649000  0.00108000  0.02337000
   0.99982000  0.33441000  0.02337000
   0.33315000  0.33441000  0.02337000
   0.66649000  0.33441000  0.02337000
   0.99982000  0.66775000  0.02337000
   0.33315000  0.66775000  0.02337000
   0.66649000  0.66775000  0.02337000
   0.22461986  0.16212624  0.60132475
   0.23597855  0.30515823  0.57974783
   0.21417788  0.03988598  0.64140872
Direct configuration=    15
   0.99795500  0.99786266  0.43937844
   0.11093000  0.22330000  0.16024000
   0.22220876  0.11324940  0.30121266
   0.33176710  0.00056494  0.43990581
   0.44426000  0.22330000  0.16024000
   0.55372318  0.11083086  0.29852744
   0.66492188  0.99946690  0.43659682
   0.77760000  0.22330000  0.16024000
   0.88867505  0.11162813  0.29922190
   0.99603043  0.33290961  0.43904117
   0.11093000  0.55664000  0.16024000
   0.22143531  0.44392465  0.30049632
   0.33128270  0.33630858  0.44697447
   0.44426000  0.55664000  0.16024000
   0.55112097  0.44305354  0.30072910
   0.66474433  0.33262447  0.43665679
   0.77760000  0.55664000  0.16024000
   0.88794301  0.44408289  0.29846958
   0.99817709  0.66597456  0.43640662
   0.11093000  0.88997000  0.16024000
   0.22181758  0.77870739  0.29890301
   0.33250988  0.66819600  0.43776730
   0.44426000  0.88997000  0.16024000
   0.55416253  0.77773138  0.29815519
   0.66614420  0.66720892  0.43667174
   0.77760000  0.88997000  0.16024000
   0.88811715  0.77861045  0.29821277
   0.99982000  0.00108000  0.02337000
   0.33315000  0.00108000  0.02337000
   0.66649000  0.00108000  0.02337000
   0.99982000  0.33441000  0.02337000
   0.33315000  0.33441000  0.02337000
   0.66649000  0.33441000  0.02337000
   0.99982000  0.66775000  0.02337000
   0.33315000  0.66775000  0.02337000
   0.66649000  0.66775000  0.02337000
   0.22448927  0.16186092  0.60222321
   0.23606961  0.30514282  0.57970990
   0.21414608  0.03986857  0.64090409
Direct configuration=    16
   0.99794599  0.99786403  0.43936592
   0.11093000  0.22330000  0.16024000
   0.22220438  0.11324276  0.30120894
   0.33176753  0.00057091  0.43990374
   0.44426000  0.22330000  0.16024000
   0.55372387  0.11083257  0.29852904
   0.66492100  0.99947054  0.43659950
   0.77760000  0.22330000  0.16024000
   0.88867263  0.11162695  0.29921940
   0.99602721  0.33291348  0.43903163
   0.11093000  0.55664000  0.16024000
   0.22143124  0.44392907  0.30049212
   0.33132301  0.33633637  0.44690116
   0.44426000  0.55664000  0.16024000
   0.55112809  0.44305787  0.30072780
   0.66474771  0.33262765  0.43666359
   0.77760000  0.55664000  0.16024000
   0.88794031  0.44408605  0.29846898
   0.99817916  0.66598117  0.43641149
   0.11093000  0.88997000  0.16024000
   0.22181443  0.77871012  0.29890137
   0.33250746  0.66821203  0.43776252
   0.44426000  0.88997000  0.16024000
   0.55416434  0.77773305  0.29815453
   0.66615083  0.66722234  0.43667639
   0.77760000  0.88997000  0.16024000
   0.88811553  0.77860705  0.29821251
   0.99982000  0.00108000  0.02337000
   0.33315000  0.00108000  0.02337000
   0.66649000  0.00108000  0.02337000
   0.99982000  0.33441000  0.02337000
   0.33315000  0.33441000  0.02337000
   0.66649000  0.33441000  0.02337000
   0.99982000  0.66775000  0.02337000
   0.33315000  0.66775000  0.02337000
   0.66649000  0.66775000  0.02337000
   0.22449866  0.16213343  0.60214797
   0.23607385  0.30510690  0.57968274
   0.21411443  0.03957181  0.64096742
Direct configuration=    17
   0.99792075  0.99786613  0.43933288
   0.11093000  0.22330000  0.16024000
   0.22219278  0.11322433  0.30119905
   0.33176954  0.00058223  0.43989654
   0.44426000  0.22330000  0.16024000
   0.55372672  0.11083753  0.29853279
   0.66491912  0.99947985  0.43660738
   0.77760000  0.22330000  0.16024000
   0.88866635  0.11162401  0.29921265
   0.99601656  0.33292241  0.43900180
   0.11093000  0.55664000  0.16024000
   0.22142151  0.44394092  0.30048092
   0.33143433  0.33639949  0.44668921
   0.44426000  0.55664000  0.16024000
   0.55114674  0.44306936  0.30072397
   0.66475773  0.33263511  0.43668107
   0.77760000  0.55664000  0.16024000
   0.88793350  0.44409520  0.29846658
   0.99818509  0.66599840  0.43642429
   0.11093000  0.88997000  0.16024000
   0.22180561  0.77871632  0.29889665
   0.33250084  0.66825276  0.43774893
   0.44426000  0.88997000  0.16024000
   0.55416896  0.77773716  0.29815250
   0.66616818  0.66725757  0.43668803
   0.77760000  0.88997000  0.16024000
   0.88811136  0.77859760  0.29821144
   0.99982000  0.00108000  0.02337000
   0.33315000  0.00108000  0.02337000
   0.66649000  0.00108000  0.02337000
   0.99982000  0.33441000  0.02337000
   0.33315000  0.33441000  0.02337000
   0.66649000  0.33441000  0.02337000
   0.99982000  0.66775000  0.02337000
   0.33315000  0.66775000  0.02337000
   0.66649000  0.66775000  0.02337000
   0.22448949  0.16247923  0.60211196
   0.23608105  0.30503735  0.57962794
   0.21406399  0.03915617  0.64099825
Direct configuration=    18
   0.99789180  0.99786642  0.43929569
   0.11093000  0.22330000  0.16024000
   0.22218020  0.11320333  0.30118725
   0.33177332  0.00058839  0.43988468
   0.44426000  0.22330000  0.16024000
   0.55373117  0.11084354  0.29853611
   0.66491758  0.99948903  0.43661618
   0.77760000  0.22330000  0.16024000
   0.88865936  0.11162120  0.29920480
   0.99600351  0.33293020  0.43896463
   0.11093000  0.55664000  0.16024000
   0.22141263  0.44395459  0.30046799
   0.33155015  0.33645362  0.44644665
   0.44426000  0.55664000  0.16024000
   0.55116744  0.44308220  0.30071836
   0.66476978  0.33264279  0.43669903
   0.77760000  0.55664000  0.16024000
   0.88792631  0.44410589  0.29846305
   0.99819199  0.66601683  0.43643771
   0.11093000  0.88997000  0.16024000
   0.22179640  0.77872186  0.29889120
   0.33249428  0.66829508  0.43773305
   0.44426000  0.88997000  0.16024000
   0.55417439  0.77774190  0.29815032
   0.66618705  0.66729412  0.43669965
   0.77760000  0.88997000  0.16024000
   0.88810678  0.77858702  0.29820976
   0.99982000  0.00108000  0.02337000
   0.33315000  0.00108000  0.02337000
   0.66649000  0.00108000  0.02337000
   0.99982000  0.33441000  0.02337000
   0.33315000  0.33441000  0.02337000
   0.66649000  0.33441000  0.02337000
   0.99982000  0.66775000  0.02337000
   0.33315000  0.66775000  0.02337000
   0.66649000  0.66775000  0.02337000
   0.22444793  0.16245770  0.60224812
   0.23608803  0.30500395  0.57958802
   0.21404209  0.03908301  0.64089402
Direct configuration=    19
   0.99785893  0.99787245  0.43925181
   0.11093000  0.22330000  0.16024000
   0.22216158  0.11317234  0.30116906
   0.33177559  0.00060682  0.43988039
   0.44426000  0.22330000  0.16024000
   0.55373467  0.11085118  0.29854271
   0.66491514  0.99950360  0.43662817
   0.77760000  0.22330000  0.16024000
   0.88864969  0.11161690  0.29919508
   0.99599382  0.33294587  0.43892187
   0.11093000  0.55664000  0.16024000
   0.22139824  0.44397506  0.30044826
   0.33172401  0.33654299  0.44611018
   0.44426000  0.55664000  0.16024000
   0.55119808  0.44309937  0.30070940
   0.66479166  0.33265712  0.43672467
   0.77760000  0.55664000  0.16024000
   0.88791663  0.44411907  0.29845992
   0.99820083  0.66604291  0.43645591
   0.11093000  0.88997000  0.16024000
   0.22178462  0.77873243  0.29888521
   0.33248682  0.66835877  0.43771283
   0.44426000  0.88997000  0.16024000
   0.55418125  0.77774842  0.29814747
   0.66621830  0.66735085  0.43671583
   0.77760000  0.88997000  0.16024000
   0.88810050  0.77857331  0.29820814
   0.99982000  0.00108000  0.02337000
   0.33315000  0.00108000  0.02337000
   0.66649000  0.00108000  0.02337000
   0.99982000  0.33441000  0.02337000
   0.33315000  0.33441000  0.02337000
   0.66649000  0.33441000  0.02337000
   0.99982000  0.66775000  0.02337000
   0.33315000  0.66775000  0.02337000
   0.66649000  0.66775000  0.02337000
   0.22438540  0.16252502  0.60233169
   0.23607545  0.30492278  0.57950079
   0.21400000  0.03888251  0.64078278
Direct configuration=    20
   0.99782714  0.99788729  0.43920524
   0.11093000  0.22330000  0.16024000
   0.22213610  0.11313042  0.30114433
   0.33177522  0.00063750  0.43988814
   0.44426000  0.22330000  0.16024000
   0.55373630  0.11085941  0.29855325
   0.66491254  0.99952401  0.43664334
   0.77760000  0.22330000  0.16024000
   0.88863765  0.11161134  0.29918515
   0.99599404  0.33296824  0.43887590
   0.11093000  0.55664000  0.16024000
   0.22137771  0.44400222  0.30042168
   0.33195736  0.33666297  0.44568769
   0.44426000  0.55664000  0.16024000
   0.55123846  0.44312197  0.30069652
   0.66482589  0.33267813  0.43675842
   0.77760000  0.55664000  0.16024000
   0.88790492  0.44413415  0.29845804
   0.99821207  0.66607601  0.43647894
   0.11093000  0.88997000  0.16024000
   0.22177111  0.77874787  0.29887995
   0.33247817  0.66844136  0.43768911
   0.44426000  0.88997000  0.16024000
   0.55418869  0.77775649  0.29814462
   0.66626174  0.66742687  0.43673761
   0.77760000  0.88997000  0.16024000
   0.88809301  0.77855777  0.29820707
   0.99982000  0.00108000  0.02337000