       N       E                     dE             d eps       ncg     rms          rms(c)
DAV:   1     0.210382030311E+04    0.21038E+04   -0.15220E+05 10968   0.116E+03
DAV:   2    -0.941660476707E+02   -0.21980E+04   -0.20693E+04 11864   0.293E+02
DAV:   3    -0.210555079938E+03   -0.11639E+03   -0.10619E+03 12184   0.616E+01
DAV:   4    -0.214043748770E+03   -0.34887E+01   -0.34194E+01 12520   0.107E+01
DAV:   5    -0.214205056625E+03   -0.16131E+00   -0.16029E+00 16056   0.217E+00    0.394E+01
DAV:   6    -0.204730238462E+03    0.94748E+01   -0.32627E+01 11696   0.141E+01    0.195E+01
DAV:   7    -0.208200845155E+03   -0.34706E+01   -0.76408E+00 11968   0.154E+01    0.222E+01
DAV:   8    -0.205594225304E+03    0.26066E+01   -0.10903E+01 12508   0.170E+01    0.128E+01
DAV:   9    -0.209128363895E+03   -0.35341E+01   -0.11349E+01 12932   0.186E+01    0.187E+01
DAV:  10    -0.204577916000E+03    0.45504E+01   -0.51632E+00 13032   0.127E+01    0.778E+00
DAV:  11    -0.203911099696E+03    0.66682E+00   -0.11530E+00 12320   0.540E+00    0.149E+00
DAV:  12    -0.203908122763E+03    0.29769E-02   -0.18826E-01 11804   0.156E+00    0.113E+00
DAV:  13    -0.203901685016E+03    0.64377E-02   -0.39285E-02 11520   0.956E-01    0.674E-01
DAV:  14    -0.203898918745E+03    0.27663E-02   -0.14876E-02 11820   0.626E-01    0.613E-01
DAV:  15    -0.203896045929E+03    0.28728E-02   -0.79423E-03 11724   0.483E-01    0.481E-01
DAV:  16    -0.203892095313E+03    0.39506E-02   -0.73554E-03 11812   0.418E-01    0.201E-01
DAV:  17    -0.203891839164E+03    0.25615E-03   -0.23944E-03 11684   0.225E-01    0.181E-01
DAV:  18    -0.203891914268E+03   -0.75105E-04   -0.19886E-03 11656   0.198E-01    0.163E-01
DAV:  19    -0.203892164006E+03   -0.24974E-03   -0.92518E-04 11776   0.144E-01    0.131E-01
DAV:  20    -0.203892421511E+03   -0.25750E-03   -0.68867E-04 11508   0.126E-01    0.797E-02
DAV:  21    -0.203892529507E+03   -0.10800E-03   -0.22536E-04 11880   0.650E-02    0.714E-02
DAV:  22    -0.203892696430E+03   -0.16692E-03   -0.15069E-04 11284   0.565E-02    0.294E-02
DAV:  23    -0.203892810337E+03   -0.11391E-03   -0.50051E-05 10008   0.292E-02    0.243E-02
DAV:  24    -0.203892874035E+03   -0.63698E-04   -0.20287E-05  7620   0.219E-02    0.792E-03
DAV:  25    -0.203892929257E+03   -0.55222E-04   -0.78354E-06  7164   0.105E-02    0.102E-02
DAV:  26    -0.203892957156E+03   -0.27899E-04   -0.44224E-06  7004   0.914E-03    0.522E-03
DAV:  27    -0.203892973004E+03   -0.15848E-04   -0.24624E-06  7028   0.560E-03    0.502E-03
DAV:  28    -0.203892981262E+03   -0.82581E-05   -0.14609E-06  6892   0.437E-03
   1 F= -.20389298E+03 E0= -.20127656E+03  d E =-.203893E+03
       N       E                     dE             d eps       ncg     rms          rms(c)
DAV:   1    -0.203898852939E+03   -0.58799E-02   -0.58807E-02 10992   0.329E-01    0.679E-02
DAV:   2    -0.203898975798E+03   -0.12286E-03   -0.16808E-03 11608   0.602E-02    0.603E-02
DAV:   3    -0.203899000676E+03   -0.24879E-04   -0.15509E-04 10216   0.609E-02    0.863E-02
DAV:   4    -0.203898952608E+03    0.48069E-04   -0.17340E-04  8164   0.643E-02    0.528E-02
DAV:   5    -0.203898960214E+03   -0.76066E-05   -0.11410E-04 10380   0.599E-02    0.599E-02
DAV:   6    -0.203898930629E+03    0.29586E-04   -0.58738E-05  9228   0.494E-02    0.326E-02
DAV:   7    -0.203898919085E+03    0.11543E-04   -0.17804E-05  6636   0.275E-02    0.934E-03
DAV:   8    -0.203898919562E+03   -0.47708E-06   -0.70481E-06  5976   0.120E-02
   2 F= -.20389892E+03 E0= -.20128245E+03  d E =-.593830E-02
       N       E                     dE             d eps       ncg     rms          rms(c)
DAV:   1    -0.203907167327E+03   -0.82482E-02   -0.16611E-01 10992   0.606E-01    0.719E-02
DAV:   2    -0.203907409624E+03   -0.24230E-03   -0.28349E-03 11616   0.980E-02    0.785E-02
DAV:   3    -0.203907427318E+03   -0.17694E-04   -0.26995E-04 12008   0.786E-02    0.934E-02
DAV:   4    -0.203907380349E+03    0.46969E-04   -0.20142E-04  9848   0.699E-02    0.653E-02
DAV:   5    -0.203907357958E+03    0.22391E-04   -0.92758E-05  9344   0.542E-02    0.463E-02
DAV:   6    -0.203907364907E+03   -0.69494E-05   -0.72432E-05 10644   0.521E-02
   3 F= -.20390736E+03 E0= -.20129077E+03  d E =-.844535E-02
       N       E                     dE             d eps       ncg     rms          rms(c)
DAV:   1    -0.203916781032E+03   -0.94231E-02   -0.29107E-01 10968   0.834E-01    0.720E-02
DAV:   2    -0.203917188251E+03   -0.40722E-03   -0.40174E-03 11608   0.140E-01    0.113E-01
DAV:   3    -0.203917156088E+03    0.32162E-04   -0.46659E-04 11988   0.103E-01    0.962E-02
DAV:   4    -0.203917108903E+03    0.47186E-04   -0.23019E-04 11896   0.747E-02    0.673E-02
DAV:   5    -0.203917076035E+03    0.32867E-04   -0.66320E-05  8196   0.433E-02    0.366E-02
DAV:   6    -0.203917092576E+03   -0.16541E-04   -0.77605E-05  9960   0.438E-02    0.507E-02
DAV:   7    -0.203917068793E+03    0.23783E-04   -0.59512E-05  9048   0.423E-02    0.156E-02
DAV:   8    -0.203917070147E+03   -0.13539E-05   -0.12328E-05  6516   0.203E-02
   4 F= -.20391707E+03 E0= -.20130046E+03  d E =-.970524E-02
       N       E                     dE             d eps       ncg     rms          rms(c)
DAV:   1    -0.203926335382E+03   -0.92666E-02   -0.44905E-01 10944   0.106E+00    0.867E-02
DAV:   2    -0.203926999554E+03   -0.66417E-03   -0.66672E-03 11616   0.171E-01    0.127E-01
DAV:   3    -0.203926974651E+03    0.24902E-04   -0.61705E-04 11972   0.119E-01    0.116E-01
DAV:   4    -0.203926903081E+03    0.71570E-04   -0.33030E-04 12016   0.895E-02    0.827E-02
DAV:   5    -0.203926858351E+03    0.44731E-04   -0.95618E-05  9760   0.565E-02    0.520E-02
DAV:   6    -0.203926868294E+03   -0.99437E-05   -0.91121E-05 11200   0.572E-02
   5 F= -.20392687E+03 E0= -.20131005E+03  d E =-.979815E-02
       N       E                     dE             d eps       ncg     rms          rms(c)
DAV:   1    -0.203932790663E+03   -0.59323E-02   -0.51666E-01 10944   0.113E+00    0.146E-01
DAV:   2    -0.203933909256E+03   -0.11186E-02   -0.11651E-02 11664   0.220E-01    0.193E-01
DAV:   3    -0.203933902008E+03    0.72478E-05   -0.14784E-03 12024   0.189E-01    0.196E-01
DAV:   4    -0.203933681540E+03    0.22047E-03   -0.88133E-04 11972   0.146E-01    0.130E-01
DAV:   5    -0.203933543536E+03    0.13800E-03   -0.34595E-04 11808   0.961E-02    0.701E-02
DAV:   6    -0.203933529549E+03    0.13986E-04   -0.23879E-04 11732   0.699E-02    0.695E-02
DAV:   7    -0.203933483795E+03    0.45755E-04   -0.14956E-04 11424   0.662E-02    0.219E-02
DAV:   8    -0.203933482768E+03    0.10266E-05   -0.14724E-05  6436   0.197E-02
   6 F= -.20393348E+03 E0= -.20131658E+03  d E =-.661447E-02
       N       E                     dE             d eps       ncg     rms          rms(c)
DAV:   1    -0.203936063460E+03   -0.25797E-02   -0.17173E-01 10968   0.568E-01    0.131E-01
DAV:   2    -0.203936473506E+03   -0.41005E-03   -0.57380E-03 11416   0.107E-01    0.107E-01
DAV:   3    -0.203936481923E+03   -0.84172E-05   -0.42986E-04 11880   0.101E-01    0.132E-01
DAV:   4    -0.203936434675E+03    0.47248E-04   -0.61132E-04 12076   0.120E-01    0.118E-01
DAV:   5    -0.203936385780E+03    0.48895E-04   -0.47941E-04 11860   0.113E-01    0.961E-02
DAV:   6    -0.203936287467E+03    0.98313E-04   -0.18420E-04 11816   0.782E-02    0.399E-02
DAV:   7    -0.203936274686E+03    0.12780E-04   -0.45256E-05  9052   0.391E-02    0.215E-02
DAV:   8    -0.203936273792E+03    0.89437E-06   -0.13867E-05  6588   0.222E-02
   7 F= -.20393627E+03 E0= -.20131935E+03  d E =-.279102E-02
       N       E                     dE             d eps       ncg     rms          rms(c)
DAV:   1    -0.203937343391E+03   -0.10687E-02   -0.23947E-02 10944   0.222E-01    0.409E-02
DAV:   2    -0.203937399138E+03   -0.55747E-04   -0.67198E-04 11472   0.425E-02    0.389E-02
DAV:   3    -0.203937399202E+03   -0.64472E-07   -0.48345E-05  8152   0.387E-02    0.430E-02
DAV:   4    -0.203937396198E+03    0.30040E-05   -0.52601E-05  7256   0.370E-02
   8 F= -.20393740E+03 E0= -.20132042E+03  d E =-.112241E-02
       N       E                     dE             d eps       ncg     rms          rms(c)
DAV:   1    -0.203938510130E+03   -0.11109E-02   -0.76774E-02 10944   0.405E-01    0.623E-02
DAV:   2    -0.203939035680E+03   -0.52555E-03   -0.20242E-03 11924   0.156E-01    0.214E-01
DAV:   3    -0.203938644735E+03    0.39095E-03   -0.76737E-04 12144   0.139E-01    0.675E-02
DAV:   4    -0.203938629345E+03    0.15390E-04   -0.11707E-04 11976   0.589E-02    0.539E-02
DAV:   5    -0.203938605227E+03    0.24118E-04   -0.42149E-05  8160   0.383E-02    0.233E-02
DAV:   6    -0.203938612663E+03   -0.74363E-05   -0.41139E-05  7884   0.346E-02
   9 F= -.20393861E+03 E0= -.20132163E+03  d E =-.121646E-02
       N       E                     dE             d eps       ncg     rms          rms(c)
DAV:   1    -0.203940140727E+03   -0.15355E-02   -0.16015E-01 10944   0.601E-01    0.578E-02
DAV:   2    -0.203940409936E+03   -0.26921E-03   -0.27081E-03 11572   0.952E-02    0.657E-02
DAV:   3    -0.203940443812E+03   -0.33876E-04   -0.25045E-04 12036   0.804E-02    0.876E-02
DAV:   4    -0.203940403685E+03    0.40127E-04   -0.18587E-04  9484   0.674E-02    0.590E-02
DAV:   5    -0.203940374713E+03    0.28973E-04   -0.44114E-05  7896   0.405E-02    0.242E-02
DAV:   6    -0.203940381490E+03   -0.67776E-05   -0.27733E-05  7244   0.317E-02
  10 F= -.20394038E+03 E0= -.20132331E+03  d E =-.176883E-02
       N       E                     dE             d eps       ncg     rms          rms(c)
DAV:   1    -0.203942332423E+03   -0.19577E-02   -0.25105E-01 10944   0.788E-01    0.714E-02
DAV:   2    -0.203942765123E+03   -0.43270E-03   -0.42799E-03 11576   0.125E-01    0.916E-02
DAV:   3    -0.203942804893E+03   -0.39770E-04   -0.44961E-04 12088   0.103E-01    0.110E-01
DAV:   4    -0.203942719159E+03    0.85734E-04   -0.24592E-04 11648   0.784E-02    0.556E-02
DAV:   5    -0.203942697981E+03    0.21178E-04   -0.54122E-05  9048   0.451E-02    0.341E-02
DAV:   6    -0.203942709097E+03   -0.11115E-04   -0.40732E-05  8924   0.404E-02    0.452E-02
DAV:   7    -0.203942690525E+03    0.18571E-04   -0.31284E-05  7748   0.346E-02    0.122E-02
DAV:   8    -0.203942690318E+03    0.20701E-06   -0.11016E-05  6196   0.158E-02
  11 F= -.20394269E+03 E0= -.20132558E+03  d E =-.230883E-02
       N       E                     dE             d eps       ncg     rms          rms(c)
DAV:   1    -0.203944682342E+03   -0.19918E-02   -0.36633E-01 10944   0.984E-01    0.814E-02
DAV:   2    -0.203945332053E+03   -0.64971E-03   -0.62579E-03 11560   0.165E-01    0.117E-01
DAV:   3    -0.203945343848E+03   -0.11795E-04   -0.63588E-04 12036   0.123E-01    0.121E-01
DAV:   4    -0.203945256151E+03    0.87697E-04   -0.36092E-04 11920   0.941E-02    0.727E-02
DAV:   5    -0.203945214909E+03    0.41242E-04   -0.78578E-05  9812   0.530E-02    0.395E-02
DAV:   6    -0.203945219621E+03   -0.47123E-05   -0.47643E-05  9444   0.426E-02
  12 F= -.20394522E+03 E0= -.20132797E+03  d E =-.252930E-02
       N       E                     dE             d eps       ncg     rms          rms(c)
DAV:   1    -0.203946681866E+03   -0.14670E-02   -0.39242E-01 10944   0.106E+00    0.114E-01
DAV:   2    -0.203947575789E+03   -0.89392E-03   -0.81419E-03 11528   0.211E-01    0.186E-01
DAV:   3    -0.203947476377E+03    0.99412E-04   -0.11753E-03 12000   0.168E-01    0.156E-01
DAV:   4    -0.203947329952E+03    0.14643E-03   -0.57337E-04 11900   0.118E-01    0.966E-02
DAV:   5    -0.203947254504E+03    0.75447E-04   -0.18567E-04 11420   0.691E-02    0.502E-02
DAV:   6    -0.203947268047E+03   -0.13543E-04   -0.15249E-04 11692   0.583E-02    0.627E-02
DAV:   7    -0.203947230324E+03    0.37723E-04   -0.10665E-04 10796   0.556E-02    0.160E-02
DAV:   8    -0.203947232149E+03   -0.18247E-05   -0.13109E-05  6256   0.192E-02
  13 F= -.20394723E+03 E0= -.20132993E+03  d E =-.201253E-02
       N       E                     dE             d eps       ncg     rms          rms(c)
DAV:   1    -0.203948024718E+03   -0.79439E-03   -0.11942E-01 10968   0.511E-01    0.109E-01
DAV:   2    -0.203948322466E+03   -0.29775E-03   -0.39901E-03 11216   0.101E-01    0.948E-02
DAV:   3    -0.203948415315E+03   -0.92849E-04   -0.48499E-04 12160   0.109E-01    0.147E-01
DAV:   4    -0.203948262162E+03    0.15315E-03   -0.48280E-04 11316   0.107E-01    0.803E-02
DAV:   5    -0.203948237252E+03    0.24909E-04   -0.26227E-04 11688   0.854E-02    0.693E-02
DAV:   6    -0.203948183621E+03    0.53632E-04   -0.12393E-04 10848   0.601E-02    0.316E-02
DAV:   7    -0.203948175060E+03    0.85608E-05   -0.39715E-05  7468   0.321E-02
  14 F= -.20394818E+03 E0= -.20133084E+03  d E =-.942911E-03
       N       E                     dE             d eps       ncg     rms          rms(c)
DAV:   1    -0.203948844850E+03   -0.66123E-03   -0.10546E-02 10976   0.158E-01    0.354E-02
DAV:   2    -0.203948881956E+03   -0.37106E-04   -0.41001E-04 11200   0.457E-02    0.425E-02
DAV:   3    -0.203948870796E+03    0.11161E-04   -0.43254E-05  8956   0.381E-02    0.304E-02
DAV:   4    -0.203948867573E+03    0.32222E-05   -0.22868E-05  7136   0.256E-02
  15 F= -.20394887E+03 E0= -.20133150E+03  d E =-.692513E-03
       N       E                     dE             d eps       ncg     rms          rms(c)
DAV:   1    -0.203949624437E+03   -0.75364E-03   -0.28621E-02 10944   0.305E-01    0.572E-02
DAV:   2    -0.203950796095E+03   -0.11717E-02   -0.23116E-03 12788   0.223E-01    0.351E-01
DAV:   3    -0.203949660937E+03    0.11352E-02   -0.15918E-03 12696   0.201E-01    0.445E-02
DAV:   4    -0.203949654467E+03    0.64702E-05   -0.77641E-05 11368   0.412E-02
  16 F= -.20394965E+03 E0= -.20133224E+03  d E =-.786894E-03
       N       E                     dE             d eps       ncg     rms          rms(c)
DAV:   1    -0.203950572241E+03   -0.91130E-03   -0.41198E-02 10944   0.372E-01    0.318E-02
DAV:   2    -0.203950698626E+03   -0.12639E-03   -0.78693E-04 11612   0.934E-02    0.859E-02
DAV:   3    -0.203950634309E+03    0.64317E-04   -0.13396E-04 11624   0.655E-02    0.302E-02
DAV:   4    -0.203950632481E+03    0.18277E-05   -0.33822E-05  6780   0.275E-02
  17 F= -.20395063E+03 E0= -.20133324E+03  d E =-.978014E-03
       N       E                     dE             d eps       ncg     rms          rms(c)
DAV:   1    -0.203951705314E+03   -0.10710E-02   -0.63743E-02 10944   0.463E-01    0.399E-02
DAV:   2    -0.203951928960E+03   -0.22365E-03   -0.11458E-03 11696   0.116E-01    0.128E-01
DAV:   3    -0.203951809126E+03    0.11983E-03   -0.33248E-04 11812   0.917E-02    0.607E-02
DAV:   4    -0.203951780886E+03    0.28240E-04   -0.76810E-05  9292   0.433E-02    0.312E-02
DAV:   5    -0.203951775588E+03    0.52977E-05   -0.14500E-05  6656   0.200E-02
  18 F= -.20395178E+03 E0= -.20133437E+03  d E =-.114311E-02
       N       E                     dE             d eps       ncg     rms          rms(c)
DAV:   1    -0.203952893703E+03   -0.11128E-02   -0.93605E-02 10944   0.562E-01    0.412E-02
DAV:   2    -0.203953070102E+03   -0.17640E-03   -0.14116E-03 11580   0.998E-02    0.796E-02
DAV:   3    -0.203953026717E+03    0.43386E-04   -0.14153E-04 11864   0.640E-02    0.425E-02
DAV:   4    -0.203953029484E+03   -0.27670E-05   -0.67238E-05  6964   0.399E-02
  19 F= -.20395303E+03 E0= -.20133555E+03  d E =-.125390E-02
       N       E                     dE             d eps       ncg     rms          rms(c)
DAV:   1    -0.203953943618E+03   -0.91690E-03   -0.98024E-02 10944   0.573E-01    0.559E-02
DAV:   2    -0.203954184605E+03   -0.24099E-03   -0.19746E-03 11484   0.120E-01    0.108E-01
DAV:   3    -0.203954130105E+03    0.54500E-04   -0.31537E-04 11872   0.856E-02    0.759E-02
DAV:   4    -0.203954088527E+03    0.41578E-04   -0.11559E-04 10632   0.528E-02    0.427E-02
DAV:   5    -0.203954074906E+03    0.13621E-04   -0.40151E-05  7176   0.297E-02    0.307E-02
DAV:   6    -0.203954080642E+03   -0.57366E-05   -0.63691E-05  9832   0.380E-02
  20 F= -.20395408E+03 E0= -.20133658E+03  d E =-.105116E-02
       N       E                     dE             d eps       ncg     rms          rms(c)
DAV:   1    -0.203954629182E+03   -0.55428E-03   -0.46573E-02 10992   0.371E-01    0.603E-02
DAV:   2    -0.203954775445E+03   -0.14626E-03   -0.13582E-03 11160   0.910E-02    0.868E-02
DAV:   3    -0.203954741204E+03    0.34241E-04   -0.19498E-04 12136   0.770E-02    0.662E-02
DAV:   4    -0.203954736904E+03    0.42998E-05   -0.14496E-04  8544   0.592E-02    0.661E-02
DAV:   5    -0.203954702001E+03    0.34903E-04   -0.78117E-05  8012   0.473E-02    0.323E-02
DAV:   6    -0.203954703483E+03   -0.14817E-05   -0.50420E-05  8524   0.418E-02
  21 F= -.20395470E+03 E0= -.20133728E+03  d E =-.622840E-03
       N       E                     dE             d eps       ncg     rms          rms(c)
DAV:   1    -0.203955057475E+03   -0.35547E-03   -0.93422E-03 10944   0.171E-01    0.261E-02
DAV:   2    -0.203955089672E+03   -0.32197E-04   -0.28661E-04 11096   0.445E-02    0.412E-02
DAV:   3    -0.203955081353E+03    0.83183E-05   -0.46644E-05  7272   0.356E-02    0.308E-02
DAV:   4    -0.203955077953E+03    0.34007E-05   -0.25558E-05  6492   0.246E-02
  22 F= -.20395508E+03 E0= -.20133758E+03  d E =-.374470E-03
       N       E                     dE             d eps       ncg     rms          rms(c)
DAV:   1    -0.203955506393E+03   -0.42504E-03   -0.19585E-02 10944   0.257E-01    0.241E-02
DAV:   2    -0.203955579391E+03   -0.72998E-04   -0.35452E-04 11632   0.657E-02    0.761E-02
DAV:   3    -0.203955536504E+03    0.42887E-04   -0.11354E-04  9848   0.533E-02    0.330E-02
DAV:   4    -0.203955529042E+03    0.74619E-05   -0.24547E-05  6596   0.255E-02
  23 F= -.20395553E+03 E0= -.20133806E+03  d E =-.451089E-03
       N       E                     dE             d eps       ncg     rms          rms(c)
DAV:   1    -0.203956043719E+03   -0.50722E-03   -0.37059E-02 10944   0.353E-01    0.312E-02
DAV:   2    -0.203956163699E+03   -0.11998E-03   -0.66505E-04 11564   0.901E-02    0.889E-02
DAV:   3    -0.203956100513E+03    0.63186E-04   -0.15885E-04 11632   0.681E-02    0.410E-02
DAV:   4    -0.203956089953E+03    0.10560E-04   -0.43028E-05  6720   0.311E-02    0.251E-02
DAV:   5    -0.203956086693E+03    0.32607E-05   -0.11135E-05  5980   0.169E-02
  24 F= -.20395609E+03 E0= -.20133860E+03  d E =-.557651E-03
       N       E                     dE             d eps       ncg     rms          rms(c)
DAV:   1    -0.203956621444E+03   -0.53149E-03   -0.56955E-02 10944   0.436E-01    0.341E-02
DAV:   2    -0.203956724784E+03   -0.10334E-03   -0.87945E-04 11440   0.764E-02    0.579E-02
DAV:   3    -0.203956707499E+03    0.17285E-04   -0.91409E-05 11480   0.497E-02    0.392E-02
DAV:   4    -0.203956705705E+03    0.17938E-05   -0.49583E-05  6660   0.347E-02
  25 F= -.20395671E+03 E0= -.20133918E+03  d E =-.619012E-03
       N       E                     dE             d eps       ncg     rms          rms(c)
DAV:   1    -0.203957175639E+03   -0.46814E-03   -0.83835E-02 10944   0.521E-01    0.458E-02
DAV:   2    -0.203957373443E+03   -0.19780E-03   -0.14490E-03 11316   0.110E-01    0.101E-01
DAV:   3    -0.203957317563E+03    0.55881E-04   -0.27120E-04 11792   0.805E-02    0.640E-02
DAV:   4    -0.203957287919E+03    0.29644E-04   -0.96504E-05  9928   0.483E-02    0.326E-02
DAV:   5    -0.203957283059E+03    0.48596E-05   -0.22333E-05  7072   0.251E-02
  26 F= -.20395728E+03 E0= -.20133976E+03  d E =-.577355E-03
       N       E                     dE             d eps       ncg     rms          rms(c)
DAV:   1    -0.203957617978E+03   -0.33006E-03   -0.95432E-02 10944   0.549E-01    0.563E-02
DAV:   2    -0.203957815457E+03   -0.19748E-03   -0.17592E-03 10976   0.101E-01    0.839E-02
DAV:   3    -0.203957779492E+03    0.35964E-04   -0.16371E-04 12136   0.702E-02    0.556E-02
DAV:   4    -0.203957793291E+03   -0.13799E-04   -0.12426E-04  7912   0.546E-02    0.695E-02
DAV:   5    -0.203957755382E+03    0.37909E-04   -0.72551E-05  7728   0.451E-02    0.278E-02
DAV:   6    -0.203957765103E+03   -0.97213E-05   -0.48379E-05  8656   0.366E-02
  27 F= -.20395777E+03 E0= -.20134032E+03  d E =-.482043E-03
       N       E                     dE             d eps       ncg     rms          rms(c)
DAV:   1    -0.203957807997E+03   -0.52615E-04   -0.83746E-02 10944   0.474E-01    0.667E-02
DAV:   2    -0.203958010646E+03   -0.20265E-03   -0.20690E-03 10944   0.980E-02    0.854E-02
DAV:   3    -0.203958011991E+03   -0.13453E-05   -0.29146E-04 11992   0.859E-02    0.882E-02
DAV:   4    -0.203957975351E+03    0.36640E-04   -0.19797E-04  9784   0.696E-02    0.645E-02
DAV:   5    -0.203957939813E+03    0.35539E-04   -0.79326E-05  8304   0.492E-02    0.310E-02
DAV:   6    -0.203957950199E+03   -0.10386E-04   -0.48194E-05  9016   0.433E-02    0.467E-02
DAV:   7    -0.203957927239E+03    0.22960E-04   -0.28931E-05  7104   0.357E-02    0.118E-02
DAV:   8    -0.203957927241E+03   -0.19572E-08   -0.10330E-05  5716   0.156E-02
  28 F= -.20395793E+03 E0= -.20134044E+03  d E =-.162138E-03
       N       E                     dE             d eps       ncg     rms          rms(c)
DAV:   1    -0.203958254472E+03   -0.32723E-03   -0.14218E-02 10960   0.182E-01    0.392E-02
DAV:   2    -0.203958293572E+03   -0.39100E-04   -0.52722E-04 10960   0.383E-02    0.371E-02
DAV:   3    -0.203958302774E+03   -0.92024E-05   -0.60172E-05  7392   0.391E-02    0.526E-02
DAV:   4    -0.203958284948E+03    0.17826E-04   -0.58426E-05  7212   0.373E-02    0.299E-02
DAV:   5    -0.203958283293E+03    0.16548E-05   -0.33570E-05  7156   0.322E-02
  29 F= -.20395828E+03 E0= -.20134084E+03  d E =-.356052E-03
       N       E                     dE             d eps       ncg     rms          rms(c)
DAV:   1    -0.203958430831E+03   -0.14588E-03   -0.20160E-02 10944   0.250E-01    0.308E-02
DAV:   2    -0.203958550385E+03   -0.11955E-03   -0.46691E-04 11468   0.865E-02    0.967E-02
DAV:   3    -0.203958462812E+03    0.87572E-04   -0.13220E-04 11860   0.702E-02    0.289E-02
DAV:   4    -0.203958462777E+03    0.35434E-07   -0.38447E-05  6780   0.288E-02
  30 F= -.20395846E+03 E0= -.20134098E+03  d E =-.179484E-03
       N       E                     dE             d eps       ncg     rms          rms(c)
DAV:   1    -0.203958628237E+03   -0.16542E-03   -0.38690E-02 10944   0.342E-01    0.337E-02
DAV:   2    -0.203958723663E+03   -0.95427E-04   -0.68858E-04 10996   0.726E-02    0.707E-02
DAV:   3    -0.203958696330E+03    0.27333E-04   -0.13265E-04 10500   0.565E-02    0.435E-02
DAV:   4    -0.203958685675E+03    0.10655E-04   -0.51030E-05  6904   0.356E-02    0.268E-02
DAV:   5    -0.203958680455E+03    0.52199E-05   -0.12624E-05  6160   0.182E-02
  31 F= -.20395868E+03 E0= -.20134122E+03  d E =-.217679E-03
       N       E                     dE             d eps       ncg     rms          rms(c)
DAV:   1    -0.203958839116E+03   -0.15344E-03   -0.62249E-02 10944   0.430E-01    0.440E-02
DAV:   2    -0.203958987524E+03   -0.14841E-03   -0.11451E-03 10968   0.944E-02    0.818E-02
DAV:   3    -0.203958951839E+03    0.35685E-04   -0.20630E-04 11788   0.731E-02    0.553E-02
DAV:   4    -0.203958939648E+03    0.12191E-04   -0.94300E-05  7184   0.473E-02    0.409E-02
DAV:   5    -0.203958928184E+03    0.11464E-04   -0.26049E-05  6892   0.274E-02    0.192E-02
DAV:   6    -0.203958929186E+03   -0.10022E-05   -0.11671E-05  6352   0.220E-02
  32 F= -.20395893E+03 E0= -.20134145E+03  d E =-.248731E-03
       N       E                     dE             d eps       ncg     rms          rms(c)
DAV:   1    -0.203959013711E+03   -0.85527E-04   -0.93536E-02 10944   0.517E-01    0.501E-02
DAV:   2    -0.203959219693E+03   -0.20598E-03   -0.16683E-03 10960   0.103E-01    0.895E-02
DAV:   3    -0.203959187895E+03    0.31797E-04   -0.26192E-04 11788   0.807E-02    0.660E-02
DAV:   4    -0.203959170066E+03    0.17830E-04   -0.13427E-04  9160   0.569E-02    0.473E-02
DAV:   5    -0.203959153373E+03    0.16692E-04   -0.32181E-05  6916   0.325E-02    0.219E-02
DAV:   6    -0.203959155234E+03   -0.18609E-05   -0.14313E-05  6480   0.247E-02
  33 F= -.20395916E+03 E0= -.20134176E+03  d E =-.226048E-03
       N       E                     dE             d eps       ncg     rms          rms(c)
DAV:   1    -0.203959115548E+03    0.37826E-04   -0.12247E-01 10944   0.581E-01    0.618E-02
DAV:   2    -0.203959392516E+03   -0.27697E-03   -0.22954E-03 10960   0.118E-01    0.103E-01
DAV:   3    -0.203959358603E+03    0.33913E-04   -0.36127E-04 11940   0.962E-02    0.840E-02
DAV:   4    -0.203959328254E+03    0.30349E-04   -0.19379E-04 11176   0.688E-02    0.591E-02
DAV:   5    -0.203959304758E+03    0.23496E-04   -0.52101E-05  8020   0.426E-02    0.295E-02
DAV:   6    -0.203959306481E+03   -0.17228E-05   -0.28086E-05  7364   0.340E-02
  34 F= -.20395931E+03 E0= -.20134187E+03  d E =-.151246E-03
       N       E                     dE             d eps       ncg     rms          rms(c)
DAV:   1    -0.203958941769E+03    0.36299E-03   -0.15946E-01 10944   0.626E-01    0.734E-02
DAV:   2    -0.203959295090E+03   -0.35332E-03   -0.32329E-03 10944   0.128E-01    0.109E-01
DAV:   3    -0.203959268008E+03    0.27083E-04   -0.45011E-04 11756   0.105E-01    0.946E-02
DAV:   4    -0.203959234150E+03    0.33858E-04   -0.26673E-04 11752   0.800E-02    0.724E-02
DAV:   5    -0.203959187491E+03    0.46658E-04   -0.92498E-05  8604   0.497E-02    0.261E-02
DAV:   6    -0.203959201323E+03   -0.13832E-04   -0.46054E-05  8784   0.394E-02    0.433E-02
DAV:   7    -0.203959185581E+03    0.15743E-04   -0.27720E-05  7448   0.353E-02    0.183E-02
DAV:   8    -0.203959183060E+03    0.25205E-05   -0.97611E-06  5836   0.175E-02
  35 F= -.20395918E+03 E0= -.20134180E+03  d E =0.123421E-03
       N       E                     dE             d eps       ncg     rms          rms(c)
DAV:   1    -0.203958965856E+03    0.21972E-03   -0.71772E-02 10944   0.379E-01    0.827E-02
DAV:   2    -0.203959139895E+03   -0.17404E-03   -0.23688E-03 10960   0.739E-02    0.752E-02
DAV:   3    -0.203959205478E+03   -0.65583E-04   -0.27678E-04 11584   0.833E-02    0.119E-01
DAV:   4    -0.203959101373E+03    0.10410E-03   -0.27315E-04  9476   0.796E-02    0.578E-02
DAV:   5    -0.203959122387E+03   -0.21014E-04   -0.15497E-04 11516   0.715E-02    0.733E-02
DAV:   6    -0.203959077272E+03    0.45116E-04   -0.80189E-05 11016   0.586E-02    0.371E-02
DAV:   7    -0.203959061909E+03    0.15363E-04   -0.25782E-05  6964   0.318E-02    0.132E-02
DAV:   8    -0.203959061755E+03    0.15393E-06   -0.10597E-05  6200   0.141E-02
  36 F= -.20395906E+03 E0= -.20134169E+03  d E =0.121306E-03
       N       E                     dE             d eps       ncg     rms          rms(c)
DAV:   1    -0.203959301937E+03   -0.24003E-03   -0.13857E-02 10956   0.154E-01    0.346E-02
DAV:   2    -0.203959333171E+03   -0.31234E-04   -0.41157E-04 10560   0.307E-02    0.288E-02
DAV:   3    -0.203959337859E+03   -0.46887E-05   -0.39491E-05  7136   0.323E-02    0.400E-02
DAV:   4    -0.203959332106E+03    0.57537E-05   -0.47244E-05  7132   0.339E-02
  37 F= -.20395933E+03 E0= -.20134197E+03  d E =-.270351E-03
       N       E                     dE             d eps       ncg     rms          rms(c)
DAV:   1    -0.203959229178E+03    0.10868E-03   -0.28901E-02 10944   0.252E-01    0.402E-02
DAV:   2    -0.203959411325E+03   -0.18215E-03   -0.79381E-04 11352   0.982E-02    0.125E-01
DAV:   3    -0.203959288523E+03    0.12280E-03   -0.29149E-04 11584   0.853E-02    0.506E-02
DAV:   4    -0.203959272044E+03    0.16479E-04   -0.69755E-05  7888   0.418E-02    0.303E-02
DAV:   5    -0.203959266235E+03    0.58096E-05   -0.17051E-05  7044   0.220E-02
  38 F= -.20395927E+03 E0= -.20134189E+03  d E =0.658710E-04
       N       E                     dE             d eps       ncg     rms          rms(c)
DAV:   1    -0.203959111542E+03    0.16050E-03   -0.44147E-02 10944   0.314E-01    0.446E-02
DAV:   2    -0.203959254736E+03   -0.14319E-03   -0.93278E-04 10956   0.891E-02    0.892E-02
DAV:   3    -0.203959183817E+03    0.70919E-04   -0.12942E-04 11744   0.689E-02    0.301E-02
DAV:   4    -0.203959195935E+03   -0.12118E-04   -0.44995E-05  7260   0.350E-02    0.456E-02
DAV:   5    -0.203959187091E+03    0.88435E-05   -0.52581E-05  6928   0.365E-02
  39 F= -.20395919E+03 E0= -.20134183E+03  d E =0.791431E-04
       N       E                     dE             d eps       ncg     rms          rms(c)
DAV:   1    -0.203958908439E+03    0.28750E-03   -0.78143E-02 10944   0.410E-01    0.538E-02
DAV:   2    -0.203959089606E+03   -0.18117E-03   -0.14807E-03 10944   0.886E-02    0.837E-02
DAV:   3    -0.203959072561E+03    0.17046E-04   -0.24970E-04 11876   0.804E-02    0.723E-02
DAV:   4    -0.203959056647E+03    0.15913E-04   -0.14993E-04  9072   0.604E-02    0.557E-02
DAV:   5    -0.203959031953E+03    0.24694E-04   -0.38951E-05  7772   0.385E-02    0.216E-02
DAV:   6    -0.203959035739E+03   -0.37852E-05   -0.21113E-05  6836   0.278E-02
  40 F= -.20395904E+03 E0= -.20134174E+03  d E =0.151353E-03
       N       E                     dE             d eps       ncg     rms          rms(c)
DAV:   1    -0.203958639671E+03    0.39228E-03   -0.10087E-01 10944   0.463E-01    0.630E-02
DAV:   2    -0.203958823299E+03   -0.18363E-03   -0.19731E-03 10976   0.759E-02    0.544E-02
DAV:   3    -0.203958871604E+03   -0.48306E-04   -0.18416E-04 12016   0.716E-02    0.897E-02
DAV:   4    -0.203958828298E+03    0.43306E-04   -0.18306E-04  8608   0.666E-02    0.580E-02
DAV:   5    -0.203958808903E+03    0.19396E-04   -0.65738E-05  8596   0.470E-02    0.338E-02
DAV:   6    -0.203958813234E+03   -0.43309E-05   -0.34715E-05  7920   0.371E-02
  41 F= -.20395881E+03 E0= -.20134148E+03  d E =0.222505E-03
       N       E                     dE             d eps       ncg     rms          rms(c)
DAV:   1    -0.203958180943E+03    0.62796E-03   -0.13591E-01 10944   0.510E-01    0.730E-02
DAV:   2    -0.203958450070E+03   -0.26913E-03   -0.28818E-03 10944   0.963E-02    0.740E-02
DAV:   3    -0.203958501264E+03   -0.51193E-04   -0.33236E-04 11872   0.906E-02    0.106E-01
DAV:   4    -0.203958433420E+03    0.67844E-04   -0.25870E-04 10880   0.792E-02    0.629E-02
DAV:   5    -0.203958399172E+03    0.34248E-04   -0.90534E-05  9368   0.517E-02    0.291E-02
DAV:   6    -0.203958402918E+03   -0.37463E-05   -0.48151E-05  8124   0.365E-02
  42 F= -.20395840E+03 E0= -.20134109E+03  d E =0.410315E-03
       N       E                     dE             d eps       ncg     rms          rms(c)
DAV:   1    -0.203958108491E+03    0.29068E-03   -0.74041E-02 10944   0.359E-01    0.785E-02
DAV:   2    -0.203958295834E+03   -0.18734E-03   -0.22009E-03 10960   0.831E-02    0.847E-02
DAV:   3    -0.203958308732E+03   -0.12898E-04   -0.23994E-04 12252   0.840E-02    0.968E-02
DAV:   4    -0.203958277088E+03    0.31644E-04   -0.24173E-04  9616   0.754E-02    0.794E-02
DAV:   5    -0.203958238174E+03    0.38914E-04   -0.13388E-04 10032   0.647E-02    0.480E-02
DAV:   6    -0.203958239619E+03   -0.14446E-05   -0.85867E-05  9800   0.527E-02
  43 F= -.20395824E+03 E0= -.20134103E+03  d E =0.163299E-03
       N       E                     dE             d eps       ncg     rms          rms(c)
DAV:   1    -0.203958082645E+03    0.15553E-03   -0.53370E-02 10944   0.299E-01    0.565E-02
DAV:   2    -0.203958188712E+03   -0.10607E-03   -0.12669E-03 10944   0.602E-02    0.512E-02
DAV:   3    -0.203958221629E+03   -0.32917E-04   -0.15686E-04 10372   0.640E-02    0.802E-02
DAV:   4    -0.203958185579E+03    0.36050E-04   -0.15488E-04  8068   0.613E-02    0.526E-02
DAV:   5    -0.203958164856E+03    0.20723E-04   -0.61697E-05  8072   0.457E-02    0.298E-02
DAV:   6    -0.203958166701E+03   -0.18445E-05   -0.25947E-05  7384   0.349E-02
  44 F= -.20395817E+03 E0= -.20134087E+03  d E =0.729184E-04
       N       E                     dE             d eps       ncg     rms          rms(c)
DAV:   1    -0.203957805125E+03    0.35973E-03   -0.57466E-02 10944   0.318E-01    0.486E-02
DAV:   2    -0.203957908726E+03   -0.10360E-03   -0.11274E-03 10944   0.543E-02    0.422E-02
DAV:   3    -0.203957947159E+03   -0.38433E-04   -0.13199E-04  9340   0.583E-02    0.761E-02
DAV:   4    -0.203957907566E+03    0.39592E-04   -0.11435E-04  7716   0.528E-02    0.378E-02
DAV:   5    -0.203957900185E+03    0.73815E-05   -0.32123E-05  7276   0.343E-02
  45 F= -.20395790E+03 E0= -.20134064E+03  d E =0.266516E-03
       N       E                     dE             d eps       ncg     rms          rms(c)
DAV:   1    -0.203957340692E+03    0.56687E-03   -0.10873E-01 10944   0.437E-01    0.639E-02
DAV:   2    -0.203957637155E+03   -0.29646E-03   -0.20540E-03 11048   0.118E-01    0.118E-01
DAV:   3    -0.203957520187E+03    0.11697E-03   -0.22070E-04 12128   0.957E-02    0.483E-02
DAV:   4    -0.203957584779E+03   -0.64592E-04   -0.18912E-04  9716   0.670E-02    0.949E-02
DAV:   5    -0.203957509028E+03    0.75751E-04   -0.13639E-04  8076   0.588E-02    0.265E-02
DAV:   6    -0.203957508107E+03    0.92161E-06   -0.27797E-05  6796   0.303E-02
  46 F= -.20395751E+03 E0= -.20134029E+03  d E =0.392078E-03
       N       E                     dE             d eps       ncg     rms          rms(c)
DAV:   1    -0.203956779696E+03    0.72933E-03   -0.15045E-01 10944   0.520E-01    0.767E-02
DAV:   2    -0.203957063757E+03   -0.28406E-03   -0.28745E-03 10944   0.996E-02    0.802E-02
DAV:   3    -0.203957099534E+03   -0.35776E-04   -0.34398E-04 12056   0.954E-02    0.101E-01
DAV:   4    -0.203957074050E+03    0.25484E-04   -0.29213E-04 10720   0.835E-02    0.830E-02
DAV:   5    -0.203957019661E+03    0.54389E-04   -0.12339E-04  9116   0.598E-02    0.321E-02
DAV:   6    -0.203957032872E+03   -0.13211E-04   -0.47994E-05  9488   0.419E-02    0.428E-02
DAV:   7    -0.203957017748E+03    0.15124E-04   -0.26405E-05  7224   0.358E-02    0.193E-02
DAV:   8    -0.203957014776E+03    0.29718E-05   -0.12085E-05  5800   0.190E-02
  47 F= -.20395701E+03 E0= -.20133981E+03  d E =0.493331E-03
       N       E                     dE             d eps       ncg     rms          rms(c)
DAV:   1    -0.203955932965E+03    0.10848E-02   -0.21425E-01 10944   0.607E-01    0.865E-02
DAV:   2    -0.203956312325E+03   -0.37936E-03   -0.42642E-03 10944   0.965E-02    0.677E-02
DAV:   3    -0.203956437264E+03   -0.12494E-03   -0.38776E-04 12068   0.985E-02    0.133E-01
DAV:   4    -0.203956312864E+03    0.12440E-03   -0.36503E-04 11160   0.939E-02    0.674E-02
DAV:   5    -0.203956287299E+03    0.25564E-04   -0.11875E-04 10536   0.620E-02    0.453E-02
DAV:   6    -0.203956291614E+03   -0.43144E-05   -0.58140E-05  9712   0.483E-02
  48 F= -.20395629E+03 E0= -.20133905E+03  d E =0.723162E-03
       N       E                     dE             d eps       ncg     rms          rms(c)
DAV:   1    -0.203955621974E+03    0.66533E-03   -0.11990E-01 10944   0.436E-01    0.101E-01
DAV:   2    -0.203955898677E+03   -0.27670E-03   -0.35555E-03 10952   0.939E-02    0.966E-02
DAV:   3    -0.203955960725E+03   -0.62049E-04   -0.41160E-04 12188   0.103E-01    0.132E-01
DAV:   4    -0.203955871776E+03    0.88949E-04   -0.40900E-04 11164   0.979E-02    0.906E-02
DAV:   5    -0.203955835575E+03    0.36201E-04   -0.24709E-04 11764   0.841E-02    0.666E-02
DAV:   6    -0.203955825425E+03    0.10150E-04   -0.10262E-04 11376   0.630E-02    0.600E-02
DAV:   7    -0.203955786559E+03    0.38866E-04   -0.47604E-05  8592   0.454E-02    0.139E-02
DAV:   8    -0.203955787067E+03   -0.50835E-06   -0.14088E-05  6572   0.166E-02
  49 F= -.20395579E+03 E0= -.20133864E+03  d E =0.504546E-03
       N       E                     dE             d eps       ncg     rms          rms(c)
DAV:   1    -0.203955860415E+03   -0.73856E-04   -0.51764E-02 10944   0.275E-01    0.616E-02
DAV:   2    -0.203955963491E+03   -0.10308E-03   -0.13809E-03 10952   0.507E-02    0.481E-02
DAV:   3    -0.203955963981E+03   -0.49018E-06   -0.84394E-05  9884   0.482E-02    0.550E-02
DAV:   4    -0.203955962806E+03    0.11756E-05   -0.11506E-04  8184   0.554E-02    0.580E-02
DAV:   5    -0.203955959078E+03    0.37278E-05   -0.12588E-04  8144   0.561E-02    0.544E-02
DAV:   6    -0.203955937117E+03    0.21961E-04   -0.48244E-05  7672   0.411E-02    0.289E-02
DAV:   7    -0.203955928181E+03    0.89358E-05   -0.11444E-05  6568   0.237E-02
  50 F= -.20395593E+03 E0= -.20133879E+03  d E =-.141114E-03
       N       E                     dE             d eps       ncg     rms          rms(c)
DAV:   1    -0.203955483846E+03    0.45327E-03   -0.58835E-02 10944   0.312E-01    0.461E-02
DAV:   2    -0.203955588188E+03   -0.10434E-03   -0.10791E-03 10944   0.590E-02    0.432E-02
DAV:   3    -0.203955594869E+03   -0.66806E-05   -0.10038E-04 10984   0.527E-02    0.491E-02
DAV:   4    -0.203955601367E+03   -0.64980E-05   -0.89362E-05  7300   0.474E-02
  51 F= -.20395560E+03 E0= -.20133847E+03  d E =0.326814E-03
       N       E                     dE             d eps       ncg     rms          rms(c)
DAV:   1    -0.203954803136E+03    0.79173E-03   -0.12974E-01 10944   0.458E-01    0.724E-02
DAV:   2    -0.203955175712E+03   -0.37258E-03   -0.24561E-03 11060   0.127E-01    0.145E-01
DAV:   3    -0.203955045329E+03    0.13038E-03   -0.51775E-04 12296   0.115E-01    0.835E-02
DAV:   4    -0.203955041451E+03    0.38786E-05   -0.21645E-04 12260   0.772E-02    0.740E-02
DAV:   5    -0.203955001641E+03    0.39810E-04   -0.63880E-05 10012   0.526E-02    0.306E-02
DAV:   6    -0.203955003209E+03   -0.15681E-05   -0.41295E-05  8692   0.374E-02
  52 F= -.20395500E+03 E0= -.20133791E+03  d E =0.598158E-03
       N       E                     dE             d eps       ncg     rms          rms(c)
DAV:   1    -0.203953828853E+03    0.11728E-02   -0.22791E-01 10944   0.599E-01    0.883E-02
DAV:   2    -0.203954231864E+03   -0.40301E-03   -0.39737E-03 10944   0.115E-01    0.899E-02
DAV:   3    -0.203954264988E+03   -0.33124E-04   -0.44595E-04 12104   0.109E-01    0.104E-01
DAV:   4    -0.203954294195E+03   -0.29207E-04   -0.40982E-04 11608   0.989E-02    0.115E-01
DAV:   5    -0.203954181608E+03    0.11259E-03   -0.20694E-04 10096   0.745E-02    0.320E-02
DAV:   6    -0.203954198692E+03   -0.17084E-04   -0.51209E-05  9084   0.442E-02    0.465E-02
DAV:   7    -0.203954183150E+03    0.15542E-04   -0.31564E-05  7668   0.370E-02    0.197E-02
DAV:   8    -0.203954179214E+03    0.39360E-05   -0.10566E-05  5796   0.186E-02
  53 F= -.20395418E+03 E0= -.20133708E+03  d E =0.823995E-03
       N       E                     dE             d eps       ncg     rms          rms(c)
DAV:   1    -0.203952518357E+03    0.16648E-02   -0.37267E-01 10944   0.765E-01    0.106E-01
DAV:   2    -0.203953106210E+03   -0.58785E-03   -0.62961E-03 10944   0.110E-01    0.650E-02
DAV:   3    -0.203953324907E+03   -0.21870E-03   -0.51058E-04 12096   0.113E-01    0.159E-01
DAV:   4    -0.203953140053E+03    0.18485E-03   -0.49905E-04 11724   0.110E-01    0.732E-02
DAV:   5    -0.203953108774E+03    0.31279E-04   -0.14131E-04 11044   0.647E-02    0.433E-02
DAV:   6    -0.203953123312E+03   -0.14538E-04   -0.70612E-05  9936   0.484E-02    0.487E-02
DAV:   7    -0.203953100491E+03    0.22821E-04   -0.30423E-05  7740   0.368E-02    0.141E-02
DAV:   8    -0.203953098938E+03    0.15529E-05   -0.72150E-06  5632   0.125E-02
  54 F= -.20395310E+03 E0= -.20133603E+03  d E =0.108028E-02
       N       E                     dE             d eps       ncg     rms          rms(c)
DAV:   1    -0.203951014418E+03    0.20861E-02   -0.50474E-01 10944   0.902E-01    0.128E-01
DAV:   2    -0.203951831545E+03   -0.81713E-03   -0.88633E-03 10944   0.135E-01    0.884E-02
DAV:   3    -0.203952072125E+03   -0.24058E-03   -0.68066E-04 11856   0.133E-01    0.175E-01
DAV:   4    -0.203951885578E+03    0.18655E-03   -0.70970E-04 12348   0.131E-01    0.102E-01
DAV:   5    -0.203951826474E+03    0.59104E-04   -0.26042E-04 11804   0.870E-02    0.603E-02
DAV:   6    -0.203951842278E+03   -0.15804E-04   -0.11658E-04 11992   0.654E-02    0.630E-02
DAV:   7    -0.203951805077E+03    0.37201E-04   -0.58812E-05 10212   0.503E-02    0.211E-02
DAV:   8    -0.203951802719E+03    0.23572E-05   -0.18858E-05  6228   0.231E-02
  55 F= -.20395180E+03 E0= -.20133476E+03  d E =0.129622E-02
       N       E                     dE             d eps       ncg     rms          rms(c)
DAV:   1    -0.203948544755E+03    0.32603E-02   -0.64296E-01 10944   0.101E+00    0.150E-01
DAV:   2    -0.203949652296E+03   -0.11075E-02   -0.12670E-02 10944   0.158E-01    0.111E-01
DAV:   3    -0.203949945456E+03   -0.29316E-03   -0.96331E-04 11972   0.155E-01    0.209E-01
DAV:   4    -0.203949660295E+03    0.28516E-03   -0.99399E-04 12508   0.155E-01    0.116E-01
DAV:   5    -0.203949596571E+03    0.63724E-04   -0.41164E-04 12012   0.109E-01    0.830E-02
DAV:   6    -0.203949583572E+03    0.12999E-04   -0.19007E-04 12000   0.821E-02    0.715E-02
DAV:   7    -0.203949533340E+03    0.50232E-04   -0.78841E-05 11120   0.585E-02    0.246E-02
DAV:   8    -0.203949530882E+03    0.24586E-05   -0.26234E-05  6468   0.275E-02
  56 F= -.20394953E+03 E0= -.20133251E+03  d E =0.227184E-02
       N       E                     dE             d eps       ncg     rms          rms(c)
DAV:   1    -0.203949624137E+03   -0.90797E-04   -0.14510E-01 10944   0.425E-01    0.138E-01
DAV:   2    -0.203949959798E+03   -0.33566E-03   -0.54390E-03 10960   0.868E-02    0.110E-01
DAV:   3    -0.203949899316E+03    0.60481E-04   -0.27584E-04 10636   0.734E-02    0.108E-01
DAV:   4    -0.203950018252E+03   -0.11894E-03   -0.75779E-04 12596   0.131E-01    0.157E-01
DAV:   5    -0.203949901116E+03    0.11714E-03   -0.71181E-04 12484   0.129E-01    0.110E-01
DAV:   6    -0.203949772200E+03    0.12892E-03   -0.23933E-04 12256   0.835E-02    0.287E-02
DAV:   7    -0.203949765880E+03    0.63199E-05   -0.33187E-05  7296   0.274E-02
  57 F= -.20394977E+03 E0= -.20133280E+03  d E =-.234998E-03
       N       E                     dE             d eps       ncg     rms          rms(c)
DAV:   1    -0.203949990044E+03   -0.21784E-03   -0.19260E-02 10944   0.167E-01    0.410E-02
DAV:   2    -0.203950054656E+03   -0.64612E-04   -0.53940E-04 11044   0.582E-02    0.602E-02
DAV:   3    -0.203950026342E+03    0.28313E-04   -0.55809E-05 10280   0.501E-02    0.333E-02
DAV:   4    -0.203950022728E+03    0.36147E-05   -0.32402E-05  7252   0.289E-02
  58 F= -.20395002E+03 E0= -.20133305E+03  d E =-.256848E-03
       N       E                     dE             d eps       ncg     rms          rms(c)
DAV:   1    -0.203949586332E+03    0.44001E-03   -0.56115E-02 10944   0.302E-01    0.644E-02
DAV:   2    -0.203951160431E+03   -0.15741E-02   -0.33027E-03 13432   0.257E-01    0.400E-01
DAV:   3    -0.203949654268E+03    0.15062E-02   -0.20357E-03 13564   0.224E-01    0.374E-02
DAV:   4    -0.203949660766E+03   -0.64973E-05   -0.79156E-05 11160   0.416E-02
  59 F= -.20394966E+03 E0= -.20133275E+03  d E =0.361962E-03
       N       E                     dE             d eps       ncg     rms          rms(c)
DAV:   1    -0.203948872593E+03    0.78168E-03   -0.10719E-01 10944   0.417E-01    0.681E-02
DAV:   2    -0.203949168631E+03   -0.29604E-03   -0.19987E-03 11096   0.120E-01    0.121E-01
DAV:   3    -0.203949039218E+03    0.12941E-03   -0.20722E-04 12100   0.975E-02    0.475E-02
DAV:   4    -0.203949042610E+03   -0.33915E-05   -0.64351E-05 10332   0.429E-02
  60 F= -.20394904E+03 E0= -.20133211E+03  d E =0.618156E-03
       N       E                     dE             d eps       ncg     rms          rms(c)
DAV:   1    -0.203947854367E+03    0.11849E-02   -0.20735E-01 10944   0.577E-01    0.106E-01
DAV:   2    -0.203951210398E+03   -0.33560E-02   -0.84935E-03 12904   0.375E-01    0.573E-01
DAV:   3    -0.203948130545E+03    0.30799E-02   -0.46606E-03 13048   0.326E-01    0.563E-02
DAV:   4    -0.203948159095E+03   -0.28550E-04   -0.20420E-04 11300   0.644E-02    0.607E-02
DAV:   5    -0.203948138675E+03    0.20420E-04   -0.11038E-04 11504   0.614E-02    0.370E-02
DAV:   6    -0.203948150038E+03   -0.11363E-04   -0.52058E-05  9700   0.453E-02    0.431E-02
DAV:   7    -0.203948134875E+03    0.15163E-04   -0.24917E-05  7416   0.334E-02    0.154E-02
DAV:   8    -0.203948132952E+03    0.19237E-05   -0.79882E-06  5716   0.151E-02
  61 F= -.20394813E+03 E0= -.20133120E+03  d E =0.909658E-03
       N       E                     dE             d eps       ncg     rms          rms(c)
DAV:   1    -0.203946453192E+03    0.16817E-02   -0.33498E-01 10944   0.727E-01    0.101E-01
DAV:   2    -0.203946989209E+03   -0.53602E-03   -0.56954E-03 10944   0.107E-01    0.661E-02
DAV:   3    -0.203947131434E+03   -0.14223E-03   -0.41547E-04 11944   0.104E-01    0.133E-01
DAV:   4    -0.203947036654E+03    0.94780E-04   -0.43232E-04 11500   0.103E-01    0.876E-02
DAV:   5    -0.203946983885E+03    0.52769E-04   -0.17235E-04 10948   0.686E-02    0.430E-02
DAV:   6    -0.203946997416E+03   -0.13531E-04   -0.66113E-05 10444   0.486E-02    0.478E-02
DAV:   7    -0.203946977392E+03    0.20024E-04   -0.33592E-05  8224   0.386E-02    0.186E-02
DAV:   8    -0.203946974359E+03    0.30329E-05   -0.10553E-05  5744   0.168E-02
  62 F= -.20394697E+03 E0= -.20133006E+03  d E =0.115859E-02
       N       E                     dE             d eps       ncg     rms          rms(c)
DAV:   1    -0.203944736317E+03    0.22411E-02   -0.50286E-01 10944   0.892E-01    0.122E-01
DAV:   2    -0.203945532352E+03   -0.79604E-03   -0.85205E-03 10944   0.129E-01    0.755E-02
DAV:   3    -0.203945780265E+03   -0.24791E-03   -0.63274E-04 11968   0.126E-01    0.171E-01
DAV:   4    -0.203945583029E+03    0.19724E-03   -0.63219E-04 12332   0.124E-01    0.903E-02
DAV:   5    -0.203945532768E+03    0.50261E-04   -0.20421E-04 11616   0.763E-02    0.503E-02
DAV:   6    -0.203945552808E+03   -0.20040E-04   -0.96795E-05 11476   0.575E-02    0.567E-02
DAV:   7    -0.203945523730E+03    0.29078E-04   -0.44155E-05  9164   0.439E-02    0.196E-02
DAV:   8    -0.203945520219E+03    0.35116E-05   -0.10990E-05  5836   0.166E-02
  63 F= -.20394552E+03 E0= -.20132864E+03  d E =0.145414E-02
       N       E                     dE             d eps       ncg     rms          rms(c)
DAV:   1    -0.203942767395E+03    0.27563E-02   -0.63830E-01 10944   0.102E+00    0.145E-01
DAV:   2    -0.203943814895E+03   -0.10475E-02   -0.11410E-02 10944   0.150E-01    0.100E-01
DAV:   3    -0.203944154522E+03   -0.33963E-03   -0.90345E-04 12048   0.152E-01    0.210E-01
DAV:   4    -0.203943847108E+03    0.30741E-03   -0.91971E-04 12452   0.149E-01    0.103E-01
DAV:   5    -0.203943808305E+03    0.38803E-04   -0.32122E-04 11880   0.967E-02    0.748E-02
DAV:   6    -0.203943809573E+03   -0.12675E-05   -0.15334E-04 12088   0.739E-02    0.645E-02
DAV:   7    -0.203943771323E+03    0.38250E-04   -0.70699E-05 10664   0.543E-02    0.245E-02
DAV:   8    -0.203943768638E+03    0.26844E-05   -0.23659E-05  6484   0.268E-02
  64 F= -.20394377E+03 E0= -.20132692E+03  d E =0.175158E-02
       N       E                     dE             d eps       ncg     rms          rms(c)
DAV:   1    -0.203939242830E+03    0.45285E-02   -0.67886E-01 10944   0.102E+00    0.179E-01
DAV:   2    -0.203940506305E+03   -0.12635E-02   -0.15403E-02 10944   0.166E-01    0.134E-01
DAV:   3    -0.203940743250E+03   -0.23694E-03   -0.10307E-03 12008   0.160E-01    0.220E-01
DAV:   4    -0.203940450591E+03    0.29266E-03   -0.12471E-03 12748   0.172E-01    0.136E-01
DAV:   5    -0.203940428794E+03    0.21797E-04   -0.71014E-04 12212   0.141E-01    0.127E-01
DAV:   6    -0.203940305108E+03    0.12369E-03   -0.30006E-04 12260   0.106E-01    0.722E-02
DAV:   7    -0.203940253230E+03    0.51878E-04   -0.97372E-05 11760   0.628E-02    0.263E-02
DAV:   8    -0.203940253362E+03   -0.13144E-06   -0.35539E-05  6984   0.321E-02
  65 F= -.20394025E+03 E0= -.20132342E+03  d E =0.351528E-02
       N       E                     dE             d eps       ncg     rms          rms(c)
DAV:   1    -0.203942081878E+03   -0.18286E-02   -0.40303E-02 10968   0.214E-01    0.790E-02
DAV:   2    -0.203942183705E+03   -0.10183E-03   -0.16559E-03 10944   0.497E-02    0.626E-02
DAV:   3    -0.203942163376E+03    0.20328E-04   -0.94446E-05  8136   0.454E-02    0.608E-02
DAV:   4    -0.203942208559E+03   -0.45182E-04   -0.24212E-04  8900   0.762E-02    0.927E-02
DAV:   5    -0.203942173486E+03    0.35073E-04   -0.26200E-04 11588   0.798E-02    0.681E-02
DAV:   6    -0.203942124232E+03    0.49254E-04   -0.87174E-05  9268   0.504E-02    0.161E-02
DAV:   7    -0.203942122268E+03    0.19640E-05   -0.11842E-05  6304   0.165E-02
  66 F= -.20394212E+03 E0= -.20132531E+03  d E =-.186891E-02
       N       E                     dE             d eps       ncg     rms          rms(c)
DAV:   1    -0.203941681784E+03    0.44245E-03   -0.81002E-02 10944   0.348E-01    0.749E-02
DAV:   2    -0.203941859825E+03   -0.17804E-03   -0.22555E-03 10968   0.670E-02    0.678E-02
DAV:   3    -0.203941919165E+03   -0.59340E-04   -0.24205E-04 11320   0.773E-02    0.109E-01
DAV:   4    -0.203941829090E+03    0.90075E-04   -0.22442E-04  8704   0.721E-02    0.497E-02
DAV:   5    -0.203941836920E+03   -0.78302E-05   -0.12882E-04 10344   0.602E-02    0.550E-02
DAV:   6    -0.203941809589E+03    0.27332E-04   -0.67875E-05  8876   0.481E-02    0.280E-02
DAV:   7    -0.203941802472E+03    0.71171E-05   -0.16074E-05  6528   0.251E-02
  67 F= -.20394180E+03 E0= -.20132500E+03  d E =0.319796E-03
       N       E                     dE             d eps       ncg     rms          rms(c)
DAV:   1    -0.203941037532E+03    0.77206E-03   -0.10568E-01 10944   0.405E-01    0.629E-02
DAV:   2    -0.203941228606E+03   -0.19107E-03   -0.21130E-03 10952   0.735E-02    0.533E-02
DAV:   3    -0.203941250439E+03   -0.21833E-04   -0.15506E-04 11836   0.669E-02    0.721E-02
DAV:   4    -0.203941241737E+03    0.87012E-05   -0.16444E-04  8672   0.644E-02    0.665E-02
DAV:   5    -0.203941212478E+03    0.29259E-04   -0.94979E-05  8408   0.514E-02    0.364E-02
DAV:   6    -0.203941209509E+03    0.29694E-05   -0.38023E-05  8508   0.379E-02
  68 F= -.20394121E+03 E0= -.20132446E+03  d E =0.592963E-03
       N       E                     dE             d eps       ncg     rms          rms(c)
DAV:   1    -0.203940198621E+03    0.10139E-02   -0.14089E-01 10944   0.472E-01    0.752E-02
DAV:   2    -0.203940456133E+03   -0.25751E-03   -0.27458E-03 10944   0.868E-02    0.698E-02
DAV:   3    -0.203940491363E+03   -0.35230E-04   -0.25902E-04 12008   0.846E-02    0.926E-02
DAV:   4    -0.203940475447E+03    0.15916E-04   -0.25339E-04  9700   0.780E-02    0.824E-02
DAV:   5    -0.203940426440E+03    0.49007E-04   -0.13052E-04  9244   0.605E-02    0.359E-02
DAV:   6    -0.203940440694E+03   -0.14254E-04   -0.49937E-05  8864   0.452E-02    0.475E-02
DAV:   7    -0.203940418325E+03    0.22369E-04   -0.30145E-05  7460   0.366E-02    0.114E-02
DAV:   8    -0.203940418738E+03   -0.41272E-06   -0.98003E-06  5708   0.161E-02
  69 F= -.20394042E+03 E0= -.20132366E+03  d E =0.790771E-03
       N       E                     dE             d eps       ncg     rms          rms(c)
DAV:   1    -0.203938957528E+03    0.14608E-02   -0.23782E-01 10944   0.609E-01    0.860E-02
DAV:   2    -0.203939351841E+03   -0.39431E-03   -0.43716E-03 10944   0.893E-02    0.563E-02
DAV:   3    -0.203939436257E+03   -0.84416E-04   -0.26311E-04 11920   0.800E-02    0.108E-01
DAV:   4    -0.203939363845E+03    0.72412E-04   -0.28227E-04 10060   0.827E-02    0.628E-02
DAV:   5    -0.203939344380E+03    0.19465E-04   -0.11790E-04 10612   0.574E-02    0.403E-02
DAV:   6    -0.203939343376E+03    0.10045E-05   -0.45123E-05  8184   0.404E-02
  70 F= -.20393934E+03 E0= -.20132255E+03  d E =0.107536E-02
       N       E                     dE             d eps       ncg     rms          rms(c)
DAV:   1    -0.203937655992E+03    0.16884E-02   -0.27059E-01 10944   0.649E-01    0.110E-01
DAV:   2    -0.203938158762E+03   -0.50277E-03   -0.56942E-03 10944   0.110E-01    0.949E-02
DAV:   3    -0.203938286441E+03   -0.12768E-03   -0.49389E-04 12336   0.117E-01    0.151E-01
DAV:   4    -0.203938159310E+03    0.12713E-03   -0.53177E-04 11972   0.112E-01    0.963E-02
DAV:   5    -0.203938120965E+03    0.38345E-04   -0.23187E-04 12256   0.857E-02    0.688E-02
DAV:   6    -0.203938118972E+03    0.19932E-05   -0.10822E-04 12032   0.664E-02    0.619E-02
DAV:   7    -0.203938076960E+03    0.42012E-04   -0.68141E-05  9764   0.511E-02    0.134E-02
DAV:   8    -0.203938078800E+03   -0.18401E-05   -0.17128E-05  6044   0.192E-02
  71 F= -.20393808E+03 E0= -.20132138E+03  d E =0.126458E-02
       N       E                     dE             d eps       ncg     rms          rms(c)
DAV:   1    -0.203936325309E+03    0.17517E-02   -0.28398E-01 10944   0.650E-01    0.120E-01
DAV:   2    -0.203936865479E+03   -0.54017E-03   -0.66623E-03 10944   0.109E-01    0.911E-02
DAV:   3    -0.203936883754E+03   -0.18276E-04   -0.34098E-04 11740   0.936E-02    0.112E-01
DAV:   4    -0.203936882752E+03    0.10024E-05   -0.49560E-04 12028   0.110E-01    0.116E-01
DAV:   5    -0.203936833104E+03    0.49648E-04   -0.43356E-04 12412   0.104E-01    0.894E-02
DAV:   6    -0.203936777725E+03    0.55379E-04   -0.15232E-04 12008   0.732E-02    0.542E-02
DAV:   7    -0.203936747038E+03    0.30686E-04   -0.46620E-05  9056   0.452E-02    0.172E-02
DAV:   8    -0.203936747532E+03   -0.49364E-06   -0.18171E-05  6104   0.221E-02
  72 F= -.20393675E+03 E0= -.20132004E+03  d E =0.133127E-02
       N       E                     dE             d eps       ncg     rms          rms(c)
DAV:   1    -0.203936576432E+03    0.17061E-03   -0.10218E-01 10944   0.377E-01    0.960E-02
DAV:   2    -0.203936802376E+03   -0.22594E-03   -0.31979E-03 10960   0.683E-02    0.773E-02
DAV:   3    -0.203936757233E+03    0.45143E-04   -0.10137E-04  8308   0.423E-02    0.608E-02
DAV:   4    -0.203936899660E+03   -0.14243E-03   -0.41777E-04 11256   0.986E-02    0.138E-01
DAV:   5    -0.203936789265E+03    0.11039E-03   -0.45602E-04 12072   0.104E-01    0.815E-02
DAV:   6    -0.203936720331E+03    0.68934E-04   -0.12664E-04 10360   0.613E-02    0.232E-02
DAV:   7    -0.203936716145E+03    0.41861E-05   -0.19991E-05  6560   0.224E-02
  73 F= -.20393672E+03 E0= -.20132003E+03  d E =0.313866E-04
       N       E                     dE             d eps       ncg     rms          rms(c)
DAV:   1    -0.203936011367E+03    0.70896E-03   -0.97832E-02 10944   0.388E-01    0.619E-02
DAV:   2    -0.203936193757E+03   -0.18239E-03   -0.19915E-03 10948   0.721E-02    0.567E-02
DAV:   3    -0.203936202162E+03   -0.84049E-05   -0.11500E-04 12108   0.653E-02    0.641E-02
DAV:   4    -0.203936185815E+03    0.16346E-04   -0.94846E-05  9260   0.544E-02    0.531E-02
DAV:   5    -0.203936179643E+03    0.61728E-05   -0.10039E-04  7712   0.497E-02    0.465E-02
DAV:   6    -0.203936168389E+03    0.11254E-04   -0.54619E-05  8224   0.402E-02    0.288E-02
DAV:   7    -0.203936159821E+03    0.85676E-05   -0.17210E-05  6532   0.253E-02
  74 F= -.20393616E+03 E0= -.20131949E+03  d E =0.556324E-03
       N       E                     dE             d eps       ncg     rms          rms(c)
DAV:   1    -0.203935128837E+03    0.10396E-02   -0.14008E-01 10944   0.469E-01    0.717E-02
DAV:   2    -0.203935369464E+03   -0.24063E-03   -0.26375E-03 10944   0.762E-02    0.563E-02
DAV:   3    -0.203935412087E+03   -0.42624E-04   -0.20041E-04 11824   0.730E-02    0.858E-02
DAV:   4    -0.203935388169E+03    0.23919E-04   -0.21338E-04  8844   0.717E-02    0.694E-02
DAV:   5    -0.203935357258E+03    0.30911E-04   -0.11507E-04  9084   0.553E-02    0.364E-02
DAV:   6    -0.203935357884E+03   -0.62619E-06   -0.42601E-05  7728   0.367E-02
  75 F= -.20393536E+03 E0= -.20131867E+03  d E =0.801937E-03
       N       E                     dE             d eps       ncg     rms          rms(c)
DAV:   1    -0.203933826867E+03    0.15304E-02   -0.24702E-01 10944   0.622E-01    0.875E-02
DAV:   2    -0.203934264793E+03   -0.43793E-03   -0.44285E-03 10944   0.109E-01    0.833E-02
DAV:   3    -0.203934323583E+03   -0.58791E-04   -0.35439E-04 12412   0.106E-01    0.111E-01
DAV:   4    -0.203934320962E+03    0.26210E-05   -0.40427E-04 11648   0.991E-02    0.110E-01
DAV:   5    -0.203934216086E+03    0.10488E-03   -0.17964E-04 10648   0.720E-02    0.325E-02
DAV:   6    -0.203934233176E+03   -0.17090E-04   -0.67501E-05  9856   0.464E-02    0.472E-02
DAV:   7    -0.203934212181E+03    0.20995E-04   -0.40563E-05  7508   0.371E-02    0.127E-02
DAV:   8    -0.203934211494E+03    0.68701E-06   -0.93380E-06  5664   0.138E-02
  76 F= -.20393421E+03 E0= -.20131758E+03  d E =0.114639E-02
       N       E                     dE             d eps       ncg     rms          rms(c)
DAV:   1    -0.203932354610E+03    0.18576E-02   -0.30783E-01 10944   0.694E-01    0.110E-01
DAV:   2    -0.203932894031E+03   -0.53942E-03   -0.61068E-03 10944   0.106E-01    0.833E-02
DAV:   3    -0.203933029988E+03   -0.13596E-03   -0.42571E-04 12120   0.105E-01    0.146E-01
DAV:   4    -0.203932890135E+03    0.13985E-03   -0.48856E-04 11580   0.107E-01    0.799E-02
DAV:   5    -0.203932890122E+03    0.13060E-07   -0.22480E-04 11932   0.820E-02    0.737E-02
DAV:   6    -0.203932861727E+03    0.28395E-04   -0.99712E-05 11684   0.642E-02    0.489E-02
DAV:   7    -0.203932837981E+03    0.23746E-04   -0.44009E-05  8976   0.425E-02    0.167E-02
DAV:   8    -0.203932838609E+03   -0.62760E-06   -0.15813E-05  6040   0.207E-02
  77 F= -.20393284E+03 E0= -.20131624E+03  d E =0.137289E-02
       N       E                     dE             d eps       ncg     rms          rms(c)
DAV:   1    -0.203930650167E+03    0.21878E-02   -0.34520E-01 10944   0.721E-01    0.128E-01
DAV:   2    -0.203931295722E+03   -0.64555E-03   -0.78566E-03 10948   0.117E-01    0.950E-02
DAV:   3    -0.203931360334E+03   -0.64612E-04   -0.43754E-04 11892   0.104E-01    0.136E-01
DAV:   4    -0.203931291518E+03    0.68815E-04   -0.59380E-04 12224   0.119E-01    0.109E-01
DAV:   5    -0.203931256753E+03    0.34765E-04   -0.41307E-04 12012   0.104E-01    0.896E-02
DAV:   6    -0.203931193258E+03    0.63495E-04   -0.16065E-04 11920   0.744E-02    0.493E-02
DAV:   7    -0.203931169751E+03    0.23507E-04   -0.45129E-05  9120   0.434E-02    0.190E-02
DAV:   8    -0.203931169966E+03   -0.21464E-06   -0.17206E-05  6292   0.230E-02
  78 F= -.20393117E+03 E0= -.20131457E+03  d E =0.166864E-02
       N       E                     dE             d eps       ncg     rms          rms(c)
DAV:   1    -0.203931163653E+03    0.60979E-05   -0.10492E-01 10944   0.376E-01    0.103E-01
DAV:   2    -0.203931401710E+03   -0.23806E-03   -0.34918E-03 10960   0.702E-02    0.823E-02
DAV:   3    -0.203931341459E+03    0.60251E-04   -0.10490E-04  8140   0.400E-02    0.590E-02
DAV:   4    -0.203931540540E+03   -0.19908E-03   -0.52075E-04 12064   0.110E-01    0.157E-01
DAV:   5    -0.203931387229E+03    0.15331E-03   -0.57277E-04 12296   0.116E-01    0.905E-02
DAV:   6    -0.203931303203E+03    0.84025E-04   -0.14873E-04 10860   0.645E-02    0.221E-02
DAV:   7    -0.203931299356E+03    0.38479E-05   -0.21873E-05  6736   0.215E-02
  79 F= -.20393130E+03 E0= -.20131474E+03  d E =-.129390E-03
       N       E                     dE             d eps       ncg     rms          rms(c)
DAV:   1    -0.203930744904E+03    0.55830E-03   -0.75958E-02 10944   0.342E-01    0.556E-02
DAV:   2    -0.203930880273E+03   -0.13537E-03   -0.15846E-03 10956   0.553E-02    0.409E-02
DAV:   3    -0.203930889902E+03   -0.96286E-05   -0.87185E-05 10232   0.471E-02    0.541E-02
DAV:   4    -0.203930890037E+03   -0.13541E-06   -0.11339E-04  7768   0.529E-02    0.559E-02
DAV:   5    -0.203930869508E+03    0.20530E-04   -0.80508E-05  8164   0.452E-02    0.295E-02
DAV:   6    -0.203930863069E+03    0.64383E-05   -0.23117E-05  6860   0.260E-02
  80 F= -.20393086E+03 E0= -.20131430E+03  d E =0.436286E-03
       N       E                     dE             d eps       ncg     rms          rms(c)
DAV:   1    -0.203929954841E+03    0.91467E-03   -0.11333E-01 10944   0.425E-01    0.627E-02
DAV:   2    -0.203930149282E+03   -0.19444E-03   -0.20898E-03 10944   0.682E-02    0.496E-02
DAV:   3    -0.203930211141E+03   -0.61859E-04   -0.20153E-04 11464   0.725E-02    0.938E-02
DAV:   4    -0.203930156516E+03    0.54625E-04   -0.19146E-04  8468   0.679E-02    0.531E-02
DAV:   5    -0.203930139485E+03    0.17031E-04   -0.63379E-05  8124   0.444E-02    0.297E-02
DAV:   6    -0.203930145918E+03   -0.64327E-05   -0.25823E-05  7348   0.338E-02
  81 F= -.20393015E+03 E0= -.20131365E+03  d E =0.717151E-03
       N       E                     dE             d eps       ncg     rms          rms(c)
DAV:   1    -0.203928774736E+03    0.13647E-02   -0.20858E-01 10944   0.575E-01    0.789E-02
DAV:   2    -0.203929130969E+03   -0.35623E-03   -0.36660E-03 10944   0.935E-02    0.659E-02
DAV:   3    -0.203929231410E+03   -0.10044E-03   -0.33179E-04 12440   0.981E-02    0.119E-01
DAV:   4    -0.203929168436E+03    0.62974E-04   -0.34862E-04 11160   0.916E-02    0.858E-02
DAV:   5    -0.203929105553E+03    0.62883E-04   -0.10484E-04  9940   0.590E-02    0.283E-02
DAV:   6    -0.203929119766E+03   -0.14213E-04   -0.49687E-05  8656   0.403E-02    0.413E-02
DAV:   7    -0.203929103041E+03    0.16725E-04   -0.29102E-05  7040   0.322E-02    0.651E-03
DAV:   8    -0.203929103482E+03   -0.44114E-06   -0.50443E-06  5568   0.911E-03
  82 F= -.20392910E+03 E0= -.20131259E+03  d E =0.104244E-02
       N       E                     dE             d eps       ncg     rms          rms(c)
DAV:   1    -0.203927365122E+03    0.17379E-02   -0.28913E-01 10944   0.678E-01    0.100E-01
DAV:   2    -0.203927857880E+03   -0.49276E-03   -0.54211E-03 10944   0.101E-01    0.720E-02
DAV:   3    -0.203928022238E+03   -0.16436E-03   -0.43054E-04 12136   0.104E-01    0.149E-01
DAV:   4    -0.203927856052E+03    0.16619E-03   -0.44002E-04 11460   0.102E-01    0.652E-02
DAV:   5    -0.203927853800E+03    0.22512E-05   -0.14802E-04 11396   0.677E-02    0.571E-02
DAV:   6    -0.203927844015E+03    0.97855E-05   -0.64990E-05 10088   0.529E-02
  83 F= -.20392784E+03 E0= -.20131129E+03  d E =0.125947E-02
       N       E                     dE             d eps       ncg     rms          rms(c)
DAV:   1    -0.203925482725E+03    0.23711E-02   -0.38308E-01 10944   0.771E-01    0.121E-01
DAV:   2    -0.203926198147E+03   -0.71542E-03   -0.79333E-03 10944   0.136E-01    0.104E-01
DAV:   3    -0.203926354417E+03   -0.15627E-03   -0.69192E-04 12120   0.137E-01    0.166E-01
DAV:   4    -0.203926210901E+03    0.14352E-03   -0.69309E-04 12080   0.129E-01    0.114E-01
DAV:   5    -0.203926116608E+03    0.94293E-04   -0.27926E-04 12092   0.922E-02    0.602E-02
DAV:   6    -0.203926139181E+03   -0.22573E-04   -0.13071E-04 12128   0.712E-02    0.736E-02
DAV:   7    -0.203926081568E+03    0.57613E-04   -0.78019E-05 10788   0.567E-02    0.147E-02
DAV:   8    -0.203926083381E+03   -0.18124E-05   -0.20259E-05  6304   0.212E-02
  84 F= -.20392608E+03 E0= -.20130962E+03  d E =0.176063E-02
       N       E                     dE             d eps       ncg     rms          rms(c)
DAV:   1    -0.203925066520E+03    0.10150E-02   -0.18998E-01 10944   0.517E-01    0.128E-01
DAV:   2    -0.203925488173E+03   -0.42165E-03   -0.58583E-03 10960   0.955E-02    0.105E-01
DAV:   3    -0.203925468471E+03    0.19702E-04   -0.28158E-04 11892   0.811E-02    0.114E-01
DAV:   4    -0.203925496802E+03   -0.28331E-04   -0.58684E-04 12228   0.116E-01    0.128E-01
DAV:   5    -0.203925496260E+03    0.54123E-06   -0.60774E-04 12496   0.125E-01    0.123E-01
DAV:   6    -0.203925349997E+03    0.14626E-03   -0.21983E-04 12396   0.912E-02    0.447E-02
DAV:   7    -0.203925330569E+03    0.19427E-04   -0.44847E-05  9396   0.391E-02    0.208E-02
DAV:   8    -0.203925329015E+03    0.15546E-05   -0.18590E-05  6720   0.206E-02
  85 F= -.20392533E+03 E0= -.20130889E+03  d E =0.754366E-03
       N       E                     dE             d eps       ncg     rms          rms(c)
DAV:   1    -0.203925280882E+03    0.49687E-04   -0.76193E-02 10944   0.331E-01    0.725E-02
DAV:   2    -0.203925436785E+03   -0.15590E-03   -0.20492E-03 10960   0.578E-02    0.541E-02
DAV:   3    -0.203925416174E+03    0.20611E-04   -0.76240E-05  9844   0.407E-02    0.449E-02
DAV:   4    -0.203925417215E+03   -0.10411E-05   -0.12868E-04 10084   0.571E-02    0.476E-02
DAV:   5    -0.203925409460E+03    0.77552E-05   -0.77202E-05  8232   0.460E-02
  86 F= -.20392541E+03 E0= -.20130896E+03  d E =-.804451E-04
       N       E                     dE             d eps       ncg     rms          rms(c)
DAV:   1    -0.203924550791E+03    0.86642E-03   -0.94809E-02 10944   0.393E-01    0.612E-02
DAV:   2    -0.203925312830E+03   -0.76204E-03   -0.26609E-03 11896   0.180E-01    0.258E-01
DAV:   3    -0.203924702830E+03    0.61000E-03   -0.10270E-03 12572   0.154E-01    0.440E-02
DAV:   4    -0.203924716386E+03   -0.13555E-04   -0.10786E-04 11276   0.514E-02    0.523E-02
DAV:   5    -0.203924696587E+03    0.19799E-04   -0.47175E-05  8376   0.409E-02    0.219E-02
DAV:   6    -0.203924701875E+03   -0.52883E-05   -0.21560E-05  6744   0.290E-02
  87 F= -.20392470E+03 E0= -.20130827E+03  d E =0.707585E-03
       N       E                     dE             d eps       ncg     rms          rms(c)
DAV:   1    -0.203923405307E+03    0.12913E-02   -0.18631E-01 10944   0.546E-01    0.755E-02
DAV:   2    -0.203923726274E+03   -0.32097E-03   -0.32410E-03 10944   0.990E-02    0.683E-02
DAV:   3    -0.203923763556E+03   -0.37283E-04   -0.28833E-04 11760   0.910E-02    0.894E-02
DAV:   4    -0.203923766570E+03   -0.30133E-05   -0.28382E-04 10644   0.831E-02    0.901E-02
DAV:   5    -0.203923701579E+03    0.64990E-04   -0.13848E-04  9020   0.611E-02    0.336E-02
DAV:   6    -0.203923702516E+03   -0.93641E-06   -0.36163E-05  8636   0.368E-02
  88 F= -.20392370E+03 E0= -.20130735E+03  d E =0.999359E-03
       N       E                     dE             d eps       ncg     rms          rms(c)
DAV:   1    -0.203921961342E+03    0.17402E-02   -0.29401E-01 10944   0.687E-01    0.995E-02
DAV:   2    -0.203922548585E+03   -0.58724E-03   -0.53028E-03 10944   0.148E-01    0.127E-01
DAV:   3    -0.203922505879E+03    0.42706E-04   -0.55353E-04 12200   0.131E-01    0.108E-01
DAV:   4    -0.203922573614E+03   -0.67735E-04   -0.52031E-04 12096   0.111E-01    0.135E-01
DAV:   5    -0.203922425219E+03    0.14840E-03   -0.26963E-04 11012   0.861E-02    0.423E-02
DAV:   6    -0.203922434766E+03   -0.95475E-05   -0.75816E-05 10284   0.520E-02
  89 F= -.20392243E+03 E0= -.20130603E+03  d E =0.126775E-02
       N       E                     dE             d eps       ncg     rms          rms(c)
DAV:   1    -0.203920079630E+03    0.23456E-02   -0.44160E-01 10944   0.840E-01    0.117E-01
DAV:   2    -0.203920848804E+03   -0.76917E-03   -0.78631E-03 10944   0.153E-01    0.107E-01
DAV:   3    -0.203921013453E+03   -0.16465E-03   -0.84492E-04 12072   0.148E-01    0.168E-01
DAV:   4    -0.203920883954E+03    0.12950E-03   -0.73953E-04 12020   0.133E-01    0.115E-01
DAV:   5    -0.203920779920E+03    0.10403E-03   -0.26618E-04 11756   0.853E-02    0.477E-02
DAV:   6    -0.203920785022E+03   -0.51023E-05   -0.10533E-04 11292   0.565E-02    0.442E-02
DAV:   7    -0.203920779326E+03    0.56963E-05   -0.40558E-05  8912   0.422E-02
  90 F= -.20392078E+03 E0= -.20130441E+03  d E =0.165544E-02
       N       E                     dE             d eps       ncg     rms          rms(c)
DAV:   1    -0.203917778800E+03    0.30062E-02   -0.45628E-01 10944   0.850E-01    0.145E-01
DAV:   2    -0.203918641576E+03   -0.86278E-03   -0.10041E-02 10952   0.136E-01    0.118E-01
DAV:   3    -0.203918996253E+03   -0.35468E-03   -0.99998E-04 12688   0.157E-01    0.231E-01
DAV:   4    -0.203918553510E+03    0.44274E-03   -0.92501E-04 12516   0.147E-01    0.791E-02
DAV:   5    -0.203918603096E+03   -0.49585E-04   -0.36033E-04 11688   0.101E-01    0.958E-02
DAV:   6    -0.203918503580E+03    0.99516E-04   -0.21114E-04 11728   0.836E-02    0.290E-02
DAV:   7    -0.203918504950E+03   -0.13703E-05   -0.54744E-05  9388   0.382E-02
  91 F= -.20391850E+03 E0= -.20130229E+03  d E =0.227438E-02
       N       E                     dE             d eps       ncg     rms          rms(c)
DAV:   1    -0.203918064083E+03    0.43950E-03   -0.17880E-01 10956   0.495E-01    0.132E-01
DAV:   2    -0.203918511238E+03   -0.44716E-03   -0.57602E-03 10960   0.121E-01    0.121E-01
DAV:   3    -0.203918519474E+03   -0.82362E-05   -0.40864E-04 12264   0.125E-01    0.136E-01
DAV:   4    -0.203918413258E+03    0.10622E-03   -0.41333E-04 12328   0.110E-01    0.102E-01
DAV:   5    -0.203918477569E+03   -0.64311E-04   -0.59809E-04 12312   0.119E-01    0.133E-01
DAV:   6    -0.203918329270E+03    0.14830E-03   -0.33691E-04 12324   0.962E-02    0.556E-02
DAV:   7    -0.203918290433E+03    0.38837E-04   -0.70699E-05  9880   0.504E-02    0.112E-02
DAV:   8    -0.203918292208E+03   -0.17751E-05   -0.14992E-05  6628   0.171E-02
  92 F= -.20391829E+03 E0= -.20130204E+03  d E =0.212741E-03
       N       E                     dE             d eps       ncg     rms          rms(c)
DAV:   1    -0.203918398319E+03   -0.10789E-03   -0.23253E-02 10944   0.184E-01    0.438E-02
DAV:   2    -0.203918451425E+03   -0.53106E-04   -0.69966E-04 10792   0.356E-02    0.374E-02
DAV:   3    -0.203918464122E+03   -0.12697E-04   -0.62707E-05  7436   0.397E-02    0.566E-02
DAV:   4    -0.203918444902E+03    0.19220E-04   -0.74011E-05  7348   0.418E-02    0.333E-02
DAV:   5    -0.203918447297E+03   -0.23950E-05   -0.55898E-05  7640   0.384E-02
  93 F= -.20391845E+03 E0= -.20130219E+03  d E =-.155089E-03
       N       E                     dE             d eps       ncg     rms          rms(c)
DAV:   1    -0.203917739692E+03    0.70521E-03   -0.65271E-02 10944   0.327E-01    0.468E-02
DAV:   2    -0.203917855637E+03   -0.11594E-03   -0.12276E-03 10980   0.547E-02    0.407E-02
DAV:   3    -0.203917903840E+03   -0.48204E-04   -0.15589E-04  9180   0.617E-02    0.819E-02
DAV:   4    -0.203917850907E+03    0.52933E-04   -0.11500E-04  7612   0.529E-02    0.316E-02
DAV:   5    -0.203917847024E+03    0.38836E-05   -0.28373E-05  6992   0.297E-02
  94 F= -.20391785E+03 E0= -.20130163E+03  d E =0.600273E-03
       N       E                     dE             d eps       ncg     rms          rms(c)
DAV:   1    -0.203916702818E+03    0.11481E-02   -0.14275E-01 10944   0.481E-01    0.683E-02
DAV:   2    -0.203916985559E+03   -0.28274E-03   -0.25386E-03 10944   0.105E-01    0.862E-02
DAV:   3    -0.203916960743E+03    0.24816E-04   -0.22701E-04 12264   0.896E-02    0.703E-02
DAV:   4    -0.203916993192E+03   -0.32449E-04   -0.22660E-04 10592   0.737E-02    0.898E-02
DAV:   5    -0.203916931635E+03    0.61558E-04   -0.13965E-04  8708   0.605E-02    0.356E-02
DAV:   6    -0.203916924367E+03    0.72677E-05   -0.31083E-05  7432   0.345E-02
  95 F= -.20391692E+03 E0= -.20130070E+03  d E =0.922657E-03
       N       E                     dE             d eps       ncg     rms          rms(c)
DAV:   1    -0.203915324438E+03    0.16072E-02   -0.24350E-01 10944   0.630E-01    0.893E-02
DAV:   2    -0.203915786101E+03   -0.46166E-03   -0.43737E-03 10944   0.130E-01    0.104E-01
DAV:   3    -0.203915778755E+03    0.73456E-05   -0.50792E-04 11944   0.116E-01    0.983E-02
DAV:   4    -0.203915823208E+03   -0.44453E-04   -0.41782E-04 11724   0.989E-02    0.117E-01
DAV:   5    -0.203915703690E+03    0.11952E-03   -0.21442E-04 10000   0.740E-02    0.280E-02
DAV:   6    -0.203915717299E+03   -0.13609E-04   -0.52878E-05  9308   0.399E-02    0.384E-02
DAV:   7    -0.203915708494E+03    0.88054E-05   -0.27484E-05  7504   0.346E-02
  96 F= -.20391571E+03 E0= -.20129951E+03  d E =0.121587E-02
       N       E                     dE             d eps       ncg     rms          rms(c)
DAV:   1    -0.203913532389E+03    0.21849E-02   -0.38136E-01 10944   0.789E-01    0.104E-01
DAV:   2    -0.203914166988E+03   -0.63460E-03   -0.66319E-03 10944   0.117E-01    0.731E-02
DAV:   3    -0.203914490809E+03   -0.32382E-03   -0.77125E-04 12452   0.137E-01    0.195E-01
DAV:   4    -0.203914172454E+03    0.31835E-03   -0.62616E-04 12380   0.123E-01    0.612E-02
DAV:   5    -0.203914150930E+03    0.21524E-04   -0.11262E-04 10604   0.596E-02    0.374E-02
DAV:   6    -0.203914152026E+03   -0.10961E-05   -0.48662E-05  8208   0.363E-02
  97 F= -.20391415E+03 E0= -.20129804E+03  d E =0.155647E-02
       N       E                     dE             d eps       ncg     rms          rms(c)
DAV:   1    -0.203911426582E+03    0.27243E-02   -0.47520E-01 10944   0.884E-01    0.129E-01
DAV:   2    -0.203912281852E+03   -0.85527E-03   -0.90703E-03 10944   0.141E-01    0.110E-01
DAV:   3    -0.203912620461E+03   -0.33861E-03   -0.10147E-03 12672   0.161E-01    0.218E-01
DAV:   4    -0.203912261409E+03    0.35905E-03   -0.84984E-04 12540   0.142E-01    0.936E-02
DAV:   5    -0.203912231802E+03    0.29607E-04   -0.19964E-04 12256   0.884E-02    0.720E-02
DAV:   6    -0.203912228529E+03    0.32734E-05   -0.11538E-04 12280   0.695E-02    0.621E-02
DAV:   7    -0.203912188014E+03    0.40514E-04   -0.83022E-05 10200   0.538E-02    0.146E-02
DAV:   8    -0.203912189608E+03   -0.15939E-05   -0.16275E-05  6096   0.195E-02
  98 F= -.20391219E+03 E0= -.20129613E+03  d E =0.196242E-02
       N       E                     dE             d eps       ncg     rms          rms(c)
DAV:   1    -0.203909102885E+03    0.30851E-02   -0.39171E-01 10944   0.776E-01    0.158E-01
DAV:   2    -0.203909923270E+03   -0.82038E-03   -0.10437E-02 10952   0.137E-01    0.124E-01
DAV:   3    -0.203910182215E+03   -0.25894E-03   -0.93958E-04 12384   0.153E-01    0.220E-01
DAV:   4    -0.203909822067E+03    0.36015E-03   -0.10429E-03 12788   0.156E-01    0.106E-01
DAV:   5    -0.203909865399E+03   -0.43331E-04   -0.52656E-04 12452   0.126E-01    0.127E-01
DAV:   6    -0.203909720894E+03    0.14450E-03   -0.24249E-04 12316   0.996E-02    0.594E-02
DAV:   7    -0.203909685108E+03    0.35786E-04   -0.76821E-05 10804   0.536E-02    0.212E-02
DAV:   8    -0.203909685968E+03   -0.86028E-06   -0.25039E-05  6480   0.261E-02
  99 F= -.20390969E+03 E0= -.20129363E+03  d E =0.250364E-02
       N       E                     dE             d eps       ncg     rms          rms(c)
DAV:   1    -0.203910891902E+03   -0.12068E-02   -0.31503E-02 10968   0.199E-01    0.665E-02
DAV:   2    -0.203910972862E+03   -0.80960E-04   -0.12509E-03 10936   0.441E-02    0.527E-02
DAV:   3    -0.203910958307E+03    0.14555E-04   -0.66371E-05  7604   0.382E-02    0.510E-02
DAV:   4    -0.203910988864E+03   -0.30557E-04   -0.16842E-04  8092   0.636E-02    0.769E-02
DAV:   5    -0.203910970432E+03    0.18431E-04   -0.18835E-04  9864   0.679E-02    0.617E-02
DAV:   6    -0.203910931401E+03    0.39031E-04   -0.64993E-05  8068   0.442E-02    0.143E-02
DAV:   7    -0.203910930135E+03    0.12660E-05   -0.79437E-06  6032   0.146E-02
 100 F= -.20391093E+03 E0= -.20129491E+03  d E =-.124417E-02
       N       E                     dE             d eps       ncg     rms          rms(c)
DAV:   1    -0.203910407607E+03    0.52379E-03   -0.68467E-02 10944   0.332E-01    0.638E-02
DAV:   2    -0.203910564909E+03   -0.15730E-03   -0.18367E-03 10960   0.663E-02    0.635E-02
DAV:   3    -0.203910596535E+03   -0.31626E-04   -0.17733E-04 11216   0.694E-02    0.892E-02
DAV:   4    -0.203910547237E+03    0.49299E-04   -0.16522E-04  8208   0.618E-02    0.539E-02
DAV:   5    -0.203910537520E+03    0.97166E-05   -0.69988E-05  8948   0.501E-02
 101 F= -.20391054E+03 E0= -.20129459E+03  d E =0.392615E-03
       N       E                     dE             d eps       ncg     rms          rms(c)
DAV:   1    -0.203909697246E+03    0.84999E-03   -0.93817E-02 10944   0.400E-01    0.622E-02
DAV:   2    -0.203909938427E+03   -0.24118E-03   -0.20219E-03 10944   0.114E-01    0.965E-02
DAV:   3    -0.203909870832E+03    0.67594E-04   -0.23367E-04 11848   0.885E-02    0.557E-02
DAV:   4    -0.203909890445E+03   -0.19613E-04   -0.14613E-04  9636   0.602E-02    0.720E-02
DAV:   5    -0.203909858288E+03    0.32157E-04   -0.11269E-04  7992   0.531E-02    0.396E-02
DAV:   6    -0.203909846320E+03    0.11968E-04   -0.30050E-05  7328   0.344E-02    0.198E-02
DAV:   7    -0.203909848839E+03   -0.25183E-05   -0.20157E-05  6656   0.255E-02
 102 F= -.20390985E+03 E0= -.20129388E+03  d E =0.688681E-03
       N       E                     dE             d eps       ncg     rms          rms(c)
DAV:   1    -0.203908746950E+03    0.10994E-02   -0.13114E-01 10944   0.473E-01    0.669E-02
DAV:   2    -0.203908977274E+03   -0.23032E-03   -0.25135E-03 10944   0.715E-02    0.509E-02
DAV:   3    -0.203909076576E+03   -0.99302E-04   -0.24813E-04 11316   0.792E-02    0.114E-01
DAV:   4    -0.203908972160E+03    0.10442E-03   -0.22381E-04  8940   0.728E-02    0.413E-02
DAV:   5    -0.203908975876E+03   -0.37161E-05   -0.56806E-05  8868   0.452E-02
 103 F= -.20390898E+03 E0= -.20129307E+03  d E =0.872962E-03
       N       E                     dE             d eps       ncg     rms          rms(c)
DAV:   1    -0.203907497960E+03    0.14742E-02   -0.20030E-01 10944   0.581E-01    0.848E-02
DAV:   2    -0.203907971037E+03   -0.47308E-03   -0.39939E-03 10944   0.140E-01    0.126E-01
DAV:   3    -0.203907869421E+03    0.10162E-03   -0.35800E-04 12152   0.116E-01    0.782E-02
DAV:   4    -0.203907936557E+03   -0.67136E-04   -0.32080E-04 11548   0.877E-02    0.116E-01
DAV:   5    -0.203907828284E+03    0.10827E-03   -0.22313E-04  9992   0.750E-02    0.388E-02
DAV:   6    -0.203907828759E+03   -0.47492E-06   -0.65561E-05  9220   0.463E-02
 104 F= -.20390783E+03 E0= -.20129189E+03  d E =0.114712E-02
       N       E                     dE             d eps       ncg     rms          rms(c)
DAV:   1    -0.203906270975E+03    0.15573E-02   -0.19868E-01 10944   0.578E-01    0.990E-02
DAV:   2    -0.203906695320E+03   -0.42435E-03   -0.46706E-03 10944   0.121E-01    0.103E-01
DAV:   3    -0.203906742752E+03   -0.47432E-04   -0.50705E-04 12064   0.114E-01    0.130E-01
DAV:   4    -0.203906664968E+03    0.77784E-04   -0.41938E-04 11700   0.987E-02    0.914E-02
DAV:   5    -0.203906611518E+03    0.53450E-04   -0.21627E-04 11456   0.745E-02    0.507E-02
DAV:   6    -0.203906608873E+03    0.26453E-05   -0.12060E-04 11284   0.563E-02    0.444E-02
DAV:   7    -0.203906588272E+03    0.20601E-04   -0.47694E-05  8884   0.418E-02    0.167E-02
DAV:   8    -0.203906589169E+03   -0.89706E-06   -0.12662E-05  6396   0.210E-02
 105 F= -.20390659E+03 E0= -.20129074E+03  d E =0.123959E-02
       N       E                     dE             d eps       ncg     rms          rms(c)
DAV:   1    -0.203905757054E+03    0.83122E-03   -0.12687E-01 10944   0.444E-01    0.949E-02
DAV:   2    -0.203906034829E+03   -0.27778E-03   -0.35998E-03 10960   0.802E-02    0.744E-02
DAV:   3    -0.203906086188E+03   -0.51359E-04   -0.25405E-04 12088   0.819E-02    0.114E-01
DAV:   4    -0.203906008982E+03    0.77206E-04   -0.33742E-04 10388   0.890E-02    0.722E-02
DAV:   5    -0.203906021689E+03   -0.12706E-04   -0.21053E-04 12240   0.796E-02    0.808E-02
DAV:   6    -0.203905960091E+03    0.61598E-04   -0.88601E-05 11304   0.609E-02    0.337E-02
DAV:   7    -0.203905947912E+03    0.12178E-04   -0.27403E-05  7024   0.322E-02    0.126E-02
DAV:   8    -0.203905948205E+03   -0.29280E-06   -0.10192E-05  5844   0.157E-02
 106 F= -.20390595E+03 E0= -.20129007E+03  d E =0.640964E-03
       N       E                     dE             d eps       ncg     rms          rms(c)
DAV:   1    -0.203905811753E+03    0.13616E-03   -0.36889E-02 10944   0.240E-01    0.534E-02
DAV:   2    -0.203905896714E+03   -0.84961E-04   -0.11180E-03 10960   0.437E-02    0.441E-02
[...]
DAV:   3    -0.203786393477E+03    0.49279E-04   -0.16041E-04  8412   0.618E-02    0.452E-02
DAV:   4    -0.203786383689E+03    0.97877E-05   -0.57666E-05  7728   0.375E-02
 360 F= -.20378638E+03 E0= -.20117476E+03  d E =0.227388E-04
       N       E                     dE             d eps       ncg     rms          rms(c)
DAV:   1    -0.203786333317E+03    0.60159E-04   -0.89435E-03 10944   0.123E-01    0.217E-02
DAV:   2    -0.203786358807E+03   -0.25489E-04   -0.21585E-04  8272   0.377E-02    0.326E-02
DAV:   3    -0.203786352397E+03    0.64096E-05   -0.34152E-05  7248   0.311E-02    0.213E-02
DAV:   4    -0.203786354580E+03   -0.21828E-05   -0.22063E-05  6344   0.226E-02
 361 F= -.20378635E+03 E0= -.20117473E+03  d E =0.291094E-04
       N       E                     dE             d eps       ncg     rms          rms(c)
DAV:   1    -0.203786268820E+03    0.83577E-04   -0.11749E-02 10944   0.136E-01    0.250E-02
DAV:   2    -0.203786296674E+03   -0.27854E-04   -0.22067E-04  8280   0.380E-02    0.368E-02
DAV:   3    -0.203786294800E+03    0.18747E-05   -0.49070E-05  7016   0.366E-02    0.354E-02
DAV:   4    -0.203786287958E+03    0.68418E-05   -0.30893E-05  6456   0.277E-02
 362 F= -.20378629E+03 E0= -.20117465E+03  d E =0.666220E-04
       N       E                     dE             d eps       ncg     rms          rms(c)
DAV:   1    -0.203786187744E+03    0.10706E-03   -0.20847E-02 10944   0.180E-01    0.335E-02
DAV:   2    -0.203786244210E+03   -0.56465E-04   -0.37566E-04 10888   0.554E-02    0.559E-02
DAV:   3    -0.203786220103E+03    0.24106E-04   -0.56264E-05  9140   0.478E-02    0.300E-02
DAV:   4    -0.203786232678E+03   -0.12574E-04   -0.56251E-05  6760   0.365E-02    0.473E-02
DAV:   5    -0.203786215749E+03    0.16929E-04   -0.37054E-05  6652   0.314E-02    0.173E-02
DAV:   6    -0.203786213486E+03    0.22626E-05   -0.70325E-06  5796   0.170E-02
 363 F= -.20378621E+03 E0= -.20117460E+03  d E =0.744716E-04
       N       E                     dE             d eps       ncg     rms          rms(c)
DAV:   1    -0.203786094596E+03    0.12115E-03   -0.28902E-02 10944   0.210E-01    0.352E-02
DAV:   2    -0.203786148538E+03   -0.53942E-04   -0.51618E-04 10496   0.457E-02    0.401E-02
DAV:   3    -0.203786143158E+03    0.53798E-05   -0.66321E-05  8492   0.427E-02    0.334E-02
DAV:   4    -0.203786153759E+03   -0.10601E-04   -0.54233E-05  6884   0.362E-02    0.474E-02
DAV:   5    -0.203786134883E+03    0.18876E-04   -0.38019E-05  6648   0.308E-02    0.129E-02
DAV:   6    -0.203786137302E+03   -0.24186E-05   -0.75481E-06  5952   0.172E-02
 364 F= -.20378614E+03 E0= -.20117450E+03  d E =0.761847E-04
       N       E                     dE             d eps       ncg     rms          rms(c)
DAV:   1    -0.203785986976E+03    0.14791E-03   -0.42428E-02 10944   0.255E-01    0.394E-02
DAV:   2    -0.203786057605E+03   -0.70629E-04   -0.73095E-04 10624   0.429E-02    0.340E-02
DAV:   3    -0.203786069437E+03   -0.11831E-04   -0.56779E-05  9004   0.455E-02    0.481E-02
DAV:   4    -0.203786068026E+03    0.14102E-05   -0.72150E-05  6916   0.432E-02
 365 F= -.20378607E+03 E0= -.20117448E+03  d E =0.692752E-04
       N       E                     dE             d eps       ncg     rms          rms(c)
DAV:   1    -0.203785896015E+03    0.17342E-03   -0.25837E-02 10944   0.198E-01    0.516E-02
DAV:   2    -0.203786034614E+03   -0.13860E-03   -0.81421E-04 11208   0.816E-02    0.102E-01
DAV:   3    -0.203785961617E+03    0.72998E-04   -0.23162E-04  9936   0.753E-02    0.562E-02
DAV:   4    -0.203785953874E+03    0.77430E-05   -0.77081E-05  8852   0.474E-02
 366 F= -.20378595E+03 E0= -.20117430E+03  d E =0.114153E-03
       N       E                     dE             d eps       ncg     rms          rms(c)
DAV:   1    -0.203785993775E+03   -0.32159E-04   -0.85438E-03 10956   0.124E-01    0.310E-02
DAV:   2    -0.203786077497E+03   -0.83722E-04   -0.35992E-04 11316   0.734E-02    0.788E-02
DAV:   3    -0.203786018875E+03    0.58622E-04   -0.82685E-05 10328   0.583E-02    0.302E-02
DAV:   4    -0.203786018172E+03    0.70312E-06   -0.37068E-05  6624   0.286E-02
 367 F= -.20378602E+03 E0= -.20117444E+03  d E =-.642982E-04
       N       E                     dE             d eps       ncg     rms          rms(c)
DAV:   1    -0.203785939542E+03    0.79333E-04   -0.89035E-03 10944   0.121E-01    0.263E-02
DAV:   2    -0.203785985861E+03   -0.46319E-04   -0.21921E-04 10196   0.538E-02    0.614E-02
DAV:   3    -0.203785960223E+03    0.25638E-04   -0.92757E-05  7296   0.487E-02    0.365E-02
DAV:   4    -0.203785951170E+03    0.90540E-05   -0.31096E-05  6616   0.291E-02
 368 F= -.20378595E+03 E0= -.20117434E+03  d E =0.670023E-04
       N       E                     dE             d eps       ncg     rms          rms(c)
DAV:   1    -0.203785840863E+03    0.11936E-03   -0.15484E-02 10944   0.155E-01    0.329E-02
DAV:   2    -0.203785900170E+03   -0.59307E-04   -0.31746E-04 11152   0.620E-02    0.638E-02
DAV:   3    -0.203785862977E+03    0.37192E-04   -0.58358E-05  9792   0.508E-02    0.265E-02
DAV:   4    -0.203785871299E+03   -0.83215E-05   -0.41162E-05  6668   0.318E-02
 369 F= -.20378587E+03 E0= -.20117429E+03  d E =0.798706E-04
       N       E                     dE             d eps       ncg     rms          rms(c)
DAV:   1    -0.203785731252E+03    0.13173E-03   -0.25883E-02 10944   0.203E-01    0.410E-02
DAV:   2    -0.203785914090E+03   -0.18284E-03   -0.68500E-04 11604   0.963E-02    0.126E-01
DAV:   3    -0.203785778173E+03    0.13592E-03   -0.30396E-04 10352   0.852E-02    0.442E-02
DAV:   4    -0.203785769357E+03    0.88165E-05   -0.54957E-05  8408   0.407E-02
 370 F= -.20378577E+03 E0= -.20117415E+03  d E =0.101942E-03
       N       E                     dE             d eps       ncg     rms          rms(c)
DAV:   1    -0.203785640991E+03    0.13718E-03   -0.33015E-02 10944   0.227E-01    0.501E-02
DAV:   2    -0.203785766210E+03   -0.12522E-03   -0.69831E-04 11236   0.907E-02    0.930E-02
DAV:   3    -0.203785688183E+03    0.78027E-04   -0.12559E-04 12108   0.745E-02    0.395E-02
DAV:   4    -0.203785701772E+03   -0.13589E-04   -0.78171E-05  7912   0.451E-02    0.550E-02
DAV:   5    -0.203785687981E+03    0.13791E-04   -0.80650E-05  7360   0.439E-02    0.356E-02
DAV:   6    -0.203785677627E+03    0.10355E-04   -0.24197E-05  6768   0.291E-02    0.110E-02
DAV:   7    -0.203785676862E+03    0.76512E-06   -0.31644E-06  5776   0.104E-02
 371 F= -.20378568E+03 E0= -.20117410E+03  d E =0.924952E-04
       N       E                     dE             d eps       ncg     rms          rms(c)
DAV:   1    -0.203785503546E+03    0.17408E-03   -0.44304E-02 10944   0.258E-01    0.425E-02
DAV:   2    -0.203785575347E+03   -0.71802E-04   -0.83111E-04 10608   0.369E-02    0.277E-02
DAV:   3    -0.203785577108E+03   -0.17611E-05   -0.40605E-05  7480   0.327E-02    0.333E-02
DAV:   4    -0.203785568515E+03    0.85933E-05   -0.30914E-05  7228   0.321E-02
 372 F= -.20378557E+03 E0= -.20117402E+03  d E =0.108347E-03
       N       E                     dE             d eps       ncg     rms          rms(c)
DAV:   1    -0.203785590213E+03   -0.13104E-04   -0.11897E-02 10944   0.133E-01    0.585E-02
DAV:   2    -0.203787174995E+03   -0.15848E-02   -0.29217E-03 14080   0.257E-01    0.408E-01
DAV:   3    -0.203785607201E+03    0.15678E-02   -0.21812E-03 14196   0.227E-01    0.419E-02
DAV:   4    -0.203785601128E+03    0.60722E-05   -0.64476E-05 10960   0.383E-02
 373 F= -.20378560E+03 E0= -.20117400E+03  d E =-.326134E-04
       N       E                     dE             d eps       ncg     rms          rms(c)
DAV:   1    -0.203785595193E+03    0.12008E-04   -0.54521E-03 10944   0.100E-01    0.278E-02
DAV:   2    -0.203785685675E+03   -0.90482E-04   -0.26722E-04 11920   0.784E-02    0.881E-02
DAV:   3    -0.203785603782E+03    0.81892E-04   -0.82742E-05 11128   0.616E-02    0.159E-02
DAV:   4    -0.203785602922E+03    0.86080E-06   -0.13332E-05  6144   0.174E-02
 374 F= -.20378560E+03 E0= -.20117403E+03  d E =-.179327E-05
       N       E                     dE             d eps       ncg     rms          rms(c)
DAV:   1    -0.203785537603E+03    0.66179E-04   -0.86479E-03 10944   0.115E-01    0.203E-02
DAV:   2    -0.203785569371E+03   -0.31768E-04   -0.16787E-04  7744   0.362E-02    0.476E-02
DAV:   3    -0.203785550754E+03    0.18617E-04   -0.46488E-05  6792   0.336E-02    0.172E-02
DAV:   4    -0.203785550236E+03    0.51804E-06   -0.79989E-06  5840   0.155E-02
 375 F= -.20378555E+03 E0= -.20117400E+03  d E =0.526860E-04
       N       E                     dE             d eps       ncg     rms          rms(c)
DAV:   1    -0.203785454392E+03    0.96361E-04   -0.15206E-02 10944   0.151E-01    0.276E-02
DAV:   2    -0.203785486384E+03   -0.31992E-04   -0.25850E-04  8344   0.373E-02    0.368E-02
DAV:   3    -0.203785477798E+03    0.85863E-05   -0.26117E-05  7604   0.346E-02    0.231E-02
DAV:   4    -0.203785479185E+03   -0.13878E-05   -0.14657E-05  6500   0.212E-02
 376 F= -.20378548E+03 E0= -.20117394E+03  d E =0.710503E-04
       N       E                     dE             d eps       ncg     rms          rms(c)
DAV:   1    -0.203785354625E+03    0.12317E-03   -0.25127E-02 10944   0.197E-01    0.379E-02
DAV:   2    -0.203785603779E+03   -0.24915E-03   -0.76602E-04 12088   0.104E-01    0.152E-01
DAV:   3    -0.203785388677E+03    0.21510E-03   -0.35981E-04 10292   0.910E-02    0.259E-02
DAV:   4    -0.203785395580E+03   -0.69023E-05   -0.31593E-05  7068   0.314E-02
 377 F= -.20378540E+03 E0= -.20117389E+03  d E =0.836059E-04
       N       E                     dE             d eps       ncg     rms          rms(c)
DAV:   1    -0.203785254466E+03    0.13421E-03   -0.33270E-02 10944   0.227E-01    0.443E-02
DAV:   2    -0.203785331718E+03   -0.77252E-04   -0.59562E-04 10976   0.603E-02    0.612E-02
DAV:   3    -0.203785305497E+03    0.26220E-04   -0.70057E-05 10692   0.551E-02    0.363E-02
DAV:   4    -0.203785306014E+03   -0.51649E-06   -0.32786E-05  7004   0.318E-02
 378 F= -.20378531E+03 E0= -.20117378E+03  d E =0.895658E-04
       N       E                     dE             d eps       ncg     rms          rms(c)
DAV:   1    -0.203785120568E+03    0.18493E-03   -0.47468E-02 10944   0.272E-01    0.568E-02
DAV:   2    -0.203786009053E+03   -0.88848E-03   -0.22003E-03 13364   0.195E-01    0.296E-01
DAV:   3    -0.203785180150E+03    0.82890E-03   -0.12586E-03 13556   0.169E-01    0.333E-02
DAV:   4    -0.203785199383E+03   -0.19233E-04   -0.69757E-05 10964   0.443E-02    0.490E-02
DAV:   5    -0.203785179011E+03    0.20372E-04   -0.34009E-05  8080   0.385E-02    0.203E-02
DAV:   6    -0.203785179781E+03   -0.77013E-06   -0.19144E-05  6476   0.257E-02
 379 F= -.20378518E+03 E0= -.20117368E+03  d E =0.126232E-03
       N       E                     dE             d eps       ncg     rms          rms(c)
DAV:   1    -0.203785041407E+03    0.13760E-03   -0.22425E-02 10944   0.175E-01    0.503E-02
DAV:   2    -0.203785086811E+03   -0.45404E-04   -0.64577E-04 10804   0.406E-02    0.420E-02
DAV:   3    -0.203785106308E+03   -0.19497E-04   -0.89962E-05  8560   0.493E-02    0.647E-02
DAV:   4    -0.203785085854E+03    0.20454E-04   -0.11537E-04  7680   0.521E-02    0.458E-02
DAV:   5    -0.203785079094E+03    0.67598E-05   -0.63927E-05  8360   0.442E-02
 380 F= -.20378508E+03 E0= -.20117361E+03  d E =0.100687E-03
       N       E                     dE             d eps       ncg     rms          rms(c)
DAV:   1    -0.203785158302E+03   -0.72448E-04   -0.38928E-03 10956   0.889E-02    0.305E-02
DAV:   2    -0.203785241089E+03   -0.82787E-04   -0.25514E-04 11576   0.792E-02    0.867E-02
DAV:   3    -0.203785164095E+03    0.76994E-04   -0.91315E-05 11120   0.627E-02    0.241E-02
DAV:   4    -0.203785163906E+03    0.18875E-06   -0.26414E-05  6480   0.245E-02
 381 F= -.20378516E+03 E0= -.20117364E+03  d E =-.848119E-04
       N       E                     dE             d eps       ncg     rms          rms(c)
DAV:   1    -0.203785117055E+03    0.47040E-04   -0.84102E-03 10944   0.116E-01    0.284E-02
DAV:   2    -0.203785215511E+03   -0.98457E-04   -0.32052E-04 11256   0.713E-02    0.977E-02
DAV:   3    -0.203785131108E+03    0.84403E-04   -0.16561E-04  7884   0.630E-02    0.305E-02
DAV:   4    -0.203785125783E+03    0.53249E-05   -0.24363E-05  6624   0.271E-02
 382 F= -.20378513E+03 E0= -.20117363E+03  d E =0.381231E-04
       N       E                     dE             d eps       ncg     rms          rms(c)
DAV:   1    -0.203785042543E+03    0.88564E-04   -0.91595E-03 10944   0.120E-01    0.288E-02
DAV:   2    -0.203785106814E+03   -0.64271E-04   -0.26328E-04 11316   0.664E-02    0.707E-02
DAV:   3    -0.203785056209E+03    0.50605E-04   -0.60742E-05  9904   0.525E-02    0.210E-02
DAV:   4    -0.203785057064E+03   -0.85428E-06   -0.19506E-05  6316   0.222E-02
 383 F= -.20378506E+03 E0= -.20117355E+03  d E =0.687194E-04
       N       E                     dE             d eps       ncg     rms          rms(c)
DAV:   1    -0.203784942962E+03    0.11325E-03   -0.16894E-02 10944   0.162E-01    0.352E-02
DAV:   2    -0.203785215524E+03   -0.27256E-03   -0.69613E-04 12252   0.110E-01    0.163E-01
DAV:   3    -0.203784967086E+03    0.24844E-03   -0.39970E-04 10820   0.966E-02    0.270E-02
DAV:   4    -0.203784967345E+03   -0.25948E-06   -0.28760E-05  6884   0.301E-02
 384 F= -.20378497E+03 E0= -.20117349E+03  d E =0.897183E-04
       N       E                     dE             d eps       ncg     rms          rms(c)
DAV:   1    -0.203784842985E+03    0.12410E-03   -0.22048E-02 10944   0.184E-01    0.412E-02
DAV:   2    -0.203784933230E+03   -0.90245E-04   -0.47558E-04 11304   0.752E-02    0.793E-02
DAV:   3    -0.203784873574E+03    0.59656E-04   -0.85347E-05 11548   0.620E-02    0.296E-02
DAV:   4    -0.203784873526E+03    0.48043E-07   -0.28915E-05  6800   0.296E-02
 385 F= -.20378487E+03 E0= -.20117338E+03  d E =0.938192E-04
       N       E                     dE             d eps       ncg     rms          rms(c)
DAV:   1    -0.203784738072E+03    0.13550E-03   -0.33204E-02 10944   0.230E-01    0.583E-02
DAV:   2    -0.203786304612E+03   -0.15665E-02   -0.30458E-03 13932   0.255E-01    0.402E-01
DAV:   3    -0.203784770268E+03    0.15343E-02   -0.21279E-03 14164   0.223E-01    0.272E-02
DAV:   4    -0.203784780110E+03   -0.98417E-05   -0.62055E-05 11092   0.367E-02
 386 F= -.20378478E+03 E0= -.20117333E+03  d E =0.934162E-04
       N       E                     dE             d eps       ncg     rms          rms(c)
DAV:   1    -0.203784648859E+03    0.12141E-03   -0.19920E-02 10944   0.174E-01    0.497E-02
DAV:   2    -0.203784762481E+03   -0.11362E-03   -0.62160E-04 11352   0.827E-02    0.915E-02
DAV:   3    -0.203784685541E+03    0.76939E-04   -0.10660E-04 12060   0.691E-02    0.370E-02
DAV:   4    -0.203784695728E+03   -0.10186E-04   -0.61083E-05  7484   0.384E-02    0.500E-02
DAV:   5    -0.203784687686E+03    0.80416E-05   -0.87534E-05  7408   0.453E-02
 387 F= -.20378469E+03 E0= -.20117320E+03  d E =0.924236E-04
       N       E                     dE             d eps       ncg     rms          rms(c)
DAV:   1    -0.203784707289E+03   -0.11561E-04   -0.94637E-03 10952   0.127E-01    0.313E-02
DAV:   2    -0.203784745233E+03   -0.37944E-04   -0.30502E-04 10912   0.552E-02    0.487E-02
DAV:   3    -0.203784740665E+03    0.45677E-05   -0.89071E-05  7820   0.486E-02    0.489E-02
DAV:   4    -0.203784721625E+03    0.19040E-04   -0.51277E-05  6628   0.347E-02    0.197E-02
DAV:   5    -0.203784721887E+03   -0.26152E-06   -0.14321E-05  6876   0.205E-02
 388 F= -.20378472E+03 E0= -.20117327E+03  d E =-.342003E-04
       N       E                     dE             d eps       ncg     rms          rms(c)
DAV:   1    -0.203784664168E+03    0.57457E-04   -0.62802E-03 10944   0.100E-01    0.190E-02
DAV:   2    -0.203784691096E+03   -0.26928E-04   -0.13448E-04  7840   0.371E-02    0.432E-02
DAV:   3    -0.203784677226E+03    0.13870E-04   -0.34811E-05  6892   0.328E-02    0.230E-02
DAV:   4    -0.203784675165E+03    0.20601E-05   -0.14969E-05  6232   0.195E-02
 389 F= -.20378468E+03 E0= -.20117318E+03  d E =0.467212E-04
       N       E                     dE             d eps       ncg     rms          rms(c)
DAV:   1    -0.203784579151E+03    0.98074E-04   -0.12767E-02 10944   0.139E-01    0.254E-02
DAV:   2    -0.203784600813E+03   -0.21662E-04   -0.21191E-04  7720   0.307E-02    0.255E-02
DAV:   3    -0.203784602532E+03   -0.17192E-05   -0.28018E-05  7048   0.310E-02    0.291E-02
DAV:   4    -0.203784604227E+03   -0.16945E-05   -0.32918E-05  6412   0.284E-02
 390 F= -.20378460E+03 E0= -.20117314E+03  d E =0.709388E-04
       N       E                     dE             d eps       ncg     rms          rms(c)
DAV:   1    -0.203784477689E+03    0.12484E-03   -0.19412E-02 10944   0.173E-01    0.352E-02
DAV:   2    -0.203784563229E+03   -0.85541E-04   -0.40800E-04 11300   0.671E-02    0.794E-02
DAV:   3    -0.203784516585E+03    0.46645E-04   -0.13148E-04  9340   0.610E-02    0.437E-02
DAV:   4    -0.203784508994E+03    0.75911E-05   -0.53800E-05  7064   0.372E-02
 391 F= -.20378451E+03 E0= -.20117301E+03  d E =0.952329E-04
       N       E                     dE             d eps       ncg     rms          rms(c)
DAV:   1    -0.203784378017E+03    0.13857E-03   -0.30516E-02 10944   0.216E-01    0.412E-02
DAV:   2    -0.203784435611E+03   -0.57594E-04   -0.53556E-04 10936   0.560E-02    0.459E-02
DAV:   3    -0.203784427595E+03    0.80161E-05   -0.75938E-05  9976   0.505E-02    0.389E-02
DAV:   4    -0.203784440292E+03   -0.12697E-04   -0.75155E-05  6888   0.436E-02    0.534E-02
DAV:   5    -0.203784422534E+03    0.17758E-04   -0.55406E-05  6800   0.381E-02    0.288E-02
DAV:   6    -0.203784415232E+03    0.73018E-05   -0.12970E-05  6360   0.235E-02
 392 F= -.20378442E+03 E0= -.20117296E+03  d E =0.937615E-04
       N       E                     dE             d eps       ncg     rms          rms(c)
DAV:   1    -0.203784290790E+03    0.13174E-03   -0.31977E-02 10944   0.217E-01    0.431E-02
DAV:   2    -0.203784346148E+03   -0.55358E-04   -0.62615E-04 10436   0.406E-02    0.364E-02
DAV:   3    -0.203784346184E+03   -0.36660E-07   -0.55935E-05  8252   0.406E-02    0.377E-02
DAV:   4    -0.203784348597E+03   -0.24129E-05   -0.56662E-05  7300   0.379E-02
 393 F= -.20378435E+03 E0= -.20117290E+03  d E =0.666350E-04
       N       E                     dE             d eps       ncg     rms          rms(c)
DAV:   1    -0.203784236877E+03    0.10931E-03   -0.30030E-02 10944   0.217E-01    0.510E-02
DAV:   2    -0.203784817459E+03   -0.58058E-03   -0.15929E-03 12952   0.161E-01    0.238E-01
DAV:   3    -0.203784293031E+03    0.52443E-03   -0.84187E-04 13108   0.139E-01    0.403E-02
DAV:   4    -0.203784292200E+03    0.83067E-06   -0.74213E-05  9348   0.429E-02
 394 F= -.20378429E+03 E0= -.20117288E+03  d E =0.563969E-04
       N       E                     dE             d eps       ncg     rms          rms(c)
DAV:   1    -0.203784348579E+03   -0.55548E-04   -0.29828E-03 10944   0.756E-02    0.250E-02
DAV:   2    -0.203784415196E+03   -0.66616E-04   -0.20263E-04 11504   0.638E-02    0.745E-02
DAV:   3    -0.203784357475E+03    0.57720E-04   -0.54604E-05  9436   0.506E-02    0.164E-02
DAV:   4    -0.203784360000E+03   -0.25247E-05   -0.15278E-05  6236   0.175E-02
 395 F= -.20378436E+03 E0= -.20117291E+03  d E =-.677997E-04
       N       E                     dE             d eps       ncg     rms          rms(c)
DAV:   1    -0.203784328649E+03    0.28827E-04   -0.59334E-03 10944   0.976E-02    0.282E-02
DAV:   2    -0.203784430958E+03   -0.10231E-03   -0.28204E-04 10536   0.718E-02    0.101E-01
DAV:   3    -0.203784340528E+03    0.90429E-04   -0.17535E-04  8220   0.648E-02    0.309E-02
DAV:   4    -0.203784334550E+03    0.59786E-05   -0.24592E-05  6500   0.266E-02
 396 F= -.20378433E+03 E0= -.20117290E+03  d E =0.254505E-04
