 vasp.6.5.1 10Mar25 (build Apr 25 2025 15:31:43) complex                        
  
 executed on             LinuxIFC date 2025.12.08  14:54:14
 running  384 mpi-ranks, on   16 nodes
 each image running on   48 cores
 distrk:  each k-point on   24 cores,    2 groups
 distr:  one band on NCORE=   6 cores,    4 groups


--------------------------------------------------------------------------------------------------------


 INCAR:
   SYSTEM = PBE-grap
   NWRITE = 0    write-flag
   ISTART = 0    job   : 0-new, 1-cont, 2-samecut
   ICHARG = 2    charge: 0-wave, 1-file, 2-atom, >10-const
   INIWAV = 1    electr: 0-lowe 1-rand  2-diag
   GGA = PE
   PREC = Normal   low | medium | high
   ENCUT = 370
   NELMDL = -5    number of delayed ELM steps
   NELMIN = 4
   NELM = 150    number of ELM steps
   EDIFF = 1E-05    energy stopping-criterion for ELM
   LREAL = AUTO   real-space projection (.FALSE., .TRUE., On, Auto)
   IALGO = 38    algorithm (8\=CG for small, 48\=RMM for big systems)
   LCHARG = .FALSE.
   LVTOT = .FALSE.
   LWAVE = .FALSE.
   NSW = 1000   max number of geometry steps
   EDIFFG = -0.026   force (eV/A) stopping-criterion for geometry steps
   ISIF = 2     (1:force\=y stress\=trace only ions\=y shape\=n volume\=n)
   ISYM = 0     (1-use symmetry, 0-no symmetry)
   ISMEAR = 0    (-1-Fermi, 1-Methfessel/Paxton)
   SIGMA = 0.41   broadening in eV
   IOPT = 3
   TIMESTEP = 0.05
   ICHAIN = 0     turn on NEB
   LCLIMB = .TRUE.
   POTIM = 0
   IBRION = 3
   IMAGES = 8      image number
   SPRING = -5     spring constant between images
   LPLANE = .TRUE.
   NPAR = 4
   KPAR = 2

 POTCAR:    PAW_PBE Pd 04Jan2005                  
 POTCAR:    PAW_PBE C 08Apr2002                   
 POTCAR:    PAW_PBE O 08Apr2002                   
 POTCAR:    PAW_PBE Pd 04Jan2005                  
  local pseudopotential read in
  partial core-charges read in
  partial kinetic energy density read in
  atomic valenz-charges read in
  non local Contribution for L=           2  read in
    real space projection operators read in
  non local Contribution for L=           2  read in
    real space projection operators read in
  non local Contribution for L=           0  read in
    real space projection operators read in
  non local Contribution for L=           0  read in
    real space projection operators read in
  non local Contribution for L=           1  read in
    real space projection operators read in
  non local Contribution for L=           1  read in
    real space projection operators read in
    PAW grid and wavefunctions read in
 
   number of l-projection  operators is LMAX  =           6
   number of lm-projection operators is LMMAX =          18
 
 POTCAR:    PAW_PBE C 08Apr2002                   
  local pseudopotential read in
  partial core-charges read in
  partial kinetic energy density read in
  atomic valenz-charges read in
  non local Contribution for L=           0  read in
    real space projection operators read in
  non local Contribution for L=           0  read in
    real space projection operators read in
  non local Contribution for L=           1  read in
    real space projection operators read in
  non local Contribution for L=           1  read in
    real space projection operators read in
    PAW grid and wavefunctions read in
 
   number of l-projection  operators is LMAX  =           4
   number of lm-projection operators is LMMAX =           8
 
 POTCAR:    PAW_PBE O 08Apr2002                   
  local pseudopotential read in
  partial core-charges read in
  partial kinetic energy density read in
  kinetic energy density of atom read in
  atomic valenz-charges read in
  non local Contribution for L=           0  read in
    real space projection operators read in
  non local Contribution for L=           0  read in
    real space projection operators read in
  non local Contribution for L=           1  read in
    real space projection operators read in
  non local Contribution for L=           1  read in
    real space projection operators read in
    PAW grid and wavefunctions read in
 
   number of l-projection  operators is LMAX  =           4
   number of lm-projection operators is LMMAX =           8
 
 Optimization of the real space projectors (new method)

 maximal supplied QI-value         = 14.36
 optimisation between [QCUT,QGAM] = [  9.77, 19.68] = [ 26.71,108.41] Ry 
 Optimized for a Real-space Cutoff    1.52 Angstroem

   l    n(q)    QCUT    max X(q) W(low)/X(q) W(high)/X(q)  e(spline) 
   2      8     9.766    59.108    0.18E-03    0.12E-03    0.98E-07
   2      8     9.766    58.101    0.18E-03    0.12E-03    0.10E-06
   0      9     9.766   102.235    0.37E-04    0.68E-04    0.73E-07
   0      9     9.766    58.388    0.33E-04    0.64E-04    0.69E-07
   1      8     9.766    22.191    0.23E-03    0.61E-04    0.11E-06
   1      8     9.766    15.590    0.19E-03    0.52E-04    0.93E-07
 Optimization of the real space projectors (new method)

 maximal supplied QI-value         = 25.13
 optimisation between [QCUT,QGAM] = [  9.80, 19.60] = [ 26.90,107.62] Ry 
 Optimized for a Real-space Cutoff    1.35 Angstroem

   l    n(q)    QCUT    max X(q) W(low)/X(q) W(high)/X(q)  e(spline) 
   0      8     9.802   115.676    0.45E-03    0.67E-03    0.24E-06
   0      8     9.802    87.132    0.44E-03    0.67E-03    0.24E-06
   1      7     9.802     4.429    0.38E-03    0.18E-03    0.24E-06
   1      7     9.802     2.733    0.25E-03    0.72E-04    0.26E-06
 Optimization of the real space projectors (new method)

 maximal supplied QI-value         = 24.76
 optimisation between [QCUT,QGAM] = [  9.65, 19.56] = [ 26.10,107.10] Ry 
 Optimized for a Real-space Cutoff    1.44 Angstroem

   l    n(q)    QCUT    max X(q) W(low)/X(q) W(high)/X(q)  e(spline) 
   0      8     9.655    20.381    0.19E-03    0.21E-03    0.36E-06
   0      8     9.655    15.268    0.21E-03    0.24E-03    0.37E-06
   1      8     9.655     5.964    0.43E-03    0.39E-03    0.31E-06
   1      8     9.655     5.382    0.36E-03    0.33E-03    0.28E-06
  PAW_PBE Pd 04Jan2005                  :
 energy of atom  1       EATOM= -809.7530
 kinetic energy error for atom=    0.0177 (will be added to EATOM!!)
  PAW_PBE C 08Apr2002                   :
 energy of atom  2       EATOM= -147.1560
 kinetic energy error for atom=    0.0545 (will be added to EATOM!!)
  PAW_PBE O 08Apr2002                   :
 energy of atom  3       EATOM= -432.3788
 kinetic energy error for atom=    0.2342 (will be added to EATOM!!)
 
 
 POSCAR: Pd  C  O
  positions in direct lattice
  velocities in cartesian coordinates


 exchange-correlation table for PE
   RHO(1)=    0.500       N(1)  =     2000
   RHO(2)=  100.500       N(2)  =     4000

 VTST: version 4.2, (11/09/24)

 CHAIN: initializing optimizer
 
 OPT: Using Quick-Min optimizer
 OPT: QM, Init
 OPT: QM, MAXMOVE       0.200000
 OPT: QM, TIMESTEP      0.050000
 
 CHAIN: Read ICHAIN            0
 CHAIN: Running the NEB
 NEB:          SPRING     -5.000000
 NEB:          LCLIMB      T
 NEB:     LTANGENTOLD      F
 NEB:           LDNEB      F
 NEB:        LDNEBORG      F
 NEB:        LNEBCELL      F
 NEB:          EFIRST      0.000000
 NEB:           ELAST      0.000000
 
 POSCAR: Pd  C  O
  positions in cartesian coordinates
  No initial velocities read in
 
 POSCAR: Pd  C  O
  positions in cartesian coordinates
  No initial velocities read in
 
 POSCAR: Pd  C  O
  positions in cartesian coordinates
  No initial velocities read in
 
 POSCAR: Pd  C  O
  positions in cartesian coordinates
  No initial velocities read in
 


--------------------------------------------------------------------------------------------------------


 ion  position               nearest neighbor table
   1  0.999  0.999  0.439-  25 2.76  19 2.77   4 2.77  13 2.77   7 2.77  10 2.78   3 2.80  27 2.81
                             9 2.81
   2  0.111  0.223  0.160-  31 2.77  32 2.77  28 2.77   5 2.77   8 2.77  26 2.77  20 2.77  14 2.77
                            11 2.77   9 2.79  12 2.80   3 2.81
   3  0.222  0.113  0.300-  15 2.75  12 2.76   9 2.77   6 2.77  27 2.77  21 2.78   4 2.80   1 2.80
                             2 2.81   5 2.81  20 2.81  13 2.86
   4  0.332  1.000  0.439-  16 2.77  22 2.77   1 2.77   7 2.77  13 2.77  19 2.77   3 2.80  21 2.81
                             6 2.82
   5  0.444  0.223  0.160-  32 2.77  29 2.77  33 2.77   2 2.77  20 2.77  23 2.77   8 2.77  17 2.77
                            14 2.77   6 2.78  15 2.79   3 2.81
   6  0.554  0.111  0.298-  21 2.76   3 2.77  24 2.77  15 2.77  18 2.77   9 2.78  23 2.78   5 2.78
                            16 2.79   8 2.79   7 2.79   4 2.82
   7  0.665  1.000  0.437-  22 2.76  10 2.76   4 2.77  25 2.77  16 2.77   1 2.77   9 2.79  24 2.79
                             6 2.79
   8  0.778  0.223  0.160-  33 2.77  31 2.77  30 2.77   2 2.77  26 2.77  23 2.77  11 2.77   5 2.77
                            17 2.77  18 2.78   6 2.79   9 2.80
   9  0.889  0.112  0.299-  12 2.77  27 2.77   3 2.77  18 2.77  24 2.77   6 2.78   7 2.79  26 2.79
                             2 2.79   8 2.80  10 2.80   1 2.81
  10  0.997  0.333  0.438-   7 2.76  16 2.76  19 2.77  13 2.77   1 2.78  22 2.79   9 2.80  12 2.81
                            18 2.81
  11  0.111  0.557  0.160-  34 2.77  35 2.77  31 2.77  14 2.77  17 2.77  23 2.77  20 2.77   8 2.77
                             2 2.77  18 2.79  21 2.79  12 2.81
  12  0.222  0.444  0.300-  15 2.75   3 2.76   9 2.77  24 2.77  18 2.77  21 2.78  22 2.79   2 2.80
                            14 2.80  11 2.81  10 2.81  13 2.87
  13  0.331  0.332  0.444-   1 2.77   4 2.77  22 2.77  10 2.77  16 2.78  25 2.78   3 2.86  12 2.87
                            15 2.87
  14  0.444  0.557  0.160-  35 2.77  36 2.77  32 2.77  11 2.77  23 2.77  26 2.77   2 2.77  17 2.77
                             5 2.77  24 2.78  15 2.80  12 2.80
  15  0.553  0.444  0.299-   3 2.75  12 2.75  24 2.77   6 2.77  25 2.78  16 2.78  18 2.78  27 2.78
                             5 2.79  14 2.80  17 2.81  13 2.87
  16  0.665  0.333  0.436-  10 2.76   4 2.77  25 2.77  19 2.77   7 2.77  13 2.78  15 2.78   6 2.79
                            18 2.79
  17  0.778  0.557  0.160-  36 2.77  34 2.77  33 2.77  11 2.77  26 2.77  20 2.77  14 2.77   8 2.77
                             5 2.77  27 2.78  18 2.79  15 2.81
  18  0.888  0.444  0.298-   9 2.77   6 2.77  12 2.77  21 2.77  27 2.78   8 2.78  19 2.78  15 2.78
                            17 2.79  11 2.79  16 2.79  10 2.81
  19  0.998  0.666  0.436-   1 2.77  25 2.77  10 2.77  16 2.77   4 2.77  22 2.78  18 2.78  21 2.79
                            27 2.79
  20  0.111  0.890  0.160-  29 2.77  28 2.77  34 2.77  23 2.77  26 2.77  11 2.77  17 2.77   5 2.77
                             2 2.77  27 2.79  21 2.79   3 2.81
  21  0.222  0.778  0.299-   6 2.76  24 2.77  27 2.77  18 2.77  12 2.78   3 2.78  19 2.79  11 2.79
                            23 2.79  20 2.79  22 2.80   4 2.81
  22  0.333  0.667  0.438-   7 2.76   4 2.77  25 2.77  13 2.77  19 2.78  10 2.79  12 2.79  21 2.80
                            24 2.80
  23  0.444  0.890  0.160-  29 2.77  35 2.77  30 2.77  20 2.77  11 2.77  14 2.77   5 2.77   8 2.77
                            26 2.77   6 2.78  24 2.78  21 2.79
  24  0.554  0.778  0.298-  21 2.77  15 2.77  12 2.77   6 2.77  27 2.77   9 2.77  14 2.78  23 2.78
                            26 2.79   7 2.79  25 2.79  22 2.80
  25  0.666  0.666  0.436-   1 2.76  19 2.77  22 2.77  16 2.77   7 2.77  15 2.78  13 2.78  27 2.79
                            24 2.79
  26  0.778  0.890  0.160-  28 2.77  30 2.77  36 2.77  20 2.77  17 2.77   8 2.77   2 2.77  14 2.77
                            23 2.77  27 2.78  24 2.79   9 2.79
  27  0.888  0.779  0.298-   9 2.77  24 2.77  21 2.77   3 2.77  18 2.78  26 2.78  17 2.78  15 2.78
                            20 2.79  19 2.79  25 2.79   1 2.81
  28  1.000  0.001  0.023-  26 2.77  20 2.77   2 2.77  30 2.77  29 2.77  31 2.77  32 2.77  36 2.77
                            34 2.77
  29  0.333  0.001  0.023-  20 2.77  23 2.77   5 2.77  28 2.77  32 2.77  34 2.77  35 2.77  33 2.77
                            30 2.77
  30  0.666  0.001  0.023-  26 2.77   8 2.77  23 2.77  28 2.77  31 2.77  33 2.77  36 2.77  35 2.77
                            29 2.77
  31  1.000  0.334  0.023-   2 2.77   8 2.77  11 2.77  33 2.77  32 2.77  28 2.77  30 2.77  35 2.77
                            34 2.77
  32  0.333  0.334  0.023-   5 2.77   2 2.77  14 2.77  31 2.77  29 2.77  28 2.77  33 2.77  35 2.77
                            36 2.77
  33  0.666  0.334  0.023-   8 2.77   5 2.77  17 2.77  31 2.77  30 2.77  29 2.77  34 2.77  32 2.77
                            36 2.77
  34  1.000  0.668  0.023-  11 2.77  17 2.77  20 2.77  36 2.77  35 2.77  28 2.77  29 2.77  33 2.77
                            31 2.77
  35  0.333  0.668  0.023-  14 2.77  11 2.77  23 2.77  34 2.77  29 2.77  30 2.77  31 2.77  36 2.77
                            32 2.77
  36  0.666  0.668  0.023-  17 2.77  26 2.77  14 2.77  34 2.77  28 2.77  30 2.77  35 2.77  32 2.77
                            33 2.77
  37  0.230  0.161  0.631-  38 1.17  39 1.18
  38  0.240  0.303  0.613-  37 1.17
  39  0.218  0.025  0.659-  37 1.18
 

IMPORTANT INFORMATION: All symmetrisations will be switched off!
NOSYMM: (Re-)initialisation of all symmetry stuff for point group C_1.


----------------------------------------------------------------------------------------

                                     Primitive cell                                     

  volume of cell :     988.1533

  direct lattice vectors                    reciprocal lattice vectors
     8.309900284  0.000000000  0.000000000     0.120338387  0.069477400  0.000000000
    -4.154950142  7.196584749  0.000000000     0.000000000  0.138954801  0.000000000
     0.000000000  0.000000000 16.523500443     0.000000000  0.000000000  0.060519864

  length of vectors
     8.309900284  8.309900284 16.523500443     0.138954801  0.138954801  0.060519864

  position of ions in fractional coordinates (direct lattice)
     0.998615815  0.998760963  0.438698901
     0.110930000  0.223300000  0.160240000
     0.221886443  0.112580282  0.299899279
     0.332241278  0.999681086  0.438600429
     0.444260000  0.223300000  0.160240000
     0.554243127  0.111178581  0.298230599
     0.665386871  0.999619468  0.436622504
     0.777600000  0.223300000  0.160240000
     0.888527061  0.111655426  0.298883543
     0.997277202  0.332540959  0.438440385
     0.110930000  0.556640000  0.160240000
     0.221523306  0.444246158  0.299522859
     0.330976613  0.332498738  0.443842068
     0.444260000  0.556640000  0.160240000
     0.552806234  0.443929149  0.299255987
     0.664910266  0.332846742  0.436422130
     0.777600000  0.556640000  0.160240000
     0.888068912  0.444422687  0.298168595
     0.998330866  0.665907898  0.436165112
     0.110930000  0.889970000  0.160240000
     0.221820736  0.778409054  0.298549617
     0.333065737  0.667126918  0.437568518
     0.444260000  0.889970000  0.160240000
     0.554388774  0.777950232  0.298160422
     0.665704723  0.666391071  0.436491606
     0.777600000  0.889970000  0.160240000
     0.888200452  0.778662364  0.298085618
     0.999820000  0.001080000  0.023370000
     0.333150000  0.001080000  0.023370000
     0.666490000  0.001080000  0.023370000
     0.999820000  0.334410000  0.023370000
     0.333150000  0.334410000  0.023370000
     0.666490000  0.334410000  0.023370000
     0.999820000  0.667750000  0.023370000
     0.333150000  0.667750000  0.023370000
     0.666490000  0.667750000  0.023370000
     0.229769725  0.160880779  0.630790704
     0.239775074  0.302546665  0.613175039
     0.218296802  0.025174357  0.658846953

  ion indices of the primitive-cell ions
   primitive index   ion index
                 1           1
                 2           2
                 3           3
                 4           4
                 5           5
                 6           6
                 7           7
                 8           8
                 9           9
                10          10
                11          11
                12          12
                13          13
                14          14
                15          15
                16          16
                17          17
                18          18
                19          19
                20          20
                21          21
                22          22
                23          23
                24          24
                25          25
                26          26
                27          27
                28          28
                29          29
                30          30
                31          31
                32          32
                33          33
                34          34
                35          35
                36          36
                37          37
                38          38
                39          39

----------------------------------------------------------------------------------------

 
 
 KPOINTS: Automatic mesh                          

Automatic generation of k-mesh.
 Grid dimensions read from file:
 generate k-points for:    4    4    1

 Generating k-lattice:

  Cartesian coordinates                     Fractional coordinates (reciprocal lattice)
     0.030084597  0.017369350  0.000000000     0.250000000  0.000000000  0.000000000
     0.000000000  0.034738700  0.000000000     0.000000000  0.250000000  0.000000000
     0.000000000  0.000000000  0.060519864     0.000000000  0.000000000  1.000000000

  Length of vectors
     0.034738700  0.034738700  0.060519864

  Shift w.r.t. Gamma in fractional coordinates (k-lattice)
     0.500000000  0.500000000  0.000000000

 
 Subroutine IBZKPT returns following result:
 ===========================================
 
 Found     24 irreducible k-points:
 
 Following reciprocal coordinates:
            Coordinates               Weight
  0.125000  0.125000  0.000000      2.000000
 -0.125000  0.250000  0.000000      2.000000
 -0.250000  0.125000  0.000000      2.000000
  0.375000  0.125000  0.000000      2.000000
 -0.125000  0.500000  0.000000      2.000000
  0.500000  0.375000  0.000000      2.000000
 -0.375000  0.500000  0.000000      2.000000
  0.125000  0.375000  0.000000      2.000000
  0.500000 -0.125000  0.000000      2.000000
 -0.375000  0.125000  0.000000      2.000000
 -0.125000 -0.250000  0.000000      2.000000
  0.250000 -0.375000  0.000000      2.000000
  0.375000 -0.250000  0.000000      2.000000
  0.125000 -0.375000  0.000000      2.000000
 -0.250000 -0.125000  0.000000      2.000000
 -0.125000  0.125000  0.000000      2.000000
 -0.125000  0.000000  0.000000      2.000000
  0.000000 -0.125000  0.000000      2.000000
  0.375000  0.375000  0.000000      2.000000
 -0.375000 -0.250000  0.000000      2.000000
  0.250000  0.375000  0.000000      2.000000
 -0.375000  0.375000  0.000000      2.000000
 -0.375000  0.000000  0.000000      2.000000
  0.000000 -0.375000  0.000000      2.000000
 
 Following cartesian coordinates:
            Coordinates               Weight
  0.015042  0.026054  0.000000      2.000000
 -0.015042  0.026054  0.000000      2.000000
 -0.030085  0.000000  0.000000      2.000000
  0.045127  0.043423  0.000000      2.000000
 -0.015042  0.060793  0.000000      2.000000
  0.060169  0.086847  0.000000      2.000000
 -0.045127  0.043423  0.000000      2.000000
  0.015042  0.060793  0.000000      2.000000
  0.060169  0.017369  0.000000      2.000000
 -0.045127 -0.008685  0.000000      2.000000
 -0.015042 -0.043423  0.000000      2.000000
  0.030085 -0.034739  0.000000      2.000000
  0.045127 -0.008685  0.000000      2.000000
  0.015042 -0.043423  0.000000      2.000000
 -0.030085 -0.034739  0.000000      2.000000
 -0.015042  0.008685  0.000000      2.000000
 -0.015042 -0.008685  0.000000      2.000000
  0.000000 -0.017369  0.000000      2.000000
  0.045127  0.078162  0.000000      2.000000
 -0.045127 -0.060793  0.000000      2.000000
  0.030085  0.069477  0.000000      2.000000
 -0.045127  0.026054  0.000000      2.000000
 -0.045127 -0.026054  0.000000      2.000000
  0.000000 -0.052108  0.000000      2.000000
 


--------------------------------------------------------------------------------------------------------




 Dimension of arrays:
   k-points           NKPTS =     24   k-points in BZ     NKDIM =     24   number of bands    NBANDS=    228
   number of dos      NEDOS =    301   number of ions     NIONS =     39
   non local maximal  LDIM  =      6   non local SUM 2l+1 LMDIM =     18
   total plane-waves  NPLWV = 128000
   max r-space proj   IRMAX =   1966   max aug-charges    IRDMAX=   6482
   dimension x,y,z NGX =    40 NGY =   40 NGZ =   80
   dimension x,y,z NGXF=    80 NGYF=   80 NGZF=  160
   support grid    NGXF=    80 NGYF=   80 NGZF=  160
   ions per type =              36   1   2
   NGX,Y,Z   is equivalent  to a cutoff of   8.00,  8.00,  8.05 a.u.
   NGXF,Y,Z  is equivalent  to a cutoff of  16.00, 16.00, 16.10 a.u.

 SYSTEM =  PBE-grap                                
 POSCAR =  Pd  C  O                                

 Startparameter for this run:
   NWRITE =      0    write-flag & timer
   PREC   = normal    normal or accurate (medium, high low for compatibility)
   ISTART =      0    job   : 0-new  1-cont  2-samecut
   ICHARG =      2    charge: 1-file 2-atom 10-const
   ISPIN  =      1    spin polarized calculation?
   LNONCOLLINEAR =      F non collinear calculations
   LSORBIT =      F    spin-orbit coupling
   INIWAV =      1    electr: 0-lowe 1-rand  2-diag
   LASPH  =      F    aspherical Exc in radial PAW
 Electronic Relaxation 1
   ENCUT  =  370.0 eV  27.19 Ry    5.21 a.u.  13.03 13.03 25.92*2*pi/ulx,y,z
   ENINI  =  370.0     initial cutoff
   ENAUG  =  644.9 eV  augmentation charge cutoff
   NELM   =    150;   NELMIN=  4; NELMDL= -5     # of ELM steps 
   EDIFF  = 0.1E-04   stopping-criterion for ELM
   LREAL  =      T    real-space projection
   NLSPLINE    = F    spline interpolate recip. space projectors
   LCOMPAT=      F    compatible to vasp.4.4
   GGA_COMPAT  = T    GGA compatible to vasp.4.4-vasp.4.6
   LMAXPAW     = -100 max onsite density
   LMAXMIX     =    2 max onsite mixed and CHGCAR
   VOSKOWN=      0    Vosko Wilk Nusair interpolation
   ROPT   =   -0.00050  -0.00050  -0.00050
 Ionic relaxation
   EDIFFG = -.3E-01   stopping-criterion for IOM
   NSW    =   1000    number of steps for IOM
   NBLOCK =      1;   KBLOCK =   1000    inner block; outer block 
   IBRION =      3    ionic relax: 0-MD 1-quasi-New 2-CG
   NFREE  =      0    steps in history (QN), initial steepest desc. (CG)
   ISIF   =      2    stress and relaxation
   IWAVPR =     11    prediction:  0-non 1-charg 2-wave 3-comb
   ISYM   =      0    0-nonsym 1-usesym 2-fastsym
   LCORR  =      T    Harris-Foulkes like correction to forces

   POTIM  = 0.0000    time-step for ionic-motion
   TEIN   =    0.0    initial temperature
   TEBEG  =    0.0;   TEEND  =   0.0 temperature during run
   SMASS  =  -3.00    Nose mass-parameter (am)
   estimated Nose-frequenzy (Omega)   =  0.10E-29 period in steps = 0.00E+00 mass=  -0.158E-26a.u.
   SCALEE = 1.0000    scale energy and forces
   NPACO  =    256;   APACO  = 10.0  distance and # of slots for P.C.
   PSTRESS=    0.0 pullay stress

  Mass of Ions in am
   POMASS = 106.42 12.01 16.00
  Ionic Valenz
   ZVAL   =  10.00  4.00  6.00
  Atomic Wigner-Seitz radii
   RWIGS  =  -1.00 -1.00 -1.00
  virtual crystal weights 
   VCA    =   1.00  1.00  1.00
   NELECT =     376.0000    total number of electrons
   NUPDOWN=      -1.0000    fix difference up-down

 DOS related values:
   EMIN   =  10.00;   EMAX   =-10.00  energy-range for DOS
   EFERMI =   0.00;   METHOD = LEGACY      
   ISMEAR =     0;   SIGMA  =   0.41  broadening in eV -4-tet -1-fermi 0-gaus
   EFERMI_NEDOS =   21; number of points for ismear=-14 and -15

 Electronic relaxation 2 (details)
   IALGO  =     38    algorithm
   LDIAG  =      T    sub-space diagonalisation (order eigenvalues)
   LSUBROT=      F    optimize rotation matrix (better conditioning)
   LROBUST=      F    robust break criterion during scf (extrapolated energy error)
   ISEARCH=      0    line search for conjugate gradient (0, 1=use gradient)
   TURBO    =      0    0=normal 1=particle mesh
   IRESTART =      0    0=no restart 2=restart with 2 vectors
   NREBOOT  =      0    no. of reboots
   NMIN     =      0    reboot dimension
   EREF     =   0.00    reference energy to select bands
   IMIX   =      4    mixing-type and parameters
     AMIX     =   0.40;   BMIX     =  1.00
     AMIX_MAG =   1.60;   BMIX_MAG =  1.00
     AMIN     =   0.10
     WC   =   100.;   INIMIX=   1;  MIXPRE=   1;  MAXMIX= -45

 Intra band minimization:
   WEIMIN = 0.0010     energy-eigenvalue tresh-hold
   EBREAK =  0.11E-07  absolut break condition
   DEPER  =   0.30     relativ break condition  

   TIME   =   0.40     timestep for ELM

  volume/ion in A,a.u.               =      25.34       170.98
  Fermi-wavevector in a.u.,A,eV,Ry     =   1.186304  2.241790 19.147714  1.407317
  Thomas-Fermi vector in A             =   2.322480
 
 Write flags
   LWAVE        =      F    write WAVECAR
   LDOWNSAMPLE  =      F    k-point downsampling of WAVECAR
   LCHARG       =      F    write CHGCAR
   LVTOT        =      F    write LOCPOT, total local potential
   LVHAR        =      F    write LOCPOT, Hartree potential only
   WRT_POTENTIAL= false  ! write potential to hdf5 file
   LELF         =      F    write electronic localiz. function (ELF)
   LORBIT       =      0    0 simple, 1 ext, 2 COOP (PROOUT), +10 PAW based schemes


 Python interface
   PLUGINS active      =      F    recompile with -DPLUGINS to activate
 
 Dipole corrections
   LMONO      =      F    monopole corrections only (constant potential shift)
   LDIPOL     =      F    correct potential (dipole corrections)
   IDIPOL     =      0    1-x, 2-y, 3-z, 4-all directions 
   EPSILON    =  1.0000000 bulk dielectric constant
   LVACPOTAV  =      F  vacuum potentials using an averaging scheme for the charge density
   VACPOTFLAT =  0.1000000 required flatness to determine vacuum potential
 
Coulomb truncation method
  LTRUNCATE          =      F  Coulomb kernel truncation to be used

 
 Exchange correlation treatment:
   GGA     = PE    functional components
   XC_C    = 1    coefficients multiplying the functional components
   LIBXC   =     F    Libxc                    
   VOSKOWN =     0    Vosko Wilk Nusair interpolation
   LHFCALC =     F    Hartree Fock is set to
   LHFONE  =     F    Hartree Fock one center treatment
   AEXX    =    0.0000 exact exchange contribution

 Parameters of functionals:
   PE:
     No parameter
 
 Van der Waals corrections
   IVDW    =     0    specifies the selected vdW correction

 Linear response parameters
   LEPSILON=     F    determine dielectric tensor
   LRPA    =     F    only Hartree local field effects (RPA)
   LNABLA  =     F    use nabla operator in PAW spheres
   LVEL    =     F    velocity operator in full k-point grid
   CSHIFT  =0.1000    complex shift for real part using Kramers Kronig
   OMEGAMAX=  -1.0    maximum frequency
   DEG_THRESHOLD= 0.2000000E-02 threshold for treating states as degnerate
   RTIME   =   -0.100 relaxation time in fs
  (WPLASMAI=    0.000 imaginary part of plasma frequency in eV, 0.658/RTIME)
   DFIELD  = 0.0000000 0.0000000 0.0000000 field for delta impulse in time
 
  Optional k-point grid parameters
   LKPOINTS_OPT  =     F    use optional k-point grid
   KPOINTS_OPT_MODE=     1    mode for optional k-point grid
 
 Orbital magnetization related:
   ORBITALMAG=     F  switch on orbital magnetization
   LCHIMAG   =     F  perturbation theory with respect to B field
   DQ        =  0.001000  dq finite difference perturbation B field
   LLRAUG    =     F  two centre corrections for induced B field
   LBONE     =     F  B-component reconstruction in AE one-centre
   LVGVCALC  =     T  calculate vGv susceptibility
   LVGVAPPL  =     F  apply vGv susceptibility instead of pGv for G=0

 Random number generation:
   RANDOM_GENERATOR = DEFAULT
   PCG_SEED         = not used


--------------------------------------------------------------------------------------------------------


 quickmin algorithm: (dynamic with friction)
   using selective dynamics as specified on POSCAR
 charge density and potential will be updated during run
 non-spin polarized calculation
 Variant of blocked Davidson
 Davidson routine will perform the subspace rotation
 perform sub-space diagonalisation
    after iterative eigenvector-optimisation
 modified Broyden-mixing scheme, WC =      100.0
 initial mixing is a Kerker type mixing with AMIX =  0.4000 and BMIX =      1.0000
 Hartree-type preconditioning will be used
 using additional bands           40
 real space projection scheme for non local part
 use partial core corrections
 calculate Harris-corrections to forces 
   (improved forces if not selfconsistent)
 use gradient corrections 
 use of overlap-Matrix (Vanderbilt PP)
 Gauss-broadening in eV      SIGMA  =   0.41


--------------------------------------------------------------------------------------------------------


  energy-cutoff  :      370.00
  volume of cell :      988.15
      direct lattice vectors                 reciprocal lattice vectors
     8.309900284  0.000000000  0.000000000     0.120338387  0.069477400  0.000000000
    -4.154950142  7.196584749  0.000000000     0.000000000  0.138954801  0.000000000
     0.000000000  0.000000000 16.523500443     0.000000000  0.000000000  0.060519864

  length of vectors
     8.309900284  8.309900284 16.523500443     0.138954801  0.138954801  0.060519864


 
 k-points in units of 2pi/SCALE and weight: Automatic mesh                          
   0.01504230  0.02605403  0.00000000       0.042
  -0.01504230  0.02605403  0.00000000       0.042
  -0.03008460  0.00000000  0.00000000       0.042
   0.04512690  0.04342338  0.00000000       0.042
  -0.01504230  0.06079273  0.00000000       0.042
   0.06016919  0.08684675  0.00000000       0.042
  -0.04512690  0.04342338  0.00000000       0.042
   0.01504230  0.06079273  0.00000000       0.042
   0.06016919  0.01736935  0.00000000       0.042
  -0.04512690 -0.00868468  0.00000000       0.042
  -0.01504230 -0.04342338  0.00000000       0.042
   0.03008460 -0.03473870  0.00000000       0.042
   0.04512690 -0.00868468  0.00000000       0.042
   0.01504230 -0.04342338  0.00000000       0.042
  -0.03008460 -0.03473870  0.00000000       0.042
  -0.01504230  0.00868468  0.00000000       0.042
  -0.01504230 -0.00868468  0.00000000       0.042
   0.00000000 -0.01736935  0.00000000       0.042
   0.04512690  0.07816208  0.00000000       0.042
  -0.04512690 -0.06079273  0.00000000       0.042
   0.03008460  0.06947740  0.00000000       0.042
  -0.04512690  0.02605403  0.00000000       0.042
  -0.04512690 -0.02605403  0.00000000       0.042
   0.00000000 -0.05210805  0.00000000       0.042
 
 k-points in reciprocal lattice and weights: Automatic mesh                          
   0.12500000  0.12500000  0.00000000       0.042
  -0.12500000  0.25000000  0.00000000       0.042
  -0.25000000  0.12500000  0.00000000       0.042
   0.37500000  0.12500000  0.00000000       0.042
  -0.12500000  0.50000000  0.00000000       0.042
   0.50000000  0.37500000  0.00000000       0.042
  -0.37500000  0.50000000  0.00000000       0.042
   0.12500000  0.37500000  0.00000000       0.042
   0.50000000 -0.12500000  0.00000000       0.042
  -0.37500000  0.12500000  0.00000000       0.042
  -0.12500000 -0.25000000  0.00000000       0.042
   0.25000000 -0.37500000  0.00000000       0.042
   0.37500000 -0.25000000  0.00000000       0.042
   0.12500000 -0.37500000  0.00000000       0.042
  -0.25000000 -0.12500000  0.00000000       0.042
  -0.12500000  0.12500000  0.00000000       0.042
  -0.12500000  0.00000000  0.00000000       0.042
   0.00000000 -0.12500000  0.00000000       0.042
   0.37500000  0.37500000  0.00000000       0.042
  -0.37500000 -0.25000000  0.00000000       0.042
   0.25000000  0.37500000  0.00000000       0.042
  -0.37500000  0.37500000  0.00000000       0.042
  -0.37500000  0.00000000  0.00000000       0.042
   0.00000000 -0.37500000  0.00000000       0.042
 
 position of ions in fractional coordinates (direct lattice) 
   0.99861581  0.99876096  0.43869890
   0.11093000  0.22330000  0.16024000
   0.22188644  0.11258028  0.29989928
   0.33224128  0.99968109  0.43860043
   0.44426000  0.22330000  0.16024000
   0.55424313  0.11117858  0.29823060
   0.66538687  0.99961947  0.43662250
   0.77760000  0.22330000  0.16024000
   0.88852706  0.11165543  0.29888354
   0.99727720  0.33254096  0.43844039
   0.11093000  0.55664000  0.16024000
   0.22152331  0.44424616  0.29952286
   0.33097661  0.33249874  0.44384207
   0.44426000  0.55664000  0.16024000
   0.55280623  0.44392915  0.29925599
   0.66491027  0.33284674  0.43642213
   0.77760000  0.55664000  0.16024000
   0.88806891  0.44442269  0.29816859
   0.99833087  0.66590790  0.43616511
   0.11093000  0.88997000  0.16024000
   0.22182074  0.77840905  0.29854962
   0.33306574  0.66712692  0.43756852
   0.44426000  0.88997000  0.16024000
   0.55438877  0.77795023  0.29816042
   0.66570472  0.66639107  0.43649161
   0.77760000  0.88997000  0.16024000
   0.88820045  0.77866236  0.29808562
   0.99982000  0.00108000  0.02337000
   0.33315000  0.00108000  0.02337000
   0.66649000  0.00108000  0.02337000
   0.99982000  0.33441000  0.02337000
   0.33315000  0.33441000  0.02337000
   0.66649000  0.33441000  0.02337000
   0.99982000  0.66775000  0.02337000
   0.33315000  0.66775000  0.02337000
   0.66649000  0.66775000  0.02337000
   0.22976973  0.16088078  0.63079070
   0.23977507  0.30254667  0.61317504
   0.21829680  0.02517436  0.65884695
 
 position of ions in cartesian coordinates  (Angst):
   4.14859584  7.18766791  7.24884148
  -0.00598313  1.60699737  2.64772571
   1.37608876  0.81019354  4.95538587
  -1.39273318  7.19428966  7.24721439
   2.76395593  1.60699737  2.64772571
   4.14376366  0.80010608  4.92781343
   1.37592950  7.19384622  7.21453213
   5.53397809  1.60699737  2.64772571
   6.91964855  0.80353773  4.93860235
   6.90558300  2.39315919  7.24456990
  -1.39099421  4.00590693  2.64772571
  -0.00498405  3.19705512  4.94916609
   1.36886697  2.39285535  7.33382460
   1.37894485  4.00590693  2.64772571
   2.74926120  3.19477374  4.94475643
   4.14237639  2.39535979  7.21122125
   4.14896701  4.00590693  2.64772571
   5.53321000  3.19832553  4.92678890
   5.52921583  4.79226262  7.20697443
  -2.77596374  6.40474453  2.64772571
  -1.39094262  5.60188673  4.93308473
  -0.00413602  4.80103541  7.23016361
  -0.00602468  6.40474453  2.64772571
   1.37457100  5.59858477  4.92665387
   2.76311819  4.79573982  7.21236925
   2.76399748  6.40474453  2.64772571
   4.14555389  5.60370970  4.92541784
   8.30391716  0.00777231  0.38615421
   2.76395593  0.00777231  0.38615421
   5.53397809  0.00777231  0.38615421
   6.91894762  2.40660991  0.38615421
   1.37898640  2.40660991  0.38615421
   4.14900856  2.40660991  0.38615421
   5.53393654  4.80551947  0.38615421
  -0.00602468  4.80551947  0.38615421
   2.76399748  4.80551947  0.38615421
   1.24091189  1.15779216 10.42287048
   0.73544065  2.17730272 10.13179802
   1.70942646  0.18116939 10.88645792
 


--------------------------------------------------------------------------------------------------------


 k-point     1 :   0.1250 0.1250 0.0000  plane waves:   15951
 k-point     2 :  -0.1250 0.2500 0.0000  plane waves:   15951
 k-point     3 :  -0.2500 0.1250 0.0000  plane waves:   15951
 k-point     4 :   0.3750 0.1250 0.0000  plane waves:   15982
 k-point     5 :  -0.1250 0.5000 0.0000  plane waves:   15982
 k-point     6 :   0.5000 0.3750 0.0000  plane waves:   15982
 k-point     7 :  -0.3750 0.5000 0.0000  plane waves:   15982
 k-point     8 :   0.1250 0.3750 0.0000  plane waves:   15982
 k-point     9 :   0.5000-0.1250 0.0000  plane waves:   15982
 k-point    10 :  -0.3750 0.1250 0.0000  plane waves:   15967
 k-point    11 :  -0.1250-0.2500 0.0000  plane waves:   15967
 k-point    12 :   0.2500-0.3750 0.0000  plane waves:   15967
 k-point    13 :   0.3750-0.2500 0.0000  plane waves:   15967
 k-point    14 :   0.1250-0.3750 0.0000  plane waves:   15967
 k-point    15 :  -0.2500-0.1250 0.0000  plane waves:   15967
 k-point    16 :  -0.1250 0.1250 0.0000  plane waves:   15947
 k-point    17 :  -0.1250 0.0000 0.0000  plane waves:   15947
 k-point    18 :   0.0000-0.1250 0.0000  plane waves:   15947
 k-point    19 :   0.3750 0.3750 0.0000  plane waves:   16001
 k-point    20 :  -0.3750-0.2500 0.0000  plane waves:   16001
 k-point    21 :   0.2500 0.3750 0.0000  plane waves:   16001
 k-point    22 :  -0.3750 0.3750 0.0000  plane waves:   15956
 k-point    23 :  -0.3750 0.0000 0.0000  plane waves:   15956
 k-point    24 :   0.0000-0.3750 0.0000  plane waves:   15956

 maximum and minimum number of plane-waves per node :      2691     2615

 maximum number of plane-waves:     16001
 maximum index in each direction: 
   IXMAX=   13   IYMAX=   13   IZMAX=   25
   IXMIN=  -13   IYMIN=  -13   IZMIN=  -25


 real space projection operators:
  total allocation   :       9686.91 KBytes
  max/ min on nodes  :       1708.92       1430.38


 parallel 3D FFT for wavefunctions:
    minimum data exchange during FFTs selected (reduces bandwidth)
 parallel 3D FFT for charge:
    minimum data exchange during FFTs selected (reduces bandwidth)


 total amount of memory used by VASP MPI-rank0   101481. kBytes
=======================================================================

   base                                    :      30000. kBytes
   nonlr-proj                              :       3354. kBytes
   fftplans                                :       2350. kBytes
   grid                                    :       4208. kBytes
   one-center                              :        108. kBytes
   wavefun                                 :      61461. kBytes
 
     INWAV:  cpu time      0.0000: real time      0.0000
 Broyden mixing: mesh for mixing (old mesh)
   NGX = 27   NGY = 27   NGZ = 51
  (NGX  = 80   NGY  = 80   NGZ  =160)
  gives a total of  37179 points

 initial charge density was supplied:
 charge density of overlapping atoms calculated
 number of electron     376.0000000 magnetization 
 keeping initial charge density in first step


--------------------------------------------------------------------------------------------------------


 Maximum index for non-local projection operator          382
 Maximum index for augmentation-charges          592 (set IRDMAX)


--------------------------------------------------------------------------------------------------------


 First call to EWALD:  gamma=   0.178
 Maximum number of real-space cells   4x   4x   2
 Maximum number of reciprocal cells   2x   2x   4

    FEWALD:  cpu time      0.0085: real time      0.0110


--------------------------------------- Ionic step        1  -------------------------------------------




--------------------------------------- Iteration      1(   1)  ---------------------------------------


    POTLOK:  cpu time      0.0543: real time      0.0557
    SETDIJ:  cpu time      0.0188: real time      0.0194
     EDDAV:  cpu time     14.7850: real time     14.9133
       DOS:  cpu time      0.0342: real time      0.0343
    --------------------------------------------
      LOOP:  cpu time     14.8923: real time     15.0228

 eigenvalue-minimisations  : 10968
 total energy-change (2. order) : 0.2103820E+04  (-0.1522047E+05)
 number of electron     376.0000000 magnetization 
 augmentation part      376.0000000 magnetization 

 Free energy of the ion-electron system (eV)
  ---------------------------------------------------
  alpha Z        PSCENC =       918.22725072
  Ewald energy   TEWEN  =     21141.97657295
  -Hartree energ DENC   =    -53781.62275428
  -exchange      EXHF   =         0.00000000
  -V(xc)+E(xc)   XCENC  =      -993.31888821
  PAW double counting   =     29844.20032359   -27608.36462881
  entropy T*S    EENTRO =        -1.25832989
  eigenvalues    EBANDS =      2422.11743051
  atomic energy  EATOM  =     30161.86332653
  Solvation  Ediel_sol  =         0.00000000
  ---------------------------------------------------
  free energy    TOTEN  =      2103.82030311 eV

  energy without entropy =     2105.07863300  energy(sigma->0) =     2104.44946806


--------------------------------------------------------------------------------------------------------




--------------------------------------- Iteration      1(   2)  ---------------------------------------


     EDDAV:  cpu time     15.9157: real time     16.0144
       DOS:  cpu time      0.0357: real time      0.0358
    --------------------------------------------
      LOOP:  cpu time     15.9514: real time     16.0502

 eigenvalue-minimisations  : 11864
 total energy-change (2. order) :-0.2197986E+04  (-0.2069291E+04)
 number of electron     376.0000000 magnetization 
 augmentation part      376.0000000 magnetization 

 Free energy of the ion-electron system (eV)
  ---------------------------------------------------
  alpha Z        PSCENC =       918.22725072
  Ewald energy   TEWEN  =     21141.97657295
  -Hartree energ DENC   =    -53781.62275428
  -exchange      EXHF   =         0.00000000
  -V(xc)+E(xc)   XCENC  =      -993.31888821
  PAW double counting   =     29844.20032359   -27608.36462881
  entropy T*S    EENTRO =        -3.50659662
  eigenvalues    EBANDS =       226.37934646
  atomic energy  EATOM  =     30161.86332653
  Solvation  Ediel_sol  =         0.00000000
  ---------------------------------------------------
  free energy    TOTEN  =       -94.16604767 eV

  energy without entropy =      -90.65945105  energy(sigma->0) =      -92.41274936


--------------------------------------------------------------------------------------------------------




--------------------------------------- Iteration      1(   3)  ---------------------------------------


     EDDAV:  cpu time     16.3153: real time     16.4131
       DOS:  cpu time      0.0334: real time      0.0336
    --------------------------------------------
      LOOP:  cpu time     16.3488: real time     16.4467

 eigenvalue-minimisations  : 12184
 total energy-change (2. order) :-0.1163890E+03  (-0.1061950E+03)
 number of electron     376.0000000 magnetization 
 augmentation part      376.0000000 magnetization 

 Free energy of the ion-electron system (eV)
  ---------------------------------------------------
  alpha Z        PSCENC =       918.22725072
  Ewald energy   TEWEN  =     21141.97657295
  -Hartree energ DENC   =    -53781.62275428
  -exchange      EXHF   =         0.00000000
  -V(xc)+E(xc)   XCENC  =      -993.31888821
  PAW double counting   =     29844.20032359   -27608.36462881
  entropy T*S    EENTRO =        -5.21841813
  eigenvalues    EBANDS =       111.70213570
  atomic energy  EATOM  =     30161.86332653
  Solvation  Ediel_sol  =         0.00000000
  ---------------------------------------------------
  free energy    TOTEN  =      -210.55507994 eV

  energy without entropy =     -205.33666181  energy(sigma->0) =     -207.94587087


--------------------------------------------------------------------------------------------------------




--------------------------------------- Iteration      1(   4)  ---------------------------------------


     EDDAV:  cpu time     16.6420: real time     16.7466
       DOS:  cpu time      0.0325: real time      0.0326
    --------------------------------------------
      LOOP:  cpu time     16.6745: real time     16.7792

 eigenvalue-minimisations  : 12520
 total energy-change (2. order) :-0.3488669E+01  (-0.3419413E+01)
 number of electron     376.0000000 magnetization 
 augmentation part      376.0000000 magnetization 

 Free energy of the ion-electron system (eV)
  ---------------------------------------------------
  alpha Z        PSCENC =       918.22725072
  Ewald energy   TEWEN  =     21141.97657295
  -Hartree energ DENC   =    -53781.62275428
  -exchange      EXHF   =         0.00000000
  -V(xc)+E(xc)   XCENC  =      -993.31888821
  PAW double counting   =     29844.20032359   -27608.36462881
  entropy T*S    EENTRO =        -5.26336555
  eigenvalues    EBANDS =       108.25841429
  atomic energy  EATOM  =     30161.86332653
  Solvation  Ediel_sol  =         0.00000000
  ---------------------------------------------------
  free energy    TOTEN  =      -214.04374877 eV

  energy without entropy =     -208.78038322  energy(sigma->0) =     -211.41206599


--------------------------------------------------------------------------------------------------------




--------------------------------------- Iteration      1(   5)  ---------------------------------------


     EDDAV:  cpu time     20.4395: real time     20.5638
       DOS:  cpu time      0.0361: real time      0.0363
    CHARGE:  cpu time      0.2674: real time      0.2694
    MIXING:  cpu time      0.0875: real time      0.0888
    --------------------------------------------
      LOOP:  cpu time     20.8307: real time     20.9582

 eigenvalue-minimisations  : 16056
 total energy-change (2. order) :-0.1613079E+00  (-0.1602900E+00)
 number of electron     375.9999989 magnetization 
 augmentation part      146.9851763 magnetization 

 Broyden mixing:
  rms(total) = 0.39437E+01    rms(broyden)= 0.39429E+01
  rms(prec ) = 0.40975E+01
  weight for this iteration     100.00

 Free energy of the ion-electron system (eV)
  ---------------------------------------------------
  alpha Z        PSCENC =       918.22725072
  Ewald energy   TEWEN  =     21141.97657295
  -Hartree energ DENC   =    -53781.62275428
  -exchange      EXHF   =         0.00000000
  -V(xc)+E(xc)   XCENC  =      -993.31888821
  PAW double counting   =     29844.20032359   -27608.36462881
  entropy T*S    EENTRO =        -5.26364072
  eigenvalues    EBANDS =       108.09738160
  atomic energy  EATOM  =     30161.86332653
  Solvation  Ediel_sol  =         0.00000000
  ---------------------------------------------------
  free energy    TOTEN  =      -214.20505663 eV

  energy without entropy =     -208.94141590  energy(sigma->0) =     -211.57323626


--------------------------------------------------------------------------------------------------------




--------------------------------------- Iteration      1(   6)  ---------------------------------------


    POTLOK:  cpu time      0.0540: real time      0.0564
    SETDIJ:  cpu time      0.0159: real time      0.0160
     EDDAV:  cpu time     15.7895: real time     15.8806
       DOS:  cpu time      0.0322: real time      0.0323
    CHARGE:  cpu time      0.2647: real time      0.2657
    MIXING:  cpu time      0.0879: real time      0.0899
    --------------------------------------------
      LOOP:  cpu time     16.2441: real time     16.3410

 eigenvalue-minimisations  : 11696
 total energy-change (2. order) : 0.9474818E+01  (-0.3262679E+01)
 number of electron     375.9999988 magnetization 
 augmentation part      152.5397287 magnetization 

 Broyden mixing:
  rms(total) = 0.19518E+01    rms(broyden)= 0.19517E+01
  rms(prec ) = 0.19846E+01
  weight for this iteration     100.00

 eigenvalues of (default mixing * dielectric matrix)
  average eigenvalue GAMMA=   1.4933
  1.4933

 Free energy of the ion-electron system (eV)
  ---------------------------------------------------
  alpha Z        PSCENC =       918.22725072
  Ewald energy   TEWEN  =     21141.97657295
  -Hartree energ DENC   =    -53627.95105253
  -exchange      EXHF   =         0.00000000
  -V(xc)+E(xc)   XCENC  =      -999.05621490
  PAW double counting   =     32021.40518891   -29828.83305053
  entropy T*S    EENTRO =        -5.19537906
  eigenvalues    EBANDS =        12.83311946
  atomic energy  EATOM  =     30161.86332653
  Solvation  Ediel_sol  =         0.00000000
  ---------------------------------------------------
  free energy    TOTEN  =      -204.73023846 eV

  energy without entropy =     -199.53485941  energy(sigma->0) =     -202.13254893


--------------------------------------------------------------------------------------------------------




--------------------------------------- Iteration      1(   7)  ---------------------------------------


    POTLOK:  cpu time      0.0530: real time      0.0533
    SETDIJ:  cpu time      0.0157: real time      0.0157
     EDDAV:  cpu time     15.9973: real time     16.0932
       DOS:  cpu time      0.0312: real time      0.0313
    CHARGE:  cpu time      0.2642: real time      0.2653
    MIXING:  cpu time      0.0880: real time      0.0896
    --------------------------------------------
      LOOP:  cpu time     16.4495: real time     16.5484

 eigenvalue-minimisations  : 11968
 total energy-change (2. order) :-0.3470607E+01  (-0.7640786E+00)
 number of electron     375.9999996 magnetization 
 augmentation part      152.7605869 magnetization 

 Broyden mixing:
  rms(total) = 0.22209E+01    rms(broyden)= 0.22207E+01
  rms(prec ) = 0.30715E+01
  weight for this iteration     100.00

 eigenvalues of (default mixing * dielectric matrix)
  average eigenvalue GAMMA=   0.9796
  1.6471  0.3122

 Free energy of the ion-electron system (eV)
  ---------------------------------------------------
  alpha Z        PSCENC =       918.22725072
  Ewald energy   TEWEN  =     21141.97657295
  -Hartree energ DENC   =    -53623.63995609
  -exchange      EXHF   =         0.00000000
  -V(xc)+E(xc)   XCENC  =      -999.42133435
  PAW double counting   =     33902.28053685   -31732.01458634
  entropy T*S    EENTRO =        -4.79632954
  eigenvalues    EBANDS =        27.32367412
  atomic energy  EATOM  =     30161.86332653
  Solvation  Ediel_sol  =         0.00000000
  ---------------------------------------------------
  free energy    TOTEN  =      -208.20084516 eV

  energy without entropy =     -203.40451561  energy(sigma->0) =     -205.80268038


--------------------------------------------------------------------------------------------------------




--------------------------------------- Iteration      1(   8)  ---------------------------------------


    POTLOK:  cpu time      0.0528: real time      0.0546
    SETDIJ:  cpu time      0.0168: real time      0.0168
     EDDAV:  cpu time     16.4814: real time     16.5795
       DOS:  cpu time      0.0356: real time      0.0358
    CHARGE:  cpu time      0.2659: real time      0.2670
    MIXING:  cpu time      0.0881: real time      0.0883
    --------------------------------------------
      LOOP:  cpu time     16.9406: real time     17.0419

 eigenvalue-minimisations  : 12508
 total energy-change (2. order) : 0.2606620E+01  (-0.1090340E+01)
 number of electron     375.9999996 magnetization 
 augmentation part      152.6569913 magnetization 

 Broyden mixing:
  rms(total) = 0.12821E+01    rms(broyden)= 0.12818E+01
  rms(prec ) = 0.22016E+01
  weight for this iteration     100.00

 eigenvalues of (default mixing * dielectric matrix)
  average eigenvalue GAMMA=   0.9610
  1.9684  0.7360  0.1787

 Free energy of the ion-electron system (eV)
  ---------------------------------------------------
  alpha Z        PSCENC =       918.22725072
  Ewald energy   TEWEN  =     21141.97657295
  -Hartree energ DENC   =    -53675.75983261
  -exchange      EXHF   =         0.00000000
  -V(xc)+E(xc)   XCENC  =      -999.62665635
  PAW double counting   =     34237.71645792   -32071.24498708
  entropy T*S    EENTRO =        -4.91534985
  eigenvalues    EBANDS =        86.16899247
  atomic energy  EATOM  =     30161.86332653
  Solvation  Ediel_sol  =         0.00000000
  ---------------------------------------------------
  free energy    TOTEN  =      -205.59422530 eV

  energy without entropy =     -200.67887546  energy(sigma->0) =     -203.13655038


--------------------------------------------------------------------------------------------------------




--------------------------------------- Iteration      1(   9)  ---------------------------------------


    POTLOK:  cpu time      0.0525: real time      0.0527
    SETDIJ:  cpu time      0.0163: real time      0.0164
     EDDAV:  cpu time     16.8233: real time     16.9220
       DOS:  cpu time      0.0359: real time      0.0360
    CHARGE:  cpu time      0.2657: real time      0.2668
    MIXING:  cpu time      0.0884: real time      0.0887
    --------------------------------------------
      LOOP:  cpu time     17.2822: real time     17.3826

 eigenvalue-minimisations  : 12932
 total energy-change (2. order) :-0.3534139E+01  (-0.1134886E+01)
 number of electron     375.9999970 magnetization 
 augmentation part      152.4062413 magnetization 

 Broyden mixing:
  rms(total) = 0.18735E+01    rms(broyden)= 0.18733E+01
  rms(prec ) = 0.32515E+01
  weight for this iteration     100.00

 eigenvalues of (default mixing * dielectric matrix)
  average eigenvalue GAMMA=   0.9219
  2.3780  0.9709  0.2237  0.1153

 Free energy of the ion-electron system (eV)
  ---------------------------------------------------
  alpha Z        PSCENC =       918.22725072
  Ewald energy   TEWEN  =     21141.97657295
  -Hartree energ DENC   =    -53690.89109953
  -exchange      EXHF   =         0.00000000
  -V(xc)+E(xc)   XCENC  =      -999.70660477
  PAW double counting   =     34676.07049267   -32514.26196160
  entropy T*S    EENTRO =        -4.54945150
  eigenvalues    EBANDS =       102.14311063
  atomic energy  EATOM  =     30161.86332653
  Solvation  Ediel_sol  =         0.00000000
  ---------------------------------------------------
  free energy    TOTEN  =      -209.12836389 eV

  energy without entropy =     -204.57891239  energy(sigma->0) =     -206.85363814


--------------------------------------------------------------------------------------------------------




--------------------------------------- Iteration      1(  10)  ---------------------------------------


    POTLOK:  cpu time      0.0526: real time      0.0539
    SETDIJ:  cpu time      0.0163: real time      0.0164
     EDDAV:  cpu time     17.1080: real time     17.2080
       DOS:  cpu time      0.0333: real time      0.0334
    CHARGE:  cpu time      0.2647: real time      0.2657
    MIXING:  cpu time      0.0884: real time      0.0887
    --------------------------------------------
      LOOP:  cpu time     17.5633: real time     17.6659

 eigenvalue-minimisations  : 13032
 total energy-change (2. order) : 0.4550448E+01  (-0.5163215E+00)
 number of electron     375.9999990 magnetization 
 augmentation part      152.9303499 magnetization 

 Broyden mixing:
  rms(total) = 0.77842E+00    rms(broyden)= 0.77819E+00
  rms(prec ) = 0.10265E+01
  weight for this iteration     100.00

 eigenvalues of (default mixing * dielectric matrix)
  average eigenvalue GAMMA=   0.7966
  2.4190  0.9926  0.2479  0.2013  0.1220

 Free energy of the ion-electron system (eV)
  ---------------------------------------------------
  alpha Z        PSCENC =       918.22725072
  Ewald energy   TEWEN  =     21141.97657295
  -Hartree energ DENC   =    -53676.54246606
  -exchange      EXHF   =         0.00000000
  -V(xc)+E(xc)   XCENC  =      -999.72984139
  PAW double counting   =     35418.32955172   -33264.47586020
  entropy T*S    EENTRO =        -5.08232059
  eigenvalues    EBANDS =       100.85587032
  atomic energy  EATOM  =     30161.86332653
  Solvation  Ediel_sol  =         0.00000000
  ---------------------------------------------------
  free energy    TOTEN  =      -204.57791600 eV

  energy without entropy =     -199.49559541  energy(sigma->0) =     -202.03675571


--------------------------------------------------------------------------------------------------------




--------------------------------------- Iteration      1(  11)  ---------------------------------------


    POTLOK:  cpu time      0.0528: real time      0.0530
    SETDIJ:  cpu time      0.0158: real time      0.0159
     EDDAV:  cpu time     16.1310: real time     16.2289
       DOS:  cpu time      0.0319: real time      0.0320
    CHARGE:  cpu time      0.2644: real time      0.2655
    MIXING:  cpu time      0.0885: real time      0.0887
    --------------------------------------------
      LOOP:  cpu time     16.5843: real time     16.6839

 eigenvalue-minimisations  : 12320
 total energy-change (2. order) : 0.6668163E+00  (-0.1152982E+00)
 number of electron     375.9999987 magnetization 
 augmentation part      152.9269810 magnetization 

 Broyden mixing:
  rms(total) = 0.14938E+00    rms(broyden)= 0.14903E+00
  rms(prec ) = 0.22990E+00
  weight for this iteration     100.00

 eigenvalues of (default mixing * dielectric matrix)
  average eigenvalue GAMMA=   0.7909
  2.4113  1.0546  0.7070  0.2266  0.2266  0.1194

 Free energy of the ion-electron system (eV)
  ---------------------------------------------------
  alpha Z        PSCENC =       918.22725072
  Ewald energy   TEWEN  =     21141.97657295
  -Hartree energ DENC   =    -53677.74960242
  -exchange      EXHF   =         0.00000000
  -V(xc)+E(xc)   XCENC  =      -999.66703991
  PAW double counting   =     35497.99645337   -33344.58757495
  entropy T*S    EENTRO =        -5.20458288
  eigenvalues    EBANDS =       103.23409689
  atomic energy  EATOM  =     30161.86332653
  Solvation  Ediel_sol  =         0.00000000
  ---------------------------------------------------
  free energy    TOTEN  =      -203.91109970 eV

  energy without entropy =     -198.70651682  energy(sigma->0) =     -201.30880826


--------------------------------------------------------------------------------------------------------




--------------------------------------- Iteration      1(  12)  ---------------------------------------


    POTLOK:  cpu time      0.0529: real time      0.0547
    SETDIJ:  cpu time      0.0159: real time      0.0159
     EDDAV:  cpu time     15.5264: real time     15.6238
       DOS:  cpu time      0.0355: real time      0.0357
    CHARGE:  cpu time      0.2643: real time      0.2654
    MIXING:  cpu time      0.0888: real time      0.0890
    --------------------------------------------
      LOOP:  cpu time     15.9838: real time     16.0845

 eigenvalue-minimisations  : 11804
 total energy-change (2. order) : 0.2976933E-02  (-0.1882570E-01)
 number of electron     375.9999989 magnetization 
 augmentation part      152.7925939 magnetization 

 Broyden mixing:
  rms(total) = 0.11334E+00    rms(broyden)= 0.11329E+00
  rms(prec ) = 0.14933E+00
  weight for this iteration     100.00

 eigenvalues of (default mixing * dielectric matrix)
  average eigenvalue GAMMA=   0.7276
  2.4101  1.0535  0.7048  0.3194  0.2638  0.2220  0.1196

 Free energy of the ion-electron system (eV)
  ---------------------------------------------------
  alpha Z        PSCENC =       918.22725072
  Ewald energy   TEWEN  =     21141.97657295
  -Hartree energ DENC   =    -53688.06426173
  -exchange      EXHF   =         0.00000000
  -V(xc)+E(xc)   XCENC  =      -999.48854994
  PAW double counting   =     35535.91971032   -33381.83207212
  entropy T*S    EENTRO =        -5.22239832
  eigenvalues    EBANDS =       112.71229884
  atomic energy  EATOM  =     30161.86332653
  Solvation  Ediel_sol  =         0.00000000
  ---------------------------------------------------
  free energy    TOTEN  =      -203.90812276 eV

  energy without entropy =     -198.68572444  energy(sigma->0) =     -201.29692360


--------------------------------------------------------------------------------------------------------




--------------------------------------- Iteration      1(  13)  ---------------------------------------


    POTLOK:  cpu time      0.0523: real time      0.0526
    SETDIJ:  cpu time      0.0161: real time      0.0161
     EDDAV:  cpu time     15.3571: real time     15.4539
       DOS:  cpu time      0.0346: real time      0.0347
    CHARGE:  cpu time      0.2643: real time      0.2653
    MIXING:  cpu time      0.0890: real time      0.0893
    --------------------------------------------
      LOOP:  cpu time     15.8133: real time     15.9118

 eigenvalue-minimisations  : 11520
 total energy-change (2. order) : 0.6437747E-02  (-0.3928472E-02)
 number of electron     375.9999989 magnetization 
 augmentation part      152.7849602 magnetization 

 Broyden mixing:
  rms(total) = 0.67405E-01    rms(broyden)= 0.67396E-01
  rms(prec ) = 0.91490E-01
  weight for this iteration     100.00

 eigenvalues of (default mixing * dielectric matrix)
  average eigenvalue GAMMA=   0.7493
  2.3970  0.9240  0.9240  0.9240  0.1195  0.2286  0.2286  0.2484

 Free energy of the ion-electron system (eV)
  ---------------------------------------------------
  alpha Z        PSCENC =       918.22725072
  Ewald energy   TEWEN  =     21141.97657295
  -Hartree energ DENC   =    -53690.94360041
  -exchange      EXHF   =         0.00000000
  -V(xc)+E(xc)   XCENC  =      -999.46997358
  PAW double counting   =     35538.73961017   -33384.52601437
  entropy T*S    EENTRO =        -5.22408081
  eigenvalues    EBANDS =       115.45522378
  atomic energy  EATOM  =     30161.86332653
  Solvation  Ediel_sol  =         0.00000000
  ---------------------------------------------------
  free energy    TOTEN  =      -203.90168502 eV

  energy without entropy =     -198.67760420  energy(sigma->0) =     -201.28964461


--------------------------------------------------------------------------------------------------------




--------------------------------------- Iteration      1(  14)  ---------------------------------------


    POTLOK:  cpu time      0.0525: real time      0.0535
    SETDIJ:  cpu time      0.0163: real time      0.0163
     EDDAV:  cpu time     15.5811: real time     15.6760
       DOS:  cpu time      0.0326: real time      0.0327
    CHARGE:  cpu time      0.2644: real time      0.2654
    MIXING:  cpu time      0.0895: real time      0.0898
    --------------------------------------------
      LOOP:  cpu time     16.0363: real time     16.1339

 eigenvalue-minimisations  : 11820
 total energy-change (2. order) : 0.2766272E-02  (-0.1487567E-02)
 number of electron     375.9999989 magnetization 
 augmentation part      152.7796532 magnetization 

 Broyden mixing:
  rms(total) = 0.61305E-01    rms(broyden)= 0.61297E-01
  rms(prec ) = 0.90388E-01
  weight for this iteration     100.00

 eigenvalues of (default mixing * dielectric matrix)
  average eigenvalue GAMMA=   0.7507
  2.3851  1.1471  1.1471  0.8566  0.4021  0.1195  0.2348  0.2348  0.2292

 Free energy of the ion-electron system (eV)
  ---------------------------------------------------
  alpha Z        PSCENC =       918.22725072
  Ewald energy   TEWEN  =     21141.97657295
  -Hartree energ DENC   =    -53697.24157943
  -exchange      EXHF   =         0.00000000
  -V(xc)+E(xc)   XCENC  =      -999.43526378
  PAW double counting   =     35532.89698214   -33378.40763960
  entropy T*S    EENTRO =        -5.22707188
  eigenvalues    EBANDS =       121.44850361
  atomic energy  EATOM  =     30161.86332653
  Solvation  Ediel_sol  =         0.00000000
  ---------------------------------------------------
  free energy    TOTEN  =      -203.89891874 eV

  energy without entropy =     -198.67184686  energy(sigma->0) =     -201.28538280


--------------------------------------------------------------------------------------------------------




--------------------------------------- Iteration      1(  15)  ---------------------------------------


    POTLOK:  cpu time      0.0526: real time      0.0529
    SETDIJ:  cpu time      0.0158: real time      0.0159
     EDDAV:  cpu time     15.4896: real time     15.5814
       DOS:  cpu time      0.0324: real time      0.0325
    CHARGE:  cpu time      0.2644: real time      0.2655
    MIXING:  cpu time      0.0899: real time      0.0902
    --------------------------------------------
      LOOP:  cpu time     15.9448: real time     16.0384

 eigenvalue-minimisations  : 11724
 total energy-change (2. order) : 0.2872816E-02  (-0.7942288E-03)
 number of electron     375.9999989 magnetization 
 augmentation part      152.7742250 magnetization 

 Broyden mixing:
  rms(total) = 0.48077E-01    rms(broyden)= 0.48072E-01
  rms(prec ) = 0.75121E-01
  weight for this iteration     100.00

 eigenvalues of (default mixing * dielectric matrix)
  average eigenvalue GAMMA=   0.8100
  2.3419  1.8320  1.2089  0.8852  0.7433  0.1195  0.2839  0.2319  0.2319  0.2214

 Free energy of the ion-electron system (eV)
  ---------------------------------------------------
  alpha Z        PSCENC =       918.22725072
  Ewald energy   TEWEN  =     21141.97657295
  -Hartree energ DENC   =    -53702.12089986
  -exchange      EXHF   =         0.00000000
  -V(xc)+E(xc)   XCENC  =      -999.40427285
  PAW double counting   =     35527.07938222   -33372.41769235
  entropy T*S    EENTRO =        -5.22833580
  eigenvalues    EBANDS =       126.12862253
  atomic energy  EATOM  =     30161.86332653
  Solvation  Ediel_sol  =         0.00000000
  ---------------------------------------------------
  free energy    TOTEN  =      -203.89604593 eV

  energy without entropy =     -198.66771013  energy(sigma->0) =     -201.28187803


--------------------------------------------------------------------------------------------------------




--------------------------------------- Iteration      1(  16)  ---------------------------------------


    POTLOK:  cpu time      0.0529: real time      0.0551
    SETDIJ:  cpu time      0.0159: real time      0.0159
     EDDAV:  cpu time     15.5376: real time     15.6315
       DOS:  cpu time      0.0358: real time      0.0359
    CHARGE:  cpu time      0.2651: real time      0.2661
    MIXING:  cpu time      0.0899: real time      0.0902
    --------------------------------------------
      LOOP:  cpu time     15.9971: real time     16.0947

 eigenvalue-minimisations  : 11812
 total energy-change (2. order) : 0.3950616E-02  (-0.7355373E-03)
 number of electron     375.9999989 magnetization 
 augmentation part      152.7637728 magnetization 

 Broyden mixing:
  rms(total) = 0.20101E-01    rms(broyden)= 0.20085E-01
  rms(prec ) = 0.32289E-01
  weight for this iteration     100.00

 eigenvalues of (default mixing * dielectric matrix)
  average eigenvalue GAMMA=   0.7998
  2.3292  2.0905  1.1633  0.8226  0.8226  0.4725  0.1195  0.2990  0.2307  0.2307
  0.2177

 Free energy of the ion-electron system (eV)
  ---------------------------------------------------
  alpha Z        PSCENC =       918.22725072
  Ewald energy   TEWEN  =     21141.97657295
  -Hartree energ DENC   =    -53710.38089694
  -exchange      EXHF   =         0.00000000
  -V(xc)+E(xc)   XCENC  =      -999.34234460
  PAW double counting   =     35517.55342966   -33362.66358968
  entropy T*S    EENTRO =        -5.23205820
  eigenvalues    EBANDS =       134.10621424
  atomic energy  EATOM  =     30161.86332653
  Solvation  Ediel_sol  =         0.00000000
  ---------------------------------------------------
  free energy    TOTEN  =      -203.89209531 eV

  energy without entropy =     -198.66003711  energy(sigma->0) =     -201.27606621


--------------------------------------------------------------------------------------------------------




--------------------------------------- Iteration      1(  17)  ---------------------------------------


    POTLOK:  cpu time      0.0528: real time      0.0530
    SETDIJ:  cpu time      0.0160: real time      0.0161
     EDDAV:  cpu time     15.4352: real time     15.5300
       DOS:  cpu time      0.0331: real time      0.0332
    CHARGE:  cpu time      0.2647: real time      0.2657
    MIXING:  cpu time      0.0903: real time      0.0906
    --------------------------------------------
      LOOP:  cpu time     15.8920: real time     15.9885

 eigenvalue-minimisations  : 11684
 total energy-change (2. order) : 0.2561496E-03  (-0.2394384E-03)
 number of electron     375.9999989 magnetization 
 augmentation part      152.7614866 magnetization 

 Broyden mixing:
  rms(total) = 0.18126E-01    rms(broyden)= 0.18123E-01
  rms(prec ) = 0.26468E-01
  weight for this iteration     100.00

 eigenvalues of (default mixing * dielectric matrix)
  average eigenvalue GAMMA=   0.8491
  2.5428  2.3841  1.0840  1.0840  1.0432  0.6774  0.1195  0.2938  0.2782  0.2316
  0.2316  0.2185

 Free energy of the ion-electron system (eV)
  ---------------------------------------------------
  alpha Z        PSCENC =       918.22725072
  Ewald energy   TEWEN  =     21141.97657295
  -Hartree energ DENC   =    -53713.78067719
  -exchange      EXHF   =         0.00000000
  -V(xc)+E(xc)   XCENC  =      -999.31963148
  PAW double counting   =     35515.87624519   -33360.96356734
  entropy T*S    EENTRO =        -5.23239584
  eigenvalues    EBANDS =       137.46103730
  atomic energy  EATOM  =     30161.86332653
  Solvation  Ediel_sol  =         0.00000000
  ---------------------------------------------------
  free energy    TOTEN  =      -203.89183916 eV

  energy without entropy =     -198.65944332  energy(sigma->0) =     -201.27564124


--------------------------------------------------------------------------------------------------------




--------------------------------------- Iteration      1(  18)  ---------------------------------------


    POTLOK:  cpu time      0.0530: real time      0.0541
    SETDIJ:  cpu time      0.0158: real time      0.0158
     EDDAV:  cpu time     15.3401: real time     15.4319
       DOS:  cpu time      0.0493: real time      0.0494
    CHARGE:  cpu time      0.2654: real time      0.2665
    MIXING:  cpu time      0.0907: real time      0.0909
    --------------------------------------------
      LOOP:  cpu time     15.8142: real time     15.9086

 eigenvalue-minimisations  : 11656
 total energy-change (2. order) :-0.7510492E-04  (-0.1988616E-03)
 number of electron     375.9999989 magnetization 
 augmentation part      152.7584392 magnetization 

 Broyden mixing:
  rms(total) = 0.16261E-01    rms(broyden)= 0.16258E-01
  rms(prec ) = 0.26258E-01
  weight for this iteration     100.00

 eigenvalues of (default mixing * dielectric matrix)
  average eigenvalue GAMMA=   0.8475
  2.7394  2.3983  1.1942  1.1942  1.0023  0.6646  0.4499  0.1195  0.3115  0.2309
  0.2309  0.2182  0.2643

 Free energy of the ion-electron system (eV)
  ---------------------------------------------------
  alpha Z        PSCENC =       918.22725072
  Ewald energy   TEWEN  =     21141.97657295
  -Hartree energ DENC   =    -53720.28558823
  -exchange      EXHF   =         0.00000000
  -V(xc)+E(xc)   XCENC  =      -999.27813803
  PAW double counting   =     35511.10549831   -33356.18245573
  entropy T*S    EENTRO =        -5.23283189
  eigenvalues    EBANDS =       143.91445111
  atomic energy  EATOM  =     30161.86332653
  Solvation  Ediel_sol  =         0.00000000
  ---------------------------------------------------
  free energy    TOTEN  =      -203.89191427 eV

  energy without entropy =     -198.65908238  energy(sigma->0) =     -201.27549832


--------------------------------------------------------------------------------------------------------




--------------------------------------- Iteration      1(  19)  ---------------------------------------


    POTLOK:  cpu time      0.0527: real time      0.0529
    SETDIJ:  cpu time      0.0158: real time      0.0159
     EDDAV:  cpu time     15.5456: real time     15.6369
       DOS:  cpu time      0.0360: real time      0.0361
    CHARGE:  cpu time      0.2645: real time      0.2656
    MIXING:  cpu time      0.0912: real time      0.0914
    --------------------------------------------
      LOOP:  cpu time     16.0058: real time     16.0989

 eigenvalue-minimisations  : 11776
 total energy-change (2. order) :-0.2497376E-03  (-0.9251827E-04)
 number of electron     375.9999989 magnetization 
 augmentation part      152.7575700 magnetization 

 Broyden mixing:
  rms(total) = 0.13059E-01    rms(broyden)= 0.13058E-01
  rms(prec ) = 0.20113E-01
  weight for this iteration     100.00

 eigenvalues of (default mixing * dielectric matrix)
  average eigenvalue GAMMA=   0.8953
  3.0972  2.4572  1.5687  1.3126  0.8903  0.8238  0.7546  0.1195  0.3042  0.2835
  0.2311  0.2311  0.2183  0.2427

 Free energy of the ion-electron system (eV)
  ---------------------------------------------------
  alpha Z        PSCENC =       918.22725072
  Ewald energy   TEWEN  =     21141.97657295
  -Hartree energ DENC   =    -53722.81071956
  -exchange      EXHF   =         0.00000000
  -V(xc)+E(xc)   XCENC  =      -999.26533647
  PAW double counting   =     35507.33652844   -33352.42170699
  entropy T*S    EENTRO =        -5.23251013
  eigenvalues    EBANDS =       146.43443051
  atomic energy  EATOM  =     30161.86332653
  Solvation  Ediel_sol  =         0.00000000
  ---------------------------------------------------
  free energy    TOTEN  =      -203.89216401 eV

  energy without entropy =     -198.65965388  energy(sigma->0) =     -201.27590894


--------------------------------------------------------------------------------------------------------




--------------------------------------- Iteration      1(  20)  ---------------------------------------


    POTLOK:  cpu time      0.0533: real time      0.0546
    SETDIJ:  cpu time      0.0163: real time      0.0164
     EDDAV:  cpu time     15.2262: real time     15.3210
       DOS:  cpu time      0.0363: real time      0.0364
    CHARGE:  cpu time      0.2652: real time      0.2663
    MIXING:  cpu time      0.0914: real time      0.0917
    --------------------------------------------
      LOOP:  cpu time     15.6887: real time     15.7864

 eigenvalue-minimisations  : 11508
 total energy-change (2. order) :-0.2575049E-03  (-0.6886738E-04)
 number of electron     375.9999989 magnetization 
 augmentation part      152.7563670 magnetization 

 Broyden mixing:
  rms(total) = 0.79686E-02    rms(broyden)= 0.79651E-02
  rms(prec ) = 0.11328E-01
  weight for this iteration     100.00

 eigenvalues of (default mixing * dielectric matrix)
  average eigenvalue GAMMA=   0.8833
  3.2073  2.4445  1.8062  1.2320  0.8605  0.8605  0.7497  0.4482  0.1195  0.3241
  0.2796  0.2312  0.2312  0.2181  0.2363

 Free energy of the ion-electron system (eV)
  ---------------------------------------------------
  alpha Z        PSCENC =       918.22725072
  Ewald energy   TEWEN  =     21141.97657295
  -Hartree energ DENC   =    -53725.81834416
  -exchange      EXHF   =         0.00000000
  -V(xc)+E(xc)   XCENC  =      -999.25314143
  PAW double counting   =     35501.13913674   -33346.25516057
  entropy T*S    EENTRO =        -5.23210778
  eigenvalues    EBANDS =       149.46004550
  atomic energy  EATOM  =     30161.86332653
  Solvation  Ediel_sol  =         0.00000000
  ---------------------------------------------------
  free energy    TOTEN  =      -203.89242151 eV

  energy without entropy =     -198.66031373  energy(sigma->0) =     -201.27636762


--------------------------------------------------------------------------------------------------------




--------------------------------------- Iteration      1(  21)  ---------------------------------------


    POTLOK:  cpu time      0.0524: real time      0.0527
    SETDIJ:  cpu time      0.0163: real time      0.0163
     EDDAV:  cpu time     15.7032: real time     15.7999
       DOS:  cpu time      0.0331: real time      0.0332
    CHARGE:  cpu time      0.2653: real time      0.2663
    MIXING:  cpu time      0.0919: real time      0.0921
    --------------------------------------------
      LOOP:  cpu time     16.1620: real time     16.2606

 eigenvalue-minimisations  : 11880
 total energy-change (2. order) :-0.1079957E-03  (-0.2253590E-04)
 number of electron     375.9999989 magnetization 
 augmentation part      152.7568148 magnetization 

 Broyden mixing:
  rms(total) = 0.71431E-02    rms(broyden)= 0.71424E-02
  rms(prec ) = 0.99761E-02
  weight for this iteration     100.00

 eigenvalues of (default mixing * dielectric matrix)
  average eigenvalue GAMMA=   0.9609
  3.7903  2.4375  2.4375  1.1436  1.1436  0.9669  0.8721  0.7196  0.1195  0.3110
  0.2819  0.2311  0.2311  0.2494  0.2172  0.2214

 Free energy of the ion-electron system (eV)
  ---------------------------------------------------
  alpha Z        PSCENC =       918.22725072
  Ewald energy   TEWEN  =     21141.97657295
  -Hartree energ DENC   =    -53726.43635790
  -exchange      EXHF   =         0.00000000
  -V(xc)+E(xc)   XCENC  =      -999.25196169
  PAW double counting   =     35500.40336770   -33345.54473542
  entropy T*S    EENTRO =        -5.23217518
  eigenvalues    EBANDS =       150.10218278
  atomic energy  EATOM  =     30161.86332653
  Solvation  Ediel_sol  =         0.00000000
  ---------------------------------------------------
  free energy    TOTEN  =      -203.89252951 eV

  energy without entropy =     -198.66035432  energy(sigma->0) =     -201.27644192


--------------------------------------------------------------------------------------------------------




--------------------------------------- Iteration      1(  22)  ---------------------------------------


    POTLOK:  cpu time      0.0528: real time      0.0538
    SETDIJ:  cpu time      0.0163: real time      0.0164
     EDDAV:  cpu time     15.0054: real time     15.0939
       DOS:  cpu time      0.0333: real time      0.0334
    CHARGE:  cpu time      0.2653: real time      0.2664
    MIXING:  cpu time      0.0929: real time      0.0932
    --------------------------------------------
      LOOP:  cpu time     15.4660: real time     15.5571

 eigenvalue-minimisations  : 11284
 total energy-change (2. order) :-0.1669232E-03  (-0.1506889E-04)
 number of electron     375.9999989 magnetization 
 augmentation part      152.7569464 magnetization 

 Broyden mixing:
  rms(total) = 0.29423E-02    rms(broyden)= 0.29411E-02
  rms(prec ) = 0.41080E-02
  weight for this iteration     100.00

 eigenvalues of (default mixing * dielectric matrix)
  average eigenvalue GAMMA=   1.0228
  4.7495  2.4602  2.4602  1.3049  1.3049  0.9409  0.8301  0.7647  0.7091  0.1195
  0.3174  0.2825  0.2311  0.2311  0.2453  0.2177  0.2177

 Free energy of the ion-electron system (eV)
  ---------------------------------------------------
  alpha Z        PSCENC =       918.22725072
  Ewald energy   TEWEN  =     21141.97657295
  -Hartree energ DENC   =    -53727.54949093
  -exchange      EXHF   =         0.00000000
  -V(xc)+E(xc)   XCENC  =      -999.25033964
  PAW double counting   =     35499.38059484   -33344.57550755
  entropy T*S    EENTRO =        -5.23252079
  eigenvalues    EBANDS =       151.26741744
  atomic energy  EATOM  =     30161.86332653
  Solvation  Ediel_sol  =         0.00000000
  ---------------------------------------------------
  free energy    TOTEN  =      -203.89269643 eV

  energy without entropy =     -198.66017564  energy(sigma->0) =     -201.27643603


--------------------------------------------------------------------------------------------------------




--------------------------------------- Iteration      1(  23)  ---------------------------------------


    POTLOK:  cpu time      0.0527: real time      0.0530
    SETDIJ:  cpu time      0.0158: real time      0.0159
     EDDAV:  cpu time     13.8154: real time     13.8990
       DOS:  cpu time      0.0331: real time      0.0332
    CHARGE:  cpu time      0.2650: real time      0.2661
    MIXING:  cpu time      0.0932: real time      0.0934
    --------------------------------------------
      LOOP:  cpu time     14.2753: real time     14.3606

 eigenvalue-minimisations  : 10008
 total energy-change (2. order) :-0.1139073E-03  (-0.5005098E-05)
[...]
  0.000000000000000E+000  0.000000000000000E+000  0.000000000000000E+000
   1.00000000000000        1.00000000000000        1.00000000000000     
   1.00000000000000        1.00000000000000        1.00000000000000     
  0.000000000000000E+000  0.000000000000000E+000  0.000000000000000E+000
   1.00000000000000        1.00000000000000        1.00000000000000     
   1.00000000000000        1.00000000000000        1.00000000000000     
  0.000000000000000E+000  0.000000000000000E+000  0.000000000000000E+000
   1.00000000000000        1.00000000000000        1.00000000000000     
   1.00000000000000        1.00000000000000        1.00000000000000     
  0.000000000000000E+000  0.000000000000000E+000  0.000000000000000E+000
   1.00000000000000        1.00000000000000        1.00000000000000     
   1.00000000000000        1.00000000000000        1.00000000000000     
  0.000000000000000E+000  0.000000000000000E+000  0.000000000000000E+000
   1.00000000000000        1.00000000000000        1.00000000000000     
   1.00000000000000        1.00000000000000        1.00000000000000     
  0.000000000000000E+000  0.000000000000000E+000  0.000000000000000E+000
   1.00000000000000        1.00000000000000        1.00000000000000     
   1.00000000000000        1.00000000000000        1.00000000000000     
  0.000000000000000E+000  0.000000000000000E+000  0.000000000000000E+000
   1.00000000000000        1.00000000000000        1.00000000000000     
  0.000000000000000E+000  0.000000000000000E+000  0.000000000000000E+000
  0.000000000000000E+000  0.000000000000000E+000  0.000000000000000E+000
  0.000000000000000E+000  0.000000000000000E+000  0.000000000000000E+000
  0.000000000000000E+000  0.000000000000000E+000  0.000000000000000E+000
  0.000000000000000E+000  0.000000000000000E+000  0.000000000000000E+000
  0.000000000000000E+000  0.000000000000000E+000  0.000000000000000E+000
  0.000000000000000E+000  0.000000000000000E+000  0.000000000000000E+000
  0.000000000000000E+000  0.000000000000000E+000  0.000000000000000E+000
  0.000000000000000E+000  0.000000000000000E+000  0.000000000000000E+000
   1.00000000000000        1.00000000000000        1.00000000000000     
   1.00000000000000        1.00000000000000        1.00000000000000     
   1.00000000000000        1.00000000000000        1.00000000000000     
 NEB: the previous image is higher in energy: T
 NEB: the next image is higher in energy    : F
 NEB: only prev energy greater

 NEB: Tangent
 ----------------------------------------------
     -0.03685      0.00777     -0.13001
      0.00000      0.00000      0.00000
      0.00520     -0.00092     -0.01359
     -0.01253     -0.02420     -0.02622
      0.00000      0.00000      0.00000
      0.00215     -0.00445     -0.00508
     -0.00613     -0.01470     -0.00054
      0.00000      0.00000      0.00000
     -0.00928     -0.00016     -0.01998
      0.00166     -0.01781     -0.00922
      0.00000      0.00000      0.00000
      0.00089     -0.00594     -0.00046
     -0.01414     -0.04661     -0.02328
      0.00000      0.00000      0.00000
      0.01164     -0.00187     -0.02235
     -0.01611     -0.01890      0.00203
      0.00000      0.00000      0.00000
     -0.00310     -0.00246     -0.00215
     -0.00914     -0.00432      0.00087
      0.00000      0.00000      0.00000
      0.00027     -0.00991     -0.00141
     -0.00123     -0.02996      0.00652
      0.00000      0.00000      0.00000
     -0.00161     -0.00781      0.00246
     -0.00997     -0.02546     -0.00154
      0.00000      0.00000      0.00000
     -0.00039     -0.01138     -0.01334
      0.00000      0.00000      0.00000
      0.00000      0.00000      0.00000
      0.00000      0.00000      0.00000
      0.00000      0.00000      0.00000
      0.00000      0.00000      0.00000
      0.00000      0.00000      0.00000
      0.00000      0.00000      0.00000
      0.00000      0.00000      0.00000
      0.00000      0.00000      0.00000
      0.12853      0.28748      0.71244
     -0.05098      0.13965      0.49877
      0.16034      0.09829      0.24366

 NEB: forces: par spring, perp REAL, dneb     0.080010    0.168169    0.000000
 NEB: distance to prev, next image, angle between     1.020975    1.004973  154.211735
 NEB: projections on to tangent (spring, REAL)    -0.080010    0.409070

 stress matrix after NEB project (eV)
    -11.30503     -0.09195      0.05773
     -0.09195    -11.40239     -0.50659
      0.05773     -0.50659      0.63205
 after stress write
 before force*Free
 force:  -2.952570876361325E-003 -2.565671857425948E-004 -7.453985764027431E-003
  0.000000000000000E+000  0.000000000000000E+000  0.000000000000000E+000
 -6.512410516686934E-004  3.725527349631555E-004 -2.863230595767641E-003
  1.477477738345556E-004 -8.406627842030290E-004 -3.957619178720856E-003
  0.000000000000000E+000  0.000000000000000E+000  0.000000000000000E+000
 -3.518846454334886E-004 -1.296246328692574E-005 -9.543732676159171E-004
 -1.878533642799011E-003 -3.502696856494858E-004 -7.129442249977625E-004
  0.000000000000000E+000  0.000000000000000E+000  0.000000000000000E+000
 -1.751878731386093E-003  2.769346503038156E-004 -2.466754699344367E-003
 -8.902335241747958E-004 -5.041951025655373E-004 -3.457689733650599E-004
  0.000000000000000E+000  0.000000000000000E+000  0.000000000000000E+000
  8.622553649817558E-005 -4.110602242698031E-004  5.687425915345148E-004
 -1.461934062269120E-003 -2.605158883614591E-003  2.203711520822254E-003
  0.000000000000000E+000  0.000000000000000E+000  0.000000000000000E+000
 -1.511805282515682E-004 -9.908407082074241E-004 -5.374901786550392E-004
 -7.081804213507363E-004 -9.044026449768349E-004 -7.998802901695421E-004
  0.000000000000000E+000  0.000000000000000E+000  0.000000000000000E+000
 -3.176087626275209E-004 -4.060511532686455E-004 -9.696958956856533E-004
 -9.195619035484445E-004 -1.339762726609084E-003 -2.832391131467308E-003
  0.000000000000000E+000  0.000000000000000E+000  0.000000000000000E+000
  3.060797066660293E-004 -8.512085334270417E-004 -1.526958564626812E-003
 -6.804284767237169E-004 -1.698503196684700E-003 -9.406602051305075E-005
  0.000000000000000E+000  0.000000000000000E+000  0.000000000000000E+000
 -5.893516280415119E-004  5.535714359136636E-005 -4.886909424950272E-004
 -1.862656127180157E-003 -1.582564206045200E-003 -1.691506319796016E-003
  0.000000000000000E+000  0.000000000000000E+000  0.000000000000000E+000
 -1.890517790466244E-004 -1.444231010684616E-003 -2.672427827374917E-003
  0.000000000000000E+000  0.000000000000000E+000  0.000000000000000E+000
  0.000000000000000E+000  0.000000000000000E+000  0.000000000000000E+000
  0.000000000000000E+000  0.000000000000000E+000  0.000000000000000E+000
  0.000000000000000E+000  0.000000000000000E+000  0.000000000000000E+000
  0.000000000000000E+000  0.000000000000000E+000  0.000000000000000E+000
  0.000000000000000E+000  0.000000000000000E+000  0.000000000000000E+000
  0.000000000000000E+000  0.000000000000000E+000  0.000000000000000E+000
  0.000000000000000E+000  0.000000000000000E+000  0.000000000000000E+000
  0.000000000000000E+000  0.000000000000000E+000  0.000000000000000E+000
 -3.618953893278318E-002 -5.764454616729756E-002 -2.793362028145058E-002
  4.065475021505070E-002 -6.482135954877066E-002  1.028666937689287E-002
 -7.970338343402042E-002 -0.123422311856322      -3.954374710695283E-002
 A:    8.30990028380000       0.000000000000000E+000  0.000000000000000E+000
  -4.15495014190000        7.19658474870000       0.000000000000000E+000
  0.000000000000000E+000  0.000000000000000E+000   16.5235004425000     
 B:   0.120338387447258       6.947740038638753E-002  0.000000000000000E+000
  0.000000000000000E+000  0.138954800772775       0.000000000000000E+000
  0.000000000000000E+000  0.000000000000000E+000  6.051986402517384E-002
 force:  -3.731332391749049E-004 -3.565124217969383E-005 -4.511142048845217E-004
  0.000000000000000E+000  0.000000000000000E+000  0.000000000000000E+000
 -5.248530246518783E-005  5.176799106415774E-005 -1.732823263285751E-004
 -4.062733599583660E-005 -1.168141296960183E-004 -2.395145745596064E-004
  0.000000000000000E+000  0.000000000000000E+000  0.000000000000000E+000
 -4.324582905069559E-005 -1.801196503559177E-006 -5.775854038537615E-005
 -2.503955365329389E-004 -4.867165438616684E-005 -4.314728755439753E-005
  0.000000000000000E+000  0.000000000000000E+000  0.000000000000000E+000
 -1.915775619581273E-004  3.848139916004482E-005 -1.492876589877797E-004
 -1.421594317644857E-004 -7.006033002760311E-005 -2.092589125217738E-005
  0.000000000000000E+000  0.000000000000000E+000  0.000000000000000E+000
 -1.818315376554626E-005 -5.711879156902272E-005  3.442022430499383E-005
 -3.569264544347298E-004 -3.619993336540906E-004  1.333683215908719E-004
  0.000000000000000E+000  0.000000000000000E+000  0.000000000000000E+000
 -8.703385758647727E-005 -1.376820732065180E-004 -3.252883252706937E-005
 -1.480568346026305E-004 -1.256710893511269E-004 -4.840864639747729E-005
  0.000000000000000E+000  0.000000000000000E+000  0.000000000000000E+000
 -6.643190488671477E-005 -5.642275710600019E-005 -5.868586375266490E-005
 -2.037418280103280E-004 -1.861664627587551E-004 -1.714159261425098E-004
  0.000000000000000E+000  0.000000000000000E+000  0.000000000000000E+000
 -2.230661775870073E-005 -1.182795121784406E-004 -9.241132470328926E-005
 -1.998892523157480E-004 -2.360151733072441E-004 -5.692862770839045E-006
  0.000000000000000E+000  0.000000000000000E+000  0.000000000000000E+000
 -6.707555412838739E-005  7.692140859088213E-006 -2.957550939013310E-005
 -3.341014816941819E-004 -2.199048939611357E-004 -1.023697324717771E-004
  0.000000000000000E+000  0.000000000000000E+000  0.000000000000000E+000
 -1.230916024142782E-004 -2.006828323595443E-004 -1.617349687298207E-004
  0.000000000000000E+000  0.000000000000000E+000  0.000000000000000E+000
  0.000000000000000E+000  0.000000000000000E+000  0.000000000000000E+000
  0.000000000000000E+000  0.000000000000000E+000  0.000000000000000E+000
  0.000000000000000E+000  0.000000000000000E+000  0.000000000000000E+000
  0.000000000000000E+000  0.000000000000000E+000  0.000000000000000E+000
  0.000000000000000E+000  0.000000000000000E+000  0.000000000000000E+000
  0.000000000000000E+000  0.000000000000000E+000  0.000000000000000E+000
  0.000000000000000E+000  0.000000000000000E+000  0.000000000000000E+000
  0.000000000000000E+000  0.000000000000000E+000  0.000000000000000E+000
 -8.359983971787808E-003 -8.009986428313867E-003 -1.690538901164227E-003
  3.887075319903245E-004 -9.007239101919848E-003  6.225478319614762E-004
 -1.816643801399572E-002 -1.715012275491048E-002 -2.393182197958647E-003
 Free:    1.00000000000000        1.00000000000000        1.00000000000000     
  0.000000000000000E+000  0.000000000000000E+000  0.000000000000000E+000
   1.00000000000000        1.00000000000000        1.00000000000000     
   1.00000000000000        1.00000000000000        1.00000000000000     
  0.000000000000000E+000  0.000000000000000E+000  0.000000000000000E+000
   1.00000000000000        1.00000000000000        1.00000000000000     
   1.00000000000000        1.00000000000000        1.00000000000000     
  0.000000000000000E+000  0.000000000000000E+000  0.000000000000000E+000
   1.00000000000000        1.00000000000000        1.00000000000000     
   1.00000000000000        1.00000000000000        1.00000000000000     
  0.000000000000000E+000  0.000000000000000E+000  0.000000000000000E+000
   1.00000000000000        1.00000000000000        1.00000000000000     
   1.00000000000000        1.00000000000000        1.00000000000000     
  0.000000000000000E+000  0.000000000000000E+000  0.000000000000000E+000
   1.00000000000000        1.00000000000000        1.00000000000000     
   1.00000000000000        1.00000000000000        1.00000000000000     
  0.000000000000000E+000  0.000000000000000E+000  0.000000000000000E+000
   1.00000000000000        1.00000000000000        1.00000000000000     
   1.00000000000000        1.00000000000000        1.00000000000000     
  0.000000000000000E+000  0.000000000000000E+000  0.000000000000000E+000
   1.00000000000000        1.00000000000000        1.00000000000000     
   1.00000000000000        1.00000000000000        1.00000000000000     
  0.000000000000000E+000  0.000000000000000E+000  0.000000000000000E+000
   1.00000000000000        1.00000000000000        1.00000000000000     
   1.00000000000000        1.00000000000000        1.00000000000000     
  0.000000000000000E+000  0.000000000000000E+000  0.000000000000000E+000
   1.00000000000000        1.00000000000000        1.00000000000000     
  0.000000000000000E+000  0.000000000000000E+000  0.000000000000000E+000
  0.000000000000000E+000  0.000000000000000E+000  0.000000000000000E+000
  0.000000000000000E+000  0.000000000000000E+000  0.000000000000000E+000
  0.000000000000000E+000  0.000000000000000E+000  0.000000000000000E+000
  0.000000000000000E+000  0.000000000000000E+000  0.000000000000000E+000
  0.000000000000000E+000  0.000000000000000E+000  0.000000000000000E+000
  0.000000000000000E+000  0.000000000000000E+000  0.000000000000000E+000
  0.000000000000000E+000  0.000000000000000E+000  0.000000000000000E+000
  0.000000000000000E+000  0.000000000000000E+000  0.000000000000000E+000
   1.00000000000000        1.00000000000000        1.00000000000000     
   1.00000000000000        1.00000000000000        1.00000000000000     
   1.00000000000000        1.00000000000000        1.00000000000000     
 force:  -3.731332391749049E-004 -3.565124217969383E-005 -4.511142048845217E-004
  0.000000000000000E+000  0.000000000000000E+000  0.000000000000000E+000
 -5.248530246518783E-005  5.176799106415774E-005 -1.732823263285751E-004
 -4.062733599583660E-005 -1.168141296960183E-004 -2.395145745596064E-004
  0.000000000000000E+000  0.000000000000000E+000  0.000000000000000E+000
 -4.324582905069559E-005 -1.801196503559177E-006 -5.775854038537615E-005
 -2.503955365329389E-004 -4.867165438616684E-005 -4.314728755439753E-005
  0.000000000000000E+000  0.000000000000000E+000  0.000000000000000E+000
 -1.915775619581273E-004  3.848139916004482E-005 -1.492876589877797E-004
 -1.421594317644857E-004 -7.006033002760311E-005 -2.092589125217738E-005
  0.000000000000000E+000  0.000000000000000E+000  0.000000000000000E+000
 -1.818315376554626E-005 -5.711879156902272E-005  3.442022430499383E-005
 -3.569264544347298E-004 -3.619993336540906E-004  1.333683215908719E-004
  0.000000000000000E+000  0.000000000000000E+000  0.000000000000000E+000
 -8.703385758647727E-005 -1.376820732065180E-004 -3.252883252706937E-005
 -1.480568346026305E-004 -1.256710893511269E-004 -4.840864639747729E-005
  0.000000000000000E+000  0.000000000000000E+000  0.000000000000000E+000
 -6.643190488671477E-005 -5.642275710600019E-005 -5.868586375266490E-005
 -2.037418280103280E-004 -1.861664627587551E-004 -1.714159261425098E-004
  0.000000000000000E+000  0.000000000000000E+000  0.000000000000000E+000
 -2.230661775870073E-005 -1.182795121784406E-004 -9.241132470328926E-005
 -1.998892523157480E-004 -2.360151733072441E-004 -5.692862770839045E-006
  0.000000000000000E+000  0.000000000000000E+000  0.000000000000000E+000
 -6.707555412838739E-005  7.692140859088213E-006 -2.957550939013310E-005
 -3.341014816941819E-004 -2.199048939611357E-004 -1.023697324717771E-004
  0.000000000000000E+000  0.000000000000000E+000  0.000000000000000E+000
 -1.230916024142782E-004 -2.006828323595443E-004 -1.617349687298207E-004
  0.000000000000000E+000  0.000000000000000E+000  0.000000000000000E+000
  0.000000000000000E+000  0.000000000000000E+000  0.000000000000000E+000
  0.000000000000000E+000  0.000000000000000E+000  0.000000000000000E+000
  0.000000000000000E+000  0.000000000000000E+000  0.000000000000000E+000
  0.000000000000000E+000  0.000000000000000E+000  0.000000000000000E+000
  0.000000000000000E+000  0.000000000000000E+000  0.000000000000000E+000
  0.000000000000000E+000  0.000000000000000E+000  0.000000000000000E+000
  0.000000000000000E+000  0.000000000000000E+000  0.000000000000000E+000
  0.000000000000000E+000  0.000000000000000E+000  0.000000000000000E+000
 -8.359983971787808E-003 -8.009986428313867E-003 -1.690538901164227E-003
  3.887075319903245E-004 -9.007239101919848E-003  6.225478319614762E-004
 -1.816643801399572E-002 -1.715012275491048E-002 -2.393182197958647E-003
 after force*Free
 -2.952570876361325E-003 -2.565671857425948E-004 -7.453985764027431E-003
  0.000000000000000E+000  0.000000000000000E+000  0.000000000000000E+000
 -6.512410516686933E-004  3.725527349631555E-004 -2.863230595767640E-003
  1.477477738345556E-004 -8.406627842030288E-004 -3.957619178720855E-003
  0.000000000000000E+000  0.000000000000000E+000  0.000000000000000E+000
 -3.518846454334886E-004 -1.296246328692574E-005 -9.543732676159170E-004
 -1.878533642799011E-003 -3.502696856494858E-004 -7.129442249977624E-004
  0.000000000000000E+000  0.000000000000000E+000  0.000000000000000E+000
 -1.751878731386093E-003  2.769346503038156E-004 -2.466754699344367E-003
 -8.902335241747956E-004 -5.041951025655373E-004 -3.457689733650598E-004
  0.000000000000000E+000  0.000000000000000E+000  0.000000000000000E+000
  8.622553649817558E-005 -4.110602242698031E-004  5.687425915345148E-004
 -1.461934062269120E-003 -2.605158883614591E-003  2.203711520822254E-003
  0.000000000000000E+000  0.000000000000000E+000  0.000000000000000E+000
 -1.511805282515682E-004 -9.908407082074241E-004 -5.374901786550392E-004
 -7.081804213507363E-004 -9.044026449768347E-004 -7.998802901695420E-004
  0.000000000000000E+000  0.000000000000000E+000  0.000000000000000E+000
 -3.176087626275210E-004 -4.060511532686455E-004 -9.696958956856533E-004
 -9.195619035484443E-004 -1.339762726609084E-003 -2.832391131467308E-003
  0.000000000000000E+000  0.000000000000000E+000  0.000000000000000E+000
  3.060797066660292E-004 -8.512085334270417E-004 -1.526958564626811E-003
 -6.804284767237168E-004 -1.698503196684700E-003 -9.406602051305075E-005
  0.000000000000000E+000  0.000000000000000E+000  0.000000000000000E+000
 -5.893516280415119E-004  5.535714359136636E-005 -4.886909424950272E-004
 -1.862656127180157E-003 -1.582564206045200E-003 -1.691506319796016E-003
  0.000000000000000E+000  0.000000000000000E+000  0.000000000000000E+000
 -1.890517790466243E-004 -1.444231010684616E-003 -2.672427827374917E-003
  0.000000000000000E+000  0.000000000000000E+000  0.000000000000000E+000
  0.000000000000000E+000  0.000000000000000E+000  0.000000000000000E+000
  0.000000000000000E+000  0.000000000000000E+000  0.000000000000000E+000
  0.000000000000000E+000  0.000000000000000E+000  0.000000000000000E+000
  0.000000000000000E+000  0.000000000000000E+000  0.000000000000000E+000
  0.000000000000000E+000  0.000000000000000E+000  0.000000000000000E+000
  0.000000000000000E+000  0.000000000000000E+000  0.000000000000000E+000
  0.000000000000000E+000  0.000000000000000E+000  0.000000000000000E+000
  0.000000000000000E+000  0.000000000000000E+000  0.000000000000000E+000
 -3.618953893278318E-002 -5.764454616729756E-002 -2.793362028145057E-002
  4.065475021505070E-002 -6.482135954877066E-002  1.028666937689287E-002
 -7.970338343402043E-002 -0.123422311856322      -3.954374710695283E-002
 before force check
 after force check
 before ML stuff 
  FORCES: max atom, RMS     0.152149    0.029821
  FORCE total and by dimension    0.186232    0.123422
 into some ML stuff
  Stress total and by dimension   16.085848   11.402387
 
 OPT: Flag T
 OPT: QM Step
 another before ML stuff


--------------------------------------------------------------------------------------------------------


      MLFF:  cpu time      1.4380: real time      1.4482
    WAVPRE:  cpu time      0.0237: real time      0.0238
    FEWALD:  cpu time      0.0063: real time      0.0063

 real space projection operators:
  total allocation   :       9691.28 KBytes
  max/ min on nodes  :       1707.97       1435.55

