<?xml version="1.0" encoding="ISO-8859-1"?>
<modeling>
 <generator>
  <i name="program" type="string">vasp </i>
  <i name="version" type="string">6.5.1  </i>
  <i name="subversion" type="string">10Mar25 (build Apr 25 2025 15:31:43) complex                          parallel </i>
  <i name="platform" type="string">LinuxIFC </i>
  <i name="date" type="string">2025 12 08 </i>
  <i name="time" type="string">14:54:14 </i>
 </generator>
 <incar>
  <i type="string" name="SYSTEM">PBE-grap</i>
  <i type="int" name="ISTART">     0</i>
  <i type="string" name="PREC">Normal   low | medium | high</i>
  <i type="int" name="IALGO">    38</i>
  <i type="int" name="ICHARG">     2</i>
  <i type="int" name="INIWAV">     1</i>
  <i type="int" name="NELM">   150</i>
  <i type="int" name="NELMDL">    -5</i>
  <i type="int" name="NELMIN">     4</i>
  <i type="int" name="IBRION">     3</i>
  <i name="EDIFF">      0.00001000</i>
  <i name="EDIFFG">     -0.02600000</i>
  <i type="int" name="NSW">  1000</i>
  <i type="int" name="ISIF">     2</i>
  <i type="int" name="ISYM">     0</i>
  <i name="ENCUT">    370.00000000</i>
  <i name="POTIM">      0.00000000</i>
  <i type="string" name="LREAL">AUTO   real-space projection (.FALSE., .TRUE., On, Auto)</i>
  <i type="logical" name="LPLANE"> T  </i>
  <i type="int" name="ISMEAR">     0</i>
  <i name="SIGMA">      0.41000000</i>
  <i type="int" name="NWRITE">     0</i>
  <i type="logical" name="LWAVE"> F  </i>
  <i type="logical" name="LCHARG"> F  </i>
  <i type="logical" name="LVTOT"> F  </i>
  <i type="string" name="GGA">PE</i>
  <i name="SPRING">     -5.00000000</i>
 </incar>
 <primitive_cell>
  <structure name="primitive_cell" >
   <crystal>
    <varray name="basis" >
     <v>       8.30990028       0.00000000       0.00000000 </v>
     <v>      -4.15495014       7.19658475       0.00000000 </v>
     <v>       0.00000000       0.00000000      16.52350044 </v>
    </varray>
    <i name="volume">    988.15327180 </i>
    <varray name="rec_basis" >
     <v>       0.12033839       0.06947740       0.00000000 </v>
     <v>       0.00000000       0.13895480       0.00000000 </v>
     <v>       0.00000000       0.00000000       0.06051986 </v>
    </varray>
   </crystal>
   <varray name="positions" >
    <v>       0.99861581       0.99876096       0.43869890 </v>
    <v>       0.11093000       0.22330000       0.16024000 </v>
    <v>       0.22188644       0.11258028       0.29989928 </v>
    <v>       0.33224128       0.99968109       0.43860043 </v>
    <v>       0.44426000       0.22330000       0.16024000 </v>
    <v>       0.55424313       0.11117858       0.29823060 </v>
    <v>       0.66538687       0.99961947       0.43662250 </v>
    <v>       0.77760000       0.22330000       0.16024000 </v>
    <v>       0.88852706       0.11165543       0.29888354 </v>
    <v>       0.99727720       0.33254096       0.43844039 </v>
    <v>       0.11093000       0.55664000       0.16024000 </v>
    <v>       0.22152331       0.44424616       0.29952286 </v>
    <v>       0.33097661       0.33249874       0.44384207 </v>
    <v>       0.44426000       0.55664000       0.16024000 </v>
    <v>       0.55280623       0.44392915       0.29925599 </v>
    <v>       0.66491027       0.33284674       0.43642213 </v>
    <v>       0.77760000       0.55664000       0.16024000 </v>
    <v>       0.88806891       0.44442269       0.29816859 </v>
    <v>       0.99833087       0.66590790       0.43616511 </v>
    <v>       0.11093000       0.88997000       0.16024000 </v>
    <v>       0.22182074       0.77840905       0.29854962 </v>
    <v>       0.33306574       0.66712692       0.43756852 </v>
    <v>       0.44426000       0.88997000       0.16024000 </v>
    <v>       0.55438877       0.77795023       0.29816042 </v>
    <v>       0.66570472       0.66639107       0.43649161 </v>
    <v>       0.77760000       0.88997000       0.16024000 </v>
    <v>       0.88820045       0.77866236       0.29808562 </v>
    <v>       0.99982000       0.00108000       0.02337000 </v>
    <v>       0.33315000       0.00108000       0.02337000 </v>
    <v>       0.66649000       0.00108000       0.02337000 </v>
    <v>       0.99982000       0.33441000       0.02337000 </v>
    <v>       0.33315000       0.33441000       0.02337000 </v>
    <v>       0.66649000       0.33441000       0.02337000 </v>
    <v>       0.99982000       0.66775000       0.02337000 </v>
    <v>       0.33315000       0.66775000       0.02337000 </v>
    <v>       0.66649000       0.66775000       0.02337000 </v>
    <v>       0.22976973       0.16088078       0.63079070 </v>
    <v>       0.23977507       0.30254667       0.61317504 </v>
    <v>       0.21829680       0.02517436       0.65884695 </v>
   </varray>
  </structure>
  <varray name="primitive_index" >
   <v type="int" >        1 </v>
   <v type="int" >        2 </v>
   <v type="int" >        3 </v>
   <v type="int" >        4 </v>
   <v type="int" >        5 </v>
   <v type="int" >        6 </v>
   <v type="int" >        7 </v>
   <v type="int" >        8 </v>
   <v type="int" >        9 </v>
   <v type="int" >       10 </v>
   <v type="int" >       11 </v>
   <v type="int" >       12 </v>
   <v type="int" >       13 </v>
   <v type="int" >       14 </v>
   <v type="int" >       15 </v>
   <v type="int" >       16 </v>
   <v type="int" >       17 </v>
   <v type="int" >       18 </v>
   <v type="int" >       19 </v>
   <v type="int" >       20 </v>
   <v type="int" >       21 </v>
   <v type="int" >       22 </v>
   <v type="int" >       23 </v>
   <v type="int" >       24 </v>
   <v type="int" >       25 </v>
   <v type="int" >       26 </v>
   <v type="int" >       27 </v>
   <v type="int" >       28 </v>
   <v type="int" >       29 </v>
   <v type="int" >       30 </v>
   <v type="int" >       31 </v>
   <v type="int" >       32 </v>
   <v type="int" >       33 </v>
   <v type="int" >       34 </v>
   <v type="int" >       35 </v>
   <v type="int" >       36 </v>
   <v type="int" >       37 </v>
   <v type="int" >       38 </v>
   <v type="int" >       39 </v>
  </varray>
 </primitive_cell>
 <kpoints>
  <generation param="Monkhorst-Pack">
   <v type="int" name="divisions">       4        4        1 </v>
   <v name="usershift">      0.00000000       0.00000000       0.00000000 </v>
   <v name="genvec1">      0.25000000       0.00000000       0.00000000 </v>
   <v name="genvec2">      0.00000000       0.25000000       0.00000000 </v>
   <v name="genvec3">      0.00000000       0.00000000       1.00000000 </v>
   <v name="shift">      0.50000000       0.50000000       0.00000000 </v>
  </generation>
  <varray name="kpointlist" >
   <v>       0.12500000       0.12500000       0.00000000 </v>
   <v>      -0.12500000       0.25000000       0.00000000 </v>
   <v>      -0.25000000       0.12500000       0.00000000 </v>
   <v>       0.37500000       0.12500000       0.00000000 </v>
   <v>      -0.12500000       0.50000000       0.00000000 </v>
   <v>       0.50000000       0.37500000       0.00000000 </v>
   <v>      -0.37500000       0.50000000       0.00000000 </v>
   <v>       0.12500000       0.37500000       0.00000000 </v>
   <v>       0.50000000      -0.12500000       0.00000000 </v>
   <v>      -0.37500000       0.12500000       0.00000000 </v>
   <v>      -0.12500000      -0.25000000       0.00000000 </v>
   <v>       0.25000000      -0.37500000       0.00000000 </v>
   <v>       0.37500000      -0.25000000       0.00000000 </v>
   <v>       0.12500000      -0.37500000       0.00000000 </v>
   <v>      -0.25000000      -0.12500000       0.00000000 </v>
   <v>      -0.12500000       0.12500000       0.00000000 </v>
   <v>      -0.12500000       0.00000000       0.00000000 </v>
   <v>       0.00000000      -0.12500000       0.00000000 </v>
   <v>       0.37500000       0.37500000       0.00000000 </v>
   <v>      -0.37500000      -0.25000000       0.00000000 </v>
   <v>       0.25000000       0.37500000       0.00000000 </v>
   <v>      -0.37500000       0.37500000       0.00000000 </v>
   <v>      -0.37500000       0.00000000       0.00000000 </v>
   <v>       0.00000000      -0.37500000       0.00000000 </v>
  </varray>
  <varray name="weights" >
   <v>       0.04166667 </v>
   <v>       0.04166667 </v>
   <v>       0.04166667 </v>
   <v>       0.04166667 </v>
   <v>       0.04166667 </v>
   <v>       0.04166667 </v>
   <v>       0.04166667 </v>
   <v>       0.04166667 </v>
   <v>       0.04166667 </v>
   <v>       0.04166667 </v>
   <v>       0.04166667 </v>
   <v>       0.04166667 </v>
   <v>       0.04166667 </v>
   <v>       0.04166667 </v>
   <v>       0.04166667 </v>
   <v>       0.04166667 </v>
   <v>       0.04166667 </v>
   <v>       0.04166667 </v>
   <v>       0.04166667 </v>
   <v>       0.04166667 </v>
   <v>       0.04166667 </v>
   <v>       0.04166667 </v>
   <v>       0.04166667 </v>
   <v>       0.04166667 </v>
  </varray>
 </kpoints>
 <parameters>
  <separator name="general" >
   <i type="string" name="SYSTEM">PBE-grap</i>
   <i type="logical" name="LCOMPAT"> F  </i>
  </separator>
  <separator name="electronic" >
   <i type="string" name="PREC">normal</i>
   <i name="ENMAX">    370.00000000</i>
   <i name="ENAUG">    644.87300000</i>
   <i name="EDIFF">      0.00001000</i>
   <i type="int" name="IALGO">    38</i>
   <i type="int" name="IWAVPR">    11</i>
   <i type="int" name="NBANDS">   228</i>
   <i type="int" name="NBANDSLOW">    -1</i>
   <i type="int" name="NBANDSHIGH">    -1</i>
   <i name="NELECT">    376.00000000</i>
   <i type="int" name="TURBO">     0</i>
   <i type="int" name="IRESTART">     0</i>
   <i type="int" name="NREBOOT">     0</i>
   <i type="int" name="NMIN">     0</i>
   <i name="EREF">      0.00000000</i>
   <separator name="electronic smearing" >
    <i type="int" name="ISMEAR">     0</i>
    <i name="SIGMA">      0.41000000</i>
    <i name="KSPACING">      0.50000000</i>
    <i type="logical" name="KGAMMA"> T  </i>
    <i type="logical" name="KBLOWUP"> T  </i>
   </separator>
   <separator name="electronic projectors" >
    <i type="logical" name="LREAL"> T  </i>
    <v name="ROPT">     -0.00050000     -0.00050000     -0.00050000</v>
    <i type="int" name="LMAXPAW">  -100</i>
    <i type="int" name="LMAXMIX">     2</i>
    <i type="logical" name="NLSPLINE"> F  </i>
   </separator>
   <separator name="electronic startup" >
    <i type="int" name="ISTART">     0</i>
    <i type="int" name="ICHARG">     2</i>
    <i type="int" name="INIWAV">     1</i>
   </separator>
   <separator name="electronic spin" >
    <i type="int" name="ISPIN">     1</i>
    <i type="logical" name="LNONCOLLINEAR"> F  </i>
    <v name="MAGMOM">      1.00000000      1.00000000      1.00000000      1.00000000      1.00000000      1.00000000      1.00000000      1.00000000      1.00000000      1.00000000      1.00000000      1.00000000      1.00000000      1.00000000      1.00000000      1.00000000      1.00000000      1.00000000      1.00000000      1.00000000
      1.00000000      1.00000000      1.00000000      1.00000000      1.00000000      1.00000000      1.00000000      1.00000000      1.00000000      1.00000000      1.00000000      1.00000000      1.00000000      1.00000000      1.00000000      1.00000000      1.00000000      1.00000000      1.00000000</v>
    <i name="NUPDOWN">     -1.00000000</i>
    <i type="logical" name="LSORBIT"> F  </i>
    <v name="SAXIS">      0.00000000      0.00000000      1.00000000</v>
    <i type="logical" name="LSPIRAL"> F  </i>
    <v name="QSPIRAL">      0.00000000      0.00000000      0.00000000</v>
    <i type="logical" name="LZEROZ"> F  </i>
   </separator>
   <separator name="electronic exchange-correlation" >
    <i type="logical" name="LASPH"> F  </i>
   </separator>
   <separator name="electronic convergence" >
    <i type="int" name="NELM">   150</i>
    <i type="int" name="NELMDL">    -5</i>
    <i type="int" name="NELMIN">     4</i>
    <i name="ENINI">    370.00000000</i>
    <separator name="electronic convergence detail" >
     <i type="logical" name="LDIAG"> T  </i>
     <i type="logical" name="LSUBROT"> F  </i>
     <i type="logical" name="LROBUST"> F  </i>
     <i type="int" name="ISEARCH">     0</i>
     <i name="WEIMIN">      0.00100000</i>
     <i name="EBREAK">      0.00000001</i>
     <i name="DEPER">      0.30000000</i>
     <i type="int" name="NRMM">     4</i>
     <i name="TIME">      0.40000000</i>
    </separator>
   </separator>
   <separator name="electronic mixer" >
    <i name="AMIX">      0.40000000</i>
    <i name="BMIX">      1.00000000</i>
    <i name="AMIN">      0.10000000</i>
    <i name="AMIX_MAG">      1.60000000</i>
    <i name="BMIX_MAG">      1.00000000</i>
    <separator name="electronic mixer details" >
     <i type="int" name="IMIX">     4</i>
     <i type="logical" name="MIXFIRST"> F  </i>
     <i type="int" name="MAXMIX">   -45</i>
     <i name="WC">    100.00000000</i>
     <i type="int" name="INIMIX">     1</i>
     <i type="int" name="MIXPRE">     1</i>
     <i type="int" name="MREMOVE">     5</i>
    </separator>
   </separator>
   <separator name="electronic dipolcorrection" >
    <i type="logical" name="LDIPOL"> F  </i>
    <i type="logical" name="LMONO"> F  </i>
    <i type="int" name="IDIPOL">     0</i>
    <i name="EPSILON">      1.00000000</i>
    <v name="DIPOL">   -100.00000000   -100.00000000   -100.00000000</v>
    <i name="EFIELD">      0.00000000</i>
    <i type="logical" name="LVACPOTAV"> F  </i>
   </separator>
  </separator>
  <separator name="grids" >
   <i type="int" name="NGX">    40</i>
   <i type="int" name="NGY">    40</i>
   <i type="int" name="NGZ">    80</i>
   <i type="int" name="NGXF">    80</i>
   <i type="int" name="NGYF">    80</i>
   <i type="int" name="NGZF">   160</i>
   <i type="logical" name="ADDGRID"> F  </i>
  </separator>
  <separator name="ionic" >
   <i type="int" name="NSW">  1000</i>
   <i type="int" name="IBRION">     3</i>
   <i type="int" name="MDALGO">     0</i>
   <i type="int" name="ISIF">     2</i>
   <i name="PSTRESS">      0.00000000</i>
   <i name="EDIFFG">     -0.02600000</i>
   <i type="int" name="NFREE">     0</i>
   <i name="POTIM">      0.00000000</i>
   <i name="SMASS">     -3.00000000</i>
   <i name="SCALEE">      1.00000000</i>
  </separator>
  <separator name="ionic md" >
   <i name="TEBEG">      0.00010000</i>
   <i name="TEEND">      0.00010000</i>
   <i type="int" name="NBLOCK">     1</i>
   <i type="int" name="KBLOCK">  1000</i>
   <i type="int" name="NPACO">   256</i>
   <i name="APACO">     10.00000000</i>
  </separator>
  <separator name="symmetry" >
   <i type="int" name="ISYM">     0</i>
   <i name="SYMPREC">      0.00001000</i>
  </separator>
  <separator name="dos" >
   <i type="int" name="LORBIT">     0</i>
   <v name="RWIGS">     -1.00000000     -1.00000000     -1.00000000</v>
   <i type="int" name="NEDOS">   301</i>
   <i name="EMIN">     10.00000000</i>
   <i name="EMAX">    -10.00000000</i>
   <i name="EFERMI">      0.00000000</i>
  </separator>
  <separator name="writing" >
   <i type="int" name="NWRITE">     0</i>
   <i type="logical" name="LWAVE"> F  </i>
   <i type="logical" name="LDOWNSAMPLE"> F  </i>
   <i type="logical" name="LCHARG"> F  </i>
   <i type="logical" name="LPARD"> F  </i>
   <i type="logical" name="LVTOT"> F  </i>
   <i type="logical" name="LVHAR"> F  </i>
   <i type="logical" name="LELF"> F  </i>
   <i type="logical" name="LOPTICS"> F  </i>
   <v name="STM">      0.00000000      0.00000000      0.00000000      0.00000000      0.00000000      0.00000000      0.00000000</v>
  </separator>
  <separator name="performance" >
   <i type="int" name="NPAR">     4</i>
   <i type="int" name="NSIM">     4</i>
   <i type="int" name="NBLK">    -1</i>
   <i type="logical" name="LPLANE"> T  </i>
   <i type="logical" name="LSCALAPACK"> T  </i>
   <i type="logical" name="LSCAAWARE"> F  </i>
   <i type="logical" name="LSCALU"> F  </i>
   <i type="logical" name="LASYNC"> F  </i>
   <i type="logical" name="LORBITALREAL"> F  </i>
  </separator>
  <separator name="miscellaneous" >
   <i type="int" name="IDIOT">     3</i>
   <i type="int" name="PHON_NSTRUCT">    -1</i>
   <i type="logical" name="LMUSIC"> F  </i>
   <v name="POMASS">    106.42000000     12.01100000     16.00000000</v>
   <v name="DARWINR">      0.00000000      0.00000000      0.00000000</v>
   <v name="DARWINV">      1.00000000      1.00000000      1.00000000</v>
   <i type="logical" name="LCORR"> T  </i>
  </separator>
  <i type="logical" name="GGA_COMPAT"> T  </i>
  <i type="logical" name="LBERRY"> F  </i>
  <i type="int" name="ICORELEVEL">     0</i>
  <i type="logical" name="LDAU"> F  </i>
  <i type="int" name="I_CONSTRAINED_M">     0</i>
  <separator name="electronic exchange-correlation" >
   <i type="string" name="GGA    ">PE</i>
   <i type="string" name="XC_C">1</i>
   <i type="int" name="VOSKOWN">     0</i>
   <i type="logical" name="LHFCALC"> F  </i>
   <i type="string" name="PRECFOCK"></i>
   <i type="logical" name="LSYMGRAD"> F  </i>
   <i type="logical" name="LHFONE"> F  </i>
   <i type="logical" name="LRHFCALC"> F  </i>
   <i type="logical" name="LTHOMAS"> F  </i>
   <i type="logical" name="LMODELHF"> F  </i>
   <i type="logical" name="LFOCKACE"> F  </i>
   <i name="ENCUT4O">     -1.00000000</i>
   <i type="int" name="EXXOEP">     0</i>
   <i type="int" name="FOURORBIT">     0</i>
   <i name="AEXX">      0.00000000</i>
   <i name="HFALPHA">      0.00000000</i>
   <i name="MCALPHA">      0.00000000</i>
   <i name="ALDAX">      1.00000000</i>
   <i name="AGGAX">      1.00000000</i>
   <i name="AMGGAX">      1.00000000</i>
   <i name="ALDAC">      1.00000000</i>
   <i name="AGGAC">      1.00000000</i>
   <i name="AMGGAC">      1.00000000</i>
   <i type="int" name="NKREDX">     1</i>
   <i type="int" name="NKREDY">     1</i>
   <i type="int" name="NKREDZ">     1</i>
   <i type="logical" name="SHIFTRED"> F  </i>
   <i type="logical" name="ODDONLY"> F  </i>
   <i type="logical" name="EVENONLY"> F  </i>
   <i type="int" name="LMAXFOCK">     0</i>
   <i type="int" name="NMAXFOCKAE">     0</i>
   <i type="logical" name="LFOCKAEDFT"> F  </i>
   <i name="HFSCREEN">      0.00000000</i>
   <i name="HFSCREENC">      0.00000000</i>
   <i type="int" name="NBANDSGWLOW">     0</i>
  </separator>
  <separator name="vdW DFT" >
   <i type="logical" name="LUSE_VDW"> F  </i>
   <i type="int" name="IVDW_NL">    -1</i>
   <i type="logical" name="LSPIN_VDW"> F  </i>
   <i name="ZAB_VDW">     -0.84910000</i>
   <i name="GAMMA_VDW">      1.39626340</i>
   <i name="ALPHA_VDW">      0.00000000</i>
   <i name="PARAM1">      0.12340000</i>
   <i name="PARAM2">      1.00000000</i>
   <i name="BPARAM">      6.30000000</i>
   <i name="CPARAM">      0.00930000</i>
  </separator>
  <separator name="model GW" >
   <i type="int" name="MODEL_GW">     0</i>
   <i name="MODEL_EPS0">     15.20235803</i>
   <i name="MODEL_ALPHA">      1.00000000</i>
  </separator>
  <separator name="linear response parameters" >
   <i type="logical" name="LEPSILON"> F  </i>
   <i type="logical" name="LRPA"> F  </i>
   <i type="logical" name="LNABLA"> F  </i>
   <i type="logical" name="LVEL"> F  </i>
   <i name="CSHIFT">      0.10000000</i>
   <i name="OMEGAMAX">     -1.00000000</i>
   <i name="DEG_THRESHOLD">      0.00200000</i>
   <i name="RTIME">     -0.10000000</i>
   <i name="WPLASMAI">      0.00000000</i>
   <v name="DFIELD">      0.00000000      0.00000000      0.00000000</v>
   <v name="WPLASMA">      0.00000000      0.00000000      0.00000000      0.00000000      0.00000000      0.00000000      0.00000000      0.00000000      0.00000000</v>
  </separator>
  <separator name="orbital magnetization" >
   <i type="logical" name="NUCIND"> F  </i>
   <v name="MAGPOS">      0.00000000      0.00000000      0.00000000</v>
   <i type="logical" name="LNICSALL"> T  </i>
   <i type="logical" name="ORBITALMAG"> F  </i>
   <i type="logical" name="LMAGBLOCH"> F  </i>
   <i type="logical" name="LCHIMAG"> F  </i>
   <i type="logical" name="LGAUGE"> T  </i>
   <i type="int" name="MAGATOM">     0</i>
   <v name="MAGDIPOL">      0.00000000      0.00000000      0.00000000</v>
   <v name="AVECCONST">      0.00000000      0.00000000      0.00000000</v>
  </separator>
  <separator name="response functions" >
   <i type="logical" name="LALL_IN_ONE"> F  </i>
   <i type="int" name="IALL_IN_ONE">    -1</i>
   <i type="int" name="NBANDS_WAVE">    -1</i>
   <i type="logical" name="LFINITE_TEMPERATURE"> F  </i>
   <i type="logical" name="LADDER"> F  </i>
   <i type="logical" name="LRPAFORCE"> F  </i>
   <i type="logical" name="LFXC"> F  </i>
   <i type="logical" name="LHARTREE"> T  </i>
   <i type="int" name="IBSE">     2</i>
   <v type="int" name="KPOINT">    -1     0     0     0</v>
   <i type="logical" name="LTCTC"> F  </i>
   <i type="logical" name="LTCTE"> F  </i>
   <i type="logical" name="LTETE"> F  </i>
   <i type="logical" name="LTRIPLET"> F  </i>
   <i type="logical" name="LFXCEPS"> F  </i>
   <i type="logical" name="LFXHEG"> F  </i>
   <i type="int" name="NATURALO">     2</i>
   <i type="logical" name="LHOLEGF"> F  </i>
   <i type="logical" name="L2ORDER"> F  </i>
   <i type="logical" name="LDMP1"> F  </i>
   <i type="logical" name="LMP2LT"> F  </i>
   <i type="logical" name="LSMP2LT"> F  </i>
   <i type="logical" name="LGWLF"> F  </i>
   <i name="ENCUTGW">     -1.60000002</i>
   <i name="ENCUTGWSOFT">     -1.60000002</i>
   <i name="ENCUTLF">     -1.00000000</i>
   <i type="logical" name="ESF_SPLINES"> F  </i>
   <i name="ESF_CONV">      0.01000000</i>
   <i type="int" name="ESF_NINTER">    15</i>
   <i type="int" name="LMAXMP2">    -1</i>
   <i name="SCISSOR">      0.00000000</i>
   <i type="int" name="NOMEGA">     0</i>
   <i type="int" name="NOMEGAR">     0</i>
   <i type="int" name="NBANDSGW">    -1</i>
   <i type="int" name="NBANDSO">    -1</i>
   <i type="int" name="NBANDSV">    -1</i>
   <i type="int" name="NELMGW">     1</i>
   <i type="int" name="NELMHF">     1</i>
   <i type="int" name="DIM">     3</i>
   <i type="int" name="IESPILON">     4</i>
   <i type="int" name="ANTIRES">     0</i>
   <i name="OMEGAMAX">    -30.00000000</i>
   <i name="OMEGAMIN">    -30.00000000</i>
   <i name="OMEGATL">   -200.00000000</i>
   <i type="int" name="OMEGAGRID">     0</i>
   <i name="CSHIFT">     -0.10000000</i>
   <i type="logical" name="LSELFENERGY"> F  </i>
   <i type="logical" name="LSPECTRAL"> F  </i>
   <i type="logical" name="LSPECTRALGW"> F  </i>
   <i type="logical" name="LSINGLES"> F  </i>
   <i type="logical" name="LFERMIGW"> F  </i>
   <i type="logical" name="ODDONLYGW"> F  </i>
   <i type="logical" name="EVENONLYGW"> F  </i>
   <i type="int" name="NKREDLFX">     1</i>
   <i type="int" name="NKREDLFY">     1</i>
   <i type="int" name="NKREDLFZ">     1</i>
   <i type="int" name="MAXMEM">  2800</i>
   <i type="int" name="TELESCOPE">     0</i>
   <i type="int" name="NTAUPAR">    -1</i>
   <i type="int" name="NOMEGAPAR">    -1</i>
   <i name="DAMP_NEWTON">      0.80000001</i>
   <i name="LAMBDA">      1.00000000</i>
  </separator>
  <separator name="External order field" >
   <i name="OFIELD_KAPPA">      0.00000000</i>
   <v name="OFIELD_K">      0.00000000      0.00000000      0.00000000</v>
   <i name="OFIELD_Q6_NEAR">      0.00000000</i>
   <i name="OFIELD_Q6_FAR">      0.00000000</i>
   <i name="OFIELD_A">      0.00000000</i>
  </separator>
  <separator name="optional k-points parameters" >
   <i type="int" name="KPOINTS_OPT_MODE">     1</i>
   <i type="logical" name="LKPOINTS_OPT"> F  </i>
  </separator>
 </parameters>
 <atominfo>
  <atoms>      39 </atoms>
  <types>       3 </types>
  <array name="atoms" >
   <dimension dim="1">ion</dimension>
   <field type="string">element</field>
   <field type="int">atomtype</field>
   <set>
    <rc><c>Pd</c><c>   1</c></rc>
    <rc><c>Pd</c><c>   1</c></rc>
    <rc><c>Pd</c><c>   1</c></rc>
    <rc><c>Pd</c><c>   1</c></rc>
    <rc><c>Pd</c><c>   1</c></rc>
    <rc><c>Pd</c><c>   1</c></rc>
    <rc><c>Pd</c><c>   1</c></rc>
    <rc><c>Pd</c><c>   1</c></rc>
    <rc><c>Pd</c><c>   1</c></rc>
    <rc><c>Pd</c><c>   1</c></rc>
    <rc><c>Pd</c><c>   1</c></rc>
    <rc><c>Pd</c><c>   1</c></rc>
    <rc><c>Pd</c><c>   1</c></rc>
    <rc><c>Pd</c><c>   1</c></rc>
    <rc><c>Pd</c><c>   1</c></rc>
    <rc><c>Pd</c><c>   1</c></rc>
    <rc><c>Pd</c><c>   1</c></rc>
    <rc><c>Pd</c><c>   1</c></rc>
    <rc><c>Pd</c><c>   1</c></rc>
    <rc><c>Pd</c><c>   1</c></rc>
    <rc><c>Pd</c><c>   1</c></rc>
    <rc><c>Pd</c><c>   1</c></rc>
    <rc><c>Pd</c><c>   1</c></rc>
    <rc><c>Pd</c><c>   1</c></rc>
    <rc><c>Pd</c><c>   1</c></rc>
    <rc><c>Pd</c><c>   1</c></rc>
    <rc><c>Pd</c><c>   1</c></rc>
    <rc><c>Pd</c><c>   1</c></rc>
    <rc><c>Pd</c><c>   1</c></rc>
    <rc><c>Pd</c><c>   1</c></rc>
    <rc><c>Pd</c><c>   1</c></rc>
    <rc><c>Pd</c><c>   1</c></rc>
    <rc><c>Pd</c><c>   1</c></rc>
    <rc><c>Pd</c><c>   1</c></rc>
    <rc><c>Pd</c><c>   1</c></rc>
    <rc><c>Pd</c><c>   1</c></rc>
    <rc><c>C </c><c>   2</c></rc>
    <rc><c>O </c><c>   3</c></rc>
    <rc><c>O </c><c>   3</c></rc>
   </set>
  </array>
  <array name="atomtypes" >
   <dimension dim="1">type</dimension>
   <field type="int">atomspertype</field>
   <field type="string">element</field>
   <field>mass</field>
   <field>valence</field>
   <field type="string">pseudopotential</field>
   <set>
    <rc><c>  36</c><c>Pd</c><c>    106.42000000</c><c>     10.00000000</c><c>  PAW_PBE Pd 04Jan2005                  </c></rc>
    <rc><c>   1</c><c>C </c><c>     12.01100000</c><c>      4.00000000</c><c>  PAW_PBE C 08Apr2002                   </c></rc>
    <rc><c>   2</c><c>O </c><c>     16.00000000</c><c>      6.00000000</c><c>  PAW_PBE O 08Apr2002                   </c></rc>
   </set>
  </array>
 </atominfo>
 <structure name="initialpos" >
  <crystal>
   <varray name="basis" >
    <v>       8.30990028       0.00000000       0.00000000 </v>
    <v>      -4.15495014       7.19658475       0.00000000 </v>
    <v>       0.00000000       0.00000000      16.52350044 </v>
   </varray>
   <i name="volume">    988.15327180 </i>
   <varray name="rec_basis" >
    <v>       0.12033839       0.06947740       0.00000000 </v>
    <v>       0.00000000       0.13895480       0.00000000 </v>
    <v>       0.00000000       0.00000000       0.06051986 </v>
   </varray>
  </crystal>
  <varray name="positions" >
   <v>       0.99861581       0.99876096       0.43869890 </v>
   <v>       0.11093000       0.22330000       0.16024000 </v>
   <v>       0.22188644       0.11258028       0.29989928 </v>
   <v>       0.33224128       0.99968109       0.43860043 </v>
   <v>       0.44426000       0.22330000       0.16024000 </v>
   <v>       0.55424313       0.11117858       0.29823060 </v>
   <v>       0.66538687       0.99961947       0.43662250 </v>
   <v>       0.77760000       0.22330000       0.16024000 </v>
   <v>       0.88852706       0.11165543       0.29888354 </v>
   <v>       0.99727720       0.33254096       0.43844039 </v>
   <v>       0.11093000       0.55664000       0.16024000 </v>
   <v>       0.22152331       0.44424616       0.29952286 </v>
   <v>       0.33097661       0.33249874       0.44384207 </v>
   <v>       0.44426000       0.55664000       0.16024000 </v>
   <v>       0.55280623       0.44392915       0.29925599 </v>
   <v>       0.66491027       0.33284674       0.43642213 </v>
   <v>       0.77760000       0.55664000       0.16024000 </v>
   <v>       0.88806891       0.44442269       0.29816859 </v>
   <v>       0.99833087       0.66590790       0.43616511 </v>
   <v>       0.11093000       0.88997000       0.16024000 </v>
   <v>       0.22182074       0.77840905       0.29854962 </v>
   <v>       0.33306574       0.66712692       0.43756852 </v>
   <v>       0.44426000       0.88997000       0.16024000 </v>
   <v>       0.55438877       0.77795023       0.29816042 </v>
   <v>       0.66570472       0.66639107       0.43649161 </v>
   <v>       0.77760000       0.88997000       0.16024000 </v>
   <v>       0.88820045       0.77866236       0.29808562 </v>
   <v>       0.99982000       0.00108000       0.02337000 </v>
   <v>       0.33315000       0.00108000       0.02337000 </v>
   <v>       0.66649000       0.00108000       0.02337000 </v>
   <v>       0.99982000       0.33441000       0.02337000 </v>
   <v>       0.33315000       0.33441000       0.02337000 </v>
   <v>       0.66649000       0.33441000       0.02337000 </v>
   <v>       0.99982000       0.66775000       0.02337000 </v>
   <v>       0.33315000       0.66775000       0.02337000 </v>
   <v>       0.66649000       0.66775000       0.02337000 </v>
   <v>       0.22976973       0.16088078       0.63079070 </v>
   <v>       0.23977507       0.30254667       0.61317504 </v>
   <v>       0.21829680       0.02517436       0.65884695 </v>
  </varray>
  <varray name="selective"  type="logical" >
   <v type="logical" >  T  T  T </v>
   <v type="logical" >  F  F  F </v>
   <v type="logical" >  T  T  T </v>
   <v type="logical" >  T  T  T </v>
   <v type="logical" >  F  F  F </v>
   <v type="logical" >  T  T  T </v>
   <v type="logical" >  T  T  T </v>
   <v type="logical" >  F  F  F </v>
   <v type="logical" >  T  T  T </v>
   <v type="logical" >  T  T  T </v>
   <v type="logical" >  F  F  F </v>
   <v type="logical" >  T  T  T </v>
   <v type="logical" >  T  T  T </v>
   <v type="logical" >  F  F  F </v>
   <v type="logical" >  T  T  T </v>
   <v type="logical" >  T  T  T </v>
   <v type="logical" >  F  F  F </v>
   <v type="logical" >  T  T  T </v>
   <v type="logical" >  T  T  T </v>
   <v type="logical" >  F  F  F </v>
   <v type="logical" >  T  T  T </v>
   <v type="logical" >  T  T  T </v>
   <v type="logical" >  F  F  F </v>
   <v type="logical" >  T  T  T </v>
   <v type="logical" >  T  T  T </v>
   <v type="logical" >  F  F  F </v>
   <v type="logical" >  T  T  T </v>
   <v type="logical" >  F  F  F </v>
   <v type="logical" >  F  F  F </v>
   <v type="logical" >  F  F  F </v>
   <v type="logical" >  F  F  F </v>
   <v type="logical" >  F  F  F </v>
   <v type="logical" >  F  F  F </v>
   <v type="logical" >  F  F  F </v>
   <v type="logical" >  F  F  F </v>
   <v type="logical" >  F  F  F </v>
   <v type="logical" >  T  T  T </v>
   <v type="logical" >  T  T  T </v>
   <v type="logical" >  T  T  T </v>
  </varray>
  <nose>
   <v>      -3.00000000       0.00000000       0.00010000       0.00010000 </v>
  </nose>
 </structure>
 <calculation>
  <scstep>
   <time name="dav">   14.79   14.91</time>
   <time name="total">   14.89   15.02</time>
   <energy>
    <i name="alphaZ">    918.22725072 </i>
    <i name="ewald">  21141.97657295 </i>
    <i name="hartreedc"> -53781.62275428 </i>
    <i name="XCdc">   -993.31888821 </i>
    <i name="pawpsdc">  29844.20032359 </i>
    <i name="pawaedc"> -27608.36462881 </i>
    <i name="eentropy">     -1.25832989 </i>
    <i name="bandstr">   2422.11743051 </i>
    <i name="atom">  30161.86332653 </i>
    <i name="e_fr_energy">   2103.82030311 </i>
    <i name="e_wo_entrp">   2105.07863300 </i>
    <i name="e_0_energy">   2104.44946806 </i>
   </energy>
  </scstep>
  <scstep>
   <time name="dav">   15.92   16.01</time>
   <time name="total">   15.95   16.05</time>
   <energy>
    <i name="e_fr_energy">    -94.16604767 </i>
    <i name="e_wo_entrp">    -90.65945105 </i>
    <i name="e_0_energy">    -92.41274936 </i>
   </energy>
  </scstep>
  <scstep>
   <time name="dav">   16.32   16.41</time>
   <time name="total">   16.35   16.45</time>
   <energy>
    <i name="e_fr_energy">   -210.55507994 </i>
    <i name="e_wo_entrp">   -205.33666181 </i>
    <i name="e_0_energy">   -207.94587087 </i>
   </energy>
  </scstep>
  <scstep>
   <time name="dav">   16.64   16.75</time>
   <time name="total">   16.67   16.78</time>
   <energy>
    <i name="e_fr_energy">   -214.04374877 </i>
    <i name="e_wo_entrp">   -208.78038322 </i>
    <i name="e_0_energy">   -211.41206599 </i>
   </energy>
  </scstep>
  <scstep>
   <time name="dav">   20.44   20.56</time>
   <time name="total">   20.83   20.96</time>
   <energy>
    <i name="e_fr_energy">   -214.20505663 </i>
    <i name="e_wo_entrp">   -208.94141590 </i>
    <i name="e_0_energy">   -211.57323626 </i>
   </energy>
  </scstep>
  <scstep>
   <time name="dav">   15.79   15.88</time>
   <time name="total">   16.24   16.34</time>
   <energy>
    <i name="e_fr_energy">   -204.73023846 </i>
    <i name="e_wo_entrp">   -199.53485941 </i>
    <i name="e_0_energy">   -202.13254893 </i>
   </energy>
  </scstep>
  <scstep>
   <time name="dav">   16.00   16.09</time>
   <time name="total">   16.45   16.55</time>
   <energy>
    <i name="e_fr_energy">   -208.20084516 </i>
    <i name="e_wo_entrp">   -203.40451561 </i>
    <i name="e_0_energy">   -205.80268038 </i>
   </energy>
  </scstep>
  <scstep>
   <time name="dav">   16.48   16.58</time>
   <time name="total">   16.94   17.04</time>
   <energy>
    <i name="e_fr_energy">   -205.59422530 </i>
    <i name="e_wo_entrp">   -200.67887546 </i>
    <i name="e_0_energy">   -203.13655038 </i>
   </energy>
  </scstep>
  <scstep>
   <time name="dav">   16.82   16.92</time>
   <time name="total">   17.28   17.38</time>
   <energy>
    <i name="e_fr_energy">   -209.12836389 </i>
    <i name="e_wo_entrp">   -204.57891239 </i>
    <i name="e_0_energy">   -206.85363814 </i>
   </energy>
  </scstep>
  <scstep>
   <time name="dav">   17.11   17.21</time>
   <time name="total">   17.56   17.67</time>
   <energy>
    <i name="e_fr_energy">   -204.57791600 </i>
    <i name="e_wo_entrp">   -199.49559541 </i>
    <i name="e_0_energy">   -202.03675571 </i>
   </energy>
  </scstep>
  <scstep>
   <time name="dav">   16.13   16.23</time>
   <time name="total">   16.58   16.68</time>
   <energy>
    <i name="e_fr_energy">   -203.91109970 </i>
    <i name="e_wo_entrp">   -198.70651682 </i>
    <i name="e_0_energy">   -201.30880826 </i>
   </energy>
  </scstep>
  <scstep>
   <time name="dav">   15.53   15.62</time>
   <time name="total">   15.98   16.08</time>
   <energy>
    <i name="e_fr_energy">   -203.90812276 </i>
    <i name="e_wo_entrp">   -198.68572444 </i>
    <i name="e_0_energy">   -201.29692360 </i>
   </energy>
  </scstep>
  <scstep>
   <time name="dav">   15.36   15.45</time>
   <time name="total">   15.81   15.91</time>
   <energy>
    <i name="e_fr_energy">   -203.90168502 </i>
    <i name="e_wo_entrp">   -198.67760420 </i>
    <i name="e_0_energy">   -201.28964461 </i>
   </energy>
  </scstep>
  <scstep>
   <time name="dav">   15.58   15.68</time>
   <time name="total">   16.04   16.13</time>
   <energy>
    <i name="e_fr_energy">   -203.89891874 </i>
    <i name="e_wo_entrp">   -198.67184686 </i>
    <i name="e_0_energy">   -201.28538280 </i>
   </energy>
  </scstep>
  <scstep>
   <time name="dav">   15.49   15.58</time>
   <time name="total">   15.94   16.04</time>
   <energy>
    <i name="e_fr_energy">   -203.89604593 </i>
    <i name="e_wo_entrp">   -198.66771013 </i>
    <i name="e_0_energy">   -201.28187803 </i>
   </energy>
  </scstep>
  <scstep>
   <time name="dav">   15.54   15.63</time>
   <time name="total">   16.00   16.09</time>
   <energy>
    <i name="e_fr_energy">   -203.89209531 </i>
    <i name="e_wo_entrp">   -198.66003711 </i>
    <i name="e_0_energy">   -201.27606621 </i>
   </energy>
  </scstep>
  <scstep>
   <time name="dav">   15.44   15.53</time>
   <time name="total">   15.89   15.99</time>
   <energy>
    <i name="e_fr_energy">   -203.89183916 </i>
    <i name="e_wo_entrp">   -198.65944332 </i>
    <i name="e_0_energy">   -201.27564124 </i>
   </energy>
  </scstep>
  <scstep>
   <time name="dav">   15.34   15.43</time>
   <time name="total">   15.81   15.91</time>
   <energy>
    <i name="e_fr_energy">   -203.89191427 </i>
    <i name="e_wo_entrp">   -198.65908238 </i>
    <i name="e_0_energy">   -201.27549832 </i>
   </energy>
  </scstep>
  <scstep>
   <time name="dav">   15.55   15.64</time>
   <time name="total">   16.01   16.10</time>
   <energy>
    <i name="e_fr_energy">   -203.89216401 </i>
    <i name="e_wo_entrp">   -198.65965388 </i>
    <i name="e_0_energy">   -201.27590894 </i>
   </energy>
  </scstep>
  <scstep>
   <time name="dav">   15.23   15.32</time>
   <time name="total">   15.69   15.79</time>
   <energy>
    <i name="e_fr_energy">   -203.89242151 </i>
    <i name="e_wo_entrp">   -198.66031373 </i>
    <i name="e_0_energy">   -201.27636762 </i>
   </energy>
  </scstep>
  <scstep>
   <time name="dav">   15.70   15.80</time>
   <time name="total">   16.16   16.26</time>
   <energy>
    <i name="e_fr_energy">   -203.89252951 </i>
    <i name="e_wo_entrp">   -198.66035432 </i>
    <i name="e_0_energy">   -201.27644192 </i>
   </energy>
  </scstep>
  <scstep>
   <time name="dav">   15.01   15.09</time>
   <time name="total">   15.47   15.56</time>
   <energy>
    <i name="e_fr_energy">   -203.89269643 </i>
    <i name="e_wo_entrp">   -198.66017564 </i>
    <i name="e_0_energy">   -201.27643603 </i>
   </energy>
  </scstep>
  <scstep>
   <time name="dav">   13.82   13.90</time>
   <time name="total">   14.28   14.36</time>
   <energy>
    <i name="e_fr_energy">   -203.89281034 </i>
    <i name="e_wo_entrp">   -198.66001713 </i>
    <i name="e_0_energy">   -201.27641373 </i>
   </energy>
  </scstep>
  <scstep>
   <time name="dav">   11.41   11.48</time>
   <time name="total">   11.87   11.95</time>
   <energy>
    <i name="e_fr_energy">   -203.89287404 </i>
    <i name="e_wo_entrp">   -198.65996704 </i>
    <i name="e_0_energy">   -201.27642054 </i>
   </energy>
  </scstep>
  <scstep>
   <time name="dav">   10.97   11.04</time>
   <time name="total">   11.43   11.50</time>
   <energy>
    <i name="e_fr_energy">   -203.89292926 </i>
    <i name="e_wo_entrp">   -198.66003017 </i>
    <i name="e_0_energy">   -201.27647972 </i>
   </energy>
  </scstep>
  <scstep>
   <time name="dav">   10.82   10.88</time>
   <time name="total">   11.28   11.35</time>
   <energy>
    <i name="e_fr_energy">   -203.89295716 </i>
    <i name="e_wo_entrp">   -198.66007981 </i>
    <i name="e_0_energy">   -201.27651849 </i>
   </energy>
  </scstep>
  <scstep>
   <time name="dav">   10.81   10.87</time>
   <time name="total">   11.27   11.34</time>
   <energy>
    <i name="e_fr_energy">   -203.89297300 </i>
    <i name="e_wo_entrp">   -198.66012070 </i>
    <i name="e_0_energy">   -201.27654685 </i>
   </energy>
  </scstep>
  <scstep>
   <time name="dav">   10.72   10.79</time>
   <time name="total">   10.83   10.89</time>
   <energy>
    <i name="alphaZ">    918.22725072 </i>
    <i name="ewald">  21141.97657295 </i>
    <i name="hartreedc"> -53728.23545370 </i>
    <i name="XCdc">   -999.24917754 </i>
    <i name="pawpsdc">  35498.41003229 </i>
    <i name="pawaedc"> -33343.59209486 </i>
    <i name="eentropy">     -5.23284455 </i>
    <i name="bandstr">    151.93940691 </i>
    <i name="atom">  30161.86332653 </i>
    <i name="e_fr_energy">   -203.89298126 </i>
    <i name="e_wo_entrp">   -198.66013671 </i>
    <i name="e_0_energy">   -201.27655899 </i>
   </energy>
  </scstep>
  <structure>
   <crystal>
    <varray name="basis" >
     <v>       8.30990028       0.00000000       0.00000000 </v>
     <v>      -4.15495014       7.19658475       0.00000000 </v>
     <v>       0.00000000       0.00000000      16.52350044 </v>
    </varray>
    <i name="volume">    988.15327180 </i>
    <varray name="rec_basis" >
     <v>       0.12033839       0.06947740       0.00000000 </v>
     <v>       0.00000000       0.13895480       0.00000000 </v>
     <v>       0.00000000       0.00000000       0.06051986 </v>
    </varray>
   </crystal>
   <varray name="positions" >
    <v>       0.99861581       0.99876096       0.43869890 </v>
    <v>       0.11093000       0.22330000       0.16024000 </v>
    <v>       0.22188644       0.11258028       0.29989928 </v>
    <v>       0.33224128       0.99968109       0.43860043 </v>
    <v>       0.44426000       0.22330000       0.16024000 </v>
    <v>       0.55424313       0.11117858       0.29823060 </v>
    <v>       0.66538687       0.99961947       0.43662250 </v>
    <v>       0.77760000       0.22330000       0.16024000 </v>
    <v>       0.88852706       0.11165543       0.29888354 </v>
    <v>       0.99727720       0.33254096       0.43844039 </v>
    <v>       0.11093000       0.55664000       0.16024000 </v>
    <v>       0.22152331       0.44424616       0.29952286 </v>
    <v>       0.33097661       0.33249874       0.44384207 </v>
    <v>       0.44426000       0.55664000       0.16024000 </v>
    <v>       0.55280623       0.44392915       0.29925599 </v>
    <v>       0.66491027       0.33284674       0.43642213 </v>
    <v>       0.77760000       0.55664000       0.16024000 </v>
    <v>       0.88806891       0.44442269       0.29816859 </v>
    <v>       0.99833087       0.66590790       0.43616511 </v>
    <v>       0.11093000       0.88997000       0.16024000 </v>
    <v>       0.22182074       0.77840905       0.29854962 </v>
    <v>       0.33306574       0.66712692       0.43756852 </v>
    <v>       0.44426000       0.88997000       0.16024000 </v>
    <v>       0.55438877       0.77795023       0.29816042 </v>
    <v>       0.66570472       0.66639107       0.43649161 </v>
    <v>       0.77760000       0.88997000       0.16024000 </v>
    <v>       0.88820045       0.77866236       0.29808562 </v>
    <v>       0.99982000       0.00108000       0.02337000 </v>
    <v>       0.33315000       0.00108000       0.02337000 </v>
    <v>       0.66649000       0.00108000       0.02337000 </v>
    <v>       0.99982000       0.33441000       0.02337000 </v>
    <v>       0.33315000       0.33441000       0.02337000 </v>
    <v>       0.66649000       0.33441000       0.02337000 </v>
    <v>       0.99982000       0.66775000       0.02337000 </v>
    <v>       0.33315000       0.66775000       0.02337000 </v>
    <v>       0.66649000       0.66775000       0.02337000 </v>
    <v>       0.22976973       0.16088078       0.63079070 </v>
    <v>       0.23977507       0.30254667       0.61317504 </v>
    <v>       0.21829680       0.02517436       0.65884695 </v>
   </varray>
  </structure>
  <varray name="forces" >
   <v>      -0.02729231       0.01304655      -0.12849132 </v>
   <v>       0.01327659      -0.00476185       0.22870619 </v>
   <v>       0.00331515      -0.00543254       0.02770851 </v>
   <v>       0.00492627      -0.01105139      -0.08590096 </v>
   <v>      -0.02500196      -0.00189989       0.19721338 </v>
   <v>       0.00338460       0.00587356       0.01127707 </v>
   <v>       0.00026858       0.00071927       0.02353854 </v>
   <v>       0.00369390      -0.01250661       0.16181763 </v>
   <v>      -0.00084224      -0.00228251      -0.01629350 </v>
   <v>       0.03772688       0.01712001      -0.09857370 </v>
   <v>       0.01799506      -0.00863722       0.18032233 </v>
   <v>       0.00149005       0.00169110       0.03411827 </v>
   <v>       0.01552763       0.05097231      -0.42002665 </v>
   <v>      -0.00929327      -0.02902472       0.19622664 </v>
   <v>       0.00976539       0.00578999       0.01041980 </v>
   <v>      -0.00403141      -0.01131258       0.04113793 </v>
   <v>      -0.02168431      -0.02287611       0.17843121 </v>
   <v>      -0.00555627       0.00800102       0.00103912 </v>
   <v>       0.02167138       0.01880868       0.04592754 </v>
   <v>       0.00491982       0.02492827       0.20047396 </v>
   <v>      -0.01188248       0.00001282      -0.00963490 </v>
   <v>      -0.03597760      -0.02404921      -0.04299627 </v>
   <v>      -0.00964816      -0.00618025       0.15150443 </v>
   <v>       0.00643884       0.00214481      -0.00531175 </v>
   <v>      -0.01845568       0.00206120       0.03393529 </v>
   <v>      -0.00428179       0.00961630       0.16807029 </v>
   <v>       0.00703217      -0.01145296       0.00958104 </v>
   <v>       0.00322838      -0.00841542      -0.13323064 </v>
   <v>      -0.00437564      -0.00097520      -0.14122776 </v>
   <v>       0.00322916       0.00053076      -0.14004817 </v>
   <v>      -0.00219098       0.00203483      -0.13743545 </v>
   <v>       0.00078937       0.00064064      -0.13873831 </v>
   <v>       0.00053505       0.00387467      -0.14060848 </v>
   <v>      -0.00053039       0.00038399      -0.14892305 </v>
   <v>      -0.00375333      -0.00152633      -0.14365487 </v>
   <v>       0.00271083      -0.00156376      -0.14303927 </v>
   <v>       0.11258972      -0.43910998       1.20531528 </v>
   <v>      -0.14417128       0.44864079      -0.50928411 </v>
   <v>       0.05445428      -0.01383308      -0.52334529 </v>
  </varray>
  <varray name="stress" >
   <v>     -22.66310686      -0.72496089       0.48510746 </v>
   <v>      -0.72496095     -21.32203289      -0.19631776 </v>
   <v>       0.48510741      -0.19631771      -8.19774445 </v>
  </varray>
  <energy>
   <i name="e_fr_energy">   -203.89298126 </i>
   <i name="e_wo_entrp">   -198.66013671 </i>
   <i name="e_0_energy">   -201.27655899 </i>
  </energy>
  <time name="totalsc">  600.12  603.27</time>
 </calculation>
 <calculation>
  <scstep>
   <time name="dav">   14.43   14.52</time>
   <time name="total">   14.89   14.98</time>
   <energy>
    <i name="alphaZ">    918.22725072 </i>
    <i name="ewald">  21144.40213832 </i>
    <i name="hartreedc"> -53730.71772241 </i>
    <i name="XCdc">   -999.24934619 </i>
    <i name="pawpsdc">  35498.43397345 </i>
    <i name="pawaedc"> -33343.61500774 </i>
    <i name="eentropy">     -5.23294519 </i>
    <i name="bandstr">    151.98947957 </i>
    <i name="atom">  30161.86332653 </i>
    <i name="e_fr_energy">   -203.89885294 </i>
    <i name="e_wo_entrp">   -198.66590775 </i>
    <i name="e_0_energy">   -201.28238034 </i>
   </energy>
  </scstep>
  <scstep>
   <time name="dav">   15.12   15.21</time>
   <time name="total">   15.58   15.68</time>
   <energy>
    <i name="e_fr_energy">   -203.89897580 </i>
    <i name="e_wo_entrp">   -198.66610792 </i>
    <i name="e_0_energy">   -201.28254186 </i>
   </energy>
  </scstep>
  <scstep>
   <time name="dav">   13.72   13.81</time>
   <time name="total">   14.18   14.26</time>
   <energy>
    <i name="e_fr_energy">   -203.89900068 </i>
    <i name="e_wo_entrp">   -198.66597514 </i>
    <i name="e_0_energy">   -201.28248791 </i>
   </energy>
  </scstep>
  <scstep>
   <time name="dav">   11.74   11.82</time>
   <time name="total">   12.20   12.28</time>
   <energy>
    <i name="e_fr_energy">   -203.89895261 </i>
    <i name="e_wo_entrp">   -198.66599231 </i>
    <i name="e_0_energy">   -201.28247246 </i>
   </energy>
  </scstep>
  <scstep>
   <time name="dav">   13.81   13.89</time>
   <time name="total">   14.26   14.35</time>
   <energy>
    <i name="e_fr_energy">   -203.89896021 </i>
    <i name="e_wo_entrp">   -198.66625235 </i>
    <i name="e_0_energy">   -201.28260628 </i>
   </energy>
  </scstep>
  <scstep>
   <time name="dav">   12.77   12.85</time>
   <time name="total">   13.23   13.31</time>
   <energy>
    <i name="e_fr_energy">   -203.89893063 </i>
    <i name="e_wo_entrp">   -198.66592407 </i>
    <i name="e_0_energy">   -201.28242735 </i>
   </energy>
  </scstep>
  <scstep>
   <time name="dav">   10.25   10.31</time>
   <time name="total">   10.71   10.77</time>
   <energy>
    <i name="e_fr_energy">   -203.89891909 </i>
    <i name="e_wo_entrp">   -198.66600532 </i>
    <i name="e_0_energy">   -201.28246220 </i>
   </energy>
  </scstep>
  <scstep>
   <time name="dav">    9.62    9.68</time>
   <time name="total">    9.72    9.78</time>
   <energy>
    <i name="alphaZ">    918.22725072 </i>
    <i name="ewald">  21144.40213832 </i>
    <i name="hartreedc"> -53730.93266211 </i>
    <i name="XCdc">   -999.25257315 </i>
    <i name="pawpsdc">  35497.78057093 </i>
    <i name="pawaedc"> -33342.96419084 </i>
    <i name="eentropy">     -5.23293371 </i>
    <i name="bandstr">    152.21015375 </i>
    <i name="atom">  30161.86332653 </i>
    <i name="e_fr_energy">   -203.89891956 </i>
    <i name="e_wo_entrp">   -198.66598585 </i>
    <i name="e_0_energy">   -201.28245271 </i>
   </energy>
  </scstep>
  <structure>
   <crystal>
    <varray name="basis" >
     <v>       8.30990028       0.00000000       0.00000000 </v>
     <v>      -4.15495014       7.19658475       0.00000000 </v>
     <v>       0.00000000       0.00000000      16.52350044 </v>
    </varray>
    <i name="volume">    988.15327180 </i>
    <varray name="rec_basis" >
     <v>       0.12033839       0.06947740       0.00000000 </v>
     <v>       0.00000000       0.13895480       0.00000000 </v>
     <v>       0.00000000       0.00000000       0.06051986 </v>
    </varray>
   </crystal>
   <varray name="positions" >
    <v>       0.99860964       0.99876566       0.43867873 </v>
    <v>       0.11093000       0.22330000       0.16024000 </v>
    <v>       0.22188636       0.11257812       0.29990321 </v>
    <v>       0.33224113       0.99967696       0.43858667 </v>
    <v>       0.44426000       0.22330000       0.16024000 </v>
    <v>       0.55424540       0.11118082       0.29823225 </v>
    <v>       0.66538722       0.99961985       0.43662620 </v>
    <v>       0.77760000       0.22330000       0.16024000 </v>
    <v>       0.88852639       0.11165467       0.29888094 </v>
    <v>       0.99729148       0.33254685       0.43842465 </v>
    <v>       0.11093000       0.55664000       0.16024000 </v>
    <v>       0.22152410       0.44424689       0.29952787 </v>
    <v>       0.33099140       0.33251592       0.44377476 </v>
    <v>       0.44426000       0.55664000       0.16024000 </v>
    <v>       0.55281067       0.44393146       0.29925726 </v>
    <v>       0.66490708       0.33284284       0.43642848 </v>
    <v>       0.77760000       0.55664000       0.16024000 </v>
    <v>       0.88806865       0.44442571       0.29816862 </v>
    <v>       0.99834090       0.66591466       0.43617218 </v>
    <v>       0.11093000       0.88997000       0.16024000 </v>
    <v>       0.22181702       0.77840899       0.29854801 </v>
    <v>       0.33305079       0.66711878       0.43756168 </v>
    <v>       0.44426000       0.88997000       0.16024000 </v>
    <v>       0.55439122       0.77795106       0.29815960 </v>
    <v>       0.66569947       0.66639183       0.43649682 </v>
    <v>       0.77760000       0.88997000       0.16024000 </v>
    <v>       0.88820062       0.77865829       0.29808701 </v>
    <v>       0.99982000       0.00108000       0.02337000 </v>
    <v>       0.33315000       0.00108000       0.02337000 </v>
    <v>       0.66649000       0.00108000       0.02337000 </v>
    <v>       0.99982000       0.33441000       0.02337000 </v>
    <v>       0.33315000       0.33441000       0.02337000 </v>
    <v>       0.66649000       0.33441000       0.02337000 </v>
    <v>       0.99982000       0.66775000       0.02337000 </v>
    <v>       0.33315000       0.66775000       0.02337000 </v>
    <v>       0.66649000       0.66775000       0.02337000 </v>
    <v>       0.22972878       0.16073780       0.63098862 </v>
    <v>       0.23981137       0.30268896       0.61310949 </v>
    <v>       0.21831273       0.02516501       0.65877070 </v>
   </varray>
  </structure>
  <varray name="forces" >
   <v>      -0.02722573       0.01269849      -0.12774515 </v>
   <v>       0.01337040      -0.00469360       0.22869566 </v>
   <v>       0.00335221      -0.00575248       0.02542154 </v>
   <v>       0.00519280      -0.01112851      -0.08586102 </v>
   <v>      -0.02501511      -0.00191854       0.19730529 </v>
   <v>       0.00364856       0.00589201       0.01091561 </v>
   <v>       0.00014705       0.00070014       0.02326572 </v>
   <v>       0.00365020      -0.01246336       0.16187419 </v>
   <v>      -0.00121288      -0.00233898      -0.01682605 </v>
   <v>       0.03642773       0.01667424      -0.09683108 </v>
   <v>       0.01807629      -0.00870674       0.18050142 </v>
   <v>       0.00116166       0.00201790       0.03180089 </v>
   <v>       0.01458737       0.04943362      -0.41311805 </v>
   <v>      -0.00933213      -0.02907503       0.19633096 </v>
   <v>       0.00972524       0.00640296       0.00850401 </v>
   <v>      -0.00341504      -0.01098868       0.04100579 </v>
   <v>      -0.02169643      -0.02285444       0.17867455 </v>
   <v>      -0.00561101       0.00788638       0.00111263 </v>
   <v>       0.02104479       0.01858012       0.04555170 </v>
   <v>       0.00486388       0.02501575       0.20053752 </v>
   <v>      -0.01165793      -0.00011118      -0.00996039 </v>
   <v>      -0.03561933      -0.02302155      -0.04235340 </v>
   <v>      -0.00965374      -0.00611804       0.15159788 </v>
   <v>       0.00638040       0.00227998      -0.00518896 </v>
   <v>      -0.01761852       0.00286294       0.03333759 </v>
   <v>      -0.00419705       0.00957447       0.16809477 </v>
   <v>       0.00682278      -0.01149388       0.00943713 </v>
   <v>       0.00323103      -0.00843224      -0.13307724 </v>
   <v>      -0.00436273      -0.00097897      -0.14104615 </v>
   <v>       0.00321622       0.00055472      -0.14002041 </v>
   <v>      -0.00221696       0.00205540      -0.13729359 </v>
   <v>       0.00079225       0.00064733      -0.13871040 </v>
   <v>       0.00056709       0.00387788      -0.14064807 </v>
   <v>      -0.00052648       0.00039476      -0.14904932 </v>
   <v>      -0.00377167      -0.00150759      -0.14352221 </v>
   <v>       0.00273361      -0.00153757      -0.14298208 </v>
   <v>      -0.08687343      -0.01970264       1.00794280 </v>
   <v>      -0.02386699       0.20165328      -0.41904168 </v>
   <v>       0.13488161      -0.18637835      -0.41863240 </v>
  </varray>
  <varray name="stress" >
   <v>     -22.68562940      -0.65482872       0.48890333 </v>
   <v>      -0.65482847     -21.44305999      -0.20664895 </v>
   <v>       0.48890335      -0.20664912      -8.11056450 </v>
  </varray>
  <energy>
   <i name="e_fr_energy">   -203.89891956 </i>
   <i name="e_wo_entrp">   -198.66598585 </i>
   <i name="e_0_energy">   -201.28245271 </i>
  </energy>
  <time name="totalsc">  177.56  178.43</time>
 </calculation>
 <calculation>
  <scstep>
   <time name="dav">   14.26   14.34</time>
   <time name="total">   14.71   14.80</time>
   <energy>
    <i name="alphaZ">    918.22725072 </i>
    <i name="ewald">  21149.84619219 </i>
    <i name="hartreedc"> -53736.49759154 </i>
    <i name="XCdc">   -999.25321298 </i>
    <i name="pawpsdc">  35497.76825271 </i>
    <i name="pawaedc"> -33342.95193829 </i>
    <i name="eentropy">     -5.23314152 </i>
    <i name="bandstr">    152.32369486 </i>
    <i name="atom">  30161.86332653 </i>
    <i name="e_fr_energy">   -203.90716733 </i>
    <i name="e_wo_entrp">   -198.67402581 </i>
    <i name="e_0_energy">   -201.29059657 </i>
   </energy>
  </scstep>
  <scstep>
   <time name="dav">   14.95   15.04</time>
   <time name="total">   15.41   15.50</time>
   <energy>
    <i name="e_fr_energy">   -203.90740962 </i>
    <i name="e_wo_entrp">   -198.67446049 </i>
    <i name="e_0_energy">   -201.29093505 </i>
   </energy>
  </scstep>
  <scstep>
   <time name="dav">   15.34   15.43</time>
   <time name="total">   15.79   15.89</time>
   <energy>
    <i name="e_fr_energy">   -203.90742732 </i>
    <i name="e_wo_entrp">   -198.67423945 </i>
    <i name="e_0_energy">   -201.29083339 </i>
   </energy>
  </scstep>
  <scstep>
   <time name="dav">   13.28   13.36</time>
   <time name="total">   13.74   13.82</time>
   <energy>
    <i name="e_fr_energy">   -203.90738035 </i>
    <i name="e_wo_entrp">   -198.67422387 </i>
    <i name="e_0_energy">   -201.29080211 </i>
   </energy>
  </scstep>
  <scstep>
   <time name="dav">   12.78   12.85</time>
   <time name="total">   13.23   13.31</time>
   <energy>
    <i name="e_fr_energy">   -203.90735796 </i>
    <i name="e_wo_entrp">   -198.67443085 </i>
    <i name="e_0_energy">   -201.29089440 </i>
   </energy>
  </scstep>
  <scstep>
   <time name="dav">   14.05   14.13</time>
   <time name="total">   14.15   14.24</time>
   <energy>
    <i name="alphaZ">    918.22725072 </i>
    <i name="ewald">  21149.84619219 </i>
    <i name="hartreedc"> -53736.65683632 </i>
    <i name="XCdc">   -999.25868173 </i>
    <i name="pawpsdc">  35496.68618898 </i>
    <i name="pawaedc"> -33341.87663737 </i>
    <i name="eentropy">     -5.23318068 </i>
    <i name="bandstr">    152.49501278 </i>
    <i name="atom">  30161.86332653 </i>
    <i name="e_fr_energy">   -203.90736491 </i>
    <i name="e_wo_entrp">   -198.67418423 </i>
    <i name="e_0_energy">   -201.29077457 </i>
   </energy>
  </scstep>
  <structure>
   <crystal>
    <varray name="basis" >
     <v>       8.30990028       0.00000000       0.00000000 </v>
     <v>      -4.15495014       7.19658475       0.00000000 </v>
     <v>       0.00000000       0.00000000      16.52350044 </v>
    </varray>
    <i name="volume">    988.15327180 </i>
    <varray name="rec_basis" >
     <v>       0.12033839       0.06947740       0.00000000 </v>
     <v>       0.00000000       0.13895480       0.00000000 </v>
     <v>       0.00000000       0.00000000       0.06051986 </v>
    </varray>
   </crystal>
   <varray name="positions" >
    <v>       0.99859644       0.99877539       0.43863609 </v>
    <v>       0.11093000       0.22330000       0.16024000 </v>
    <v>       0.22188643       0.11257379       0.29991185 </v>
    <v>       0.33224020       0.99966848       0.43855811 </v>
    <v>       0.44426000       0.22330000       0.16024000 </v>
    <v>       0.55425002       0.11118529       0.29823594 </v>
    <v>       0.66538753       0.99962034       0.43663396 </v>
    <v>       0.77760000       0.22330000       0.16024000 </v>
    <v>       0.88852469       0.11165285       0.29887534 </v>
    <v>       0.99732226       0.33255973       0.43839243 </v>
    <v>       0.11093000       0.55664000       0.16024000 </v>
    <v>       0.22152564       0.44424839       0.29953861 </v>
    <v>       0.33101973       0.33255425       0.44363740 </v>
    <v>       0.44426000       0.55664000       0.16024000 </v>
    <v>       0.55281945       0.44393629       0.29926023 </v>
    <v>       0.66490056       0.33283435       0.43644221 </v>
    <v>       0.77760000       0.55664000       0.16024000 </v>
    <v>       0.88806794       0.44443170       0.29816905 </v>
    <v>       0.99836203       0.66592891       0.43618744 </v>
    <v>       0.11093000       0.88997000       0.16024000 </v>
    <v>       0.22180924       0.77840893       0.29854472 </v>
    <v>       0.33301810       0.66710094       0.43754758 </v>
    <v>       0.44426000       0.88997000       0.16024000 </v>
    <v>       0.55439631       0.77795279       0.29815786 </v>
    <v>       0.66568882       0.66639402       0.43650799 </v>
    <v>       0.77760000       0.88997000       0.16024000 </v>
    <v>       0.88820073       0.77864946       0.29809020 </v>
    <v>       0.99982000       0.00108000       0.02337000 </v>
    <v>       0.33315000       0.00108000       0.02337000 </v>
    <v>       0.66649000       0.00108000       0.02337000 </v>
    <v>       0.99982000       0.33441000       0.02337000 </v>
    <v>       0.33315000       0.33441000       0.02337000 </v>
    <v>       0.66649000       0.33441000       0.02337000 </v>
    <v>       0.99982000       0.66775000       0.02337000 </v>
    <v>       0.33315000       0.66775000       0.02337000 </v>
    <v>       0.66649000       0.66775000       0.02337000 </v>
    <v>       0.22966260       0.16071914       0.63132139 </v>
    <v>       0.23987253       0.30284940       0.61296435 </v>
    <v>       0.21833022       0.02502306       0.65862889 </v>
   </varray>
  </structure>
  <varray name="forces" >
   <v>      -0.02597233       0.01124682      -0.12516203 </v>
   <v>       0.01358532      -0.00461422       0.22888741 </v>
   <v>       0.00336614      -0.00665050       0.01996537 </v>
   <v>       0.00549789      -0.00986576      -0.08357920 </v>
   <v>      -0.02508882      -0.00202658       0.19747923 </v>
   <v>       0.00405153       0.00600107       0.01046968 </v>
   <v>      -0.00085618       0.00031227       0.02112383 </v>
   <v>       0.00351769      -0.01250437       0.16166762 </v>
   <v>      -0.00188680      -0.00246936      -0.01791004 </v>
   <v>       0.03388820       0.01595163      -0.09468064 </v>
   <v>       0.01824079      -0.00895091       0.18060521 </v>
   <v>       0.00075915       0.00383160       0.02504424 </v>
   <v>       0.01529116       0.04861675      -0.40085888 </v>
   <v>      -0.00944280      -0.02931446       0.19639199 </v>
   <v>       0.01055359       0.00620734       0.00580194 </v>
   <v>      -0.00209181      -0.01022960       0.03832327 </v>
   <v>      -0.02174753      -0.02292157       0.17851876 </v>
   <v>      -0.00588708       0.00773301       0.00147460 </v>
   <v>       0.01945966       0.01775271       0.04315491 </v>
   <v>       0.00471643       0.02505076       0.20046337 </v>
   <v>      -0.01077305      -0.00009896      -0.01106684 </v>
   <v>      -0.03502779      -0.02058453      -0.04099864 </v>
   <v>      -0.00964626      -0.00613026       0.15144656 </v>
   <v>       0.00588366       0.00298492      -0.00404977 </v>
   <v>      -0.01598397       0.00329625       0.03052340 </v>
   <v>      -0.00407299       0.00932857       0.16768708 </v>
   <v>       0.00651360      -0.01189807       0.00916073 </v>
   <v>       0.00323702      -0.00853194      -0.13255081 </v>
   <v>      -0.00437450      -0.00104391      -0.14054114 </v>
   <v>       0.00317173       0.00045491      -0.13944569 </v>
   <v>      -0.00220485       0.00196674      -0.13674584 </v>
   <v>       0.00076915       0.00054996      -0.13790904 </v>
   <v>       0.00052925       0.00375486      -0.14000372 </v>
   <v>      -0.00055251       0.00032378      -0.14834736 </v>
   <v>      -0.00375977      -0.00162554      -0.14302938 </v>
   <v>       0.00270435      -0.00163819      -0.14250149 </v>
   <v>      -0.24209532       0.31747110       0.80261567 </v>
   <v>       0.08799877      -0.03513795      -0.30635576 </v>
   <v>       0.17772924      -0.28659834      -0.32506860 </v>
  </varray>
  <varray name="stress" >
   <v>     -22.67954509      -0.53753556       0.46452174 </v>
   <v>      -0.53753549     -21.61112893      -0.15937090 </v>
   <v>       0.46452176      -0.15937100      -7.93501675 </v>
  </varray>
  <energy>
   <i name="e_fr_energy">   -203.90736491 </i>
   <i name="e_wo_entrp">   -198.67418423 </i>
   <i name="e_0_energy">   -201.29077457 </i>
  </energy>
  <time name="totalsc">  183.35  184.17</time>
 </calculation>
 <calculation>
  <scstep>
   <time name="dav">   14.23   14.32</time>
   <time name="total">   14.69   14.78</time>
   <energy>
    <i name="alphaZ">    918.22725072 </i>
    <i name="ewald">  21158.54664577 </i>
    <i name="hartreedc"> -53745.61311976 </i>
    <i name="XCdc">   -999.25848407 </i>
    <i name="pawpsdc">  35496.51598317 </i>
    <i name="pawaedc"> -33341.70722669 </i>
    <i name="eentropy">     -5.23335265 </i>
    <i name="bandstr">    152.74219595 </i>
    <i name="atom">  30161.86332653 </i>
    <i name="e_fr_energy">   -203.91678103 </i>
    <i name="e_wo_entrp">   -198.68342838 </i>
    <i name="e_0_energy">   -201.30010471 </i>
   </energy>
  </scstep>
  <scstep>
   <time name="dav">   14.93   15.02</time>
   <time name="total">   15.38   15.48</time>
   <energy>
    <i name="e_fr_energy">   -203.91718825 </i>
    <i name="e_wo_entrp">   -198.68401829 </i>
    <i name="e_0_energy">   -201.30060327 </i>
   </energy>
  </scstep>
  <scstep>
   <time name="dav">   15.31   15.40</time>
   <time name="total">   15.76   15.85</time>
   <energy>
    <i name="e_fr_energy">   -203.91715609 </i>
    <i name="e_wo_entrp">   -198.68386755 </i>
    <i name="e_0_energy">   -201.30051182 </i>
   </energy>
  </scstep>
  <scstep>
   <time name="dav">   15.21   15.30</time>
   <time name="total">   15.67   15.76</time>
   <energy>
    <i name="e_fr_energy">   -203.91710890 </i>
    <i name="e_wo_entrp">   -198.68379604 </i>
    <i name="e_0_energy">   -201.30045247 </i>
   </energy>
  </scstep>
  <scstep>
   <time name="dav">   11.66   11.73</time>
   <time name="total">   12.12   12.19</time>
   <energy>
    <i name="e_fr_energy">   -203.91707604 </i>
    <i name="e_wo_entrp">   -198.68380424 </i>
    <i name="e_0_energy">   -201.30044014 </i>
   </energy>
  </scstep>
  <scstep>
   <time name="dav">   13.32   13.40</time>
   <time name="total">   13.78   13.86</time>
   <energy>
    <i name="e_fr_energy">   -203.91709258 </i>
    <i name="e_wo_entrp">   -198.68392408 </i>
    <i name="e_0_energy">   -201.30050833 </i>
   </energy>
  </scstep>
  <scstep>
   <time name="dav">   12.73   12.81</time>
   <time name="total">   13.18   13.26</time>
   <energy>
    <i name="e_fr_energy">   -203.91706879 </i>
    <i name="e_wo_entrp">   -198.68373374 </i>
    <i name="e_0_energy">   -201.30040127 </i>
   </energy>
  </scstep>
  <scstep>
   <time name="dav">   10.04   10.10</time>
   <time name="total">   10.14   10.20</time>
   <energy>
    <i name="alphaZ">    918.22725072 </i>
    <i name="ewald">  21158.54664577 </i>
    <i name="hartreedc"> -53745.93297169 </i>
    <i name="XCdc">   -999.26408246 </i>
    <i name="pawpsdc">  35495.12354129 </i>
    <i name="pawaedc"> -33340.32659771 </i>
    <i name="eentropy">     -5.23322610 </i>
    <i name="bandstr">    153.07904350 </i>
    <i name="atom">  30161.86332653 </i>
    <i name="e_fr_energy">   -203.91707015 </i>
    <i name="e_wo_entrp">   -198.68384405 </i>
    <i name="e_0_energy">   -201.30045710 </i>
   </energy>
  </scstep>
  <structure>
   <crystal>
    <varray name="basis" >
     <v>       8.30990028       0.00000000       0.00000000 </v>
     <v>      -4.15495014       7.19658475       0.00000000 </v>
     <v>       0.00000000       0.00000000      16.52350044 </v>
    </varray>
    <i name="volume">    988.15327180 </i>
    <varray name="rec_basis" >
     <v>       0.12033839       0.06947740       0.00000000 </v>
     <v>       0.00000000       0.13895480       0.00000000 </v>
     <v>       0.00000000       0.00000000       0.06051986 </v>
    </varray>
   </crystal>
   <varray name="positions" >
    <v>       0.99857729       0.99878804       0.43857424 </v>
    <v>       0.11093000       0.22330000       0.16024000 </v>
    <v>       0.22188658       0.11256711       0.29992355 </v>
    <v>       0.33223865       0.99965804       0.43851810 </v>
    <v>       0.44426000       0.22330000       0.16024000 </v>
    <v>       0.55425670       0.11119156       0.29824168 </v>
    <v>       0.66538616       0.99962009       0.43664437 </v>
    <v>       0.77760000       0.22330000       0.16024000 </v>
    <v>       0.88852136       0.11164974       0.29886669 </v>
    <v>       0.99736714       0.33257912       0.43834691 </v>
    <v>       0.11093000       0.55664000       0.16024000 </v>
    <v>       0.22152847       0.44425231       0.29955242 </v>
    <v>       0.33105879       0.33261504       0.44344593 </v>
    <v>       0.44426000       0.55664000       0.16024000 </v>
    <v>       0.55283176       0.44394229       0.29926473 </v>
    <v>       0.66489231       0.33282196       0.43646162 </v>
    <v>       0.77760000       0.55664000       0.16024000 </v>
    <v>       0.88806636       0.44443983       0.29817042 </v>
    <v>       0.99839169       0.66594911       0.43620939 </v>
    <v>       0.11093000       0.88997000       0.16024000 </v>
    <v>       0.22179867       0.77840912       0.29853967 </v>
    <v>       0.33296916       0.66707531       0.43752777 </v>
    <v>       0.44426000       0.88997000       0.16024000 </v>
    <v>       0.55440352       0.77795595       0.29815586 </v>
    <v>       0.66567453       0.66639781       0.43652352 </v>
    <v>       0.77760000       0.88997000       0.16024000 </v>
    <v>       0.88820019       0.77863563       0.29809523 </v>
    <v>       0.99982000       0.00108000       0.02337000 </v>
    <v>       0.33315000       0.00108000       0.02337000 </v>
    <v>       0.66649000       0.00108000       0.02337000 </v>
    <v>       0.99982000       0.33441000       0.02337000 </v>
    <v>       0.33315000       0.33441000       0.02337000 </v>
    <v>       0.66649000       0.33441000       0.02337000 </v>
    <v>       0.99982000       0.66775000       0.02337000 </v>
    <v>       0.33315000       0.66775000       0.02337000 </v>
    <v>       0.66649000       0.66775000       0.02337000 </v>
    <v>       0.22959453       0.16106024       0.63166817 </v>
    <v>       0.23993418       0.30286254       0.61274994 </v>
    <v>       0.21833420       0.02470410       0.65844333 </v>
   </varray>
  </structure>
  <varray name="forces" >
   <v>      -0.02530455       0.01260913      -0.12031171 </v>
   <v>       0.01393310      -0.00446947       0.22922758 </v>
   <v>       0.00261942      -0.00733827       0.01201627 </v>
   <v>       0.00586840      -0.00979744      -0.08163580 </v>
   <v>      -0.02492927      -0.00213989       0.19804648 </v>
   <v>       0.00477580       0.00593714       0.00929206 </v>
   <v>      -0.00087774       0.00035757       0.02231397 </v>
   <v>       0.00340122      -0.01249447       0.16225429 </v>
   <v>      -0.00269383      -0.00306959      -0.01872298 </v>
   <v>       0.03133537       0.01514160      -0.09149802 </v>
   <v>       0.01851627      -0.00918029       0.18144234 </v>
   <v>      -0.00102550       0.00473629       0.01668397 </v>
   <v>       0.01638482       0.04410018      -0.39418799 </v>
   <v>      -0.00941500      -0.02942400       0.19685358 </v>
   <v>       0.01254601       0.00716841       0.00230827 </v>
   <v>      -0.00071867      -0.00933075       0.03968229 </v>
   <v>      -0.02168427      -0.02295797       0.17936822 </v>
   <v>      -0.00619206       0.00760636       0.00118900 </v>
   <v>       0.01640869       0.01648124       0.04387295 </v>
   <v>       0.00465386       0.02511423       0.20096880 </v>
   <v>      -0.01023838      -0.00043724      -0.01232017 </v>
   <v>      -0.03426914      -0.01803558      -0.03777091 </v>
   <v>      -0.00948099      -0.00605324       0.15181303 </v>
   <v>       0.00588245       0.00325367      -0.00411309 </v>
   <v>      -0.01480319       0.00396614       0.03200126 </v>
   <v>      -0.00382739       0.00901955       0.16788840 </v>
   <v>       0.00611841      -0.01242368       0.00813545 </v>
   <v>       0.00332400      -0.00868018      -0.13354210 </v>
   <v>      -0.00422120      -0.00113861      -0.14134357 </v>
   <v>       0.00323822       0.00038819      -0.14009610 </v>
   <v>      -0.00217964       0.00194255      -0.13780756 </v>
   <v>       0.00087687       0.00051088      -0.13895590 </v>
   <v>       0.00069992       0.00369891      -0.14099301 </v>
   <v>      -0.00048424       0.00024431      -0.14960179 </v>
   <v>      -0.00366436      -0.00164804      -0.14377603 </v>
   <v>       0.00284397      -0.00165254      -0.14332502 </v>
   <v>      -0.12617713       0.10737762       0.77491660 </v>
   <v>       0.06724834      -0.00766397      -0.25481074 </v>
   <v>       0.08151141      -0.10171873      -0.34546230 </v>
  </varray>
  <varray name="stress" >
   <v>     -22.76387031      -0.42339763       0.40293083 </v>
   <v>      -0.42339754     -21.88210038      -0.04652456 </v>
   <v>       0.40293077      -0.04652438      -8.01758464 </v>
  </varray>
  <energy>
   <i name="e_fr_energy">   -203.91707015 </i>
   <i name="e_wo_entrp">   -198.68384405 </i>
   <i name="e_0_energy">   -201.30045710 </i>
  </energy>
  <time name="totalsc">  181.87  182.78</time>
 </calculation>
 <calculation>
  <scstep>
   <time name="dav">   14.23   14.32</time>
   <time name="total">   14.69   14.77</time>
   <energy>
    <i name="alphaZ">    918.22725072 </i>
    <i name="ewald">  21170.92577035 </i>
    <i name="hartreedc"> -53758.26910885 </i>
    <i name="XCdc">   -999.25589213 </i>
    <i name="pawpsdc">  35495.06341632 </i>
    <i name="pawaedc"> -33340.26685067 </i>
    <i name="eentropy">     -5.23370294 </i>
    <i name="bandstr">    153.01945529 </i>
    <i name="atom">  30161.86332653 </i>
    <i name="e_fr_energy">   -203.92633538 </i>
    <i name="e_wo_entrp">   -198.69263244 </i>
    <i name="e_0_energy">   -201.30948391 </i>
   </energy>
  </scstep>
  <scstep>
   <time name="dav">   15.04   15.13</time>
   <time name="total">   15.49   15.59</time>
   <energy>
    <i name="e_fr_energy">   -203.92699955 </i>
    <i name="e_wo_entrp">   -198.69372832 </i>
    <i name="e_0_energy">   -201.31036394 </i>
   </energy>
  </scstep>
  <scstep>
   <time name="dav">   15.39   15.48</time>
   <time name="total">   15.84   15.93</time>
   <energy>
    <i name="e_fr_energy">   -203.92697465 </i>
    <i name="e_wo_entrp">   -198.69331969 </i>
    <i name="e_0_energy">   -201.31014717 </i>
   </energy>
  </scstep>
  <scstep>
   <time name="dav">   15.36   15.45</time>
   <time name="total">   15.81   15.91</time>
   <energy>
    <i name="e_fr_energy">   -203.92690308 </i>
    <i name="e_wo_entrp">   -198.69323374 </i>
    <i name="e_0_energy">   -201.31006841 </i>
   </energy>
  </scstep>
  <scstep>
   <time name="dav">   13.29   13.37</time>
   <time name="total">   13.74   13.83</time>
   <energy>
    <i name="e_fr_energy">   -203.92685835 </i>
    <i name="e_wo_entrp">   -198.69344949 </i>
    <i name="e_0_energy">   -201.31015392 </i>
   </energy>
  </scstep>
  <scstep>
   <time name="dav">   14.61   14.70</time>
   <time name="total">   14.71   14.80</time>
   <energy>
    <i name="alphaZ">    918.22725072 </i>
    <i name="ewald">  21170.92577035 </i>
    <i name="hartreedc"> -53758.54782461 </i>
    <i name="XCdc">   -999.25791862 </i>
    <i name="pawpsdc">  35496.18208654 </i>
    <i name="pawaedc"> -33341.39913921 </i>
    <i name="eentropy">     -5.23362999 </i>
    <i name="bandstr">    153.31321000 </i>
    <i name="atom">  30161.86332653 </i>
    <i name="e_fr_energy">   -203.92686829 </i>
    <i name="e_wo_entrp">   -198.69323831 </i>
    <i name="e_0_energy">   -201.31005330 </i>
   </energy>
  </scstep>
  <structure>
   <crystal>
    <varray name="basis" >
     <v>       8.30990028       0.00000000       0.00000000 </v>
     <v>      -4.15495014       7.19658475       0.00000000 </v>
     <v>       0.00000000       0.00000000      16.52350044 </v>
    </varray>
    <i name="volume">    988.15327180 </i>
    <varray name="rec_basis" >
     <v>       0.12033839       0.06947740       0.00000000 </v>
     <v>       0.00000000       0.13895480       0.00000000 </v>
     <v>       0.00000000       0.00000000       0.06051986 </v>
    </varray>
   </crystal>
   <varray name="positions" >
    <v>       0.99855303       0.99880759       0.43849278 </v>
    <v>       0.11093000       0.22330000       0.16024000 </v>
    <v>       0.22188533       0.11255708       0.29993452 </v>
    <v>       0.33223670       0.99964406       0.43846492 </v>
    <v>       0.44426000       0.22330000       0.16024000 </v>
    <v>       0.55426664       0.11119989       0.29824892 </v>
    <v>       0.66538405       0.99961964       0.43665953 </v>
    <v>       0.77760000       0.22330000       0.16024000 </v>
    <v>       0.88851513       0.11164440       0.29885433 </v>
    <v>       0.99742514       0.33260485       0.43828711 </v>
    <v>       0.11093000       0.55664000       0.16024000 </v>
    <v>       0.22153052       0.44425904       0.29956585 </v>
    <v>       0.33110917       0.33269300       0.44318982 </v>
    <v>       0.44426000       0.55664000       0.16024000 </v>
    <v>       0.55285181       0.44395180       0.29926896 </v>
    <v>       0.66488354       0.33280617       0.43648944 </v>
    <v>       0.77760000       0.55664000       0.16024000 </v>
    <v>       0.88806361       0.44445059       0.29817232 </v>
    <v>       0.99842714       0.66597478       0.43624030 </v>
    <v>       0.11093000       0.88997000       0.16024000 </v>
    <v>       0.22178464       0.77840889       0.29853198 </v>
    <v>       0.33290423       0.66704370       0.43750308 </v>
    <v>       0.44426000       0.88997000       0.16024000 </v>
    <v>       0.55441355       0.77796064       0.29815308 </v>
    <v>       0.66565702       0.66640420       0.43654609 </v>
    <v>       0.77760000       0.88997000       0.16024000 </v>
    <v>       0.88819840       0.77861564       0.29810154 </v>
    <v>       0.99982000       0.00108000       0.02337000 </v>
    <v>       0.33315000       0.00108000       0.02337000 </v>
    <v>       0.66649000       0.00108000       0.02337000 </v>
    <v>       0.99982000       0.33441000       0.02337000 </v>
    <v>       0.33315000       0.33441000       0.02337000 </v>
    <v>       0.66649000       0.33441000       0.02337000 </v>
    <v>       0.99982000       0.66775000       0.02337000 </v>
    <v>       0.33315000       0.66775000       0.02337000 </v>
    <v>       0.66649000       0.66775000       0.02337000 </v>
    <v>       0.22948970       0.16117986       0.63211051 </v>
    <v>       0.24000989       0.30293163       0.61247222 </v>
    <v>       0.21835291       0.02458035       0.65816306 </v>
   </varray>
  </structure>
  <varray name="forces" >
   <v>      -0.02411514       0.01138682      -0.11622733 </v>
   <v>       0.01435641      -0.00417387       0.22926096 </v>
   <v>       0.00276357      -0.00874528       0.00240231 </v>
   <v>       0.00639044      -0.00980305      -0.07940954 </v>
   <v>      -0.02495653      -0.00215185       0.19830584 </v>
   <v>       0.00544568       0.00628436       0.00836312 </v>
   <v>      -0.00154930       0.00058307       0.01822562 </v>
   <v>       0.00322003      -0.01229968       0.16205360 </v>
   <v>      -0.00342707      -0.00297406      -0.01965657 </v>
   <v>       0.02638058       0.01400469      -0.08702841 </v>
   <v>       0.01878404      -0.00948338       0.18152500 </v>
   <v>      -0.00249540       0.00594025       0.00708425 </v>
   <v>       0.01463145       0.04013751      -0.37210390 </v>
   <v>      -0.00947407      -0.02966990       0.19694503 </v>
   <v>       0.01407101       0.00798152      -0.00365272 </v>
   <v>       0.00127666      -0.00776504       0.03605998 </v>
   <v>      -0.02168119      -0.02292629       0.17922612 </v>
   <v>      -0.00655405       0.00758858       0.00162637 </v>
   <v>       0.01371633       0.01543749       0.03934331 </v>
   <v>       0.00440718       0.02537196       0.20073671 </v>
   <v>      -0.00916640      -0.00094505      -0.01254272 </v>
   <v>      -0.03241814      -0.01401081      -0.03633777 </v>
   <v>      -0.00941264      -0.00584413       0.15165868 </v>
   <v>       0.00580812       0.00335505      -0.00311206 </v>
   <v>      -0.01280192       0.00545586       0.02739916 </v>
   <v>      -0.00345818       0.00873068       0.16729932 </v>
   <v>       0.00564873      -0.01289570       0.00740903 </v>
   <v>       0.00339582      -0.00865154      -0.13276882 </v>
   <v>      -0.00418384      -0.00108695      -0.14056414 </v>
   <v>       0.00324904       0.00041429      -0.13921472 </v>
   <v>      -0.00209865       0.00196510      -0.13699020 </v>
   <v>       0.00085428       0.00049284      -0.13834937 </v>
   <v>       0.00075984       0.00366691      -0.14009361 </v>
   <v>      -0.00044506       0.00028101      -0.14858673 </v>
   <v>      -0.00360289      -0.00167494      -0.14300611 </v>
   <v>       0.00287508      -0.00161207      -0.14242504 </v>
   <v>      -0.24700069       0.39167366       0.53630834 </v>
   <v>       0.13930553      -0.17061151      -0.13743747 </v>
   <v>       0.13150136      -0.22342656      -0.22172552 </v>
[...]
    <v>       0.44426000       0.88997000       0.16024000 </v>
    <v>       0.55707486       0.78114106       0.29779247 </v>
    <v>       0.67064687       0.67289864       0.43619489 </v>
    <v>       0.77760000       0.88997000       0.16024000 </v>
    <v>       0.88982905       0.78024404       0.29725789 </v>
    <v>       0.99982000       0.00108000       0.02337000 </v>
    <v>       0.33315000       0.00108000       0.02337000 </v>
    <v>       0.66649000       0.00108000       0.02337000 </v>
    <v>       0.99982000       0.33441000       0.02337000 </v>
    <v>       0.33315000       0.33441000       0.02337000 </v>
    <v>       0.66649000       0.33441000       0.02337000 </v>
    <v>       0.99982000       0.66775000       0.02337000 </v>
    <v>       0.33315000       0.66775000       0.02337000 </v>
    <v>       0.66649000       0.66775000       0.02337000 </v>
    <v>       0.18440561       0.12404134       0.59786222 </v>
    <v>       0.20992270       0.27545837       0.58651021 </v>
    <v>       0.16203001      -0.02364859       0.61425134 </v>
   </varray>
  </structure>
  <varray name="forces" >
   <v>      -0.02071336       0.00329218      -0.07085167 </v>
   <v>      -0.00238298       0.01111239       0.07777383 </v>
   <v>       0.00171355      -0.00018895      -0.00888159 </v>
   <v>      -0.00639130      -0.01268303      -0.01579075 </v>
   <v>       0.01836041       0.01989336       0.08091254 </v>
   <v>       0.00065061      -0.00225819      -0.00272187 </v>
   <v>      -0.00463152      -0.00781213      -0.00133793 </v>
   <v>      -0.00624488       0.01608128       0.09943401 </v>
   <v>      -0.00610405       0.00007439      -0.01149980 </v>
   <v>      -0.00005151      -0.00906507      -0.00554938 </v>
   <v>      -0.01238679       0.02071269       0.07225246 </v>
   <v>       0.00047402      -0.00333478       0.00064997 </v>
   <v>      -0.00791713      -0.02499247      -0.01221815 </v>
   <v>       0.01431785       0.02233846       0.09179211 </v>
   <v>       0.00483132      -0.00113959      -0.00962956 </v>
   <v>      -0.00868110      -0.01001270      -0.00032115 </v>
   <v>       0.00337627      -0.00059257       0.10158700 </v>
   <v>      -0.00186854      -0.00140308      -0.00150345 </v>
   <v>      -0.00548401      -0.00322420      -0.00211906 </v>
   <v>       0.00377350       0.00499438       0.08141753 </v>
   <v>       0.00027303      -0.00555759      -0.00153133 </v>
   <v>      -0.00130840      -0.01629881       0.00274582 </v>
   <v>       0.00924888       0.01876471       0.10209204 </v>
   <v>      -0.00127838      -0.00365166       0.00123644 </v>
   <v>      -0.00658468      -0.01399726      -0.00306820 </v>
   <v>      -0.00330179       0.01297444       0.09792343 </v>
   <v>      -0.00022701      -0.00706533      -0.00850749 </v>
   <v>       0.00263079      -0.00799581      -0.13773770 </v>
   <v>      -0.00322598      -0.00118903      -0.14532737 </v>
   <v>       0.00164194      -0.00183088      -0.14316892 </v>
   <v>      -0.00102078      -0.00065102      -0.14430258 </v>
   <v>      -0.00037736      -0.00134536      -0.14792061 </v>
   <v>      -0.00056918      -0.00054633      -0.14185760 </v>
   <v>       0.00164578       0.00104470      -0.15420344 </v>
   <v>      -0.00189652      -0.00188648      -0.14849883 </v>
   <v>      -0.00167591      -0.00197394      -0.14544079 </v>
   <v>       0.09241921      -0.08518620       0.35706986 </v>
   <v>      -0.01497188       0.08375746       0.24076569 </v>
   <v>      -0.03606214       0.01084203       0.05633648 </v>
  </varray>
  <varray name="stress" >
   <v>     -18.33972893      -0.14294504       0.08638707 </v>
   <v>      -0.14294482     -18.50238009      -0.81685610 </v>
   <v>       0.08638718      -0.81685606       0.98634867 </v>
  </varray>
  <energy>
   <i name="e_fr_energy">   -203.78429220 </i>
   <i name="e_wo_entrp">   -198.56146953 </i>
   <i name="e_0_energy">   -201.17288086 </i>
  </energy>
  <time name="totalsc">  162.07  162.75</time>
 </calculation>
 <calculation>
  <scstep>
   <time name="dav">   14.12   14.21</time>
   <time name="total">   14.57   14.66</time>
   <energy>
    <i name="alphaZ">    918.22725072 </i>
    <i name="ewald">  22986.30396005 </i>
    <i name="hartreedc"> -55574.21552476 </i>
    <i name="XCdc">   -998.47234547 </i>
    <i name="pawpsdc">  35585.56797870 </i>
    <i name="pawaedc"> -33431.94120166 </i>
    <i name="eentropy">     -5.22294852 </i>
    <i name="bandstr">    154.10515584 </i>
    <i name="atom">  30161.86332653 </i>
    <i name="e_fr_energy">   -203.78434858 </i>
    <i name="e_wo_entrp">   -198.56140006 </i>
    <i name="e_0_energy">   -201.17287432 </i>
   </energy>
  </scstep>
  <scstep>
   <time name="dav">   14.68   14.77</time>
   <time name="total">   15.14   15.23</time>
   <energy>
    <i name="e_fr_energy">   -203.78441520 </i>
    <i name="e_wo_entrp">   -198.56173103 </i>
    <i name="e_0_energy">   -201.17307311 </i>
   </energy>
  </scstep>
  <scstep>
   <time name="dav">   12.77   12.85</time>
   <time name="total">   13.22   13.30</time>
   <energy>
    <i name="e_fr_energy">   -203.78435748 </i>
    <i name="e_wo_entrp">   -198.56141903 </i>
    <i name="e_0_energy">   -201.17288825 </i>
   </energy>
  </scstep>
  <scstep>
   <time name="dav">    9.69    9.75</time>
   <time name="total">    9.80    9.86</time>
   <energy>
    <i name="alphaZ">    918.22725072 </i>
    <i name="ewald">  22986.30396005 </i>
    <i name="hartreedc"> -55574.25238347 </i>
    <i name="XCdc">   -998.47236147 </i>
    <i name="pawpsdc">  35585.54509684 </i>
    <i name="pawaedc"> -33431.91831050 </i>
    <i name="eentropy">     -5.22290895 </i>
    <i name="bandstr">    154.14197026 </i>
    <i name="atom">  30161.86332653 </i>
    <i name="e_fr_energy">   -203.78436000 </i>
    <i name="e_wo_entrp">   -198.56145105 </i>
    <i name="e_0_energy">   -201.17290553 </i>
   </energy>
  </scstep>
  <structure>
   <crystal>
    <varray name="basis" >
     <v>       8.30990028       0.00000000       0.00000000 </v>
     <v>      -4.15495014       7.19658475       0.00000000 </v>
     <v>       0.00000000       0.00000000      16.52350044 </v>
    </varray>
    <i name="volume">    988.15327180 </i>
    <varray name="rec_basis" >
     <v>       0.12033839       0.06947740       0.00000000 </v>
     <v>       0.00000000       0.13895480       0.00000000 </v>
     <v>       0.00000000       0.00000000       0.06051986 </v>
    </varray>
   </crystal>
   <varray name="positions" >
    <v>       1.00131095       1.00342915       0.43423502 </v>
    <v>       0.11093000       0.22330000       0.16024000 </v>
    <v>       0.22349065       0.11419667       0.29708324 </v>
    <v>       0.33737171       1.00550160       0.43514021 </v>
    <v>       0.44426000       0.22330000       0.16024000 </v>
    <v>       0.55706984       0.11435027       0.29775732 </v>
    <v>       0.66995797       1.00566350       0.43639190 </v>
    <v>       0.77760000       0.22330000       0.16024000 </v>
    <v>       0.89004079       0.11433810       0.29742882 </v>
    <v>       1.00219901       0.33896866       0.43515045 </v>
    <v>       0.11093000       0.55664000       0.16024000 </v>
    <v>       0.22336724       0.44807030       0.29704072 </v>
    <v>       0.33849339       0.34127305       0.43370166 </v>
    <v>       0.44426000       0.55664000       0.16024000 </v>
    <v>       0.55684677       0.44760480       0.29763571 </v>
    <v>       0.67046337       0.33905855       0.43624662 </v>
    <v>       0.77760000       0.55664000       0.16024000 </v>
    <v>       0.89008370       0.44759202       0.29759015 </v>
    <v>       1.00303847       0.67201393       0.43597788 </v>
    <v>       0.11093000       0.88997000       0.16024000 </v>
    <v>       0.22331210       0.78088076       0.29743053 </v>
    <v>       0.33662103       0.67309999       0.43558071 </v>
    <v>       0.44426000       0.88997000       0.16024000 </v>
    <v>       0.55707465       0.78114107       0.29779249 </v>
    <v>       0.67064560       0.67289766       0.43619439 </v>
    <v>       0.77760000       0.88997000       0.16024000 </v>
    <v>       0.88982864       0.78024323       0.29725742 </v>
    <v>       0.99982000       0.00108000       0.02337000 </v>
    <v>       0.33315000       0.00108000       0.02337000 </v>
    <v>       0.66649000       0.00108000       0.02337000 </v>
    <v>       0.99982000       0.33441000       0.02337000 </v>
    <v>       0.33315000       0.33441000       0.02337000 </v>
    <v>       0.66649000       0.33441000       0.02337000 </v>
    <v>       0.99982000       0.66775000       0.02337000 </v>
    <v>       0.33315000       0.66775000       0.02337000 </v>
    <v>       0.66649000       0.66775000       0.02337000 </v>
    <v>       0.18436619       0.12393558       0.59786746 </v>
    <v>       0.20993074       0.27546761       0.58651194 </v>
    <v>       0.16197538      -0.02366518       0.61423927 </v>
   </varray>
  </structure>
  <varray name="forces" >
   <v>      -0.02116906       0.00330651      -0.07221984 </v>
   <v>      -0.00237596       0.01099849       0.07773003 </v>
   <v>       0.00183307      -0.00007953      -0.00884899 </v>
   <v>      -0.00594153      -0.01276616      -0.01735045 </v>
   <v>       0.01842083       0.01980049       0.08082690 </v>
   <v>       0.00062961      -0.00222732      -0.00261949 </v>
   <v>      -0.00494048      -0.00754265      -0.00139214 </v>
   <v>      -0.00626101       0.01605686       0.09949828 </v>
   <v>      -0.00626183       0.00014787      -0.01151503 </v>
   <v>       0.00089205      -0.00889028      -0.00549480 </v>
   <v>      -0.01243970       0.02072874       0.07214713 </v>
   <v>       0.00057562      -0.00334569       0.00109122 </v>
   <v>      -0.00831181      -0.02540864      -0.00994884 </v>
   <v>       0.01437396       0.02232573       0.09170798 </v>
   <v>       0.00472778      -0.00118228      -0.00930797 </v>
   <v>      -0.00861456      -0.01017594      -0.00023840 </v>
   <v>       0.00345138      -0.00058817       0.10135773 </v>
   <v>      -0.00185874      -0.00153581      -0.00131175 </v>
   <v>      -0.00545992      -0.00353845      -0.00315660 </v>
   <v>       0.00379357       0.00493716       0.08117603 </v>
   <v>       0.00042935      -0.00575733      -0.00148642 </v>
   <v>      -0.00130171      -0.01647201       0.00285207 </v>
   <v>       0.00924372       0.01878472       0.10207650 </v>
   <v>      -0.00133253      -0.00381688       0.00147961 </v>
   <v>      -0.00677104      -0.01410702      -0.00312367 </v>
   <v>      -0.00324010       0.01294831       0.09785466 </v>
   <v>      -0.00033062      -0.00711224      -0.00849180 </v>
   <v>       0.00265661      -0.00812562      -0.13801175 </v>
   <v>      -0.00324290      -0.00128151      -0.14554868 </v>
   <v>       0.00168959      -0.00180029      -0.14234066 </v>
   <v>      -0.00111925      -0.00081306      -0.14367420 </v>
   <v>      -0.00033458      -0.00158616      -0.14811192 </v>
   <v>      -0.00044133      -0.00066846      -0.14199040 </v>
   <v>       0.00161675       0.00114614      -0.15481312 </v>
   <v>      -0.00199129      -0.00173402      -0.14804370 </v>
   <v>      -0.00149376      -0.00181440      -0.14580901 </v>
   <v>       0.05051240       0.02162468       0.33416393 </v>
   <v>       0.00448658       0.03291987       0.24954725 </v>
   <v>      -0.01409916      -0.04335565       0.07134033 </v>
  </varray>
  <varray name="stress" >
   <v>     -18.31648771      -0.14556826       0.08955456 </v>
   <v>      -0.14556836     -18.47764780      -0.81546977 </v>
   <v>       0.08955462      -0.81547003       1.04723290 </v>
  </varray>
  <energy>
   <i name="e_fr_energy">   -203.78436000 </i>
   <i name="e_wo_entrp">   -198.56145105 </i>
   <i name="e_0_energy">   -201.17290553 </i>
  </energy>
  <time name="totalsc">  167.59  168.26</time>
 </calculation>
 <calculation>
  <scstep>
   <time name="dav">   14.07   14.16</time>
   <time name="total">   14.52   14.61</time>
   <energy>
    <i name="alphaZ">    918.22725072 </i>
    <i name="ewald">  22986.77060166 </i>
    <i name="hartreedc"> -55574.72684494 </i>
    <i name="XCdc">   -998.47198190 </i>
    <i name="pawpsdc">  35585.57597656 </i>
    <i name="pawaedc"> -33431.94928573 </i>
    <i name="eentropy">     -5.22289547 </i>
    <i name="bandstr">    154.14952392 </i>
    <i name="atom">  30161.86332653 </i>
    <i name="e_fr_energy">   -203.78432865 </i>
    <i name="e_wo_entrp">   -198.56143318 </i>
    <i name="e_0_energy">   -201.17288091 </i>
   </energy>
  </scstep>
  <scstep>
   <time name="dav">   13.79   13.88</time>
   <time name="total">   14.25   14.33</time>
   <energy>
    <i name="e_fr_energy">   -203.78443096 </i>
    <i name="e_wo_entrp">   -198.56147564 </i>
    <i name="e_0_energy">   -201.17295330 </i>
   </energy>
  </scstep>
  <scstep>
   <time name="dav">   11.60   11.67</time>
   <time name="total">   12.05   12.12</time>
   <energy>
    <i name="e_fr_energy">   -203.78434053 </i>
    <i name="e_wo_entrp">   -198.56143151 </i>
    <i name="e_0_energy">   -201.17288602 </i>
   </energy>
  </scstep>
  <scstep>
   <time name="dav">    9.92    9.98</time>
   <time name="total">   10.02   10.08</time>
   <energy>
    <i name="alphaZ">    918.22725072 </i>
    <i name="ewald">  22986.77060166 </i>
    <i name="hartreedc"> -55574.73891564 </i>
    <i name="XCdc">   -998.47206000 </i>
    <i name="pawpsdc">  35585.65103760 </i>
    <i name="pawaedc"> -33432.02476977 </i>
    <i name="eentropy">     -5.22287447 </i>
    <i name="bandstr">    154.16206881 </i>
    <i name="atom">  30161.86332653 </i>
    <i name="e_fr_energy">   -203.78433455 </i>
    <i name="e_wo_entrp">   -198.56146008 </i>
    <i name="e_0_energy">   -201.17289731 </i>
   </energy>
  </scstep>
  <structure>
   <crystal>
    <varray name="basis" >
     <v>       8.30990028       0.00000000       0.00000000 </v>
     <v>      -4.15495014       7.19658475       0.00000000 </v>
     <v>       0.00000000       0.00000000      16.52350044 </v>
    </varray>
    <i name="volume">    988.15327180 </i>
    <varray name="rec_basis" >
     <v>       0.12033839       0.06947740       0.00000000 </v>
     <v>       0.00000000       0.13895480       0.00000000 </v>
     <v>       0.00000000       0.00000000       0.06051986 </v>
    </varray>
   </crystal>
   <varray name="positions" >
    <v>       1.00130810       1.00342884       0.43423119 </v>
    <v>       0.11093000       0.22330000       0.16024000 </v>
    <v>       0.22349031       0.11419702       0.29708232 </v>
    <v>       0.33737132       1.00550062       0.43513832 </v>
    <v>       0.44426000       0.22330000       0.16024000 </v>
    <v>       0.55706951       0.11435021       0.29775725 </v>
    <v>       0.66995623       1.00566311       0.43639146 </v>
    <v>       0.77760000       0.22330000       0.16024000 </v>
    <v>       0.89003949       0.11433832       0.29742807 </v>
    <v>       1.00219899       0.33896840       0.43515003 </v>
    <v>       0.11093000       0.55664000       0.16024000 </v>
    <v>       0.22336715       0.44806986       0.29704124 </v>
    <v>       0.33849088       0.34127037       0.43370215 </v>
    <v>       0.44426000       0.55664000       0.16024000 </v>
    <v>       0.55684598       0.44760456       0.29763628 </v>
    <v>       0.67046222       0.33905760       0.43624613 </v>
    <v>       0.77760000       0.55664000       0.16024000 </v>
    <v>       0.89008327       0.44759172       0.29759004 </v>
    <v>       1.00303702       0.67201266       0.43597645 </v>
    <v>       0.11093000       0.88997000       0.16024000 </v>
    <v>       0.22331191       0.78087987       0.29743021 </v>
    <v>       0.33661957       0.67309814       0.43558060 </v>
    <v>       0.44426000       0.88997000       0.16024000 </v>
    <v>       0.55707420       0.78114102       0.29779261 </v>
    <v>       0.67064323       0.67289601       0.43619344 </v>
    <v>       0.77760000       0.88997000       0.16024000 </v>
    <v>       0.88982781       0.78024176       0.29725660 </v>
    <v>       0.99982000       0.00108000       0.02337000 </v>
    <v>       0.33315000       0.00108000       0.02337000 </v>
    <v>       0.66649000       0.00108000       0.02337000 </v>
    <v>       0.99982000       0.33441000       0.02337000 </v>
    <v>       0.33315000       0.33441000       0.02337000 </v>
    <v>       0.66649000       0.33441000       0.02337000 </v>
    <v>       0.99982000       0.66775000       0.02337000 </v>
    <v>       0.33315000       0.66775000       0.02337000 </v>
    <v>       0.66649000       0.66775000       0.02337000 </v>
    <v>       0.18430390       0.12382909       0.59786420 </v>
    <v>       0.20993792       0.27543656       0.58651588 </v>
    <v>       0.16186185      -0.02374778       0.61422103 </v>
   </varray>
  </structure>
  <varray name="forces" >
   <v>      -0.02097304       0.00354465      -0.07103948 </v>
   <v>      -0.00245194       0.01094373       0.07757783 </v>
   <v>       0.00189078      -0.00007587      -0.00950914 </v>
   <v>      -0.00598136      -0.01267639      -0.01678360 </v>
   <v>       0.01848463       0.01976694       0.08067009 </v>
   <v>       0.00069785      -0.00218855      -0.00343813 </v>
   <v>      -0.00487759      -0.00753940      -0.00097940 </v>
   <v>      -0.00632031       0.01604064       0.09933357 </v>
   <v>      -0.00629171       0.00019691      -0.01223726 </v>
   <v>      -0.00007788      -0.00921528      -0.00485310 </v>
   <v>      -0.01253211       0.02071505       0.07214822 </v>
   <v>       0.00052038      -0.00331568       0.00034282 </v>
   <v>      -0.00837621      -0.02539887      -0.00918062 </v>
   <v>       0.01439147       0.02235247       0.09179800 </v>
   <v>       0.00554165      -0.00190420      -0.01147077 </v>
   <v>      -0.00858959      -0.01014974       0.00019200 </v>
   <v>       0.00346565      -0.00062318       0.10120395 </v>
   <v>      -0.00183338      -0.00160931      -0.00202166 </v>
   <v>      -0.00539117      -0.00345460      -0.00240640 </v>
   <v>       0.00377700       0.00497132       0.08091263 </v>
   <v>       0.00043960      -0.00569628      -0.00221443 </v>
   <v>      -0.00128424      -0.01635194       0.00309313 </v>
   <v>       0.00923358       0.01890966       0.10199767 </v>
   <v>      -0.00137906      -0.00376217       0.00071645 </v>
   <v>      -0.00673982      -0.01403580      -0.00244686 </v>
   <v>      -0.00326354       0.01303007       0.09765898 </v>
   <v>      -0.00038220      -0.00701083      -0.00919451 </v>
   <v>       0.00264299      -0.00814039      -0.13720608 </v>
   <v>      -0.00328939      -0.00125764      -0.14489812 </v>
   <v>       0.00169983      -0.00172721      -0.14168092 </v>
   <v>      -0.00121634      -0.00091192      -0.14327423 </v>
   <v>      -0.00031524      -0.00172830      -0.14789353 </v>
   <v>      -0.00041260      -0.00071117      -0.14146042 </v>
   <v>       0.00154744       0.00123234      -0.15431992 </v>
   <v>      -0.00206828      -0.00160271      -0.14801615 </v>
   <v>      -0.00139501      -0.00169847      -0.14547677 </v>
   <v>       0.02667227       0.08295603       0.32050461 </v>
   <v>       0.01572201       0.00347767       0.25422538 </v>
   <v>      -0.00128511      -0.07535156       0.07962618 </v>
  </varray>
  <varray name="stress" >
   <v>     -18.32981339      -0.14909221       0.09360378 </v>
   <v>      -0.14909202     -18.48766436      -0.82138534 </v>
   <v>       0.09360386      -0.82138537       1.02480002 </v>
  </varray>
  <energy>
   <i name="e_fr_energy">   -203.78433455 </i>
   <i name="e_wo_entrp">   -198.56146008 </i>
   <i name="e_0_energy">   -201.17289731 </i>
  </energy>
