PBE-grap                                
           1
     8.309900    0.000000    0.000000
    -4.154950    7.196585    0.000000
     0.000000    0.000000   16.523500
   Pd   C    O 
    36     1     2
Direct configuration=     1
   0.99860964  0.99876566  0.43867873
   0.11093000  0.22330000  0.16024000
   0.22188636  0.11257812  0.29990321
   0.33224113  0.99967696  0.43858667
   0.44426000  0.22330000  0.16024000
   0.55424540  0.11118082  0.29823225
   0.66538722  0.99961985  0.43662620
   0.77760000  0.22330000  0.16024000
   0.88852639  0.11165467  0.29888094
   0.99729148  0.33254685  0.43842465
   0.11093000  0.55664000  0.16024000
   0.22152410  0.44424689  0.29952787
   0.33099140  0.33251592  0.44377476
   0.44426000  0.55664000  0.16024000
   0.55281067  0.44393146  0.29925726
   0.66490708  0.33284284  0.43642848
   0.77760000  0.55664000  0.16024000
   0.88806865  0.44442571  0.29816862
   0.99834090  0.66591466  0.43617218
   0.11093000  0.88997000  0.16024000
   0.22181702  0.77840899  0.29854801
   0.33305079  0.66711878  0.43756168
   0.44426000  0.88997000  0.16024000
   0.55439122  0.77795106  0.29815960
   0.66569947  0.66639183  0.43649682
   0.77760000  0.88997000  0.16024000
   0.88820062  0.77865829  0.29808701
   0.99982000  0.00108000  0.02337000
   0.33315000  0.00108000  0.02337000
   0.66649000  0.00108000  0.02337000
   0.99982000  0.33441000  0.02337000
   0.33315000  0.33441000  0.02337000
   0.66649000  0.33441000  0.02337000
   0.99982000  0.66775000  0.02337000
   0.33315000  0.66775000  0.02337000
   0.66649000  0.66775000  0.02337000
   0.22972878  0.16073780  0.63098862
   0.23981137  0.30268896  0.61310949
   0.21831273  0.02516501  0.65877070
Direct configuration=     2
   0.99859644  0.99877539  0.43863609
   0.11093000  0.22330000  0.16024000
   0.22188643  0.11257379  0.29991185
   0.33224020  0.99966848  0.43855811
   0.44426000  0.22330000  0.16024000
   0.55425002  0.11118529  0.29823594
   0.66538753  0.99962034  0.43663396
   0.77760000  0.22330000  0.16024000
   0.88852469  0.11165285  0.29887534
   0.99732226  0.33255973  0.43839243
   0.11093000  0.55664000  0.16024000
   0.22152564  0.44424839  0.29953861
   0.33101973  0.33255425  0.44363740
   0.44426000  0.55664000  0.16024000
   0.55281945  0.44393629  0.29926023
   0.66490056  0.33283435  0.43644221
   0.77760000  0.55664000  0.16024000
   0.88806794  0.44443170  0.29816905
   0.99836203  0.66592891  0.43618744
   0.11093000  0.88997000  0.16024000
   0.22180924  0.77840893  0.29854472
   0.33301810  0.66710094  0.43754758
   0.44426000  0.88997000  0.16024000
   0.55439631  0.77795279  0.29815786
   0.66568882  0.66639402  0.43650799
   0.77760000  0.88997000  0.16024000
   0.88820073  0.77864946  0.29809020
   0.99982000  0.00108000  0.02337000
   0.33315000  0.00108000  0.02337000
   0.66649000  0.00108000  0.02337000
   0.99982000  0.33441000  0.02337000
   0.33315000  0.33441000  0.02337000
   0.66649000  0.33441000  0.02337000
   0.99982000  0.66775000  0.02337000
   0.33315000  0.66775000  0.02337000
   0.66649000  0.66775000  0.02337000
   0.22966260  0.16071914  0.63132139
   0.23987253  0.30284940  0.61296435
   0.21833022  0.02502306  0.65862889
Direct configuration=     3
   0.99857729  0.99878804  0.43857424
   0.11093000  0.22330000  0.16024000
   0.22188658  0.11256711  0.29992355
   0.33223865  0.99965804  0.43851810
   0.44426000  0.22330000  0.16024000
   0.55425670  0.11119156  0.29824168
   0.66538616  0.99962009  0.43664437
   0.77760000  0.22330000  0.16024000
   0.88852136  0.11164974  0.29886669
   0.99736714  0.33257912  0.43834691
   0.11093000  0.55664000  0.16024000
   0.22152847  0.44425231  0.29955242
   0.33105879  0.33261504  0.44344593
   0.44426000  0.55664000  0.16024000
   0.55283176  0.44394229  0.29926473
   0.66489231  0.33282196  0.43646162
   0.77760000  0.55664000  0.16024000
   0.88806636  0.44443983  0.29817042
   0.99839169  0.66594911  0.43620939
   0.11093000  0.88997000  0.16024000
   0.22179867  0.77840912  0.29853967
   0.33296916  0.66707531  0.43752777
   0.44426000  0.88997000  0.16024000
   0.55440352  0.77795595  0.29815586
   0.66567453  0.66639781  0.43652352
   0.77760000  0.88997000  0.16024000
   0.88820019  0.77863563  0.29809523
   0.99982000  0.00108000  0.02337000
   0.33315000  0.00108000  0.02337000
   0.66649000  0.00108000  0.02337000
   0.99982000  0.33441000  0.02337000
   0.33315000  0.33441000  0.02337000
   0.66649000  0.33441000  0.02337000
   0.99982000  0.66775000  0.02337000
   0.33315000  0.66775000  0.02337000
   0.66649000  0.66775000  0.02337000
   0.22959453  0.16106024  0.63166817
   0.23993418  0.30286254  0.61274994
   0.21833420  0.02470410  0.65844333
Direct configuration=     4
   0.99855303  0.99880759  0.43849278
   0.11093000  0.22330000  0.16024000
   0.22188533  0.11255708  0.29993452
   0.33223670  0.99964406  0.43846492
   0.44426000  0.22330000  0.16024000
   0.55426664  0.11119989  0.29824892
   0.66538405  0.99961964  0.43665953
   0.77760000  0.22330000  0.16024000
   0.88851513  0.11164440  0.29885433
   0.99742514  0.33260485  0.43828711
   0.11093000  0.55664000  0.16024000
   0.22153052  0.44425904  0.29956585
   0.33110917  0.33269300  0.44318982
   0.44426000  0.55664000  0.16024000
   0.55285181  0.44395180  0.29926896
   0.66488354  0.33280617  0.43648944
   0.77760000  0.55664000  0.16024000
   0.88806361  0.44445059  0.29817232
   0.99842714  0.66597478  0.43624030
   0.11093000  0.88997000  0.16024000
   0.22178464  0.77840889  0.29853198
   0.33290423  0.66704370  0.43750308
   0.44426000  0.88997000  0.16024000
   0.55441355  0.77796064  0.29815308
   0.66565702  0.66640420  0.43654609
   0.77760000  0.88997000  0.16024000
   0.88819840  0.77861564  0.29810154
   0.99982000  0.00108000  0.02337000
   0.33315000  0.00108000  0.02337000
   0.66649000  0.00108000  0.02337000
   0.99982000  0.33441000  0.02337000
   0.33315000  0.33441000  0.02337000
   0.66649000  0.33441000  0.02337000
   0.99982000  0.66775000  0.02337000
   0.33315000  0.66775000  0.02337000
   0.66649000  0.66775000  0.02337000
   0.22948970  0.16117986  0.63211051
   0.24000989  0.30293163  0.61247222
   0.21835291  0.02458035  0.65816306
Direct configuration=     5
   0.99852665  0.99882682  0.43840529
   0.11093000  0.22330000  0.16024000
   0.22188373  0.11254454  0.29994150
   0.33223334  0.99962975  0.43840940
   0.44426000  0.22330000  0.16024000
   0.55427810  0.11120903  0.29825714
   0.66537957  0.99961864  0.43667302
   0.77760000  0.22330000  0.16024000
   0.88850693  0.11163818  0.29884014
   0.99748394  0.33263352  0.43822631
   0.11093000  0.55664000  0.16024000
   0.22153122  0.44426826  0.29957488
   0.33115289  0.33278208  0.44293340
   0.44426000  0.55664000  0.16024000
   0.55287504  0.44396236  0.29927133
   0.66487808  0.33279035  0.43651835
   0.77760000  0.55664000  0.16024000
   0.88805963  0.44446155  0.29817589
   0.99846167  0.66600154  0.43627211
   0.11093000  0.88997000  0.16024000
   0.22177034  0.77840809  0.29852389
   0.33283427  0.66701319  0.43747768
   0.44426000  0.88997000  0.16024000
   0.55442425  0.77796566  0.29815085
   0.66564182  0.66641465  0.43656822
   0.77760000  0.88997000  0.16024000
   0.88819483  0.77859172  0.29810872
   0.99982000  0.00108000  0.02337000
   0.33315000  0.00108000  0.02337000
   0.66649000  0.00108000  0.02337000
   0.99982000  0.33441000  0.02337000
   0.33315000  0.33441000  0.02337000
   0.66649000  0.33441000  0.02337000
   0.99982000  0.66775000  0.02337000
   0.33315000  0.66775000  0.02337000
   0.66649000  0.66775000  0.02337000
   0.22942886  0.16185393  0.63232268
   0.24004741  0.30273486  0.61216026
   0.21832856  0.02423969  0.65790688
Direct configuration=     6
   0.99851484  0.99883214  0.43837022
   0.11093000  0.22330000  0.16024000
   0.22188264  0.11253816  0.29994162
   0.33223200  0.99962372  0.43838729
   0.44426000  0.22330000  0.16024000
   0.55428195  0.11121226  0.29826000
   0.66537783  0.99961854  0.43667926
   0.77760000  0.22330000  0.16024000
   0.88850284  0.11163562  0.29883359
   0.99750477  0.33264363  0.43820171
   0.11093000  0.55664000  0.16024000
   0.22153168  0.44427352  0.29957557
   0.33117330  0.33281844  0.44282594
   0.44426000  0.55664000  0.16024000
   0.55288697  0.44396786  0.29927097
   0.66487723  0.33278489  0.43653089
   0.77760000  0.55664000  0.16024000
   0.88805773  0.44446627  0.29817741
   0.99847427  0.66601157  0.43628551
   0.11093000  0.88997000  0.16024000
   0.22176444  0.77840751  0.29852013
   0.33280794  0.66700317  0.43746834
   0.44426000  0.88997000  0.16024000
   0.55442877  0.77796795  0.29815011
   0.66563699  0.66641991  0.43657781
   0.77760000  0.88997000  0.16024000
   0.88819175  0.77858147  0.29811094
   0.99982000  0.00108000  0.02337000
   0.33315000  0.00108000  0.02337000
   0.66649000  0.00108000  0.02337000
   0.99982000  0.33441000  0.02337000
   0.33315000  0.33441000  0.02337000
   0.66649000  0.33441000  0.02337000
   0.99982000  0.66775000  0.02337000
   0.33315000  0.66775000  0.02337000
   0.66649000  0.66775000  0.02337000
   0.22936420  0.16151297  0.63248069
   0.24008007  0.30293084  0.61201336
   0.21834173  0.02443991  0.65775668
Direct configuration=     7
   0.99850954  0.99883399  0.43835541
   0.11093000  0.22330000  0.16024000
   0.22188245  0.11253582  0.29994208
   0.33223086  0.99962151  0.43837860
   0.44426000  0.22330000  0.16024000
   0.55428331  0.11121340  0.29826147
   0.66537652  0.99961826  0.43668184
   0.77760000  0.22330000  0.16024000
   0.88850080  0.11163443  0.29883074
   0.99751370  0.33264856  0.43819247
   0.11093000  0.55664000  0.16024000
   0.22153166  0.44427584  0.29957598
   0.33118015  0.33283761  0.44278583
   0.44426000  0.55664000  0.16024000
   0.55289141  0.44396980  0.29927164
   0.66487703  0.33278237  0.43653661
   0.77760000  0.55664000  0.16024000
   0.88805675  0.44446793  0.29817849
   0.99847945  0.66601590  0.43629157
   0.11093000  0.88997000  0.16024000
   0.22176189  0.77840735  0.29851867
   0.33279561  0.66699872  0.43746515
   0.44426000  0.88997000  0.16024000
   0.55443052  0.77796886  0.29814982
   0.66563526  0.66642282  0.43658226
   0.77760000  0.88997000  0.16024000
   0.88819014  0.77857693  0.29811190
   0.99982000  0.00108000  0.02337000
   0.33315000  0.00108000  0.02337000
   0.66649000  0.00108000  0.02337000
   0.99982000  0.33441000  0.02337000
   0.33315000  0.33441000  0.02337000
   0.66649000  0.33441000  0.02337000
   0.99982000  0.66775000  0.02337000
   0.33315000  0.66775000  0.02337000
   0.66649000  0.66775000  0.02337000
   0.22935682  0.16167660  0.63245904
   0.24007835  0.30286946  0.61193739
   0.21832958  0.02438351  0.65770631
Direct configuration=     8
   0.99849977  0.99883688  0.43832843
   0.11093000  0.22330000  0.16024000
   0.22188235  0.11253198  0.29994371
   0.33222852  0.99961855  0.43836332
   0.44426000  0.22330000  0.16024000
   0.55428551  0.11121534  0.29826455
   0.66537399  0.99961779  0.43668627
   0.77760000  0.22330000  0.16024000
   0.88849731  0.11163236  0.29882595
   0.99752844  0.33265759  0.43817551
   0.11093000  0.55664000  0.16024000
   0.22153130  0.44427916  0.29957739
   0.33119309  0.33287532  0.44271425
   0.44426000  0.55664000  0.16024000
   0.55289864  0.44397287  0.29927395
   0.66487658  0.33277760  0.43654668
   0.77760000  0.55664000  0.16024000
   0.88805495  0.44447074  0.29818096
   0.99848873  0.66602372  0.43630226
   0.11093000  0.88997000  0.16024000
   0.22175725  0.77840700  0.29851681
   0.33277329  0.66699196  0.43745900
   0.44426000  0.88997000  0.16024000
   0.55443352  0.77797026  0.29814961
   0.66563217  0.66642821  0.43658988
   0.77760000  0.88997000  0.16024000
   0.88818721  0.77856857  0.29811392
   0.99982000  0.00108000  0.02337000
   0.33315000  0.00108000  0.02337000
   0.66649000  0.00108000  0.02337000
   0.99982000  0.33441000  0.02337000
   0.33315000  0.33441000  0.02337000
   0.66649000  0.33441000  0.02337000
   0.99982000  0.66775000  0.02337000
   0.33315000  0.66775000  0.02337000
   0.66649000  0.66775000  0.02337000
   0.22932845  0.16182582  0.63243144
   0.24007951  0.30281783  0.61177162
   0.21831244  0.02437892  0.65758815
Direct configuration=     9
   0.99848348  0.99884057  0.43828715
   0.11093000  0.22330000  0.16024000
   0.22188190  0.11252572  0.29994477
   0.33222585  0.99961421  0.43833991
   0.44426000  0.22330000  0.16024000
   0.55428940  0.11121897  0.29826887
   0.66536996  0.99961673  0.43669363
   0.77760000  0.22330000  0.16024000
   0.88849220  0.11162953  0.29881803
   0.99754706  0.33267069  0.43814808
   0.11093000  0.55664000  0.16024000
   0.22153082  0.44428458  0.29957837
   0.33121983  0.33293206  0.44259687
   0.44426000  0.55664000  0.16024000
   0.55291012  0.44397791  0.29927691
   0.66487628  0.33277105  0.43656265
   0.77760000  0.55664000  0.16024000
   0.88805210  0.44447566  0.29818430
   0.99850241  0.66603595  0.43631932
   0.11093000  0.88997000  0.16024000
   0.22174956  0.77840633  0.29851342
   0.33274078  0.66698538  0.43744913
   0.44426000  0.88997000  0.16024000
   0.55443830  0.77797236  0.29814912
   0.66562836  0.66643740  0.43660209
   0.77760000  0.88997000  0.16024000
   0.88818281  0.77855561  0.29811655
   0.99982000  0.00108000  0.02337000
   0.33315000  0.00108000  0.02337000
   0.66649000  0.00108000  0.02337000
   0.99982000  0.33441000  0.02337000
   0.33315000  0.33441000  0.02337000
   0.66649000  0.33441000  0.02337000
   0.99982000  0.66775000  0.02337000
   0.33315000  0.66775000  0.02337000
   0.66649000  0.66775000  0.02337000
   0.22927902  0.16191498  0.63243071
   0.24009042  0.30280653  0.61153358
   0.21829235  0.02442153  0.65740875
Direct configuration=    10
   0.99846164  0.99884672  0.43822846
   0.11093000  0.22330000  0.16024000
   0.22188012  0.11251599  0.29994259
   0.33222304  0.99960794  0.43830523
   0.44426000  0.22330000  0.16024000
   0.55429627  0.11122467  0.29827429
   0.66536469  0.99961568  0.43670337
   0.77760000  0.22330000  0.16024000
   0.88848392  0.11162533  0.29880573
   0.99756901  0.33268773  0.43810738
   0.11093000  0.55664000  0.16024000
   0.22152984  0.44429363  0.29957621
   0.33126120  0.33300688  0.44242287
   0.44426000  0.55664000  0.16024000
   0.55292983  0.44398674  0.29927841
   0.66487724  0.33276276  0.43658455
   0.77760000  0.55664000  0.16024000
   0.88804779  0.44448323  0.29818836
   0.99852042  0.66605295  0.43634231
   0.11093000  0.88997000  0.16024000
   0.22173872  0.77840447  0.29850841
   0.33269816  0.66697928  0.43743488
   0.44426000  0.88997000  0.16024000
   0.55444484  0.77797551  0.29814918
   0.66562449  0.66645176  0.43661801
   0.77760000  0.88997000  0.16024000
   0.88817628  0.77853661  0.29811969
   0.99982000  0.00108000  0.02337000
   0.33315000  0.00108000  0.02337000
   0.66649000  0.00108000  0.02337000
   0.99982000  0.33441000  0.02337000
   0.33315000  0.33441000  0.02337000
   0.66649000  0.33441000  0.02337000
   0.99982000  0.66775000  0.02337000
   0.33315000  0.66775000  0.02337000
   0.66649000  0.66775000  0.02337000
   0.22922495  0.16209956  0.63243935
   0.24010647  0.30277682  0.61125034
   0.21826173  0.02441300  0.65719120
Direct configuration=    11
   0.99843868  0.99885752  0.43815109
   0.11093000  0.22330000  0.16024000
   0.22187643  0.11250039  0.29993421
   0.33222026  0.99959972  0.43825798
   0.44426000  0.22330000  0.16024000
   0.55430682  0.11123295  0.29828058
   0.66535841  0.99961544  0.43671643
   0.77760000  0.22330000  0.16024000
   0.88847084  0.11162023  0.29878867
   0.99759451  0.33270960  0.43805252
   0.11093000  0.55664000  0.16024000
   0.22152774  0.44430782  0.29956819
   0.33131621  0.33309584  0.44218627
   0.44426000  0.55664000  0.16024000
   0.55296056  0.44400085  0.29927680
   0.66488003  0.33275336  0.43661386
   0.77760000  0.55664000  0.16024000
   0.88804151  0.44449383  0.29819300
   0.99854256  0.66607554  0.43637276
   0.11093000  0.88997000  0.16024000
   0.22172418  0.77840143  0.29850053
   0.33264507  0.66697462  0.43741583
   0.44426000  0.88997000  0.16024000
   0.55445373  0.77798035  0.29814930
   0.66561940  0.66647004  0.43663915
   0.77760000  0.88997000  0.16024000
   0.88816687  0.77851212  0.29812360
   0.99982000  0.00108000  0.02337000
   0.33315000  0.00108000  0.02337000
   0.66649000  0.00108000  0.02337000
   0.99982000  0.33441000  0.02337000
   0.33315000  0.33441000  0.02337000
   0.66649000  0.33441000  0.02337000
   0.99982000  0.66775000  0.02337000
   0.33315000  0.66775000  0.02337000
   0.66649000  0.66775000  0.02337000
   0.22915899  0.16220562  0.63246615
   0.24013391  0.30281920  0.61092476
   0.21822511  0.02443152  0.65693580
Direct configuration=    12
   0.99841045  0.99887035  0.43806237
   0.11093000  0.22330000  0.16024000
   0.22187035  0.11247814  0.29991485
   0.33221903  0.99959009  0.43820031
   0.44426000  0.22330000  0.16024000
   0.55432176  0.11124439  0.29828700
   0.66535209  0.99961645  0.43673064
   0.77760000  0.22330000  0.16024000
   0.88845638  0.11161522  0.29876683
   0.99762146  0.33273424  0.43798721
   0.11093000  0.55664000  0.16024000
   0.22152091  0.44432491  0.29955152
   0.33137927  0.33318918  0.44190695
   0.44426000  0.55664000  0.16024000
   0.55300433  0.44402116  0.29926927
   0.66488722  0.33274565  0.43664596
   0.77760000  0.55664000  0.16024000
   0.88803386  0.44450751  0.29819792
   0.99856040  0.66609879  0.43640533
   0.11093000  0.88997000  0.16024000
   0.22170665  0.77839666  0.29848986
   0.33258903  0.66697501  0.43739213
   0.44426000  0.88997000  0.16024000
   0.55446354  0.77798447  0.29814948
   0.66561468  0.66649084  0.43666198
   0.77760000  0.88997000  0.16024000
   0.88815550  0.77848265  0.29812727
   0.99982000  0.00108000  0.02337000
   0.33315000  0.00108000  0.02337000
   0.66649000  0.00108000  0.02337000
   0.99982000  0.33441000  0.02337000
   0.33315000  0.33441000  0.02337000
   0.66649000  0.33441000  0.02337000
   0.99982000  0.66775000  0.02337000
   0.33315000  0.66775000  0.02337000
   0.66649000  0.66775000  0.02337000
   0.22912455  0.16262641  0.63244251
   0.24015402  0.30270377  0.61064293
   0.21817014  0.02429897  0.65670805
Direct configuration=    13
   0.99840147  0.99887723  0.43802706
   0.11093000  0.22330000  0.16024000
   0.22186714  0.11246759  0.29990328
   0.33221900  0.99958712  0.43817761
   0.44426000  0.22330000  0.16024000
   0.55432867  0.11124955  0.29828893
   0.66535028  0.99961760  0.43673666
   0.77760000  0.22330000  0.16024000
   0.88845074  0.11161349  0.29875734
   0.99763087  0.33274271  0.43796066
   0.11093000  0.55664000  0.16024000
   0.22151849  0.44433315  0.29954166
   0.33140125  0.33321892  0.44179260
   0.44426000  0.55664000  0.16024000
   0.55302444  0.44403020  0.29926332
   0.66489121  0.33274390  0.43665867
   0.77760000  0.55664000  0.16024000
   0.88803053  0.44451273  0.29819910
   0.99856560  0.66610783  0.43641847
   0.11093000  0.88997000  0.16024000
   0.22169968  0.77839451  0.29848483
   0.33256935  0.66697616  0.43738308
   0.44426000  0.88997000  0.16024000
   0.55446775  0.77798667  0.29814958
   0.66561357  0.66649951  0.43667112
   0.77760000  0.88997000  0.16024000
   0.88815084  0.77847092  0.29812814
   0.99982000  0.00108000  0.02337000
   0.33315000  0.00108000  0.02337000
   0.66649000  0.00108000  0.02337000
   0.99982000  0.33441000  0.02337000
   0.33315000  0.33441000  0.02337000
   0.66649000  0.33441000  0.02337000
   0.99982000  0.66775000  0.02337000
   0.33315000  0.66775000  0.02337000
   0.66649000  0.66775000  0.02337000
   0.22908183  0.16232016  0.63251695
   0.24018129  0.30288968  0.61053589
   0.21816817  0.02446865  0.65660086
Direct configuration=    14
   0.99839832  0.99887988  0.43801515
   0.11093000  0.22330000  0.16024000
   0.22186602  0.11246378  0.29989903
   0.33221909  0.99958614  0.43816965
   0.44426000  0.22330000  0.16024000
   0.55433120  0.11125137  0.29828949
   0.66534968  0.99961809  0.43673865
   0.77760000  0.22330000  0.16024000
   0.88844860  0.11161289  0.29875395
   0.99763375  0.33274548  0.43795176
   0.11093000  0.55664000  0.16024000
   0.22151748  0.44433605  0.29953801
   0.33140884  0.33322819  0.44175389
   0.44426000  0.55664000  0.16024000
   0.55303158  0.44403349  0.29926105
   0.66489270  0.33274346  0.43666298
   0.77760000  0.55664000  0.16024000
   0.88802937  0.44451458  0.29819942
   0.99856704  0.66611084  0.43642279
   0.11093000  0.88997000  0.16024000
   0.22169732  0.77839376  0.29848301
   0.33256310  0.66697693  0.43738003
   0.44426000  0.88997000  0.16024000
   0.55446923  0.77798757  0.29814959
   0.66561336  0.66650265  0.43667422
   0.77760000  0.88997000  0.16024000
   0.88814919  0.77846694  0.29812834
   0.99982000  0.00108000  0.02337000
   0.33315000  0.00108000  0.02337000
   0.66649000  0.00108000  0.02337000
   0.99982000  0.33441000  0.02337000
   0.33315000  0.33441000  0.02337000
   0.66649000  0.33441000  0.02337000
   0.99982000  0.66775000  0.02337000
   0.33315000  0.66775000  0.02337000
   0.66649000  0.66775000  0.02337000
   0.22908669  0.16245180  0.63250289
   0.24018165  0.30283618  0.61052027
   0.21815781  0.02440529  0.65658721
Direct configuration=    15
   0.99839063  0.99888545  0.43798695
   0.11093000  0.22330000  0.16024000
   0.22186314  0.11245444  0.29988844
   0.33221942  0.99958348  0.43815058
   0.44426000  0.22330000  0.16024000
   0.55433726  0.11125580  0.29829087
   0.66534850  0.99961936  0.43674319
   0.77760000  0.22330000  0.16024000
   0.88844364  0.11161149  0.29874602
   0.99764056  0.33275173  0.43793031
   0.11093000  0.55664000  0.16024000
   0.22151518  0.44434318  0.29952931
   0.33142767  0.33324870  0.44166021
   0.44426000  0.55664000  0.16024000
   0.55304900  0.44404154  0.29925520
   0.66489634  0.33274262  0.43667287
   0.77760000  0.55664000  0.16024000
   0.88802673  0.44451913  0.29820022
   0.99857045  0.66611813  0.43643232
   0.11093000  0.88997000  0.16024000
   0.22169165  0.77839183  0.29847878
   0.33254886  0.66697865  0.43737259
   0.44426000  0.88997000  0.16024000
   0.55447278  0.77798965  0.29814981
   0.66561298  0.66650980  0.43668109
   0.77760000  0.88997000  0.16024000
   0.88814544  0.77845760  0.29812893
   0.99982000  0.00108000  0.02337000
   0.33315000  0.00108000  0.02337000
   0.66649000  0.00108000  0.02337000
   0.99982000  0.33441000  0.02337000
   0.33315000  0.33441000  0.02337000
   0.66649000  0.33441000  0.02337000
   0.99982000  0.66775000  0.02337000
   0.33315000  0.66775000  0.02337000
   0.66649000  0.66775000  0.02337000
   0.22908670  0.16259173  0.63251031
   0.24019054  0.30279208  0.61048473
   0.21814193  0.02433787  0.65654676
Direct configuration=    16
   0.99838164  0.99889348  0.43795058
   0.11093000  0.22330000  0.16024000
   0.22185904  0.11244188  0.29987296
   0.33222001  0.99957983  0.43812557
   0.44426000  0.22330000  0.16024000
   0.55434524  0.11126179  0.29829212
   0.66534725  0.99962123  0.43674909
   0.77760000  0.22330000  0.16024000
   0.88843721  0.11160979  0.29873518
   0.99764928  0.33275954  0.43790233
   0.11093000  0.55664000  0.16024000
   0.22151211  0.44435278  0.29951648
   0.33145295  0.33327405  0.44153730
   0.44426000  0.55664000  0.16024000
   0.55307252  0.44405255  0.29924618
   0.66490140  0.33274209  0.43668532
   0.77760000  0.55664000  0.16024000
   0.88802334  0.44452523  0.29820072
   0.99857452  0.66612739  0.43644447
   0.11093000  0.88997000  0.16024000
   0.22168432  0.77838922  0.29847279
   0.33253186  0.66698049  0.43736299
   0.44426000  0.88997000  0.16024000
   0.55447732  0.77799237  0.29814985
   0.66561202  0.66651836  0.43668940
   0.77760000  0.88997000  0.16024000
   0.88814063  0.77844577  0.29812916
   0.99982000  0.00108000  0.02337000
   0.33315000  0.00108000  0.02337000
   0.66649000  0.00108000  0.02337000
   0.99982000  0.33441000  0.02337000
   0.33315000  0.33441000  0.02337000
   0.66649000  0.33441000  0.02337000
   0.99982000  0.66775000  0.02337000
   0.33315000  0.66775000  0.02337000
   0.66649000  0.66775000  0.02337000
   0.22907455  0.16257851  0.63256320
   0.24021098  0.30282604  0.61044366
   0.21813089  0.02434226  0.65648743
Direct configuration=    17
   0.99836992  0.99890487  0.43790448
   0.11093000  0.22330000  0.16024000
   0.22185353  0.11242494  0.29985119
   0.33222053  0.99957582  0.43809358
   0.44426000  0.22330000  0.16024000
   0.55435574  0.11127017  0.29829302
   0.66534581  0.99962388  0.43675720
   0.77760000  0.22330000  0.16024000
   0.88842848  0.11160746  0.29872063
   0.99765994  0.33276962  0.43786705
   0.11093000  0.55664000  0.16024000
   0.22150799  0.44436590  0.29949829
   0.33148497  0.33330646  0.44138016
   0.44426000  0.55664000  0.16024000
   0.55310413  0.44406731  0.29923363
   0.66490826  0.33274182  0.43670199
   0.77760000  0.55664000  0.16024000
   0.88801894  0.44453318  0.29820128
   0.99857923  0.66613835  0.43645971
   0.11093000  0.88997000  0.16024000
   0.22167481  0.77838564  0.29846476
   0.33251021  0.66698233  0.43735134
   0.44426000  0.88997000  0.16024000
   0.55448323  0.77799597  0.29814988
   0.66561102  0.66652969  0.43670072
   0.77760000  0.88997000  0.16024000
   0.88813425  0.77843025  0.29812920
   0.99982000  0.00108000  0.02337000
   0.33315000  0.00108000  0.02337000
   0.66649000  0.00108000  0.02337000
   0.99982000  0.33441000  0.02337000
   0.33315000  0.33441000  0.02337000
   0.66649000  0.33441000  0.02337000
   0.99982000  0.66775000  0.02337000
   0.33315000  0.66775000  0.02337000
   0.66649000  0.66775000  0.02337000
   0.22906917  0.16268196  0.63259903
   0.24023223  0.30281268  0.61039986
   0.21810988  0.02428915  0.65642239
Direct configuration=    18
   0.99835692  0.99891830  0.43784855
   0.11093000  0.22330000  0.16024000
   0.22184712  0.11240320  0.29982290
   0.33222060  0.99957101  0.43805495
   0.44426000  0.22330000  0.16024000
   0.55436883  0.11128054  0.29829434
   0.66534407  0.99962751  0.43676663
   0.77760000  0.22330000  0.16024000
   0.88841725  0.11160461  0.29870264
   0.99767170  0.33278215  0.43782425
   0.11093000  0.55664000  0.16024000
   0.22150214  0.44438260  0.29947468
   0.33152294  0.33334422  0.44119089
   0.44426000  0.55664000  0.16024000
   0.55314480  0.44408621  0.29921802
   0.66491686  0.33274340  0.43672179
   0.77760000  0.55664000  0.16024000
   0.88801346  0.44454305  0.29820231
   0.99858416  0.66615185  0.43647798
   0.11093000  0.88997000  0.16024000
   0.22166317  0.77838113  0.29845510
   0.33248523  0.66698500  0.43733693
   0.44426000  0.88997000  0.16024000
   0.55449037  0.77800059  0.29815043
   0.66561064  0.66654417  0.43671413
   0.77760000  0.88997000  0.16024000
   0.88812620  0.77841130  0.29812933
   0.99982000  0.00108000  0.02337000
   0.33315000  0.00108000  0.02337000
   0.66649000  0.00108000  0.02337000
   0.99982000  0.33441000  0.02337000
   0.33315000  0.33441000  0.02337000
   0.66649000  0.33441000  0.02337000
   0.99982000  0.66775000  0.02337000
   0.33315000  0.66775000  0.02337000
   0.66649000  0.66775000  0.02337000
   0.22905353  0.16266793  0.63265019
   0.24026159  0.30286312  0.61034203
   0.21808846  0.02429671  0.65633777
Direct configuration=    19
   0.99834516  0.99893281  0.43779337
   0.11093000  0.22330000  0.16024000
   0.22184002  0.11237996  0.29979019
   0.33221889  0.99956654  0.43801630
   0.44426000  0.22330000  0.16024000
   0.55438266  0.11129132  0.29829514
   0.66534248  0.99963171  0.43677613
   0.77760000  0.22330000  0.16024000
   0.88840524  0.11160167  0.29868319
   0.99768055  0.33279227  0.43778192
   0.11093000  0.55664000  0.16024000
   0.22149590  0.44440092  0.29944711
   0.33156008  0.33338055  0.44100190
   0.44426000  0.55664000  0.16024000
   0.55318638  0.44410510  0.29920005
   0.66492691  0.33274736  0.43674130
   0.77760000  0.55664000  0.16024000
   0.88800785  0.44455330  0.29820295
   0.99858943  0.66616624  0.43649615
   0.11093000  0.88997000  0.16024000
   0.22165125  0.77837619  0.29844462
   0.33246237  0.66698929  0.43732265
   0.44426000  0.88997000  0.16024000
   0.55449760  0.77800544  0.29815085
   0.66561121  0.66655948  0.43672766
   0.77760000  0.88997000  0.16024000
   0.88811779  0.77839196  0.29812875
   0.99982000  0.00108000  0.02337000
   0.33315000  0.00108000  0.02337000
   0.66649000  0.00108000  0.02337000
   0.99982000  0.33441000  0.02337000
   0.33315000  0.33441000  0.02337000
   0.66649000  0.33441000  0.02337000
   0.99982000  0.66775000  0.02337000
   0.33315000  0.66775000  0.02337000
   0.66649000  0.66775000  0.02337000
   0.22905761  0.16287242  0.63264991
   0.24028308  0.30281003  0.61030284
   0.21805563  0.02419552  0.65627303
Direct configuration=    20
   0.99833896  0.99894030  0.43776263
   0.11093000  0.22330000  0.16024000
   0.22183561  0.11236611  0.29977046
   0.33221788  0.99956420  0.43799414
   0.44426000  0.22330000  0.16024000
   0.55439068  0.11129746  0.29829599
   0.66534163  0.99963435  0.43678094
   0.77760000  0.22330000  0.16024000
   0.88839800  0.11159986  0.29867232
   0.99768509  0.33279720  0.43775775
   0.11093000  0.55664000  0.16024000
   0.22149293  0.44441174  0.29943044
   0.33158257  0.33340132  0.44089784
   0.44426000  0.55664000  0.16024000
   0.55321140  0.44411613  0.29918982
   0.66493320  0.33275016  0.43675136
   0.77760000  0.55664000  0.16024000
   0.88800459  0.44455924  0.29820375
   0.99859193  0.66617438  0.43650589
   0.11093000  0.88997000  0.16024000
   0.22164359  0.77837271  0.29843929
   0.33244966  0.66699227  0.43731377
   0.44426000  0.88997000  0.16024000
   0.55450105  0.77800808  0.29815137
   0.66561126  0.66656777  0.43673429
   0.77760000  0.88997000  0.16024000
   0.88811323  0.77838144  0.29812837
   0.99982000  0.00108000  0.02337000