 vasp.5.4.4.18Apr17-6-g9f103f2a35 (build Aug 09 2024 17:42:55) complex          
  
 executed on             LinuxIFC date 2025.12.05  14:46:29
 running on   64 total cores
 each image running on   16 cores
 distrk:  each k-point on   16 cores,    1 groups
 distr:  one band on NCORES_PER_BAND=   2 cores,    8 groups


--------------------------------------------------------------------------------------------------------


 INCAR:
 POTCAR:    PAW_PBE Pd 04Jan2005                  
 POTCAR:    PAW_PBE C 08Apr2002                   
 POTCAR:    PAW_PBE O 08Apr2002                   
 POTCAR:    PAW_PBE Pd 04Jan2005                  
  local pseudopotential read in
  partial core-charges read in
  partial kinetic energy density read in
  atomic valenz-charges read in
  non local Contribution for L=           2  read in
    real space projection operators read in
  non local Contribution for L=           2  read in
    real space projection operators read in
  non local Contribution for L=           0  read in
    real space projection operators read in
  non local Contribution for L=           0  read in
    real space projection operators read in
  non local Contribution for L=           1  read in
    real space projection operators read in
  non local Contribution for L=           1  read in
    real space projection operators read in
    PAW grid and wavefunctions read in
 
   number of l-projection  operators is LMAX  =           6
   number of lm-projection operators is LMMAX =          18
 
 POTCAR:    PAW_PBE C 08Apr2002                   
  local pseudopotential read in
  partial core-charges read in
  partial kinetic energy density read in
  atomic valenz-charges read in
  non local Contribution for L=           0  read in
    real space projection operators read in
  non local Contribution for L=           0  read in
    real space projection operators read in
  non local Contribution for L=           1  read in
    real space projection operators read in
  non local Contribution for L=           1  read in
    real space projection operators read in
    PAW grid and wavefunctions read in
 
   number of l-projection  operators is LMAX  =           4
   number of lm-projection operators is LMMAX =           8
 
 POTCAR:    PAW_PBE O 08Apr2002                   
  local pseudopotential read in
  partial core-charges read in
  partial kinetic energy density read in
  kinetic energy density of atom read in
  atomic valenz-charges read in
  non local Contribution for L=           0  read in
    real space projection operators read in
  non local Contribution for L=           0  read in
    real space projection operators read in
  non local Contribution for L=           1  read in
    real space projection operators read in
  non local Contribution for L=           1  read in
    real space projection operators read in
    PAW grid and wavefunctions read in
 
   number of l-projection  operators is LMAX  =           4
   number of lm-projection operators is LMMAX =           8
 
 Optimization of the real space projectors (new method)

 maximal supplied QI-value         = 14.36
 optimisation between [QCUT,QGAM] = [  9.77, 19.68] = [ 26.71,108.41] Ry 
 Optimized for a Real-space Cutoff    1.52 Angstroem

   l    n(q)    QCUT    max X(q) W(low)/X(q) W(high)/X(q)  e(spline) 
   2      8     9.766    59.108    0.18E-03    0.12E-03    0.98E-07
   2      8     9.766    58.101    0.18E-03    0.12E-03    0.10E-06
   0      9     9.766   102.235    0.37E-04    0.68E-04    0.73E-07
   0      9     9.766    58.388    0.33E-04    0.64E-04    0.69E-07
   1      8     9.766    22.191    0.23E-03    0.61E-04    0.11E-06
   1      8     9.766    15.590    0.19E-03    0.52E-04    0.93E-07
 Optimization of the real space projectors (new method)

 maximal supplied QI-value         = 25.13
 optimisation between [QCUT,QGAM] = [  9.80, 19.60] = [ 26.90,107.62] Ry 
 Optimized for a Real-space Cutoff    1.35 Angstroem

   l    n(q)    QCUT    max X(q) W(low)/X(q) W(high)/X(q)  e(spline) 
   0      8     9.802   115.676    0.45E-03    0.67E-03    0.24E-06
   0      8     9.802    87.132    0.44E-03    0.67E-03    0.24E-06
   1      7     9.802     4.429    0.38E-03    0.18E-03    0.24E-06
   1      7     9.802     2.733    0.25E-03    0.72E-04    0.26E-06
 Optimization of the real space projectors (new method)

 maximal supplied QI-value         = 24.76
 optimisation between [QCUT,QGAM] = [  9.65, 19.56] = [ 26.10,107.10] Ry 
 Optimized for a Real-space Cutoff    1.44 Angstroem

   l    n(q)    QCUT    max X(q) W(low)/X(q) W(high)/X(q)  e(spline) 
   0      8     9.655    20.381    0.19E-03    0.21E-03    0.36E-06
   0      8     9.655    15.268    0.21E-03    0.24E-03    0.37E-06
   1      8     9.655     5.964    0.43E-03    0.39E-03    0.31E-06
   1      8     9.655     5.382    0.36E-03    0.33E-03    0.28E-06
  PAW_PBE Pd 04Jan2005                  :
 energy of atom  1       EATOM= -809.7530
 kinetic energy error for atom=    0.0177 (will be added to EATOM!!)
  PAW_PBE C 08Apr2002                   :
 energy of atom  2       EATOM= -147.1560
 kinetic energy error for atom=    0.0545 (will be added to EATOM!!)
  PAW_PBE O 08Apr2002                   :
 energy of atom  3       EATOM= -432.3788
 kinetic energy error for atom=    0.2342 (will be added to EATOM!!)
 
 
 POSCAR: initial\(6)                             
  positions in direct lattice
  No initial velocities read in
 exchange correlation table for  LEXCH =        8
   RHO(1)=    0.500       N(1)  =     2000
   RHO(2)=  100.500       N(2)  =     4000

 VTST: version 3.2, (02/03/18)

 CHAIN: initializing optimizer
 
 OPT: Using Quick-Min optimizer
 OPT: QM, Init
 OPT: QM, MAXMOVE       0.200000
 OPT: QM, TIMESTEP      0.100000
 
 CHAIN: Read ICHAIN            0
 CHAIN: Running the NEB
 NEB:          SPRING     -5.000000
 NEB:          LCLIMB      T
 NEB:     LTANGENTOLD      F
 NEB:           LDNEB      F
 NEB:        LDNEBORG      F
 NEB:        LNEBCELL      F
 NEB:          EFIRST      0.000000
 NEB:           ELAST      0.000000
 
 POSCAR: initial\(7)                             
  positions in direct lattice
  velocities in cartesian coordinates
 
 POSCAR: final_re                                
  positions in direct lattice
  velocities in cartesian coordinates
 


--------------------------------------------------------------------------------------------------------


 ion  position               nearest neighbor table
   1  1.000  0.001  0.434-   9 2.77   3 2.77  27 2.77   7 2.77   4 2.77  10 2.77  13 2.77  25 2.77
                            19 2.77
   2  0.111  0.223  0.160-   3 2.77   9 2.77  31 2.77  32 2.77  12 2.77  28 2.77   5 2.77   8 2.77
                            26 2.77  20 2.77  14 2.77  11 2.77
   3  0.222  0.112  0.297-   1 2.77   4 2.77   2 2.77   5 2.77  13 2.77  20 2.77   9 2.77  21 2.77
                            27 2.77  12 2.77  15 2.77   6 2.77
   4  0.333  0.001  0.434-   3 2.77  21 2.77   6 2.77   1 2.77  13 2.77  19 2.77  22 2.77  16 2.77
                             7 2.77
   5  0.444  0.223  0.160-  32 2.77   3 2.77  29 2.77  15 2.77   6 2.77  33 2.77   2 2.77  20 2.77
                            23 2.77   8 2.77  17 2.77  14 2.77
   6  0.555  0.112  0.297-   7 2.77   8 2.77  16 2.77  23 2.77   4 2.77   5 2.77   9 2.77  24 2.77
                            15 2.77  18 2.77  21 2.77   3 2.77
   7  0.666  0.001  0.434-   6 2.77   9 2.77  24 2.77   1 2.77  16 2.77  10 2.77  25 2.77  22 2.77
                             4 2.77
   8  0.778  0.223  0.160-  33 2.77  31 2.77   6 2.77   9 2.77  18 2.77  30 2.77   2 2.77  26 2.77
                            23 2.77  11 2.77   5 2.77  17 2.77
   9  0.889  0.112  0.297-   1 2.77   7 2.77   2 2.77   8 2.77  10 2.77  26 2.77   3 2.77   6 2.77
                            27 2.77  24 2.77  12 2.77  18 2.77
  10  1.000  0.334  0.434-  12 2.77  18 2.77   9 2.77  16 2.77  13 2.77   7 2.77   1 2.77  22 2.77
                            19 2.77
  11  0.111  0.557  0.160-  34 2.77  35 2.77  21 2.77  18 2.77  12 2.77  31 2.77  14 2.77  17 2.77
                            23 2.77  20 2.77   8 2.77   2 2.77
  12  0.222  0.446  0.297-  10 2.77  13 2.77   2 2.77  14 2.77  11 2.77  22 2.77  18 2.77   9 2.77
                             3 2.77  15 2.77  21 2.77  24 2.77
  13  0.333  0.334  0.434-  12 2.77   3 2.77  15 2.77  10 2.77   4 2.77   1 2.77  16 2.77  22 2.77
                            25 2.77
  14  0.444  0.557  0.160-  35 2.77  12 2.77  24 2.77  36 2.77  32 2.77  11 2.77  23 2.77  15 2.77
                            26 2.77   2 2.77  17 2.77   5 2.77
  15  0.555  0.446  0.297-  16 2.77  17 2.77   5 2.77  13 2.77  25 2.77  18 2.77   6 2.77  14 2.77
                             3 2.77  27 2.77  12 2.77  24 2.77
  16  0.666  0.334  0.434-  18 2.77  15 2.77   6 2.77  10 2.77   7 2.77   4 2.77  19 2.77  13 2.77
                            25 2.77
  17  0.778  0.557  0.160-  36 2.77  34 2.77  27 2.77  15 2.77  18 2.77  33 2.77  11 2.77  26 2.77
                            20 2.77  14 2.77   5 2.77   8 2.77
  18  0.889  0.446  0.297-  10 2.77  16 2.77   8 2.77  11 2.77  17 2.77  19 2.77  12 2.77  15 2.77
                             9 2.77   6 2.77  21 2.77  27 2.77
  19  1.000  0.668  0.434-  21 2.77  27 2.77  18 2.77  25 2.77  22 2.77   4 2.77   1 2.77  16 2.77
                            10 2.77
  20  0.111  0.890  0.160-  21 2.77  27 2.77  29 2.77  28 2.77   3 2.77  34 2.77  23 2.77  26 2.77
                            11 2.77  17 2.77   5 2.77   2 2.77
  21  0.222  0.779  0.297-  19 2.77  22 2.77  20 2.77  23 2.77   4 2.77  11 2.77  27 2.77   3 2.77
                             6 2.77  18 2.77  24 2.77  12 2.77
  22  0.333  0.668  0.434-  21 2.77  24 2.77  12 2.77  19 2.77   4 2.77   7 2.77  10 2.77  25 2.77
                            13 2.77
  23  0.444  0.890  0.160-  21 2.77  29 2.77  35 2.77   6 2.77  24 2.77  30 2.77  20 2.77  11 2.77
                            14 2.77   5 2.77   8 2.77  26 2.77
  24  0.555  0.779  0.297-  25 2.77  26 2.77   7 2.77  14 2.77  22 2.77  23 2.77  27 2.77   6 2.77
                             9 2.77  21 2.77  12 2.77  15 2.77
  25  0.666  0.668  0.434-  27 2.77  24 2.77  15 2.77  19 2.77   1 2.77   7 2.77  22 2.77  13 2.77
                            16 2.77
  26  0.778  0.890  0.160-  24 2.77  27 2.77  28 2.77  30 2.77   9 2.77  36 2.77  20 2.77  17 2.77
                             2 2.77   8 2.77  14 2.77  23 2.77
  27  0.889  0.779  0.297-  19 2.77  25 2.77  20 2.77  26 2.77   1 2.77  17 2.77  21 2.77  24 2.77
                             9 2.77   3 2.77  15 2.77  18 2.77
  28  1.000  0.001  0.023-  26 2.77  20 2.77   2 2.77  30 2.77  29 2.77  31 2.77  32 2.77  36 2.77
                            34 2.77
  29  0.333  0.001  0.023-  20 2.77  23 2.77   5 2.77  28 2.77  32 2.77  34 2.77  35 2.77  33 2.77
                            30 2.77
  30  0.666  0.001  0.023-  26 2.77   8 2.77  23 2.77  28 2.77  31 2.77  33 2.77  36 2.77  35 2.77
                            29 2.77
  31  1.000  0.334  0.023-   2 2.77   8 2.77  11 2.77  33 2.77  32 2.77  28 2.77  30 2.77  35 2.77
                            34 2.77
  32  0.333  0.334  0.023-   5 2.77   2 2.77  14 2.77  31 2.77  29 2.77  28 2.77  33 2.77  35 2.77
                            36 2.77
  33  0.666  0.334  0.023-   8 2.77   5 2.77  17 2.77  31 2.77  30 2.77  29 2.77  34 2.77  32 2.77
                            36 2.77
  34  1.000  0.668  0.023-  11 2.77  17 2.77  20 2.77  36 2.77  35 2.77  28 2.77  29 2.77  33 2.77
                            31 2.77
  35  0.333  0.668  0.023-  14 2.77  11 2.77  23 2.77  34 2.77  29 2.77  30 2.77  31 2.77  36 2.77
                            32 2.77
  36  0.666  0.668  0.023-  17 2.77  26 2.77  14 2.77  34 2.77  28 2.77  30 2.77  35 2.77  32 2.77
                            33 2.77
  37  0.201  0.079  0.653-  39 1.71  38 1.94
  38  0.205  0.314  0.649-  37 1.94
  39  0.256  0.909  0.664-  37 1.71
 

IMPORTANT INFORMATION: All symmetrisations will be switched off!
NOSYMM: (Re-)initialisation of all symmetry stuff for point group C_1.

 
 
 KPOINTS: Automatic mesh                          

Automatic generation of k-mesh.
Space group operators:
 irot       det(A)        alpha          n_x          n_y          n_z        tau_x        tau_y        tau_z
    1     1.000000     0.000000     1.000000     0.000000     0.000000     0.000000     0.000000     0.000000
 
 Subroutine IBZKPT returns following result:
 ===========================================
 
 Found     24 irreducible k-points:
 
 Following reciprocal coordinates:
            Coordinates               Weight
  0.125000  0.125000  0.000000     16.000000
  0.250000 -0.125000  0.000000     16.000000
  0.125000 -0.250000  0.000000     16.000000
  0.375000  0.125000  0.000000     16.000000
  0.500000 -0.375000  0.000000     16.000000
  0.125000  0.500000  0.000000     16.000000
 -0.125000 -0.375000  0.000000     16.000000
  0.375000  0.500000  0.000000     16.000000
  0.500000 -0.125000  0.000000     16.000000
 -0.375000  0.125000  0.000000     16.000000
 -0.250000  0.375000  0.000000     16.000000
  0.125000  0.250000  0.000000     16.000000
 -0.125000  0.375000  0.000000     16.000000
 -0.375000  0.250000  0.000000     16.000000
 -0.250000 -0.125000  0.000000     16.000000
 -0.125000  0.125000  0.000000     16.000000
  0.000000  0.125000  0.000000     16.000000
  0.125000  0.000000  0.000000     16.000000
  0.375000  0.375000  0.000000     16.000000
 -0.250000 -0.375000  0.000000     16.000000
  0.375000  0.250000  0.000000     16.000000
 -0.375000  0.375000  0.000000     16.000000
  0.000000  0.375000  0.000000     16.000000
  0.375000  0.000000  0.000000     16.000000
 
 Following cartesian coordinates:
            Coordinates               Weight
  0.015042  0.026054  0.000000     16.000000
  0.030085  0.000000  0.000000     16.000000
  0.015042 -0.026054  0.000000     16.000000
  0.045127  0.043423  0.000000     16.000000
  0.060169 -0.017369  0.000000     16.000000
  0.015042  0.078162  0.000000     16.000000
 -0.015042 -0.060793  0.000000     16.000000
  0.045127  0.095531  0.000000     16.000000
  0.060169  0.017369  0.000000     16.000000
 -0.045127 -0.008685  0.000000     16.000000
 -0.030085  0.034739  0.000000     16.000000
  0.015042  0.043423  0.000000     16.000000
 -0.015042  0.043423  0.000000     16.000000
 -0.045127  0.008685  0.000000     16.000000
 -0.030085 -0.034739  0.000000     16.000000
 -0.015042  0.008685  0.000000     16.000000
  0.000000  0.017369  0.000000     16.000000
  0.015042  0.008685  0.000000     16.000000
  0.045127  0.078162  0.000000     16.000000
 -0.030085 -0.069477  0.000000     16.000000
  0.045127  0.060793  0.000000     16.000000
 -0.045127  0.026054  0.000000     16.000000
  0.000000  0.052108  0.000000     16.000000
  0.045127  0.026054  0.000000     16.000000
 


--------------------------------------------------------------------------------------------------------




 Dimension of arrays:
   k-points           NKPTS =     24   k-points in BZ     NKDIM =     24   number of bands    NBANDS=    232
   number of dos      NEDOS =    301   number of ions     NIONS =     39
   non local maximal  LDIM  =      6   non local SUM 2l+1 LMDIM =     18
   total plane-waves  NPLWV = 128000
   max r-space proj   IRMAX =   1966   max aug-charges    IRDMAX=   6482
   dimension x,y,z NGX =    40 NGY =   40 NGZ =   80
   dimension x,y,z NGXF=    80 NGYF=   80 NGZF=  160
   support grid    NGXF=    80 NGYF=   80 NGZF=  160
   ions per type =              36   1   2
   NGX,Y,Z   is equivalent  to a cutoff of   8.00,  8.00,  8.05 a.u.
   NGXF,Y,Z  is equivalent  to a cutoff of  16.00, 16.00, 16.10 a.u.

 SYSTEM =  PBE-grap                                
 POSCAR =  initial\(6)                             

 Startparameter for this run:
   NWRITE =      0    write-flag & timer
   PREC   = normal    normal or accurate (medium, high low for compatibility)
   ISTART =      0    job   : 0-new  1-cont  2-samecut
   ICHARG =      2    charge: 1-file 2-atom 10-const
   ISPIN  =      1    spin polarized calculation?
   LNONCOLLINEAR =      F non collinear calculations
   LSORBIT =      F    spin-orbit coupling
   INIWAV =      1    electr: 0-lowe 1-rand  2-diag
   LASPH  =      F    aspherical Exc in radial PAW
   METAGGA=      F    non-selfconsistent MetaGGA calc.

 Electronic Relaxation 1
   ENCUT  =  370.0 eV  27.19 Ry    5.21 a.u.  13.03 13.03 25.92*2*pi/ulx,y,z
   ENINI  =  370.0     initial cutoff
   ENAUG  =  644.9 eV  augmentation charge cutoff
   NELM   =    150;   NELMIN=  4; NELMDL= -5     # of ELM steps 
   EDIFF  = 0.1E-04   stopping-criterion for ELM
   LREAL  =      T    real-space projection
   NLSPLINE    = F    spline interpolate recip. space projectors
   LCOMPAT=      F    compatible to vasp.4.4
   GGA_COMPAT  = T    GGA compatible to vasp.4.4-vasp.4.6
   LMAXPAW     = -100 max onsite density
   LMAXMIX     =    2 max onsite mixed and CHGCAR
   VOSKOWN=      0    Vosko Wilk Nusair interpolation
   ROPT   =   -0.00050  -0.00050  -0.00050
 Ionic relaxation
   EDIFFG = -.3E-01   stopping-criterion for IOM
   NSW    =   1000    number of steps for IOM
   NBLOCK =      1;   KBLOCK =   1000    inner block; outer block 
   IBRION =      3    ionic relax: 0-MD 1-quasi-New 2-CG
   NFREE  =      0    steps in history (QN), initial steepest desc. (CG)
   ISIF   =      2    stress and relaxation
   IWAVPR =     11    prediction:  0-non 1-charg 2-wave 3-comb
   ISYM   =      0    0-nonsym 1-usesym 2-fastsym
   LCORR  =      T    Harris-Foulkes like correction to forces

   POTIM  = 0.0000    time-step for ionic-motion
   TEIN   =    0.0    initial temperature
   TEBEG  =    0.0;   TEEND  =   0.0 temperature during run
   SMASS  =  -3.00    Nose mass-parameter (am)
   estimated Nose-frequenzy (Omega)   =  0.10E-29 period in steps =  0.00 mass=  -0.158E-26a.u.
   SCALEE = 1.0000    scale energy and forces
   NPACO  =    256;   APACO  = 16.0  distance and # of slots for P.C.
   PSTRESS=    0.0 pullay stress

  Mass of Ions in am
   POMASS = 106.42 12.01 16.00
  Ionic Valenz
   ZVAL   =  10.00  4.00  6.00
  Atomic Wigner-Seitz radii
   RWIGS  =  -1.00 -1.00 -1.00
  virtual crystal weights 
   VCA    =   1.00  1.00  1.00
   NELECT =     376.0000    total number of electrons
   NUPDOWN=      -1.0000    fix difference up-down

 DOS related values:
   EMIN   =  10.00;   EMAX   =-10.00  energy-range for DOS
   EFERMI =   0.00
   ISMEAR =     0;   SIGMA  =   0.41  broadening in eV -4-tet -1-fermi 0-gaus

 Electronic relaxation 2 (details)
   IALGO  =     38    algorithm
   LDIAG  =      T    sub-space diagonalisation (order eigenvalues)
   LSUBROT=      F    optimize rotation matrix (better conditioning)
   TURBO    =      0    0=normal 1=particle mesh
   IRESTART =      0    0=no restart 2=restart with 2 vectors
   NREBOOT  =      0    no. of reboots
   NMIN     =      0    reboot dimension
   EREF     =   0.00    reference energy to select bands
   IMIX   =      4    mixing-type and parameters
     AMIX     =   0.40;   BMIX     =  1.00
     AMIX_MAG =   1.60;   BMIX_MAG =  1.00
     AMIN     =   0.10
     WC   =   100.;   INIMIX=   1;  MIXPRE=   1;  MAXMIX= -45

 Intra band minimization:
   WEIMIN = 0.0010     energy-eigenvalue tresh-hold
   EBREAK =  0.11E-07  absolut break condition
   DEPER  =   0.30     relativ break condition  

   TIME   =   0.40     timestep for ELM

  volume/ion in A,a.u.               =      25.34       170.98
  Fermi-wavevector in a.u.,A,eV,Ry     =   1.186304  2.241790 19.147714  1.407317
  Thomas-Fermi vector in A             =   2.322480
 
 Write flags
   LWAVE        =      F    write WAVECAR
   LDOWNSAMPLE  =      F    k-point downsampling of WAVECAR
   LCHARG       =      F    write CHGCAR
   LVTOT        =      F    write LOCPOT, total local potential
   LVHAR        =      F    write LOCPOT, Hartree potential only
   LELF         =      F    write electronic localiz. function (ELF)
   LORBIT       =      0    0 simple, 1 ext, 2 COOP (PROOUT), +10 PAW based schemes


 Dipole corrections
   LMONO  =      F    monopole corrections only (constant potential shift)
   LDIPOL =      F    correct potential (dipole corrections)
   IDIPOL =      0    1-x, 2-y, 3-z, 4-all directions 
   EPSILON=  1.0000000 bulk dielectric constant

 Exchange correlation treatment:
   GGA     =    PE    GGA type
   LEXCH   =     8    internal setting for exchange type
   VOSKOWN=      0    Vosko Wilk Nusair interpolation
   LHFCALC =     F    Hartree Fock is set to
   LHFONE  =     F    Hartree Fock one center treatment
   AEXX    =    0.0000 exact exchange contribution

 Linear response parameters
   LEPSILON=     F    determine dielectric tensor
   LRPA    =     F    only Hartree local field effects (RPA)
   LNABLA  =     F    use nabla operator in PAW spheres
   LVEL    =     F    velocity operator in full k-point grid
   LINTERFAST=   F  fast interpolation
   KINTER  =     0    interpolate to denser k-point grid
   CSHIFT  =0.1000    complex shift for real part using Kramers Kronig
   OMEGAMAX=  -1.0    maximum frequency
   DEG_THRESHOLD= 0.2000000E-02 threshold for treating states as degnerate
   RTIME   =   -0.100 relaxation time in fs
  (WPLASMAI=    0.000 imaginary part of plasma frequency in eV, 0.658/RTIME)
   DFIELD  = 0.0000000 0.0000000 0.0000000 field for delta impulse in time
 
 Orbital magnetization related:
   ORBITALMAG=     F  switch on orbital magnetization
   LCHIMAG   =     F  perturbation theory with respect to B field
   DQ        =  0.001000  dq finite difference perturbation B field
   LLRAUG    =     F  two centre corrections for induced B field



--------------------------------------------------------------------------------------------------------


 quickmin algorithm: (dynamic with friction)
   using selective dynamics as specified on POSCAR
 charge density and potential will be updated during run
 non-spin polarized calculation
 Variant of blocked Davidson
 Davidson routine will perform the subspace rotation
 perform sub-space diagonalisation
    after iterative eigenvector-optimisation
 modified Broyden-mixing scheme, WC =      100.0
 initial mixing is a Kerker type mixing with AMIX =  0.4000 and BMIX =      1.0000
 Hartree-type preconditioning will be used
 using additional bands           44
 real space projection scheme for non local part
 use partial core corrections
 calculate Harris-corrections to forces 
   (improved forces if not selfconsistent)
 use gradient corrections 
 use of overlap-Matrix (Vanderbilt PP)
 Gauss-broadening in eV      SIGMA  =   0.41


--------------------------------------------------------------------------------------------------------


  energy-cutoff  :      370.00
  volume of cell :      988.15
      direct lattice vectors                 reciprocal lattice vectors
     8.309900284  0.000000000  0.000000000     0.120338387  0.069477400  0.000000000
    -4.154950142  7.196584749  0.000000000     0.000000000  0.138954801  0.000000000
     0.000000000  0.000000000 16.523500443     0.000000000  0.000000000  0.060519864

  length of vectors
     8.309900284  8.309900284 16.523500443     0.138954801  0.138954801  0.060519864


 
 k-points in units of 2pi/SCALE and weight: Automatic mesh                          
   0.01504230  0.02605403  0.00000000       0.042
   0.03008460  0.00000000  0.00000000       0.042
   0.01504230 -0.02605403  0.00000000       0.042
   0.04512690  0.04342338  0.00000000       0.042
   0.06016919 -0.01736935  0.00000000       0.042
   0.01504230  0.07816208  0.00000000       0.042
  -0.01504230 -0.06079273  0.00000000       0.042
   0.04512690  0.09553143  0.00000000       0.042
   0.06016919  0.01736935  0.00000000       0.042
  -0.04512690 -0.00868468  0.00000000       0.042
  -0.03008460  0.03473870  0.00000000       0.042
   0.01504230  0.04342338  0.00000000       0.042
  -0.01504230  0.04342338  0.00000000       0.042
  -0.04512690  0.00868468  0.00000000       0.042
  -0.03008460 -0.03473870  0.00000000       0.042
  -0.01504230  0.00868468  0.00000000       0.042
   0.00000000  0.01736935  0.00000000       0.042
   0.01504230  0.00868468  0.00000000       0.042
   0.04512690  0.07816208  0.00000000       0.042
  -0.03008460 -0.06947740  0.00000000       0.042
   0.04512690  0.06079273  0.00000000       0.042
  -0.04512690  0.02605403  0.00000000       0.042
   0.00000000  0.05210805  0.00000000       0.042
   0.04512690  0.02605403  0.00000000       0.042
 
 k-points in reciprocal lattice and weights: Automatic mesh                          
   0.12500000  0.12500000  0.00000000       0.042
   0.25000000 -0.12500000  0.00000000       0.042
   0.12500000 -0.25000000  0.00000000       0.042
   0.37500000  0.12500000  0.00000000       0.042
   0.50000000 -0.37500000  0.00000000       0.042
   0.12500000  0.50000000  0.00000000       0.042
  -0.12500000 -0.37500000  0.00000000       0.042
   0.37500000  0.50000000  0.00000000       0.042
   0.50000000 -0.12500000  0.00000000       0.042
  -0.37500000  0.12500000  0.00000000       0.042
  -0.25000000  0.37500000  0.00000000       0.042
   0.12500000  0.25000000  0.00000000       0.042
  -0.12500000  0.37500000  0.00000000       0.042
  -0.37500000  0.25000000  0.00000000       0.042
  -0.25000000 -0.12500000  0.00000000       0.042
  -0.12500000  0.12500000  0.00000000       0.042
   0.00000000  0.12500000  0.00000000       0.042
   0.12500000  0.00000000  0.00000000       0.042
   0.37500000  0.37500000  0.00000000       0.042
  -0.25000000 -0.37500000  0.00000000       0.042
   0.37500000  0.25000000  0.00000000       0.042
  -0.37500000  0.37500000  0.00000000       0.042
   0.00000000  0.37500000  0.00000000       0.042
   0.37500000  0.00000000  0.00000000       0.042
 
 position of ions in fractional coordinates (direct lattice) 
   0.99982000  0.00108000  0.43398000
   0.11093000  0.22330000  0.16024000
   0.22204000  0.11219000  0.29711000
   0.33315000  0.00108000  0.43398000
   0.44426000  0.22330000  0.16024000
   0.55538000  0.11219000  0.29711000
   0.66649000  0.00108000  0.43398000
   0.77760000  0.22330000  0.16024000
   0.88871000  0.11219000  0.29711000
   0.99982000  0.33441000  0.43398000
   0.11093000  0.55664000  0.16024000
   0.22204000  0.44552000  0.29711000
   0.33315000  0.33441000  0.43398000
   0.44426000  0.55664000  0.16024000
   0.55538000  0.44552000  0.29711000
   0.66649000  0.33441000  0.43398000
   0.77760000  0.55664000  0.16024000
   0.88871000  0.44552000  0.29711000
   0.99982000  0.66775000  0.43398000
   0.11093000  0.88997000  0.16024000
   0.22204000  0.77886000  0.29711000
   0.33315000  0.66775000  0.43398000
   0.44426000  0.88997000  0.16024000
   0.55538000  0.77886000  0.29711000
   0.66649000  0.66775000  0.43398000
   0.77760000  0.88997000  0.16024000
   0.88871000  0.77886000  0.29711000
   0.99982000  0.00108000  0.02337000
   0.33315000  0.00108000  0.02337000
   0.66649000  0.00108000  0.02337000
   0.99982000  0.33441000  0.02337000
   0.33315000  0.33441000  0.02337000
   0.66649000  0.33441000  0.02337000
   0.99982000  0.66775000  0.02337000
   0.33315000  0.66775000  0.02337000
   0.66649000  0.66775000  0.02337000
   0.20105000  0.07935000  0.65342000
   0.20487000  0.31417000  0.64937000
   0.25641000  0.90857000  0.66447000
 
 position of ions in cartesian coordinates  (Angst):
   8.30391716  0.00777231  7.17086872
  -0.00598313  1.60699737  2.64772571
   1.37898640  0.80738484  4.90929722
   2.76395593  0.00777231  7.17086872
   2.76395593  1.60699737  2.64772571
   4.14900856  0.80738484  4.90929722
   5.53397809  0.00777231  7.17086872
   5.53397809  1.60699737  2.64772571
   6.91894762  0.80738484  4.90929722
   6.91894762  2.40660991  7.17086872
  -1.39099421  4.00590693  2.64772571
  -0.00598313  3.20622244  4.90929722
   1.37898640  2.40660991  7.17086872
   1.37894485  4.00590693  2.64772571
   2.76403903  3.20622244  4.90929722
   4.14900856  2.40660991  7.17086872
   4.14896701  4.00590693  2.64772571
   5.53397809  3.20622244  4.90929722
   5.53393654  4.80551947  7.17086872
  -2.77596374  6.40474453  2.64772571
  -1.39099421  5.60513200  4.90929722
  -0.00602468  4.80551947  7.17086872
  -0.00602468  6.40474453  2.64772571
   1.37902795  5.60513200  4.90929722
   2.76399748  4.80551947  7.17086872
   2.76399748  6.40474453  2.64772571
   4.14896701  5.60513200  4.90929722
   8.30391716  0.00777231  0.38615421
   2.76395593  0.00777231  0.38615421
   5.53397809  0.00777231  0.38615421
   6.91894762  2.40660991  0.38615421
   1.37898640  2.40660991  0.38615421
   4.14900856  2.40660991  0.38615421
   5.53393654  4.80551947  0.38615421
  -0.00602468  4.80551947  0.38615421
   2.76399748  4.80551947  0.38615421
   1.34101016  0.57104900 10.79678566
   0.39708859  2.26095103 10.72986548
  -1.64432152  6.53860101 10.97937034
 


--------------------------------------------------------------------------------------------------------


 k-point  1 :   0.1250 0.1250 0.0000  plane waves:   15951
 k-point  2 :   0.2500-0.1250 0.0000  plane waves:   15951
 k-point  3 :   0.1250-0.2500 0.0000  plane waves:   15951
 k-point  4 :   0.3750 0.1250 0.0000  plane waves:   15982
 k-point  5 :   0.5000-0.3750 0.0000  plane waves:   15982
 k-point  6 :   0.1250 0.5000 0.0000  plane waves:   15982
 k-point  7 :  -0.1250-0.3750 0.0000  plane waves:   15982
 k-point  8 :   0.3750 0.5000 0.0000  plane waves:   15982
 k-point  9 :   0.5000-0.1250 0.0000  plane waves:   15982
 k-point 10 :  -0.3750 0.1250 0.0000  plane waves:   15967
 k-point 11 :  -0.2500 0.3750 0.0000  plane waves:   15967
 k-point 12 :   0.1250 0.2500 0.0000  plane waves:   15967
 k-point 13 :  -0.1250 0.3750 0.0000  plane waves:   15967
 k-point 14 :  -0.3750 0.2500 0.0000  plane waves:   15967
 k-point 15 :  -0.2500-0.1250 0.0000  plane waves:   15967
 k-point 16 :  -0.1250 0.1250 0.0000  plane waves:   15947
 k-point 17 :   0.0000 0.1250 0.0000  plane waves:   15947
 k-point 18 :   0.1250 0.0000 0.0000  plane waves:   15947
 k-point 19 :   0.3750 0.3750 0.0000  plane waves:   16001
 k-point 20 :  -0.2500-0.3750 0.0000  plane waves:   16001
 k-point 21 :   0.3750 0.2500 0.0000  plane waves:   16001
 k-point 22 :  -0.3750 0.3750 0.0000  plane waves:   15956
 k-point 23 :   0.0000 0.3750 0.0000  plane waves:   15956
 k-point 24 :   0.3750 0.0000 0.0000  plane waves:   15956

 maximum and minimum number of plane-waves per node :      8054     7937

 maximum number of plane-waves:     16001
 maximum index in each direction: 
   IXMAX=   13   IYMAX=   13   IZMAX=   25
   IXMIN=  -13   IYMIN=  -13   IZMIN=  -25


 real space projection operators:
  total allocation   :       9686.89 KBytes
  max/ min on nodes  :       4845.81       4841.08


 parallel 3D FFT for wavefunctions:
    minimum data exchange during FFTs selected (reduces bandwidth)
 parallel 3D FFT for charge:
    minimum data exchange during FFTs selected (reduces bandwidth)


 total amount of memory used by VASP MPI-rank0   141688. kBytes
=======================================================================

   base      :      30000. kBytes
   nonlr-proj:       7231. kBytes
   fftplans  :       4164. kBytes
   grid      :       6707. kBytes
   one-center:        311. kBytes
   wavefun   :      93275. kBytes
 
     INWAV:  cpu time    0.0002: real time    0.0002
 Broyden mixing: mesh for mixing (old mesh)
   NGX = 27   NGY = 27   NGZ = 51
  (NGX  = 80   NGY  = 80   NGZ  =160)
  gives a total of  37179 points

 initial charge density was supplied:
 charge density of overlapping atoms calculated
 number of electron     376.0000000 magnetization 
 keeping initial charge density in first step


--------------------------------------------------------------------------------------------------------


 Maximum index for non-local projection operator          939
 Maximum index for augmentation-charges          431 (set IRDMAX)


--------------------------------------------------------------------------------------------------------


 First call to EWALD:  gamma=   0.178
 Maximum number of real-space cells 4x 4x 2
 Maximum number of reciprocal cells 2x 2x 4

    FEWALD:  cpu time    0.0102: real time    0.0102


--------------------------------------- Iteration      1(   1)  ---------------------------------------


    POTLOK:  cpu time    0.1814: real time    0.1986
    SETDIJ:  cpu time    0.0456: real time    0.0456
     EDDAV:  cpu time   48.9610: real time   49.0562
       DOS:  cpu time    0.0191: real time    0.0191
    --------------------------------------------
      LOOP:  cpu time   49.2072: real time   49.3196

 eigenvalue-minimisations  : 11144
 total energy-change (2. order) : 0.2071492E+04  (-0.1516650E+05)
 number of electron     376.0000000 magnetization 
 augmentation part      376.0000000 magnetization 

 Free energy of the ion-electron system (eV)
  ---------------------------------------------------
  alpha Z        PSCENC =       918.22725072
  Ewald energy   TEWEN  =     21475.20801211
  -Hartree energ DENC   =    -54156.75492411
  -exchange      EXHF   =         0.00000000
  -V(xc)+E(xc)   XCENC  =      -996.12010913
  PAW double counting   =     29844.20032359   -27608.36462881
  entropy T*S    EENTRO =        -1.32709025
  eigenvalues    EBANDS =      2434.56015661
  atomic energy  EATOM  =     30161.86332653
  Solvation  Ediel_sol  =         0.00000000
  ---------------------------------------------------
  free energy    TOTEN  =      2071.49231728 eV

  energy without entropy =     2072.81940753  energy(sigma->0) =     2072.15586240


--------------------------------------------------------------------------------------------------------




--------------------------------------- Iteration      1(   2)  ---------------------------------------


     EDDAV:  cpu time   53.2765: real time   53.2953
       DOS:  cpu time    0.0207: real time    0.0207
    --------------------------------------------
      LOOP:  cpu time   53.2972: real time   53.3160

 eigenvalue-minimisations  : 12040
 total energy-change (2. order) :-0.2161816E+04  (-0.2035090E+04)
 number of electron     376.0000000 magnetization 
 augmentation part      376.0000000 magnetization 

 Free energy of the ion-electron system (eV)
  ---------------------------------------------------
  alpha Z        PSCENC =       918.22725072
  Ewald energy   TEWEN  =     21475.20801211
  -Hartree energ DENC   =    -54156.75492411
  -exchange      EXHF   =         0.00000000
  -V(xc)+E(xc)   XCENC  =      -996.12010913
  PAW double counting   =     29844.20032359   -27608.36462881
  entropy T*S    EENTRO =        -3.81375623
  eigenvalues    EBANDS =       275.23098053
  atomic energy  EATOM  =     30161.86332653
  Solvation  Ediel_sol  =         0.00000000
  ---------------------------------------------------
  free energy    TOTEN  =       -90.32352478 eV

  energy without entropy =      -86.50976856  energy(sigma->0) =      -88.41664667


--------------------------------------------------------------------------------------------------------




--------------------------------------- Iteration      1(   3)  ---------------------------------------


     EDDAV:  cpu time   55.6250: real time   55.6429
       DOS:  cpu time    0.0214: real time    0.0214
    --------------------------------------------
      LOOP:  cpu time   55.6464: real time   55.6642

 eigenvalue-minimisations  : 12736
 total energy-change (2. order) :-0.1122706E+03  (-0.1009948E+03)
 number of electron     376.0000000 magnetization 
 augmentation part      376.0000000 magnetization 

 Free energy of the ion-electron system (eV)
  ---------------------------------------------------
  alpha Z        PSCENC =       918.22725072
  Ewald energy   TEWEN  =     21475.20801211
  -Hartree energ DENC   =    -54156.75492411
  -exchange      EXHF   =         0.00000000
  -V(xc)+E(xc)   XCENC  =      -996.12010913
  PAW double counting   =     29844.20032359   -27608.36462881
  entropy T*S    EENTRO =        -5.45180142
  eigenvalues    EBANDS =       164.59839605
  atomic energy  EATOM  =     30161.86332653
  Solvation  Ediel_sol  =         0.00000000
  ---------------------------------------------------
  free energy    TOTEN  =      -202.59415445 eV

  energy without entropy =     -197.14235303  energy(sigma->0) =     -199.86825374


--------------------------------------------------------------------------------------------------------




--------------------------------------- Iteration      1(   4)  ---------------------------------------


     EDDAV:  cpu time   54.1832: real time   54.1975
       DOS:  cpu time    0.0215: real time    0.0215
    --------------------------------------------
      LOOP:  cpu time   54.2047: real time   54.2190

 eigenvalue-minimisations  : 12336
 total energy-change (2. order) :-0.3444953E+01  (-0.3393783E+01)
 number of electron     376.0000000 magnetization 
 augmentation part      376.0000000 magnetization 

 Free energy of the ion-electron system (eV)
  ---------------------------------------------------
  alpha Z        PSCENC =       918.22725072
  Ewald energy   TEWEN  =     21475.20801211
  -Hartree energ DENC   =    -54156.75492411
  -exchange      EXHF   =         0.00000000
  -V(xc)+E(xc)   XCENC  =      -996.12010913
  PAW double counting   =     29844.20032359   -27608.36462881
  entropy T*S    EENTRO =        -5.49072772
  eigenvalues    EBANDS =       161.19236933
  atomic energy  EATOM  =     30161.86332653
  Solvation  Ediel_sol  =         0.00000000
  ---------------------------------------------------
  free energy    TOTEN  =      -206.03910748 eV

  energy without entropy =     -200.54837976  energy(sigma->0) =     -203.29374362


--------------------------------------------------------------------------------------------------------




--------------------------------------- Iteration      1(   5)  ---------------------------------------


     EDDAV:  cpu time   61.1529: real time   61.1698
       DOS:  cpu time    0.0218: real time    0.0218
    CHARGE:  cpu time    2.4499: real time    2.4504
    MIXING:  cpu time    0.0070: real time    0.0071
    --------------------------------------------
      LOOP:  cpu time   63.6317: real time   63.6492

 eigenvalue-minimisations  : 14384
 total energy-change (2. order) :-0.1231058E+00  (-0.1228281E+00)
 number of electron     376.0000411 magnetization 
 augmentation part      145.9183154 magnetization 

 Broyden mixing:
  rms(total) = 0.41704E+01    rms(broyden)= 0.41700E+01
  rms(prec ) = 0.44185E+01
  weight for this iteration     100.00

 Free energy of the ion-electron system (eV)
  ---------------------------------------------------
  alpha Z        PSCENC =       918.22725072
  Ewald energy   TEWEN  =     21475.20801211
  -Hartree energ DENC   =    -54156.75492411
  -exchange      EXHF   =         0.00000000
  -V(xc)+E(xc)   XCENC  =      -996.12010913
  PAW double counting   =     29844.20032359   -27608.36462881
  entropy T*S    EENTRO =        -5.49107512
  eigenvalues    EBANDS =       161.06961093
  atomic energy  EATOM  =     30161.86332653
  Solvation  Ediel_sol  =         0.00000000
  ---------------------------------------------------
  free energy    TOTEN  =      -206.16221327 eV

  energy without entropy =     -200.67113815  energy(sigma->0) =     -203.41667571


--------------------------------------------------------------------------------------------------------




--------------------------------------- Iteration      1(   6)  ---------------------------------------


    POTLOK:  cpu time    0.1505: real time    0.1608
    SETDIJ:  cpu time    0.0414: real time    0.0414
     EDDAV:  cpu time   55.3025: real time   55.3095
       DOS:  cpu time    0.0226: real time    0.0226
    CHARGE:  cpu time    2.3749: real time    2.3754
    MIXING:  cpu time    0.0066: real time    0.0067
    --------------------------------------------
      LOOP:  cpu time   57.8985: real time   57.9164

 eigenvalue-minimisations  : 12632
 total energy-change (2. order) :-0.8748161E+01  (-0.6012252E+01)
 number of electron     376.0000455 magnetization 
 augmentation part      154.8329258 magnetization 

 Broyden mixing:
  rms(total) = 0.42022E+01    rms(broyden)= 0.42004E+01
  rms(prec ) = 0.53397E+01
  weight for this iteration     100.00

 eigenvalues of (default mixing * dielectric matrix)
  average eigenvalue GAMMA=   0.5146
  0.5146

 Free energy of the ion-electron system (eV)
  ---------------------------------------------------
  alpha Z        PSCENC =       918.22725072
  Ewald energy   TEWEN  =     21475.20801211
  -Hartree energ DENC   =    -53879.22971679
  -exchange      EXHF   =         0.00000000
  -V(xc)+E(xc)   XCENC  =     -1000.84247068
  PAW double counting   =     31819.55116663   -29629.22325763
  entropy T*S    EENTRO =        -4.59422287
  eigenvalues    EBANDS =       -75.87046212
  atomic energy  EATOM  =     30161.86332653
  Solvation  Ediel_sol  =         0.00000000
  ---------------------------------------------------
  free energy    TOTEN  =      -214.91037410 eV

  energy without entropy =     -210.31615123  energy(sigma->0) =     -212.61326266


--------------------------------------------------------------------------------------------------------




--------------------------------------- Iteration      1(   7)  ---------------------------------------


    POTLOK:  cpu time    0.1542: real time    0.1634
    SETDIJ:  cpu time    0.0413: real time    0.0413
     EDDAV:  cpu time   58.5890: real time   58.5976
       DOS:  cpu time    0.0214: real time    0.0214
    CHARGE:  cpu time    2.4357: real time    2.4358
    MIXING:  cpu time    0.0063: real time    0.0063
    --------------------------------------------
      LOOP:  cpu time   61.2479: real time   61.2658

 eigenvalue-minimisations  : 13592
 total energy-change (2. order) : 0.1177862E+02  (-0.2858645E+01)
 number of electron     376.0000441 magnetization 
 augmentation part      149.7403656 magnetization 

 Broyden mixing:
  rms(total) = 0.28370E+01    rms(broyden)= 0.28343E+01
  rms(prec ) = 0.45803E+01
  weight for this iteration     100.00

 eigenvalues of (default mixing * dielectric matrix)
  average eigenvalue GAMMA=   0.7434
  1.2167  0.2702

 Free energy of the ion-electron system (eV)
  ---------------------------------------------------
  alpha Z        PSCENC =       918.22725072
  Ewald energy   TEWEN  =     21475.20801211
  -Hartree energ DENC   =    -54049.96348183
  -exchange      EXHF   =         0.00000000
  -V(xc)+E(xc)   XCENC  =     -1003.52022461
  PAW double counting   =     32379.58728259   -30193.16735993
  entropy T*S    EENTRO =        -5.45883658
  eigenvalues    EBANDS =       114.09227558
  atomic energy  EATOM  =     30161.86332653
  Solvation  Ediel_sol  =         0.00000000
  ---------------------------------------------------
  free energy    TOTEN  =      -203.13175542 eV

  energy without entropy =     -197.67291884  energy(sigma->0) =     -200.40233713


--------------------------------------------------------------------------------------------------------




--------------------------------------- Iteration      1(   8)  ---------------------------------------


    POTLOK:  cpu time    0.1532: real time    0.1629
    SETDIJ:  cpu time    0.0413: real time    0.0413
     EDDAV:  cpu time   59.3136: real time   59.3215
       DOS:  cpu time    0.0212: real time    0.0212
    CHARGE:  cpu time    2.4559: real time    2.4561
    MIXING:  cpu time    0.0066: real time    0.0066
    --------------------------------------------
      LOOP:  cpu time   61.9918: real time   62.0095

 eigenvalue-minimisations  : 13776
 total energy-change (2. order) :-0.1719717E+02  (-0.4721066E+01)
 number of electron     376.0000411 magnetization 
 augmentation part      151.0427108 magnetization 

 Broyden mixing:
  rms(total) = 0.42796E+01    rms(broyden)= 0.42789E+01
  rms(prec ) = 0.71375E+01
  weight for this iteration     100.00

 eigenvalues of (default mixing * dielectric matrix)
  average eigenvalue GAMMA=   0.7378
  1.7670  0.3058  0.1407

 Free energy of the ion-electron system (eV)
  ---------------------------------------------------
  alpha Z        PSCENC =       918.22725072
  Ewald energy   TEWEN  =     21475.20801211
  -Hartree energ DENC   =    -53942.11158619
  -exchange      EXHF   =         0.00000000
  -V(xc)+E(xc)   XCENC  =     -1003.70225378
  PAW double counting   =     33071.70401899   -30896.46877768
  entropy T*S    EENTRO =        -3.89863969
  eigenvalues    EBANDS =        -1.15027805
  atomic energy  EATOM  =     30161.86332653
  Solvation  Ediel_sol  =         0.00000000
  ---------------------------------------------------
  free energy    TOTEN  =      -220.32892704 eV

  energy without entropy =     -216.43028734  energy(sigma->0) =     -218.37960719


--------------------------------------------------------------------------------------------------------




--------------------------------------- Iteration      1(   9)  ---------------------------------------


    POTLOK:  cpu time    0.1535: real time    0.1626
    SETDIJ:  cpu time    0.0412: real time    0.0412
     EDDAV:  cpu time   58.9853: real time   58.9931
       DOS:  cpu time    0.0226: real time    0.0227
    CHARGE:  cpu time    2.3823: real time    2.3826
    MIXING:  cpu time    0.0070: real time    0.0070
    --------------------------------------------
      LOOP:  cpu time   61.5920: real time   61.6092

 eigenvalue-minimisations  : 13696
 total energy-change (2. order) : 0.1938779E+02  (-0.2460449E+01)
 number of electron     376.0000450 magnetization 
 augmentation part      153.5384452 magnetization 

 Broyden mixing:
  rms(total) = 0.20882E+01    rms(broyden)= 0.20851E+01
  rms(prec ) = 0.28961E+01
  weight for this iteration     100.00

 eigenvalues of (default mixing * dielectric matrix)
  average eigenvalue GAMMA=   0.6507
  1.8951  0.3317  0.2363  0.1395

 Free energy of the ion-electron system (eV)
  ---------------------------------------------------
  alpha Z        PSCENC =       918.22725072
  Ewald energy   TEWEN  =     21475.20801211
  -Hartree energ DENC   =    -53885.54407248
  -exchange      EXHF   =         0.00000000
  -V(xc)+E(xc)   XCENC  =     -1003.63140630
  PAW double counting   =     33948.54164683   -31787.69207359
  entropy T*S    EENTRO =        -4.79039790
  eigenvalues    EBANDS =       -23.12341962
  atomic energy  EATOM  =     30161.86332653
  Solvation  Ediel_sol  =         0.00000000
  ---------------------------------------------------
  free energy    TOTEN  =      -200.94113370 eV

  energy without entropy =     -196.15073580  energy(sigma->0) =     -198.54593475


--------------------------------------------------------------------------------------------------------




--------------------------------------- Iteration      1(  10)  ---------------------------------------


    POTLOK:  cpu time    0.1507: real time    0.1598
    SETDIJ:  cpu time    0.0410: real time    0.0410
     EDDAV:  cpu time   53.6641: real time   53.6708
       DOS:  cpu time    0.0226: real time    0.0226
    CHARGE:  cpu time    2.3839: real time    2.3842
    MIXING:  cpu time    0.0075: real time    0.0075
    --------------------------------------------
      LOOP:  cpu time   56.2698: real time   56.2859

 eigenvalue-minimisations  : 12112
 total energy-change (2. order) : 0.4878023E+01  (-0.1148353E+01)
 number of electron     376.0000429 magnetization 
 augmentation part      153.2389188 magnetization 

 Broyden mixing:
  rms(total) = 0.12696E+01    rms(broyden)= 0.12690E+01
  rms(prec ) = 0.17598E+01
  weight for this iteration     100.00

 eigenvalues of (default mixing * dielectric matrix)
  average eigenvalue GAMMA=   0.6097
  1.9436  0.3481  0.3132  0.3132  0.1305

 Free energy of the ion-electron system (eV)
  ---------------------------------------------------
  alpha Z        PSCENC =       918.22725072
  Ewald energy   TEWEN  =     21475.20801211
  -Hartree energ DENC   =    -53933.65465592
  -exchange      EXHF   =         0.00000000
  -V(xc)+E(xc)   XCENC  =     -1003.53684876
  PAW double counting   =     34377.59184254   -32220.88464672
  entropy T*S    EENTRO =        -5.03626766
  eigenvalues    EBANDS =        34.15887626
  atomic energy  EATOM  =     30161.86332653
  Solvation  Ediel_sol  =         0.00000000
  ---------------------------------------------------
  free energy    TOTEN  =      -196.06311090 eV

  energy without entropy =     -191.02684324  energy(sigma->0) =     -193.54497707


--------------------------------------------------------------------------------------------------------




--------------------------------------- Iteration      1(  11)  ---------------------------------------


    POTLOK:  cpu time    0.1525: real time    0.1613
    SETDIJ:  cpu time    0.0410: real time    0.0410
     EDDAV:  cpu time   53.9087: real time   53.9161
       DOS:  cpu time    0.0223: real time    0.0223
    CHARGE:  cpu time    2.3825: real time    2.3827
    MIXING:  cpu time    0.0080: real time    0.0080
    --------------------------------------------
      LOOP:  cpu time   56.5151: real time   56.5314

 eigenvalue-minimisations  : 12240
 total energy-change (2. order) : 0.1528421E+01  (-0.4070077E+00)
 number of electron     376.0000445 magnetization 
 augmentation part      153.1563862 magnetization 

 Broyden mixing:
  rms(total) = 0.10719E+01    rms(broyden)= 0.10716E+01
  rms(prec ) = 0.14105E+01
  weight for this iteration     100.00

 eigenvalues of (default mixing * dielectric matrix)
  average eigenvalue GAMMA=   0.5957
  2.0489  0.4414  0.4414  0.3470  0.1662  0.1293

 Free energy of the ion-electron system (eV)
  ---------------------------------------------------
  alpha Z        PSCENC =       918.22725072
  Ewald energy   TEWEN  =     21475.20801211
  -Hartree energ DENC   =    -53923.01425325
  -exchange      EXHF   =         0.00000000
  -V(xc)+E(xc)   XCENC  =     -1003.41754383
  PAW double counting   =     34519.59558348   -32363.41218789
  entropy T*S    EENTRO =        -5.16546087
  eigenvalues    EBANDS =        25.58058340
  atomic energy  EATOM  =     30161.86332653
  Solvation  Ediel_sol  =         0.00000000
  ---------------------------------------------------
  free energy    TOTEN  =      -194.53468960 eV

  energy without entropy =     -189.36922873  energy(sigma->0) =     -191.95195917


--------------------------------------------------------------------------------------------------------




--------------------------------------- Iteration      1(  12)  ---------------------------------------


    POTLOK:  cpu time    0.1525: real time    0.1612
    SETDIJ:  cpu time    0.0410: real time    0.0410
     EDDAV:  cpu time   55.0115: real time   55.0173
       DOS:  cpu time    0.0225: real time    0.0225
    CHARGE:  cpu time    2.4033: real time    2.4034
    MIXING:  cpu time    0.0083: real time    0.0083
    --------------------------------------------
      LOOP:  cpu time   57.6390: real time   57.6537

 eigenvalue-minimisations  : 12512
 total energy-change (2. order) : 0.6942604E+00  (-0.1771378E+00)
 number of electron     376.0000436 magnetization 
 augmentation part      152.8535710 magnetization 

 Broyden mixing:
  rms(total) = 0.76719E+00    rms(broyden)= 0.76706E+00
  rms(prec ) = 0.10047E+01
  weight for this iteration     100.00

 eigenvalues of (default mixing * dielectric matrix)
  average eigenvalue GAMMA=   0.6539
  2.1354  0.7661  0.7661  0.3309  0.2624  0.1281  0.1879

 Free energy of the ion-electron system (eV)
  ---------------------------------------------------
  alpha Z        PSCENC =       918.22725072
  Ewald energy   TEWEN  =     21475.20801211
  -Hartree energ DENC   =    -53944.99206557
  -exchange      EXHF   =         0.00000000
  -V(xc)+E(xc)   XCENC  =     -1003.49324605
  PAW double counting   =     34712.85752529   -32558.16419110
  entropy T*S    EENTRO =        -5.16860091
  eigenvalues    EBANDS =        49.82155981
  atomic energy  EATOM  =     30161.86332653
  Solvation  Ediel_sol  =         0.00000000
  ---------------------------------------------------
  free energy    TOTEN  =      -193.84042916 eV

  energy without entropy =     -188.67182825  energy(sigma->0) =     -191.25612871


--------------------------------------------------------------------------------------------------------




--------------------------------------- Iteration      1(  13)  ---------------------------------------


    POTLOK:  cpu time    0.1527: real time    0.1619
    SETDIJ:  cpu time    0.0411: real time    0.0411
     EDDAV:  cpu time   54.0854: real time   54.0922
       DOS:  cpu time    0.0227: real time    0.0227
    CHARGE:  cpu time    2.4161: real time    2.4163
    MIXING:  cpu time    0.0087: real time    0.0087
    --------------------------------------------
      LOOP:  cpu time   56.7267: real time   56.7430

 eigenvalue-minimisations  : 12280
 total energy-change (2. order) : 0.5247903E+00  (-0.1462091E+00)
 number of electron     376.0000439 magnetization 
 augmentation part      152.6917855 magnetization 

 Broyden mixing:
  rms(total) = 0.43970E+00    rms(broyden)= 0.43934E+00
  rms(prec ) = 0.64599E+00
  weight for this iteration     100.00

 eigenvalues of (default mixing * dielectric matrix)
  average eigenvalue GAMMA=   0.7342
  2.2889  1.1061  1.1061  0.4659  0.3361  0.2677  0.1277  0.1754

 Free energy of the ion-electron system (eV)
  ---------------------------------------------------
  alpha Z        PSCENC =       918.22725072
  Ewald energy   TEWEN  =     21475.20801211
  -Hartree energ DENC   =    -53943.12213568
  -exchange      EXHF   =         0.00000000
  -V(xc)+E(xc)   XCENC  =     -1003.70421395
  PAW double counting   =     34850.10919289   -32696.23928458
  entropy T*S    EENTRO =        -5.38366986
  eigenvalues    EBANDS =        49.72588297
  atomic energy  EATOM  =     30161.86332653
  Solvation  Ediel_sol  =         0.00000000
  ---------------------------------------------------
  free energy    TOTEN  =      -193.31563885 eV

  energy without entropy =     -187.93196899  energy(sigma->0) =     -190.62380392


--------------------------------------------------------------------------------------------------------




--------------------------------------- Iteration      1(  14)  ---------------------------------------


    POTLOK:  cpu time    0.1520: real time    0.1615
    SETDIJ:  cpu time    0.0409: real time    0.0409
     EDDAV:  cpu time   54.9605: real time   54.9673
       DOS:  cpu time    0.0227: real time    0.0228
    CHARGE:  cpu time    2.4256: real time    2.4259
    MIXING:  cpu time    0.0092: real time    0.0092
    --------------------------------------------
      LOOP:  cpu time   57.6111: real time   57.6276

 eigenvalue-minimisations  : 12544
 total energy-change (2. order) : 0.1101573E+00  (-0.8683485E-01)
 number of electron     376.0000433 magnetization 
 augmentation part      152.2872476 magnetization 

 Broyden mixing:
  rms(total) = 0.30788E+00    rms(broyden)= 0.30422E+00
  rms(prec ) = 0.38962E+00
  weight for this iteration     100.00

 eigenvalues of (default mixing * dielectric matrix)
  average eigenvalue GAMMA=   0.6773
  2.2725  1.0669  1.0669  0.4177  0.4177  0.2757  0.2757  0.1277  0.1753

 Free energy of the ion-electron system (eV)
  ---------------------------------------------------
  alpha Z        PSCENC =       918.22725072
  Ewald energy   TEWEN  =     21475.20801211
  -Hartree energ DENC   =    -53958.28303809
  -exchange      EXHF   =         0.00000000
  -V(xc)+E(xc)   XCENC  =     -1003.77752177
  PAW double counting   =     34950.57991792   -32797.28376654
  entropy T*S    EENTRO =        -5.57890285
  eigenvalues    EBANDS =        65.83924038
  atomic energy  EATOM  =     30161.86332653
  Solvation  Ediel_sol  =         0.00000000
  ---------------------------------------------------
  free energy    TOTEN  =      -193.20548158 eV

  energy without entropy =     -187.62657874  energy(sigma->0) =     -190.41603016


--------------------------------------------------------------------------------------------------------




--------------------------------------- Iteration      1(  15)  ---------------------------------------


    POTLOK:  cpu time    0.1542: real time    0.1632
    SETDIJ:  cpu time    0.0411: real time    0.0411
     EDDAV:  cpu time   52.4841: real time   52.4888
       DOS:  cpu time    0.0220: real time    0.0220
    CHARGE:  cpu time    2.4271: real time    2.4273
    MIXING:  cpu time    0.0100: real time    0.0100
    --------------------------------------------
      LOOP:  cpu time   55.1385: real time   55.1524

 eigenvalue-minimisations  : 11792
 total energy-change (2. order) : 0.5172369E-01  (-0.1444970E-01)
 number of electron     376.0000435 magnetization 
 augmentation part      152.4037923 magnetization 

 Broyden mixing:
  rms(total) = 0.91182E-01    rms(broyden)= 0.90425E-01
  rms(prec ) = 0.10784E+00
  weight for this iteration     100.00

 eigenvalues of (default mixing * dielectric matrix)
  average eigenvalue GAMMA=   0.7046
  2.3156  1.1512  1.1512  0.7104  0.4865  0.3891  0.1277  0.1750  0.2695  0.2695

 Free energy of the ion-electron system (eV)
  ---------------------------------------------------
  alpha Z        PSCENC =       918.22725072
  Ewald energy   TEWEN  =     21475.20801211
  -Hartree energ DENC   =    -53957.38745857
  -exchange      EXHF   =         0.00000000
  -V(xc)+E(xc)   XCENC  =     -1003.71202027
  PAW double counting   =     34948.77710199   -32795.38693390
  entropy T*S    EENTRO =        -5.52410205
  eigenvalues    EBANDS =        64.78106554
  atomic energy  EATOM  =     30161.86332653
  Solvation  Ediel_sol  =         0.00000000
  ---------------------------------------------------
  free energy    TOTEN  =      -193.15375789 eV

  energy without entropy =     -187.62965584  energy(sigma->0) =     -190.39170687


--------------------------------------------------------------------------------------------------------




--------------------------------------- Iteration      1(  16)  ---------------------------------------


    POTLOK:  cpu time    0.1535: real time    0.1629
    SETDIJ:  cpu time    0.0409: real time    0.0409
     EDDAV:  cpu time   54.9893: real time   54.9954
       DOS:  cpu time    0.0227: real time    0.0227
    CHARGE:  cpu time    2.4176: real time    2.4177
    MIXING:  cpu time    0.0101: real time    0.0101
    --------------------------------------------
      LOOP:  cpu time   57.6340: real time   57.6497

 eigenvalue-minimisations  : 12520
 total energy-change (2. order) :-0.1039750E-01  (-0.3967084E-02)
 number of electron     376.0000435 magnetization 
 augmentation part      152.4794005 magnetization 

 Broyden mixing:
  rms(total) = 0.92725E-01    rms(broyden)= 0.91688E-01
  rms(prec ) = 0.11614E+00
  weight for this iteration     100.00

 eigenvalues of (default mixing * dielectric matrix)
  average eigenvalue GAMMA=   0.7421
  2.4850  1.3244  1.3244  0.9132  0.4841  0.4841  0.1277  0.1751  0.3176  0.2639
  0.2639

 Free energy of the ion-electron system (eV)
  ---------------------------------------------------
  alpha Z        PSCENC =       918.22725072
  Ewald energy   TEWEN  =     21475.20801211
  -Hartree energ DENC   =    -53958.07311271
  -exchange      EXHF   =         0.00000000
  -V(xc)+E(xc)   XCENC  =     -1003.65494799
  PAW double counting   =     34952.59710360   -32799.16893335
  entropy T*S    EENTRO =        -5.46886016
  eigenvalues    EBANDS =        65.30600586
  atomic energy  EATOM  =     30161.86332653
  Solvation  Ediel_sol  =         0.00000000
  ---------------------------------------------------
  free energy    TOTEN  =      -193.16415539 eV

  energy without entropy =     -187.69529523  energy(sigma->0) =     -190.42972531


--------------------------------------------------------------------------------------------------------




--------------------------------------- Iteration      1(  17)  ---------------------------------------


    POTLOK:  cpu time    0.1536: real time    0.1610
    SETDIJ:  cpu time    0.0411: real time    0.0411
     EDDAV:  cpu time   52.3212: real time   52.3264
       DOS:  cpu time    0.0227: real time    0.0227
    CHARGE:  cpu time    2.4253: real time    2.4256
    MIXING:  cpu time    0.0108: real time    0.0108
    --------------------------------------------
      LOOP:  cpu time   54.9746: real time   54.9875

 eigenvalue-minimisations  : 11736
 total energy-change (2. order) : 0.2055034E-03  (-0.2201077E-02)
 number of electron     376.0000435 magnetization 
 augmentation part      152.4668410 magnetization 

 Broyden mixing:
  rms(total) = 0.60181E-01    rms(broyden)= 0.60169E-01
  rms(prec ) = 0.77345E-01
  weight for this iteration     100.00

 eigenvalues of (default mixing * dielectric matrix)
  average eigenvalue GAMMA=   0.7150
  2.5101  1.3232  1.3232  0.9103  0.5590  0.4662  0.3915  0.1277  0.1751  0.2796
  0.2796  0.2339

 Free energy of the ion-electron system (eV)
  ---------------------------------------------------
  alpha Z        PSCENC =       918.22725072
  Ewald energy   TEWEN  =     21475.20801211
  -Hartree energ DENC   =    -53961.35391087
  -exchange      EXHF   =         0.00000000
  -V(xc)+E(xc)   XCENC  =     -1003.65010246
  PAW double counting   =     34955.85149852   -32802.38259632
  entropy T*S    EENTRO =        -5.47756535
  eigenvalues    EBANDS =        68.55013722
  atomic energy  EATOM  =     30161.86332653
  Solvation  Ediel_sol  =         0.00000000
  ---------------------------------------------------
  free energy    TOTEN  =      -193.16394989 eV

  energy without entropy =     -187.68638454  energy(sigma->0) =     -190.42516721


--------------------------------------------------------------------------------------------------------




--------------------------------------- Iteration      1(  18)  ---------------------------------------


    POTLOK:  cpu time    0.1528: real time    0.1621
    SETDIJ:  cpu time    0.0407: real time    0.0407
     EDDAV:  cpu time   55.5696: real time   55.5769
       DOS:  cpu time    0.0227: real time    0.0227
    CHARGE:  cpu time    2.4196: real time    2.4198
    MIXING:  cpu time    0.0116: real time    0.0116
    --------------------------------------------
      LOOP:  cpu time   58.2170: real time   58.2339

 eigenvalue-minimisations  : 12672
 total energy-change (2. order) : 0.2861475E-02  (-0.7923813E-03)
 number of electron     376.0000435 magnetization 
 augmentation part      152.4539942 magnetization 

 Broyden mixing:
  rms(total) = 0.30756E-01    rms(broyden)= 0.30673E-01
  rms(prec ) = 0.39500E-01
  weight for this iteration     100.00

 eigenvalues of (default mixing * dielectric matrix)
  average eigenvalue GAMMA=   0.7421
  2.3343  1.8396  1.2104  0.9723  0.9723  0.4699  0.4699  0.1277  0.3226  0.2681
  0.2681  0.1751  0.2171

 Free energy of the ion-electron system (eV)
  ---------------------------------------------------
  alpha Z        PSCENC =       918.22725072
  Ewald energy   TEWEN  =     21475.20801211
  -Hartree energ DENC   =    -53962.50185397
  -exchange      EXHF   =         0.00000000
  -V(xc)+E(xc)   XCENC  =     -1003.65072549
  PAW double counting   =     34950.80615428   -32797.25853916
  entropy T*S    EENTRO =        -5.48798736
  eigenvalues    EBANDS =        69.63327392
  atomic energy  EATOM  =     30161.86332653
  Solvation  Ediel_sol  =         0.00000000
  ---------------------------------------------------
  free energy    TOTEN  =      -193.16108842 eV

  energy without entropy =     -187.67310106  energy(sigma->0) =     -190.41709474


--------------------------------------------------------------------------------------------------------




--------------------------------------- Iteration      1(  19)  ---------------------------------------


    POTLOK:  cpu time    0.1550: real time    0.1652
    SETDIJ:  cpu time    0.0411: real time    0.0411
     EDDAV:  cpu time   53.7712: real time   53.7774
       DOS:  cpu time    0.0225: real time    0.0225
    CHARGE:  cpu time    2.4250: real time    2.4252
    MIXING:  cpu time    0.0122: real time    0.0122
    --------------------------------------------
      LOOP:  cpu time   56.4270: real time   56.4435

 eigenvalue-minimisations  : 12152
 total energy-change (2. order) : 0.1005841E-03  (-0.2809767E-03)
 number of electron     376.0000435 magnetization 
 augmentation part      152.4245787 magnetization 

 Broyden mixing:
  rms(total) = 0.27217E-01    rms(broyden)= 0.26958E-01
  rms(prec ) = 0.33653E-01
  weight for this iteration     100.00

 eigenvalues of (default mixing * dielectric matrix)
  average eigenvalue GAMMA=   0.7346
  2.2296  2.0893  1.2192  0.9992  0.9992  0.4610  0.4610  0.4453  0.1277  0.3331
  0.1751  0.2626  0.2626  0.2193

 Free energy of the ion-electron system (eV)
  ---------------------------------------------------
  alpha Z        PSCENC =       918.22725072
  Ewald energy   TEWEN  =     21475.20801211
  -Hartree energ DENC   =    -53963.85375854
  -exchange      EXHF   =         0.00000000
  -V(xc)+E(xc)   XCENC  =     -1003.64201503
  PAW double counting   =     34936.72788935   -32783.01474115
  entropy T*S    EENTRO =        -5.50376276
  eigenvalues    EBANDS =        70.82681093
  atomic energy  EATOM  =     30161.86332653
  Solvation  Ediel_sol  =         0.00000000
  ---------------------------------------------------
  free energy    TOTEN  =      -193.16098783 eV

  energy without entropy =     -187.65722507  energy(sigma->0) =     -190.40910645


--------------------------------------------------------------------------------------------------------




--------------------------------------- Iteration      1(  20)  ---------------------------------------


    POTLOK:  cpu time    0.1559: real time    0.1666
    SETDIJ:  cpu time    0.0411: real time    0.0411
     EDDAV:  cpu time   51.3910: real time   51.3969
       DOS:  cpu time    0.0228: real time    0.0228
    CHARGE:  cpu time    2.4243: real time    2.4244
    MIXING:  cpu time    0.0131: real time    0.0131
    --------------------------------------------
      LOOP:  cpu time   54.0482: real time   54.0650

 eigenvalue-minimisations  : 11464
 total energy-change (2. order) : 0.2415246E-03  (-0.9202552E-04)
 number of electron     376.0000435 magnetization 
 augmentation part      152.4268364 magnetization 

 Broyden mixing:
  rms(total) = 0.19069E-01    rms(broyden)= 0.19067E-01
  rms(prec ) = 0.23644E-01
  weight for this iteration     100.00

 eigenvalues of (default mixing * dielectric matrix)
  average eigenvalue GAMMA=   0.7865
  2.5045  2.5045  1.1024  1.1024  0.9659  0.9659  0.5018  0.5018  0.1277  0.3282
  0.1751  0.2655  0.2655  0.2686  0.2179

 Free energy of the ion-electron system (eV)
  ---------------------------------------------------
  alpha Z        PSCENC =       918.22725072
  Ewald energy   TEWEN  =     21475.20801211
  -Hartree energ DENC   =    -53964.37658873
  -exchange      EXHF   =         0.00000000
  -V(xc)+E(xc)   XCENC  =     -1003.63340099
  PAW double counting   =     34931.98347774   -32778.22877114
  entropy T*S    EENTRO =        -5.50127652
  eigenvalues    EBANDS =        71.29722398
  atomic energy  EATOM  =     30161.86332653
  Solvation  Ediel_sol  =         0.00000000
  ---------------------------------------------------
  free energy    TOTEN  =      -193.16074631 eV

  energy without entropy =     -187.65946978  energy(sigma->0) =     -190.41010804


--------------------------------------------------------------------------------------------------------




--------------------------------------- Iteration      1(  21)  ---------------------------------------


    POTLOK:  cpu time    0.1541: real time    0.1644
    SETDIJ:  cpu time    0.0405: real time    0.0405
     EDDAV:  cpu time   53.3258: real time   53.3315
       DOS:  cpu time    0.0224: real time    0.0224
    CHARGE:  cpu time    2.4196: real time    2.4198
    MIXING:  cpu time    0.0136: real time    0.0136
    --------------------------------------------
      LOOP:  cpu time   55.9760: real time   55.9922

 eigenvalue-minimisations  : 12016
 total energy-change (2. order) :-0.1293977E-03  (-0.6844770E-04)
 number of electron     376.0000435 magnetization 
 augmentation part      152.4312193 magnetization 

 Broyden mixing:
  rms(total) = 0.75728E-02    rms(broyden)= 0.74748E-02
  rms(prec ) = 0.94539E-02
  weight for this iteration     100.00

 eigenvalues of (default mixing * dielectric matrix)
  average eigenvalue GAMMA=   0.7763
  2.5647  2.5647  1.2118  1.2118  0.9139  0.9139  0.5035  0.5035  0.1277  0.3924
  0.1751  0.3285  0.2640  0.2640  0.2632  0.2173

 Free energy of the ion-electron system (eV)
  ---------------------------------------------------
  alpha Z        PSCENC =       918.22725072
  Ewald energy   TEWEN  =     21475.20801211
  -Hartree energ DENC   =    -53965.76580902
  -exchange      EXHF   =         0.00000000
  -V(xc)+E(xc)   XCENC  =     -1003.61338636
  PAW double counting   =     34920.84622606   -32767.01062565
  entropy T*S    EENTRO =        -5.49610708
  eigenvalues    EBANDS =        72.58023698
  atomic energy  EATOM  =     30161.86332653
  Solvation  Ediel_sol  =         0.00000000
  ---------------------------------------------------
  free energy    TOTEN  =      -193.16087570 eV

  energy without entropy =     -187.66476863  energy(sigma->0) =     -190.41282216


--------------------------------------------------------------------------------------------------------




--------------------------------------- Iteration      1(  22)  ---------------------------------------


    POTLOK:  cpu time    0.1535: real time    0.1634
    SETDIJ:  cpu time    0.0411: real time    0.0411
     EDDAV:  cpu time   52.1054: real time   52.1127
       DOS:  cpu time    0.0225: real time    0.0225
    CHARGE:  cpu time    2.4212: real time    2.4214
    MIXING:  cpu time    0.0143: real time    0.0143
    --------------------------------------------
      LOOP:  cpu time   54.7580: real time   54.7754

 eigenvalue-minimisations  : 11672
 total energy-change (2. order) :-0.6757619E-04  (-0.1559868E-04)
 number of electron     376.0000435 magnetization 
 augmentation part      152.4299366 magnetization 

 Broyden mixing:
  rms(total) = 0.43529E-02    rms(broyden)= 0.43469E-02
  rms(prec ) = 0.56167E-02
  weight for this iteration     100.00

 eigenvalues of (default mixing * dielectric matrix)
  average eigenvalue GAMMA=   0.7954
  2.5872  2.5872  1.5891  1.1029  0.9991  0.9991  0.7169  0.5050  0.5050  0.1277
  0.1751  0.3302  0.3009  0.2657  0.2657  0.2173  0.2483

 Free energy of the ion-electron system (eV)
  ---------------------------------------------------
  alpha Z        PSCENC =       918.22725072
  Ewald energy   TEWEN  =     21475.20801211
  -Hartree energ DENC   =    -53966.02135491
  -exchange      EXHF   =         0.00000000
  -V(xc)+E(xc)   XCENC  =     -1003.61086009
  PAW double counting   =     34919.71363107   -32765.87690779
  entropy T*S    EENTRO =        -5.49617777
  eigenvalues    EBANDS =        72.83213686
  atomic energy  EATOM  =     30161.86332653
  Solvation  Ediel_sol  =         0.00000000
  ---------------------------------------------------
  free energy    TOTEN  =      -193.16094328 eV

  energy without entropy =     -187.66476551  energy(sigma->0) =     -190.41285440


--------------------------------------------------------------------------------------------------------




--------------------------------------- Iteration      1(  23)  ---------------------------------------


    POTLOK:  cpu time    0.1525: real time    0.1622
    SETDIJ:  cpu time    0.0409: real time    0.0409
     EDDAV:  cpu time   45.4416: real time   45.4465
       DOS:  cpu time    0.0223: real time    0.0223
    CHARGE:  cpu time    2.4247: real time    2.4249
    MIXING:  cpu time    0.0150: real time    0.0150
    --------------------------------------------
      LOOP:  cpu time   48.0971: real time   48.1119

 eigenvalue-minimisations  :  9648
 total energy-change (2. order) :-0.4584890E-04  (-0.6274294E-05)
 number of electron     376.0000435 magnetization 
 augmentation part      152.4326905 magnetization 

 Broyden mixing:
  rms(total) = 0.34545E-02    rms(broyden)= 0.34206E-02
  rms(prec ) = 0.46467E-02
  weight for this iteration     100.00

 eigenvalues of (default mixing * dielectric matrix)
  average eigenvalue GAMMA=   0.8004
  2.6080  2.6080  1.7742  1.0503  1.0503  1.0623  0.6697  0.6697  0.4959  0.4959
  0.1277  0.1751  0.3216  0.3064  0.2648  0.2648  0.2174  0.2447

 Free energy of the ion-electron system (eV)
  ---------------------------------------------------
  alpha Z        PSCENC =       918.22725072
  Ewald energy   TEWEN  =     21475.20801211
  -Hartree energ DENC   =    -53966.26719807
  -exchange      EXHF   =         0.00000000
  -V(xc)+E(xc)   XCENC  =     -1003.60736752
  PAW double counting   =     34918.96239911   -32765.13937211
  entropy T*S    EENTRO =        -5.49432492
  eigenvalues    EBANDS =        73.08628501
  atomic energy  EATOM  =     30161.86332653
  Solvation  Ediel_sol  =         0.00000000
  ---------------------------------------------------
  free energy    TOTEN  =      -193.16098913 eV

  energy without entropy =     -187.66666421  energy(sigma->0) =     -190.41382667


--------------------------------------------------------------------------------------------------------




--------------------------------------- Iteration      1(  24)  ---------------------------------------


    POTLOK:  cpu time    0.1619: real time    0.1623
    SETDIJ:  cpu time    0.0411: real time    0.0411
     EDDAV:  cpu time   40.4747: real time   40.4792
       DOS:  cpu time    0.0224: real time    0.0224
    CHARGE:  cpu time    2.4244: real time    2.4250
    MIXING:  cpu time    0.0158: real time    0.0158
    --------------------------------------------
      LOOP:  cpu time   43.1403: real time   43.1458

 eigenvalue-minimisations  :  8192
 total energy-change (2. order) :-0.3194683E-04  (-0.2906365E-05)
 number of electron     376.0000435 magnetization 
 augmentation part      152.4321612 magnetization 

 Broyden mixing:
  rms(total) = 0.32810E-02    rms(broyden)= 0.32804E-02
  rms(prec ) = 0.43567E-02
  weight for this iteration     100.00

 eigenvalues of (default mixing * dielectric matrix)
  average eigenvalue GAMMA=   0.8413
  3.1198  2.3144  2.3144  1.1792  1.1792  0.8894  0.8894  0.9105  0.4984  0.4984
  0.1277  0.1751  0.3237  0.3055  0.2652  0.2652  0.2174  0.2668  0.2442

 Free energy of the ion-electron system (eV)
  ---------------------------------------------------
  alpha Z        PSCENC =       918.22725072
  Ewald energy   TEWEN  =     21475.20801211
  -Hartree energ DENC   =    -53966.48554295
  -exchange      EXHF   =         0.00000000
  -V(xc)+E(xc)   XCENC  =     -1003.60613487
  PAW double counting   =     34918.51128948   -32764.69811093
  entropy T*S    EENTRO =        -5.49455218
  eigenvalues    EBANDS =        73.31344102
  atomic energy  EATOM  =     30161.86332653
  Solvation  Ediel_sol  =         0.00000000
  ---------------------------------------------------
  free energy    TOTEN  =      -193.16102108 eV

  energy without entropy =     -187.66646889  energy(sigma->0) =     -190.41374498


--------------------------------------------------------------------------------------------------------




--------------------------------------- Iteration      1(  25)  ---------------------------------------


    POTLOK:  cpu time    0.1542: real time    0.1675
    SETDIJ:  cpu time    0.0412: real time    0.0412
     EDDAV:  cpu time   38.6827: real time   38.6867
       DOS:  cpu time    0.0226: real time    0.0226
    CHARGE:  cpu time    2.4200: real time    2.4202
    MIXING:  cpu time    0.0167: real time    0.0167
    --------------------------------------------
      LOOP:  cpu time   41.3374: real time   41.3548

 eigenvalue-minimisations  :  7624
 total energy-change (2. order) :-0.2991950E-04  (-0.2189077E-05)
 number of electron     376.0000435 magnetization 
 augmentation part      152.4313632 magnetization 

 Broyden mixing:
  rms(total) = 0.18576E-02    rms(broyden)= 0.18549E-02
  rms(prec ) = 0.24368E-02
  weight for this iteration     100.00

 eigenvalues of (default mixing * dielectric matrix)
  average eigenvalue GAMMA=   0.8315
  3.2736  2.3579  2.3579  1.2066  1.2066  0.9005  0.9005  0.9043  0.4970  0.4970
  0.1277  0.1751  0.3390  0.3390  0.3185  0.2653  0.2653  0.2173  0.2480  0.2324

 Free energy of the ion-electron system (eV)
  ---------------------------------------------------
  alpha Z        PSCENC =       918.22725072
  Ewald energy   TEWEN  =     21475.20801211
  -Hartree energ DENC   =    -53966.82702411
  -exchange      EXHF   =         0.00000000
  -V(xc)+E(xc)   XCENC  =     -1003.60443675
  PAW double counting   =     34917.68608903   -32763.88523297
  entropy T*S    EENTRO =        -5.49504381
  eigenvalues    EBANDS =        73.66600825
  atomic energy  EATOM  =     30161.86332653
  Solvation  Ediel_sol  =         0.00000000
  ---------------------------------------------------
  free energy    TOTEN  =      -193.16105100 eV

  energy without entropy =     -187.66600719  energy(sigma->0) =     -190.41352909


--------------------------------------------------------------------------------------------------------




--------------------------------------- Iteration      1(  26)  ---------------------------------------


    POTLOK:  cpu time    0.1567: real time    0.1671
    SETDIJ:  cpu time    0.0410: real time    0.0410
     EDDAV:  cpu time   35.7603: real time   35.7712
       DOS:  cpu time    0.0229: real time    0.0229
    --------------------------------------------
      LOOP:  cpu time   35.9810: real time   36.0021

 eigenvalue-minimisations  :  6688
 total energy-change (2. order) :-0.7702340E-05  (-0.7576829E-06)
 number of electron     376.0000435 magnetization 
 augmentation part      152.4313632 magnetization 

 Free energy of the ion-electron system (eV)
  ---------------------------------------------------
  alpha Z        PSCENC =       918.22725072
  Ewald energy   TEWEN  =     21475.20801211
  -Hartree energ DENC   =    -53966.91740935
  -exchange      EXHF   =         0.00000000
  -V(xc)+E(xc)   XCENC  =     -1003.60398317
  PAW double counting   =     34917.48927572   -32763.69039200
  entropy T*S    EENTRO =        -5.49517395
  eigenvalues    EBANDS =        73.75803468
  atomic energy  EATOM  =     30161.86332653
  Solvation  Ediel_sol  =         0.00000000
  ---------------------------------------------------
  free energy    TOTEN  =      -193.16105870 eV

  energy without entropy =     -187.66588475  energy(sigma->0) =     -190.41347172


--------------------------------------------------------------------------------------------------------




 average (electrostatic) potential at core
  the test charge radii are     1.1199  0.6991  0.7215
  (the norm of the test charge is              1.0000)
       1 -77.2192       2 -77.5856       3 -77.5888       4 -77.2235       5 -77.5853
       6 -77.5887       7 -77.2141       8 -77.5847       9 -77.5879      10 -77.2177
      11 -77.5840      12 -77.5870      13 -77.2319      14 -77.5850      15 -77.5918
      16 -77.2124      17 -77.5841      18 -77.5935      19 -77.2142      20 -77.5847
      21 -77.5880      22 -77.2142      23 -77.5853      24 -77.5875      25 -77.2128
      26 -77.5851      27 -77.5918      28 -77.2201      29 -77.2199      30 -77.2198
[...]
    MIXING:  cpu time    0.0101: real time    0.0102
    --------------------------------------------
      LOOP:  cpu time   55.0754: real time   55.0825

 eigenvalue-minimisations  : 11976
 total energy-change (2. order) :-0.2744296E-03  (-0.2079994E-04)
 number of electron     376.0000084 magnetization 
 augmentation part      152.7044737 magnetization 

 eigenvalues of (default mixing * dielectric matrix)
  average eigenvalue GAMMA=   0.9246
  2.9047  2.3126  1.2014  1.2014  0.7595  0.7595  0.0944  0.2896  0.1782  0.2497
  0.2198

  free energy =  -0.202837022840E+03  energy without entropy=  -0.197601812501E+03


--------------------------------------------------------------------------------------------------------




--------------------------------------- Iteration    166(  13)  ---------------------------------------


    POTLOK:  cpu time    0.1449: real time    0.1449
    SETDIJ:  cpu time    0.0402: real time    0.0402
     EDDAV:  cpu time   50.2281: real time   50.2350
       DOS:  cpu time    0.0190: real time    0.0190
    CHARGE:  cpu time    2.2846: real time    2.2849
    MIXING:  cpu time    0.0106: real time    0.0106
    --------------------------------------------
      LOOP:  cpu time   52.7272: real time   52.7343

 eigenvalue-minimisations  : 11312
 total energy-change (2. order) :-0.8211336E-03  (-0.2239774E-04)
 number of electron     376.0000084 magnetization 
 augmentation part      152.7041696 magnetization 

 eigenvalues of (default mixing * dielectric matrix)
  average eigenvalue GAMMA=   0.9297
  3.1001  2.3620  1.6816  1.0860  0.7674  0.7674  0.0944  0.3395  0.3092  0.1782
  0.2524  0.2179

  free energy =  -0.202837843973E+03  energy without entropy=  -0.197602723870E+03


--------------------------------------------------------------------------------------------------------




--------------------------------------- Iteration    166(  14)  ---------------------------------------


    POTLOK:  cpu time    0.1452: real time    0.1452
    SETDIJ:  cpu time    0.0403: real time    0.0403
     EDDAV:  cpu time   45.5289: real time   45.5501
       DOS:  cpu time    0.0197: real time    0.0197
    CHARGE:  cpu time    2.2954: real time    2.2956
    MIXING:  cpu time    0.0115: real time    0.0115
    --------------------------------------------
      LOOP:  cpu time   48.0409: real time   48.0623

 eigenvalue-minimisations  :  9832
 total energy-change (2. order) :-0.2009906E-03  (-0.6649985E-05)
 number of electron     376.0000084 magnetization 
 augmentation part      152.7041384 magnetization 

 eigenvalues of (default mixing * dielectric matrix)
  average eigenvalue GAMMA=   0.9505
  3.3222  2.4056  1.8576  1.0675  0.8144  0.8144  0.7399  0.0944  0.1782  0.3056
  0.2881  0.2498  0.2188

  free energy =  -0.202838044964E+03  energy without entropy=  -0.197602964878E+03


--------------------------------------------------------------------------------------------------------




--------------------------------------- Iteration    166(  15)  ---------------------------------------


    POTLOK:  cpu time    0.1454: real time    0.1454
    SETDIJ:  cpu time    0.0402: real time    0.0402
     EDDAV:  cpu time   38.3452: real time   38.3517
       DOS:  cpu time    0.0201: real time    0.0201
    CHARGE:  cpu time    2.2943: real time    2.2945
    MIXING:  cpu time    0.0120: real time    0.0120
    --------------------------------------------
      LOOP:  cpu time   40.8571: real time   40.8639

 eigenvalue-minimisations  :  7632
 total energy-change (2. order) :-0.9171939E-04  (-0.1536272E-05)
 number of electron     376.0000084 magnetization 
 augmentation part      152.7042693 magnetization 

 eigenvalues of (default mixing * dielectric matrix)
  average eigenvalue GAMMA=   0.9523
  3.4288  2.4254  1.9318  1.0382  0.8698  0.8698  0.7130  0.7130  0.0944  0.1782
  0.3156  0.2857  0.2497  0.2186

  free energy =  -0.202838136683E+03  energy without entropy=  -0.197603081816E+03


--------------------------------------------------------------------------------------------------------




--------------------------------------- Iteration    166(  16)  ---------------------------------------


    POTLOK:  cpu time    0.1459: real time    0.1459
    SETDIJ:  cpu time    0.0405: real time    0.0405
     EDDAV:  cpu time   38.5323: real time   38.5368
       DOS:  cpu time    0.0195: real time    0.0195
    CHARGE:  cpu time    2.2855: real time    2.2866
    MIXING:  cpu time    0.0128: real time    0.0128
    --------------------------------------------
      LOOP:  cpu time   41.0365: real time   41.0420

 eigenvalue-minimisations  :  7688
 total energy-change (2. order) :-0.4613565E-04  (-0.9896500E-06)
 number of electron     376.0000084 magnetization 
 augmentation part      152.7043193 magnetization 

 eigenvalues of (default mixing * dielectric matrix)
  average eigenvalue GAMMA=   0.9938
  3.7390  2.5003  2.1428  1.3845  1.1383  0.8719  0.7815  0.7815  0.0944  0.1782
  0.3119  0.2844  0.2496  0.2185  0.2307

  free energy =  -0.202838182819E+03  energy without entropy=  -0.197603127257E+03


--------------------------------------------------------------------------------------------------------




--------------------------------------- Iteration    166(  17)  ---------------------------------------


    POTLOK:  cpu time    0.1455: real time    0.1455
    SETDIJ:  cpu time    0.0402: real time    0.0402
     EDDAV:  cpu time   37.6200: real time   37.6467
       DOS:  cpu time    0.0195: real time    0.0195
    CHARGE:  cpu time    2.2868: real time    2.2869
    MIXING:  cpu time    0.0133: real time    0.0133
    --------------------------------------------
      LOOP:  cpu time   40.1253: real time   40.1521

 eigenvalue-minimisations  :  7416
 total energy-change (2. order) :-0.2967924E-04  (-0.8916646E-06)
 number of electron     376.0000084 magnetization 
 augmentation part      152.7043764 magnetization 

 eigenvalues of (default mixing * dielectric matrix)
  average eigenvalue GAMMA=   1.0101
  3.9759  2.5771  2.2278  1.6430  1.0798  0.8168  0.8168  0.7305  0.7305  0.0944
  0.1782  0.3157  0.2879  0.2498  0.2190  0.2190

  free energy =  -0.202838212498E+03  energy without entropy=  -0.197603156740E+03


--------------------------------------------------------------------------------------------------------




--------------------------------------- Iteration    166(  18)  ---------------------------------------


    POTLOK:  cpu time    0.1467: real time    0.1467
    SETDIJ:  cpu time    0.0405: real time    0.0405
     EDDAV:  cpu time   36.1642: real time   36.1733
       DOS:  cpu time    0.0197: real time    0.0197
    --------------------------------------------
      LOOP:  cpu time   36.3710: real time   36.3801

 eigenvalue-minimisations  :  6960
 total energy-change (2. order) :-0.5447069E-05  (-0.1746037E-06)
 number of electron     376.0000084 magnetization 
 augmentation part      152.7043764 magnetization 

  free energy =  -0.202838217945E+03  energy without entropy=  -0.197603153672E+03


--------------------------------------------------------------------------------------------------------




------------------------ aborting loop because EDIFF is reached ----------------------------------------


    CHARGE:  cpu time    2.2919: real time    2.2921
    FORLOC:  cpu time    0.0761: real time    0.0761
    FORNL :  cpu time   10.6133: real time   10.6143
    STRESS:  cpu time   32.0399: real time   32.0428
    FORCOR:  cpu time    0.2251: real time    0.2251
    FORHAR:  cpu time    0.0989: real time    0.0989
    MIXING:  cpu time    0.0140: real time    0.0141
    OFIELD:  cpu time    0.0001: real time    0.0001

  FORCE on cell =-STRESS in cart. coord.  units (eV):
  Direction    XX          YY          ZZ          XY          YZ          ZX
  --------------------------------------------------------------------------------------
  Alpha Z   918.22725   918.22725   918.22725
  Ewald   40662.01475 40905.25716-60930.93711  -367.13634   -42.16478    29.56863
  Hartree 49733.41553 49853.38069-46371.57445  -177.82912   -19.70058    13.68943
  E(xc)   -1954.82487 -1954.20018 -1965.89847    -0.96106    -0.11467     0.07993
  Local  -97030.41446-97371.87102100556.06256   511.50488    57.90001   -40.42341
  n-local  -202.43536  -203.81484  -243.17146     2.12952     0.24468    -0.18027
  augment  2666.47393  2665.49931  2720.26977     1.49684     0.17737    -0.11365
  Kinetic  5193.70180  5173.19175  5313.49992    31.53867     3.78177    -2.70388
  Fock        0.00000     0.00000     0.00000     0.00000     0.00000     0.00000
  -------------------------------------------------------------------------------------
  Total     -13.84143   -14.32988    -3.52198     0.74339     0.12381    -0.08321
  in kB     -22.44230   -23.23426    -5.71049     1.20532     0.20074    -0.13492
  external pressure =      -17.13 kB  Pullay stress =        0.00 kB



--------------------------------------------------------------------------------------------------------



  FREE ENERGIE OF THE ION-ELECTRON SYSTEM (eV)
  ---------------------------------------------------
  free  energy   TOTEN  =      -202.83821795 eV

  energy  without entropy=     -197.60315367  energy(sigma->0) =     -200.22068581
 
 d Force = 0.3477125E-01[-0.416E+01, 0.423E+01]  d Energy = 0.1774448E-01 0.170E-01
 d Force = 0.3052172E+01[-0.204E+02, 0.265E+02]  d Ewald  = 0.3025540E+01 0.266E-01


--------------------------------------------------------------------------------------------------------


    POTLOK:  cpu time    0.1896: real time    0.1896


--------------------------------------------------------------------------------------------------------


 NEB: the previous image is higher in energy: T
 NEB: the next image is higher in energy    : F
 NEB: only prev energy greater

 NEB: Tangent
 ----------------------------------------------
      0.00567      0.00286      0.01619
      0.00000      0.00000      0.00000
      0.00077      0.00033      0.00681
      0.00007      0.00214      0.01287
      0.00000      0.00000      0.00000
      0.00085      0.00005      0.00268
      0.00181      0.00065      0.00289
      0.00000      0.00000      0.00000
      0.00268     -0.00021      0.00548
      0.00445      0.00069      0.00655
      0.00000      0.00000      0.00000
      0.00194      0.00027      0.00546
      0.00256     -0.00248      0.01295
      0.00000      0.00000      0.00000
      0.00110      0.00011      0.00252
      0.00156     -0.00006      0.00302
      0.00000      0.00000      0.00000
      0.00145      0.00006      0.00272
      0.00325      0.00162      0.00533
      0.00000      0.00000      0.00000
      0.00114      0.00120      0.00487
      0.00265      0.00065      0.00669
      0.00000      0.00000      0.00000
      0.00061      0.00020      0.00177
      0.00169      0.00038      0.00242
      0.00000      0.00000      0.00000
      0.00122      0.00148      0.00475
      0.00000      0.00000      0.00000
      0.00000      0.00000      0.00000
      0.00000      0.00000      0.00000
      0.00000      0.00000      0.00000
      0.00000      0.00000      0.00000
      0.00000      0.00000      0.00000
      0.00000      0.00000      0.00000
      0.00000      0.00000      0.00000
      0.00000      0.00000      0.00000
     -0.00390     -0.02138      0.58480
     -0.01685     -0.03188      0.56047
      0.00883     -0.01099      0.58384

 NEB: forces: par spring, perp REAL, dneb     0.030710   20.792708    0.000000
 NEB: distance to prev, next image, angle between     1.714617    1.720759  157.455179
 NEB: projections on to tangent (spring, REAL)     0.030710    0.012402

 stress matrix after NEB project (eV)
    -13.84143      0.74339     -0.08321
      0.74339    -14.32988      0.12381
     -0.08321      0.12381     -3.52198
  FORCES: max atom, RMS    16.976697    3.329502
  FORCE total and by dimension   20.792730   13.700187
  Stress total and by dimension   20.260425   14.329879
 
 OPT: Flag T
 OPT: QM Step


--------------------------------------------------------------------------------------------------------


    WAVPRE:  cpu time   51.3305: real time   51.3373
    FEWALD:  cpu time    0.0045: real time    0.0045

 real space projection operators:
  total allocation   :       9689.56 KBytes
  max/ min on nodes  :       4846.41       4843.16

    ORTHCH:  cpu time    4.6904: real time    4.6909
     LOOP+:  cpu time 1029.1770: real time 1029.3496


--------------------------------------- Iteration    167(   1)  ---------------------------------------


    POTLOK:  cpu time    0.1568: real time    0.1638
    SETDIJ:  cpu time    0.0404: real time    0.0404
     EDDAV:  cpu time   50.4250: real time   50.4319
       DOS:  cpu time    0.0195: real time    0.0195
    CHARGE:  cpu time    2.3802: real time    2.3806
    MIXING:  cpu time    0.0157: real time    0.0157
    --------------------------------------------
      LOOP:  cpu time   53.0376: real time   53.0520

 eigenvalue-minimisations  : 11280
 total energy-change (2. order) :-0.1323712E+00  (-0.1772393E+02)
 number of electron     376.0000078 magnetization 
 augmentation part      152.7167615 magnetization 

  free energy =  -0.202970583704E+03  energy without entropy=  -0.197735818999E+03


--------------------------------------------------------------------------------------------------------




--------------------------------------- Iteration    167(   2)  ---------------------------------------


    POTLOK:  cpu time    0.1524: real time    0.1524
    SETDIJ:  cpu time    0.0404: real time    0.0404
     EDDAV:  cpu time   50.2307: real time   50.2384
       DOS:  cpu time    0.0197: real time    0.0197
    CHARGE:  cpu time    2.3776: real time    2.3777
    MIXING:  cpu time    0.0058: real time    0.0058
    --------------------------------------------
      LOOP:  cpu time   52.8265: real time   52.8343

 eigenvalue-minimisations  : 11216
 total energy-change (2. order) :-0.6186667E-01  (-0.4041937E+00)
 number of electron     376.0000079 magnetization 
 augmentation part      152.7116675 magnetization 

 eigenvalues of (default mixing * dielectric matrix)
  average eigenvalue GAMMA=   1.5173
  1.5173

  free energy =  -0.203032450375E+03  energy without entropy=  -0.197797657278E+03


--------------------------------------------------------------------------------------------------------




--------------------------------------- Iteration    167(   3)  ---------------------------------------


    POTLOK:  cpu time    0.1449: real time    0.1449
    SETDIJ:  cpu time    0.0404: real time    0.0404
     EDDAV:  cpu time   53.8642: real time   53.8771
       DOS:  cpu time    0.0197: real time    0.0197
    CHARGE:  cpu time    2.3769: real time    2.3770
    MIXING:  cpu time    0.0062: real time    0.0062
    --------------------------------------------
      LOOP:  cpu time   56.4523: real time   56.4652

 eigenvalue-minimisations  : 12280
 total energy-change (2. order) : 0.1607036E+00  (-0.3636624E-01)
 number of electron     376.0000078 magnetization 
 augmentation part      152.7100013 magnetization 

 eigenvalues of (default mixing * dielectric matrix)
  average eigenvalue GAMMA=   1.3427
  2.0431  0.6424

  free energy =  -0.202871746818E+03  energy without entropy=  -0.197641972012E+03


--------------------------------------------------------------------------------------------------------




--------------------------------------- Iteration    167(   4)  ---------------------------------------


    POTLOK:  cpu time    0.1446: real time    0.1447
    SETDIJ:  cpu time    0.0403: real time    0.0404
     EDDAV:  cpu time   60.6429: real time   60.6522
       DOS:  cpu time    0.0199: real time    0.0199
    CHARGE:  cpu time    2.3537: real time    2.3540
    MIXING:  cpu time    0.0068: real time    0.0068
    --------------------------------------------
      LOOP:  cpu time   63.2082: real time   63.2179

 eigenvalue-minimisations  : 14240
 total energy-change (2. order) :-0.4986773E+00  (-0.9155546E-01)
 number of electron     376.0000084 magnetization 
 augmentation part      152.6945519 magnetization 

 eigenvalues of (default mixing * dielectric matrix)
  average eigenvalue GAMMA=   1.0246
  2.2308  0.7460  0.0971

  free energy =  -0.203370424132E+03  energy without entropy=  -0.198264372917E+03


--------------------------------------------------------------------------------------------------------




--------------------------------------- Iteration    167(   5)  ---------------------------------------


    POTLOK:  cpu time    0.1450: real time    0.1450
    SETDIJ:  cpu time    0.0403: real time    0.0403
     EDDAV:  cpu time   60.2921: real time   60.2997
       DOS:  cpu time    0.0196: real time    0.0196
    CHARGE:  cpu time    2.3500: real time    2.3502
    MIXING:  cpu time    0.0068: real time    0.0068
    --------------------------------------------
      LOOP:  cpu time   62.8539: real time   62.8616

 eigenvalue-minimisations  : 14144
 total energy-change (2. order) : 0.5548803E+00  (-0.7889386E-01)
 number of electron     376.0000078 magnetization 
 augmentation part      152.6998672 magnetization 

 eigenvalues of (default mixing * dielectric matrix)
  average eigenvalue GAMMA=   0.8814
  2.2415  0.7564  0.4335  0.0944

  free energy =  -0.202815543805E+03  energy without entropy=  -0.197585720491E+03


--------------------------------------------------------------------------------------------------------




--------------------------------------- Iteration    167(   6)  ---------------------------------------


    POTLOK:  cpu time    0.1458: real time    0.1458
    SETDIJ:  cpu time    0.0407: real time    0.0407
     EDDAV:  cpu time   52.9234: real time   52.9370
       DOS:  cpu time    0.0197: real time    0.0197
    CHARGE:  cpu time    2.3594: real time    2.3596
    MIXING:  cpu time    0.0074: real time    0.0074
    --------------------------------------------
      LOOP:  cpu time   55.4965: real time   55.5102

 eigenvalue-minimisations  : 12000
 total energy-change (2. order) :-0.2710654E-02  (-0.3374538E-02)
 number of electron     376.0000080 magnetization 
 augmentation part      152.7155916 magnetization 

 eigenvalues of (default mixing * dielectric matrix)
  average eigenvalue GAMMA=   0.8144
  2.2453  0.8515  0.6960  0.0943  0.1849

  free energy =  -0.202818254459E+03  energy without entropy=  -0.197583057149E+03


--------------------------------------------------------------------------------------------------------




--------------------------------------- Iteration    167(   7)  ---------------------------------------


    POTLOK:  cpu time    0.1440: real time    0.1441
    SETDIJ:  cpu time    0.0405: real time    0.0405
     EDDAV:  cpu time   52.2125: real time   52.2188
       DOS:  cpu time    0.0198: real time    0.0198
    CHARGE:  cpu time    2.2930: real time    2.2931
    MIXING:  cpu time    0.0077: real time    0.0077
    --------------------------------------------
      LOOP:  cpu time   54.7175: real time   54.7239

 eigenvalue-minimisations  : 11856
 total energy-change (2. order) : 0.4473935E-02  (-0.8805401E-03)
 number of electron     376.0000079 magnetization 
 augmentation part      152.7037913 magnetization 

 eigenvalues of (default mixing * dielectric matrix)
  average eigenvalue GAMMA=   0.7475
  2.2460  0.8687  0.6687  0.4236  0.0944  0.1835

  free energy =  -0.202813780524E+03  energy without entropy=  -0.197580224759E+03


--------------------------------------------------------------------------------------------------------




--------------------------------------- Iteration    167(   8)  ---------------------------------------


    POTLOK:  cpu time    0.1447: real time    0.1447
    SETDIJ:  cpu time    0.0403: real time    0.0402
