 vasp.5.4.4.18Apr17-6-g9f103f2a35 (build Aug 09 2024 17:42:55) complex          
  
 POSCAR found type information on POSCAR  Pd C  O 
 04/POSCAR found :  3 types and      39 ions
 scaLAPACK will be used
 LDA part: xc-table for Pade appr. of Perdew
 POSCAR found type information on POSCAR  Pd C  O 
 00/POSCAR found :  3 types and      39 ions
 POSCAR found type information on POSCAR  Pd C  O 
 05/POSCAR found :  3 types and      39 ions
 Jacobian:    18.3422329801906     
 POSCAR, INCAR and KPOINTS ok, starting setup
 FFT: planning ...
 WAVECAR not read
 entering main loop
       N       E                     dE             d eps       ncg     rms          rms(c)
DAV:   1     0.207149231728E+04    0.20715E+04   -0.15167E+05 11144   0.114E+03
DAV:   2    -0.903235247841E+02   -0.21618E+04   -0.20351E+04 12040   0.288E+02
DAV:   3    -0.202594154450E+03   -0.11227E+03   -0.10099E+03 12736   0.595E+01
DAV:   4    -0.206039107477E+03   -0.34450E+01   -0.33938E+01 12336   0.104E+01
DAV:   5    -0.206162213272E+03   -0.12311E+00   -0.12283E+00 14384   0.189E+00    0.417E+01
DAV:   6    -0.214910374096E+03   -0.87482E+01   -0.60123E+01 12632   0.200E+01    0.420E+01
DAV:   7    -0.203131755415E+03    0.11779E+02   -0.28586E+01 13592   0.180E+01    0.284E+01
DAV:   8    -0.220328927035E+03   -0.17197E+02   -0.47211E+01 13776   0.393E+01    0.428E+01
DAV:   9    -0.200941133703E+03    0.19388E+02   -0.24604E+01 13696   0.257E+01    0.209E+01
DAV:  10    -0.196063110901E+03    0.48780E+01   -0.11484E+01 12112   0.145E+01    0.127E+01
DAV:  11    -0.194534689602E+03    0.15284E+01   -0.40701E+00 12240   0.115E+01    0.107E+01
DAV:  12    -0.193840429162E+03    0.69426E+00   -0.17714E+00 12512   0.715E+00    0.767E+00
DAV:  13    -0.193315638852E+03    0.52479E+00   -0.14621E+00 12280   0.559E+00    0.440E+00
DAV:  14    -0.193205481583E+03    0.11016E+00   -0.86835E-01 12544   0.273E+00    0.308E+00
DAV:  15    -0.193153757894E+03    0.51724E-01   -0.14450E-01 11792   0.871E-01    0.912E-01
DAV:  16    -0.193164155393E+03   -0.10397E-01   -0.39671E-02 12520   0.596E-01    0.927E-01
DAV:  17    -0.193163949890E+03    0.20550E-03   -0.22011E-02 11736   0.714E-01    0.602E-01
DAV:  18    -0.193161088415E+03    0.28615E-02   -0.79238E-03 12672   0.449E-01    0.308E-01
DAV:  19    -0.193160987831E+03    0.10058E-03   -0.28098E-03 12152   0.176E-01    0.272E-01
DAV:  20    -0.193160746307E+03    0.24152E-03   -0.92026E-04 11464   0.131E-01    0.191E-01
DAV:  21    -0.193160875704E+03   -0.12940E-03   -0.68448E-04 12016   0.108E-01    0.757E-02
DAV:  22    -0.193160943281E+03   -0.67576E-04   -0.15599E-04 11672   0.604E-02    0.435E-02
DAV:  23    -0.193160989129E+03   -0.45849E-04   -0.62743E-05  9648   0.324E-02    0.345E-02
DAV:  24    -0.193161021076E+03   -0.31947E-04   -0.29064E-05  8192   0.253E-02    0.328E-02
DAV:  25    -0.193161050996E+03   -0.29919E-04   -0.21891E-05  7624   0.215E-02    0.186E-02
DAV:  26    -0.193161058698E+03   -0.77023E-05   -0.75768E-06  6688   0.133E-02
   1 F= -.19316106E+03 E0= -.19041347E+03  d E =-.193161E+03
quench:  g(F)=  0.000E+00 g(S)=  0.000E+00 dE (1.order)= 0.000E+00
 bond charge predicted
       N       E                     dE             d eps       ncg     rms          rms(c)
DAV:   1    -0.194039656473E+03   -0.87861E+00   -0.52996E+01 11136   0.914E+00    0.197E+00
DAV:   2    -0.194334056977E+03   -0.29440E+00   -0.25928E+00 11696   0.167E+00    0.586E+00
DAV:   3    -0.194140155332E+03    0.19390E+00   -0.53177E-01 13024   0.157E+00    0.243E+00
DAV:   4    -0.194145297563E+03   -0.51422E-02   -0.11694E-01 12488   0.146E+00    0.172E+00
DAV:   5    -0.194129130690E+03    0.16167E-01   -0.79170E-02 12280   0.124E+00    0.997E-01
DAV:   6    -0.194125577019E+03    0.35537E-02   -0.14536E-02 12560   0.679E-01    0.633E-01
DAV:   7    -0.194126879513E+03   -0.13025E-02   -0.10850E-02 12496   0.641E-01    0.630E-01
DAV:   8    -0.194124026699E+03    0.28528E-02   -0.39938E-03 12464   0.331E-01    0.139E-01
DAV:   9    -0.194124046311E+03   -0.19613E-04   -0.93618E-04 11640   0.132E-01    0.103E-01
DAV:  10    -0.194124032984E+03    0.13327E-04   -0.32511E-04 11960   0.822E-02    0.624E-02
DAV:  11    -0.194124051763E+03   -0.18778E-04   -0.13487E-04 11296   0.548E-02    0.476E-02
DAV:  12    -0.194124071600E+03   -0.19837E-04   -0.73228E-05 10016   0.409E-02    0.300E-02
DAV:  13    -0.194124090909E+03   -0.19309E-04   -0.26447E-05  8104   0.263E-02    0.196E-02
DAV:  14    -0.194124099381E+03   -0.84722E-05   -0.11220E-05  7112   0.182E-02
   2 F= -.19412410E+03 E0= -.19138678E+03  d E =-.963041E+00
quench:  g(F)=  0.000E+00 g(S)=  0.000E+00 dE (1.order)= 0.000E+00
 bond charge predicted
       N       E                     dE             d eps       ncg     rms          rms(c)
DAV:   1    -0.195920497086E+03   -0.17964E+01   -0.18416E+02 11192   0.169E+01    0.377E+00
DAV:   2    -0.196580965261E+03   -0.66047E+00   -0.69930E+00 11656   0.246E+00    0.612E+00
DAV:   3    -0.196595234522E+03   -0.14269E-01   -0.15678E+00 13664   0.228E+00    0.602E+00
DAV:   4    -0.196397775479E+03    0.19746E+00   -0.71767E-01 13824   0.246E+00    0.265E+00
DAV:   5    -0.196393207051E+03    0.45684E-02   -0.28597E-01 12072   0.235E+00    0.251E+00
DAV:   6    -0.196340058166E+03    0.53149E-01   -0.72162E-02 12696   0.134E+00    0.850E-01
DAV:   7    -0.196364480040E+03   -0.24422E-01   -0.49881E-02 11960   0.124E+00    0.174E+00
DAV:   8    -0.196336615599E+03    0.27864E-01   -0.33828E-02 12240   0.112E+00    0.462E-01
DAV:   9    -0.196336280579E+03    0.33502E-03   -0.75236E-03 11408   0.428E-01    0.360E-01
DAV:  10    -0.196335337852E+03    0.94273E-03   -0.25302E-03 11992   0.258E-01    0.178E-01
DAV:  11    -0.196335302322E+03    0.35530E-04   -0.68676E-04 11432   0.118E-01    0.133E-01
DAV:  12    -0.196335329226E+03   -0.26904E-04   -0.44326E-04 11768   0.991E-02    0.862E-02
DAV:  13    -0.196335499460E+03   -0.17023E-03   -0.32768E-04 11208   0.876E-02    0.877E-02
DAV:  14    -0.196335498617E+03    0.84309E-06   -0.17375E-04 11736   0.704E-02    0.292E-02
DAV:  15    -0.196335575249E+03   -0.76632E-04   -0.61446E-05  9632   0.317E-02    0.299E-02
DAV:  16    -0.196335602253E+03   -0.27004E-04   -0.27612E-05  8480   0.268E-02    0.160E-02
DAV:  17    -0.196335646195E+03   -0.43942E-04   -0.14884E-05  8032   0.133E-02    0.177E-02
DAV:  18    -0.196335659025E+03   -0.12830E-04   -0.65682E-06  6656   0.124E-02    0.116E-02
DAV:  19    -0.196335677158E+03   -0.18133E-04   -0.38718E-06  6912   0.657E-03    0.670E-03
DAV:  20    -0.196335680563E+03   -0.34048E-05   -0.11606E-06  6504   0.492E-03
   3 F= -.19633568E+03 E0= -.19360841E+03  d E =-.221158E+01
quench:  g(F)=  0.000E+00 g(S)=  0.000E+00 dE (1.order)= 0.000E+00
 bond charge predicted
       N       E                     dE             d eps       ncg     rms          rms(c)
DAV:   1    -0.197558298835E+03   -0.12226E+01   -0.20244E+02 11136   0.152E+01    0.553E+00
DAV:   2    -0.198981885181E+03   -0.14236E+01   -0.84192E+00 11856   0.259E+00    0.168E+01
DAV:   3    -0.198044045957E+03    0.93784E+00   -0.57117E+00 13080   0.186E+00    0.542E+00
DAV:   4    -0.198230101377E+03   -0.18606E+00   -0.93549E-01 11824   0.388E+00    0.628E+00
DAV:   5    -0.197963748989E+03    0.26635E+00   -0.79978E-01 12904   0.416E+00    0.339E+00
DAV:   6    -0.197919981701E+03    0.43767E-01   -0.21792E-01 12352   0.231E+00    0.280E+00
DAV:   7    -0.197868023822E+03    0.51958E-01   -0.73607E-02 12016   0.176E+00    0.174E+00
DAV:   8    -0.197844828838E+03    0.23195E-01   -0.35126E-02 13120   0.508E-01    0.838E-01
DAV:   9    -0.197839917880E+03    0.49110E-02   -0.13955E-02 11712   0.535E-01    0.639E-01
DAV:  10    -0.197837736362E+03    0.21815E-02   -0.43735E-03 11816   0.336E-01    0.390E-01
DAV:  11    -0.197838679398E+03   -0.94304E-03   -0.27611E-03 11568   0.233E-01    0.336E-01
DAV:  12    -0.197838459852E+03    0.21955E-03   -0.19498E-03 11720   0.223E-01    0.159E-01
DAV:  13    -0.197838650677E+03   -0.19083E-03   -0.56531E-04 11616   0.112E-01    0.105E-01
DAV:  14    -0.197838689785E+03   -0.39108E-04   -0.19336E-04 11656   0.713E-02    0.402E-02
DAV:  15    -0.197838809997E+03   -0.12021E-03   -0.69283E-05 10080   0.356E-02    0.399E-02
DAV:  16    -0.197838865585E+03   -0.55587E-04   -0.44144E-05  8880   0.336E-02    0.207E-02
DAV:  17    -0.197838926212E+03   -0.60627E-04   -0.24097E-05  7688   0.208E-02    0.215E-02
DAV:  18    -0.197838939433E+03   -0.13221E-04   -0.10435E-05  6872   0.164E-02    0.917E-03
DAV:  19    -0.197838960684E+03   -0.21251E-04   -0.53654E-06  7136   0.852E-03    0.905E-03
DAV:  20    -0.197838967202E+03   -0.65182E-05   -0.22421E-06  6728   0.736E-03
   4 F= -.19783897E+03 E0= -.19510151E+03  d E =-.150329E+01
quench:  g(F)=  0.000E+00 g(S)=  0.000E+00 dE (1.order)= 0.000E+00
 bond charge predicted
       N       E                     dE             d eps       ncg     rms          rms(c)
DAV:   1    -0.198082140578E+03   -0.24318E+00   -0.13637E+01 11136   0.389E+00    0.216E+00
DAV:   2    -0.198519306733E+03   -0.43717E+00   -0.33745E+00 14608   0.149E+00    0.904E+00
DAV:   3    -0.198006125183E+03    0.51318E+00   -0.72263E-01 14800   0.194E+00    0.199E+00
DAV:   4    -0.198085210623E+03   -0.79085E-01   -0.16465E-01 11696   0.173E+00    0.227E+00
DAV:   5    -0.198057291181E+03    0.27919E-01   -0.88962E-02 12064   0.142E+00    0.131E+00
DAV:   6    -0.198044683914E+03    0.12607E-01   -0.24461E-02 11808   0.955E-01    0.533E-01
DAV:   7    -0.198043573040E+03    0.11109E-02   -0.49210E-03 11816   0.325E-01    0.205E-01
DAV:   8    -0.198044028807E+03   -0.45577E-03   -0.29851E-03 11432   0.290E-01    0.258E-01
DAV:   9    -0.198043440738E+03    0.58807E-03   -0.11844E-03 11640   0.198E-01    0.990E-02
DAV:  10    -0.198043468885E+03   -0.28147E-04   -0.29482E-04 11408   0.793E-02    0.836E-02
DAV:  11    -0.198043486621E+03   -0.17736E-04   -0.11703E-04 10336   0.517E-02    0.440E-02
DAV:  12    -0.198043499384E+03   -0.12763E-04   -0.41315E-05  8280   0.343E-02    0.273E-02
DAV:  13    -0.198043517318E+03   -0.17934E-04   -0.13265E-05  7160   0.173E-02    0.117E-02
DAV:  14    -0.198043527219E+03   -0.99008E-05   -0.41391E-06  6600   0.103E-02
   5 F= -.19804353E+03 E0= -.19534185E+03  d E =-.204560E+00
quench:  g(F)=  0.000E+00 g(S)=  0.000E+00 dE (1.order)= 0.000E+00
 bond charge predicted
       N       E                     dE             d eps       ncg     rms          rms(c)
DAV:   1    -0.198401734654E+03   -0.35822E+00   -0.33810E+01 11136   0.646E+00    0.195E+00
DAV:   2    -0.198558339790E+03   -0.15661E+00   -0.13879E+00 11912   0.123E+00    0.469E+00
DAV:   3    -0.198432031778E+03    0.12631E+00   -0.75077E-01 12880   0.132E+00    0.152E+00
DAV:   4    -0.198476664071E+03   -0.44632E-01   -0.13993E-01 12120   0.172E+00    0.238E+00
DAV:   5    -0.198448577721E+03    0.28086E-01   -0.11205E-01 12752   0.160E+00    0.149E+00
DAV:   6    -0.198429792457E+03    0.18785E-01   -0.28772E-02 12296   0.105E+00    0.451E-01
DAV:   7    -0.198429929813E+03   -0.13736E-03   -0.41015E-03 11504   0.289E-01    0.207E-01
DAV:   8    -0.198429788730E+03    0.14108E-03   -0.15068E-03 11536   0.212E-01    0.125E-01
DAV:   9    -0.198429776859E+03    0.11871E-04   -0.49960E-04 11576   0.114E-01    0.946E-02
DAV:  10    -0.198429727089E+03    0.49770E-04   -0.28358E-04 11536   0.863E-02    0.509E-02
DAV:  11    -0.198429746687E+03   -0.19598E-04   -0.90916E-05 10104   0.446E-02    0.394E-02
DAV:  12    -0.198429749718E+03   -0.30307E-05   -0.37816E-05  7608   0.340E-02
   6 F= -.19842975E+03 E0= -.19575167E+03  d E =-.386222E+00
quench:  g(F)=  0.000E+00 g(S)=  0.000E+00 dE (1.order)= 0.000E+00
 bond charge predicted
       N       E                     dE             d eps       ncg     rms          rms(c)
DAV:   1    -0.199227105074E+03   -0.79736E+00   -0.55780E+01 11136   0.826E+00    0.271E+00
DAV:   2    -0.199226853019E+03    0.25206E-03   -0.14011E+00 11904   0.163E+00    0.235E+00
DAV:   3    -0.199253713532E+03   -0.26861E-01   -0.27265E-01 12352   0.207E+00    0.281E+00
DAV:   4    -0.199236332351E+03    0.17381E-01   -0.25876E-01 12672   0.238E+00    0.243E+00
DAV:   5    -0.199236667109E+03   -0.33476E-03   -0.18976E-01 13000   0.217E+00    0.231E+00
DAV:   6    -0.199189340376E+03    0.47327E-01   -0.68457E-02 13672   0.157E+00    0.671E-01
DAV:   7    -0.199186754241E+03    0.25861E-02   -0.12863E-02 12064   0.334E-01    0.217E-01
DAV:   8    -0.199187244622E+03   -0.49038E-03   -0.44112E-03 11536   0.313E-01    0.242E-01
DAV:   9    -0.199186724747E+03    0.51987E-03   -0.14780E-03 11960   0.212E-01    0.824E-02
DAV:  10    -0.199186895118E+03   -0.17037E-03   -0.50023E-04 11480   0.105E-01    0.105E-01
DAV:  11    -0.199186902394E+03   -0.72761E-05   -0.28264E-04 11712   0.835E-02    0.364E-02
DAV:  12    -0.199186973785E+03   -0.71391E-04   -0.94792E-05 10832   0.481E-02    0.408E-02
DAV:  13    -0.199187024491E+03   -0.50707E-04   -0.44681E-05  8928   0.339E-02    0.150E-02
DAV:  14    -0.199187060941E+03   -0.36449E-04   -0.16019E-05  7504   0.195E-02    0.157E-02
DAV:  15    -0.199187103838E+03   -0.42897E-04   -0.13518E-05  7712   0.147E-02    0.711E-03
DAV:  16    -0.199187120465E+03   -0.16627E-04   -0.44799E-06  7208   0.707E-03    0.658E-03
DAV:  17    -0.199187125040E+03   -0.45748E-05   -0.17920E-06  6552   0.606E-03
   7 F= -.19918713E+03 E0= -.19654144E+03  d E =-.757375E+00
quench:  g(F)=  0.000E+00 g(S)=  0.000E+00 dE (1.order)= 0.000E+00
 bond charge predicted
       N       E                     dE             d eps       ncg     rms          rms(c)
DAV:   1    -0.200613926075E+03   -0.14268E+01   -0.16351E+02 11136   0.144E+01    0.324E+00
DAV:   2    -0.200876043232E+03   -0.26212E+00   -0.29986E+00 11160   0.157E+00    0.201E+00
DAV:   3    -0.200878386441E+03   -0.23432E-02   -0.92848E-02 13096   0.132E+00    0.189E+00
DAV:   4    -0.200924273535E+03   -0.45887E-01   -0.22484E-01 12864   0.241E+00    0.276E+00
DAV:   5    -0.200938887560E+03   -0.14614E-01   -0.21434E-01 13216   0.256E+00    0.291E+00
DAV:   6    -0.200857867076E+03    0.81020E-01   -0.86802E-02 13128   0.182E+00    0.440E-01
DAV:   7    -0.200856751841E+03    0.11152E-02   -0.75602E-03 11960   0.386E-01    0.294E-01
DAV:   8    -0.200855993344E+03    0.75850E-03   -0.33685E-03 11616   0.311E-01    0.193E-01
DAV:   9    -0.200855572346E+03    0.42100E-03   -0.19789E-03 12768   0.201E-01    0.176E-01
DAV:  10    -0.200855245918E+03    0.32643E-03   -0.11475E-03 11632   0.149E-01    0.589E-02
DAV:  11    -0.200855237760E+03    0.81584E-05   -0.22113E-04 11880   0.664E-02    0.588E-02
DAV:  12    -0.200855205307E+03    0.32453E-04   -0.95293E-05 10688   0.511E-02    0.240E-02
DAV:  13    -0.200855259361E+03   -0.54054E-04   -0.10887E-04 11184   0.430E-02    0.396E-02
DAV:  14    -0.200855279685E+03   -0.20324E-04   -0.65744E-05 10648   0.370E-02    0.135E-02
DAV:  15    -0.200855314460E+03   -0.34776E-04   -0.17473E-05  7904   0.144E-02    0.109E-02
DAV:  16    -0.200855328231E+03   -0.13771E-04   -0.65453E-06  7016   0.117E-02    0.916E-03
DAV:  17    -0.200855359029E+03   -0.30798E-04   -0.60124E-06  7360   0.814E-03    0.597E-03
DAV:  18    -0.200855365187E+03   -0.61583E-05   -0.18306E-06  7032   0.575E-03
   8 F= -.20085537E+03 E0= -.19823949E+03  d E =-.166824E+01
quench:  g(F)=  0.000E+00 g(S)=  0.000E+00 dE (1.order)= 0.000E+00
 bond charge predicted
       N       E                     dE             d eps       ncg     rms          rms(c)
DAV:   1    -0.202646146259E+03   -0.17908E+01   -0.16113E+02 11136   0.131E+01    0.352E+00
DAV:   2    -0.202976148616E+03   -0.33000E+00   -0.46751E+00 11456   0.185E+00    0.274E+00
DAV:   3    -0.202956456407E+03    0.19692E-01   -0.15403E-01 13080   0.158E+00    0.265E+00
DAV:   4    -0.203017637948E+03   -0.61182E-01   -0.41407E-01 14056   0.304E+00    0.369E+00
DAV:   5    -0.202906414006E+03    0.11122E+00   -0.17825E-01 13512   0.226E+00    0.145E+00
DAV:   6    -0.202897349804E+03    0.90642E-02   -0.57982E-02 12768   0.151E+00    0.107E+00
DAV:   7    -0.202888764048E+03    0.85858E-02   -0.15133E-02 12408   0.785E-01    0.474E-01
DAV:   8    -0.202886792524E+03    0.19715E-02   -0.42682E-03 11960   0.374E-01    0.158E-01
DAV:   9    -0.202888483735E+03   -0.16912E-02   -0.24539E-03 11880   0.220E-01    0.242E-01
DAV:  10    -0.202889023270E+03   -0.53954E-03   -0.16712E-03 12048   0.194E-01    0.844E-02
DAV:  11    -0.202889348569E+03   -0.32530E-03   -0.36787E-04 11936   0.897E-02    0.688E-02
DAV:  12    -0.202889594964E+03   -0.24639E-03   -0.12685E-04 11664   0.555E-02    0.259E-02
DAV:  13    -0.202890057136E+03   -0.46217E-03   -0.10730E-04 10512   0.349E-02    0.326E-02
DAV:  14    -0.202890286147E+03   -0.22901E-03   -0.56340E-05  9632   0.305E-02    0.126E-02
DAV:  15    -0.202890409312E+03   -0.12317E-03   -0.18912E-05  8144   0.127E-02    0.109E-02
DAV:  16    -0.202890432317E+03   -0.23005E-04   -0.50361E-06  7208   0.106E-02    0.719E-03
DAV:  17    -0.202890475993E+03   -0.43676E-04   -0.86676E-06  7688   0.662E-03    0.492E-03
DAV:  18    -0.202890480268E+03   -0.42756E-05   -0.14722E-06  7232   0.520E-03
   9 F= -.20289048E+03 E0= -.20027667E+03  d E =-.203512E+01
quench:  g(F)=  0.000E+00 g(S)=  0.000E+00 dE (1.order)= 0.000E+00
 bond charge predicted
       N       E                     dE             d eps       ncg     rms          rms(c)
DAV:   1    -0.203790642518E+03   -0.90017E+00   -0.20703E+02 11160   0.124E+01    0.409E+00
DAV:   2    -0.204043105783E+03   -0.25246E+00   -0.39165E+00 11776   0.157E+00    0.224E+00
DAV:   3    -0.204128668047E+03   -0.85562E-01   -0.46876E-01 13840   0.276E+00    0.425E+00
DAV:   4    -0.203990770072E+03    0.13790E+00   -0.33634E-01 13896   0.320E+00    0.204E+00
DAV:   5    -0.204008053345E+03   -0.17283E-01   -0.12877E-01 12752   0.198E+00    0.219E+00
DAV:   6    -0.203960474121E+03    0.47579E-01   -0.45778E-02 12536   0.146E+00    0.423E-01
DAV:   7    -0.203962479968E+03   -0.20058E-02   -0.10954E-02 12048   0.512E-01    0.515E-01
DAV:   8    -0.203960292266E+03    0.21877E-02   -0.53700E-03 11928   0.397E-01    0.130E-01
DAV:   9    -0.203960424313E+03   -0.13205E-03   -0.14794E-03 11904   0.171E-01    0.156E-01
DAV:  10    -0.203960196248E+03    0.22807E-03   -0.60148E-04 11856   0.126E-01    0.402E-02
DAV:  11    -0.203960201814E+03   -0.55663E-05   -0.84038E-05 11648   0.409E-02
  10 F= -.20396020E+03 E0= -.20134652E+03  d E =-.106972E+01
quench:  g(F)=  0.000E+00 g(S)=  0.000E+00 dE (1.order)= 0.000E+00
 bond charge predicted
       N       E                     dE             d eps       ncg     rms          rms(c)
DAV:   1    -0.203960660573E+03   -0.46433E-03   -0.12348E+01 11136   0.287E+00    0.784E-01
DAV:   2    -0.203974714471E+03   -0.14054E-01   -0.20594E-01 11696   0.397E-01    0.454E-01
DAV:   3    -0.203978300531E+03   -0.35861E-02   -0.12965E-02 13344   0.491E-01    0.772E-01
DAV:   4    -0.203974501793E+03    0.37987E-02   -0.17526E-02 13744   0.617E-01    0.445E-01
DAV:   5    -0.203973939766E+03    0.56203E-03   -0.51794E-03 12368   0.362E-01    0.320E-01
DAV:   6    -0.203972942547E+03    0.99722E-03   -0.24244E-03 12376   0.271E-01    0.900E-02
DAV:   7    -0.203973016606E+03   -0.74059E-04   -0.49631E-04 11712   0.109E-01    0.105E-01
DAV:   8    -0.203972925236E+03    0.91370E-04   -0.18926E-04 11872   0.829E-02    0.385E-02
DAV:   9    -0.203972938969E+03   -0.13734E-04   -0.66237E-05 10768   0.474E-02    0.438E-02
DAV:  10    -0.203972937741E+03    0.12283E-05   -0.39379E-05  8160   0.361E-02
  11 F= -.20397294E+03 E0= -.20135930E+03  d E =-.127359E-01
quench:  g(F)=  0.000E+00 g(S)=  0.000E+00 dE (1.order)= 0.000E+00
 bond charge predicted
       N       E                     dE             d eps       ncg     rms          rms(c)
DAV:   1    -0.203806015630E+03    0.16692E+00   -0.36030E+01 11136   0.490E+00    0.135E+00
DAV:   2    -0.203859050456E+03   -0.53035E-01   -0.72152E-01 11184   0.695E-01    0.985E-01
DAV:   3    -0.203849748940E+03    0.93015E-02   -0.18594E-02 12328   0.337E-01    0.636E-01
DAV:   4    -0.203894217827E+03   -0.44469E-01   -0.77145E-02 13904   0.144E+00    0.228E+00
DAV:   5    -0.203847660514E+03    0.46557E-01   -0.68069E-02 14104   0.130E+00    0.561E-01
DAV:   6    -0.203844778857E+03    0.28817E-02   -0.61570E-03 12408   0.482E-01    0.259E-01
DAV:   7    -0.203844750053E+03    0.28803E-04   -0.19483E-03 11472   0.254E-01    0.214E-01
DAV:   8    -0.203844342834E+03    0.40722E-03   -0.79894E-04 11640   0.165E-01    0.597E-02
DAV:   9    -0.203844445222E+03   -0.10239E-03   -0.21408E-04 11552   0.662E-02    0.621E-02
DAV:  10    -0.203844605447E+03   -0.16023E-03   -0.12777E-04 10648   0.483E-02    0.308E-02
DAV:  11    -0.203844678256E+03   -0.72809E-04   -0.56815E-05  9296   0.385E-02    0.291E-02
DAV:  12    -0.203844720951E+03   -0.42695E-04   -0.22522E-05  7624   0.243E-02    0.957E-03
DAV:  13    -0.203844744457E+03   -0.23506E-04   -0.56041E-06  7072   0.111E-02    0.922E-03
DAV:  14    -0.203844781741E+03   -0.37284E-04   -0.74324E-06  7376   0.822E-03    0.463E-03
DAV:  15    -0.203844790174E+03   -0.84331E-05   -0.16707E-06  6888   0.440E-03
  12 F= -.20384479E+03 E0= -.20123109E+03  d E =0.128148E+00
quench:  g(F)=  0.000E+00 g(S)=  0.000E+00 dE (1.order)= 0.000E+00
 bond charge predicted
       N       E                     dE             d eps       ncg     rms          rms(c)
DAV:   1    -0.203600870095E+03    0.24391E+00   -0.43366E+01 11160   0.487E+00    0.255E+00
DAV:   2    -0.203622161238E+03   -0.21291E-01   -0.10091E+00 11160   0.848E-01    0.173E+00
DAV:   3    -0.203599059119E+03    0.23102E-01   -0.11549E-01 12872   0.109E+00    0.166E+00
DAV:   4    -0.203663684164E+03   -0.64625E-01   -0.26954E-01 14296   0.250E+00    0.313E+00
DAV:   5    -0.203564898399E+03    0.98786E-01   -0.10441E-01 14408   0.168E+00    0.251E-01
DAV:   6    -0.203566383673E+03   -0.14853E-02   -0.84433E-03 11544   0.404E-01    0.377E-01
DAV:   7    -0.203565519063E+03    0.86461E-03   -0.26100E-03 11576   0.279E-01    0.125E-01
DAV:   8    -0.203565747858E+03   -0.22879E-03   -0.43627E-04 11760   0.113E-01    0.111E-01
DAV:   9    -0.203566519138E+03   -0.77128E-03   -0.50636E-04 11480   0.101E-01    0.103E-01
DAV:  10    -0.203566936224E+03   -0.41709E-03   -0.38799E-04 11736   0.102E-01    0.643E-02
DAV:  11    -0.203567256704E+03   -0.32048E-03   -0.17304E-04 11472   0.605E-02    0.443E-02
DAV:  12    -0.203567335853E+03   -0.79148E-04   -0.55697E-05  9376   0.352E-02    0.164E-02
DAV:  13    -0.203567529489E+03   -0.19364E-03   -0.38702E-05  8672   0.187E-02    0.182E-02
DAV:  14    -0.203567602994E+03   -0.73505E-04   -0.18991E-05  8032   0.179E-02    0.913E-03
DAV:  15    -0.203567628692E+03   -0.25698E-04   -0.43853E-06  7104   0.695E-03    0.560E-03
DAV:  16    -0.203567636021E+03   -0.73294E-05   -0.18356E-06  6856   0.562E-03
  13 F= -.20356764E+03 E0= -.20095383E+03  d E =0.277154E+00
quench:  g(F)=  0.000E+00 g(S)=  0.000E+00 dE (1.order)= 0.000E+00
 bond charge predicted
       N       E                     dE             d eps       ncg     rms          rms(c)
DAV:   1    -0.202969361934E+03    0.59827E+00   -0.11751E+02 11168   0.815E+00    0.421E+00
DAV:   2    -0.203011510353E+03   -0.42148E-01   -0.26018E+00 11184   0.135E+00    0.276E+00
DAV:   3    -0.202889428467E+03    0.12208E+00   -0.25588E-01 12104   0.705E-01    0.107E+00
DAV:   4    -0.202980205947E+03   -0.90777E-01   -0.19212E-01 12856   0.231E+00    0.354E+00
DAV:   5    -0.202865979057E+03    0.11423E+00   -0.18870E-01 13040   0.206E+00    0.729E-01
DAV:   6    -0.202865167628E+03    0.81143E-03   -0.21317E-02 11744   0.782E-01    0.620E-01
DAV:   7    -0.202863488370E+03    0.16793E-02   -0.58058E-03 11784   0.467E-01    0.337E-01
DAV:   8    -0.202863031896E+03    0.45647E-03   -0.17280E-03 12032   0.257E-01    0.142E-01
DAV:   9    -0.202865140228E+03   -0.21083E-02   -0.17214E-03 11560   0.190E-01    0.219E-01
DAV:  10    -0.202866070987E+03   -0.93076E-03   -0.13948E-03 11848   0.175E-01    0.707E-02
DAV:  11    -0.202866791709E+03   -0.72072E-03   -0.42049E-04 11936   0.914E-02    0.751E-02
DAV:  12    -0.202867182686E+03   -0.39098E-03   -0.15314E-04 11416   0.616E-02    0.252E-02
DAV:  13    -0.202867667469E+03   -0.48478E-03   -0.10422E-04 10408   0.335E-02    0.310E-02
DAV:  14    -0.202867956056E+03   -0.28859E-03   -0.70579E-05  9624   0.288E-02    0.150E-02
DAV:  15    -0.202868041167E+03   -0.85111E-04   -0.15264E-05  8200   0.128E-02    0.115E-02
DAV:  16    -0.202868062021E+03   -0.20854E-04   -0.46165E-06  6936   0.997E-03    0.804E-03
DAV:  17    -0.202868097920E+03   -0.35899E-04   -0.71793E-06  7576   0.653E-03    0.398E-03
DAV:  18    -0.202868102407E+03   -0.44864E-05   -0.12763E-06  6968   0.441E-03
  14 F= -.20286810E+03 E0= -.20025428E+03  d E =0.699534E+00
quench:  g(F)=  0.000E+00 g(S)=  0.000E+00 dE (1.order)= 0.000E+00
 bond charge predicted
       N       E                     dE             d eps       ncg     rms          rms(c)
DAV:   1    -0.202954397185E+03   -0.86299E-01   -0.18391E+02 11232   0.952E+00    0.527E+00
DAV:   2    -0.202970843870E+03   -0.16447E-01   -0.38346E+00 11240   0.162E+00    0.343E+00
DAV:   3    -0.202871251319E+03    0.99593E-01   -0.50540E-01 12776   0.220E+00    0.330E+00
DAV:   4    -0.203047153138E+03   -0.17590E+00   -0.86766E-01 14040   0.457E+00    0.545E+00
DAV:   5    -0.202748426883E+03    0.29873E+00   -0.34599E-01 14544   0.291E+00    0.576E-01
DAV:   6    -0.202753220560E+03   -0.47937E-02   -0.31567E-02 11624   0.874E-01    0.777E-01
DAV:   7    -0.202749623241E+03    0.35973E-02   -0.84168E-03 11808   0.555E-01    0.312E-01
DAV:   8    -0.202749927519E+03   -0.30428E-03   -0.22366E-03 11760   0.278E-01    0.227E-01
DAV:   9    -0.202752483820E+03   -0.25563E-02   -0.21463E-03 11584   0.211E-01    0.217E-01
DAV:  10    -0.202753458753E+03   -0.97493E-03   -0.18181E-03 11864   0.211E-01    0.110E-01
DAV:  11    -0.202754632064E+03   -0.11733E-02   -0.66005E-04 11672   0.112E-01    0.885E-02
DAV:  12    -0.202754951059E+03   -0.31899E-03   -0.20632E-04 11904   0.741E-02    0.311E-02
DAV:  13    -0.202755879327E+03   -0.92827E-03   -0.22590E-04 11336   0.390E-02    0.370E-02
DAV:  14    -0.202756147742E+03   -0.26841E-03   -0.78850E-05 10216   0.362E-02    0.171E-02
DAV:  15    -0.202756269162E+03   -0.12142E-03   -0.22671E-05  8352   0.147E-02    0.113E-02
DAV:  16    -0.202756294165E+03   -0.25003E-04   -0.62543E-06  7296   0.113E-02    0.102E-02
DAV:  17    -0.202756333183E+03   -0.39018E-04   -0.79852E-06  7528   0.826E-03    0.495E-03
DAV:  18    -0.202756339226E+03   -0.60428E-05   -0.17447E-06  7024   0.549E-03
  15 F= -.20275634E+03 E0= -.20014227E+03  d E =0.111763E+00
quench:  g(F)=  0.000E+00 g(S)=  0.000E+00 dE (1.order)= 0.000E+00
 bond charge predicted
       N       E                     dE             d eps       ncg     rms          rms(c)
DAV:   1    -0.203031764404E+03   -0.27543E+00   -0.17961E+02 11232   0.995E+00    0.507E+00
DAV:   2    -0.203109021759E+03   -0.77257E-01   -0.42158E+00 11224   0.169E+00    0.342E+00
DAV:   3    -0.202931098631E+03    0.17792E+00   -0.34696E-01 12112   0.806E-01    0.128E+00
DAV:   4    -0.202930758406E+03    0.34023E-03   -0.94434E-02 11952   0.170E+00    0.200E+00
DAV:   5    -0.202903836520E+03    0.26922E-01   -0.10854E-01 12376   0.165E+00    0.121E+00
DAV:   6    -0.202901213442E+03    0.26231E-02   -0.55934E-02 12312   0.111E+00    0.104E+00
DAV:   7    -0.202894168199E+03    0.70452E-02   -0.13921E-02 12144   0.666E-01    0.382E-01
DAV:   8    -0.202893772906E+03    0.39529E-03   -0.26606E-03 12000   0.310E-01    0.181E-01
DAV:   9    -0.202897102002E+03   -0.33291E-02   -0.26059E-03 11656   0.224E-01    0.253E-01
DAV:  10    -0.202898093057E+03   -0.99106E-03   -0.19677E-03 11912   0.213E-01    0.806E-02
DAV:  11    -0.202899311294E+03   -0.12182E-02   -0.59932E-04 11656   0.104E-01    0.930E-02
DAV:  12    -0.202899707235E+03   -0.39594E-03   -0.21117E-04 11936   0.759E-02    0.278E-02
DAV:  13    -0.202900523276E+03   -0.81604E-03   -0.19006E-04 11272   0.405E-02    0.378E-02
DAV:  14    -0.202900884925E+03   -0.36165E-03   -0.95181E-05 10112   0.358E-02    0.168E-02
DAV:  15    -0.202901024806E+03   -0.13988E-03   -0.26270E-05  8400   0.159E-02    0.125E-02
DAV:  16    -0.202901051409E+03   -0.26603E-04   -0.61575E-06  7392   0.114E-02    0.816E-03
DAV:  17    -0.202901096103E+03   -0.44695E-04   -0.86381E-06  7568   0.793E-03    0.635E-03
DAV:  18    -0.202901101699E+03   -0.55960E-05   -0.18935E-06  6992   0.618E-03
  16 F= -.20290110E+03 E0= -.20028704E+03  d E =-.144762E+00
quench:  g(F)=  0.000E+00 g(S)=  0.000E+00 dE (1.order)= 0.000E+00
 bond charge predicted
       N       E                     dE             d eps       ncg     rms          rms(c)
DAV:   1    -0.202900874261E+03    0.22184E-03   -0.17503E+02 11256   0.949E+00    0.503E+00
DAV:   2    -0.203002661330E+03   -0.10179E+00   -0.43131E+00 11224   0.168E+00    0.342E+00
DAV:   3    -0.202871468135E+03    0.13119E+00   -0.38024E-01 12600   0.163E+00    0.249E+00
DAV:   4    -0.203286920593E+03   -0.41545E+00   -0.10091E+00 14120   0.500E+00    0.706E+00
DAV:   5    -0.202788194099E+03    0.49873E+00   -0.68494E-01 14376   0.369E+00    0.714E-01
DAV:   6    -0.202793545748E+03   -0.53516E-02   -0.36040E-02 11904   0.100E+00    0.927E-01
DAV:   7    -0.202787826851E+03    0.57189E-02   -0.96849E-03 11888   0.630E-01    0.333E-01
DAV:   8    -0.202787826251E+03    0.60040E-06   -0.27494E-03 11704   0.292E-01    0.200E-01
DAV:   9    -0.202790425292E+03   -0.25990E-02   -0.22469E-03 11528   0.198E-01    0.208E-01
DAV:  10    -0.202791408454E+03   -0.98316E-03   -0.17720E-03 11832   0.206E-01    0.108E-01
DAV:  11    -0.202792596752E+03   -0.11883E-02   -0.63928E-04 11648   0.110E-01    0.866E-02
DAV:  12    -0.202792898333E+03   -0.30158E-03   -0.19466E-04 11832   0.716E-02    0.348E-02
DAV:  13    -0.202793835764E+03   -0.93743E-03   -0.25358E-04 11456   0.397E-02    0.358E-02
DAV:  14    -0.202794059185E+03   -0.22342E-03   -0.69267E-05 10232   0.351E-02    0.174E-02
DAV:  15    -0.202794158702E+03   -0.99518E-04   -0.15556E-05  7872   0.123E-02    0.101E-02
DAV:  16    -0.202794209521E+03   -0.50819E-04   -0.99537E-06  7704   0.131E-02    0.141E-02
DAV:  17    -0.202794242590E+03   -0.33069E-04   -0.85440E-06  7568   0.112E-02    0.522E-03
DAV:  18    -0.202794248733E+03   -0.61423E-05   -0.19277E-06  6984   0.560E-03
  17 F= -.20279425E+03 E0= -.20018004E+03  d E =0.106853E+00
quench:  g(F)=  0.000E+00 g(S)=  0.000E+00 dE (1.order)= 0.000E+00
 bond charge predicted
       N       E                     dE             d eps       ncg     rms          rms(c)
DAV:   1    -0.202981222403E+03   -0.18698E+00   -0.17803E+02 11256   0.990E+00    0.503E+00
DAV:   2    -0.203077975069E+03   -0.96753E-01   -0.43386E+00 11232   0.169E+00    0.343E+00
DAV:   3    -0.202902024092E+03    0.17595E+00   -0.33615E-01 12128   0.789E-01    0.132E+00
DAV:   4    -0.202912524957E+03   -0.10501E-01   -0.11491E-01 12032   0.183E+00    0.236E+00
DAV:   5    -0.202876631405E+03    0.35894E-01   -0.16446E-01 12648   0.182E+00    0.141E+00
DAV:   6    -0.202866845851E+03    0.97856E-02   -0.57794E-02 12480   0.117E+00    0.910E-01
DAV:   7    -0.202862040491E+03    0.48054E-02   -0.10719E-02 12168   0.612E-01    0.381E-01
DAV:   8    -0.202861663070E+03    0.37742E-03   -0.28057E-03 12048   0.315E-01    0.182E-01
DAV:   9    -0.202864955172E+03   -0.32921E-02   -0.25905E-03 11616   0.222E-01    0.252E-01
DAV:  10    -0.202865908119E+03   -0.95295E-03   -0.19384E-03 11888   0.211E-01    0.820E-02
DAV:  11    -0.202867198697E+03   -0.12906E-02   -0.61611E-04 11648   0.105E-01    0.943E-02
DAV:  12    -0.202867584807E+03   -0.38611E-03   -0.21885E-04 11920   0.776E-02    0.280E-02
DAV:  13    -0.202868411873E+03   -0.82707E-03   -0.19623E-04 11264   0.400E-02    0.373E-02
DAV:  14    -0.202868739635E+03   -0.32776E-03   -0.86907E-05 10056   0.353E-02    0.169E-02
DAV:  15    -0.202868879676E+03   -0.14004E-03   -0.25324E-05  8280   0.152E-02    0.112E-02
DAV:  16    -0.202868907862E+03   -0.28186E-04   -0.60516E-06  7448   0.112E-02    0.891E-03
DAV:  17    -0.202868950974E+03   -0.43113E-04   -0.87097E-06  7568   0.825E-03    0.594E-03
DAV:  18    -0.202868955719E+03   -0.47444E-05   -0.17482E-06  7008   0.583E-03
  18 F= -.20286896E+03 E0= -.20025474E+03  d E =-.747070E-01
quench:  g(F)=  0.000E+00 g(S)=  0.000E+00 dE (1.order)= 0.000E+00
 bond charge predicted
       N       E                     dE             d eps       ncg     rms          rms(c)
DAV:   1    -0.202926833794E+03   -0.57883E-01   -0.17523E+02 11256   0.937E+00    0.504E+00
DAV:   2    -0.203023104231E+03   -0.96270E-01   -0.42842E+00 11224   0.166E+00    0.343E+00
DAV:   3    -0.202890996574E+03    0.13211E+00   -0.38318E-01 12616   0.163E+00    0.249E+00
DAV:   4    -0.203306375444E+03   -0.41538E+00   -0.10107E+00 14128   0.500E+00    0.706E+00
DAV:   5    -0.202807391686E+03    0.49898E+00   -0.69235E-01 14424   0.370E+00    0.707E-01
DAV:   6    -0.202812818390E+03   -0.54267E-02   -0.36133E-02 11888   0.100E+00    0.926E-01
DAV:   7    -0.202807164892E+03    0.56535E-02   -0.97565E-03 11896   0.632E-01    0.339E-01
DAV:   8    -0.202807122711E+03    0.42181E-04   -0.27572E-03 11680   0.295E-01    0.200E-01
DAV:   9    -0.202809730012E+03   -0.26073E-02   -0.22593E-03 11560   0.199E-01    0.212E-01
DAV:  10    -0.202810734217E+03   -0.10042E-02   -0.18259E-03 11824   0.208E-01    0.108E-01
DAV:  11    -0.202811944039E+03   -0.12098E-02   -0.64780E-04 11656   0.110E-01    0.874E-02
DAV:  12    -0.202812240868E+03   -0.29683E-03   -0.19691E-04 11808   0.723E-02    0.347E-02
DAV:  13    -0.202813174317E+03   -0.93345E-03   -0.25244E-04 11448   0.394E-02    0.355E-02
DAV:  14    -0.202813394009E+03   -0.21969E-03   -0.68528E-05 10216   0.349E-02    0.178E-02
DAV:  15    -0.202813492163E+03   -0.98154E-04   -0.15752E-05  7856   0.127E-02    0.103E-02
DAV:  16    -0.202813540158E+03   -0.47995E-04   -0.96897E-06  7648   0.130E-02    0.140E-02
DAV:  17    -0.202813573869E+03   -0.33711E-04   -0.87087E-06  7560   0.111E-02    0.523E-03
DAV:  18    -0.202813579761E+03   -0.58917E-05   -0.19142E-06  6976   0.561E-03
  19 F= -.20281358E+03 E0= -.20019923E+03  d E =0.553760E-01
quench:  g(F)=  0.000E+00 g(S)=  0.000E+00 dE (1.order)= 0.000E+00
 bond charge predicted
       N       E                     dE             d eps       ncg     rms          rms(c)
DAV:   1    -0.202959213282E+03   -0.14564E+00   -0.17775E+02 11264   0.981E+00    0.503E+00
DAV:   2    -0.203059601953E+03   -0.10039E+00   -0.43702E+00 11224   0.168E+00    0.344E+00
DAV:   3    -0.202882764595E+03    0.17684E+00   -0.33470E-01 12128   0.760E-01    0.131E+00
DAV:   4    -0.202870334561E+03    0.12430E-01   -0.86195E-02 11840   0.156E+00    0.176E+00
DAV:   5    -0.202847044055E+03    0.23291E-01   -0.76094E-02 12216   0.152E+00    0.965E-01
DAV:   6    -0.202854983266E+03   -0.79392E-02   -0.51289E-02 12296   0.108E+00    0.129E+00
DAV:   7    -0.202842157159E+03    0.12826E-01   -0.21147E-02 12216   0.781E-01    0.382E-01
DAV:   8    -0.202841769436E+03    0.38772E-03   -0.27203E-03 11824   0.307E-01    0.185E-01
DAV:   9    -0.202845056130E+03   -0.32867E-02   -0.26268E-03 11616   0.223E-01    0.250E-01
DAV:  10    -0.202846003717E+03   -0.94759E-03   -0.19457E-03 11888   0.212E-01    0.823E-02
DAV:  11    -0.202847265065E+03   -0.12613E-02   -0.60624E-04 11624   0.104E-01    0.944E-02
DAV:  12    -0.202847653945E+03   -0.38888E-03   -0.22021E-04 11960   0.777E-02    0.287E-02
DAV:  13    -0.202848474308E+03   -0.82036E-03   -0.19698E-04 11256   0.401E-02    0.370E-02
DAV:  14    -0.202848777732E+03   -0.30342E-03   -0.81110E-05  9960   0.351E-02    0.169E-02
DAV:  15    -0.202848924183E+03   -0.14645E-03   -0.26456E-05  8304   0.155E-02    0.115E-02
DAV:  16    -0.202848952456E+03   -0.28273E-04   -0.62607E-06  7464   0.115E-02    0.890E-03
DAV:  17    -0.202848994575E+03   -0.42119E-04   -0.84074E-06  7528   0.812E-03    0.572E-03
DAV:  18    -0.202848999147E+03   -0.45724E-05   -0.16759E-06  7008   0.573E-03
  20 F= -.20284900E+03 E0= -.20023465E+03  d E =-.354194E-01
quench:  g(F)=  0.000E+00 g(S)=  0.000E+00 dE (1.order)= 0.000E+00
 bond charge predicted
       N       E                     dE             d eps       ncg     rms          rms(c)
DAV:   1    -0.202934422578E+03   -0.85428E-01   -0.17663E+02 11264   0.933E+00    0.506E+00
DAV:   2    -0.203023040047E+03   -0.88617E-01   -0.42567E+00 11224   0.164E+00    0.343E+00
DAV:   3    -0.202913785588E+03    0.10925E+00   -0.41538E-01 12768   0.194E+00    0.297E+00
DAV:   4    -0.203211580692E+03   -0.29780E+00   -0.10132E+00 14232   0.486E+00    0.636E+00
DAV:   5    -0.202803673412E+03    0.40791E+00   -0.52310E-01 14504   0.335E+00    0.578E-01
DAV:   6    -0.202810607512E+03   -0.69341E-02   -0.34375E-02 11672   0.938E-01    0.894E-01
DAV:   7    -0.202804974429E+03    0.56331E-02   -0.98341E-03 11800   0.624E-01    0.324E-01
DAV:   8    -0.202805099969E+03   -0.12554E-03   -0.24873E-03 11704   0.282E-01    0.215E-01
DAV:   9    -0.202807712400E+03   -0.26124E-02   -0.22250E-03 11560   0.202E-01    0.209E-01
DAV:  10    -0.202808734134E+03   -0.10217E-02   -0.18222E-03 11848   0.208E-01    0.113E-01
DAV:  11    -0.202809923648E+03   -0.11895E-02   -0.65972E-04 11648   0.112E-01    0.872E-02
DAV:  12    -0.202810214052E+03   -0.29040E-03   -0.20114E-04 11816   0.727E-02    0.343E-02
DAV:  13    -0.202811152264E+03   -0.93821E-03   -0.25240E-04 11376   0.388E-02    0.350E-02
DAV:  14    -0.202811367431E+03   -0.21517E-03   -0.67208E-05 10152   0.348E-02    0.173E-02
DAV:  15    -0.202811468298E+03   -0.10087E-03   -0.16613E-05  7848   0.131E-02    0.103E-02
DAV:  16    -0.202811509307E+03   -0.41009E-04   -0.88618E-06  7552   0.128E-02    0.135E-02
DAV:  17    -0.202811545822E+03   -0.36516E-04   -0.87607E-06  7488   0.104E-02    0.489E-03
DAV:  18    -0.202811551911E+03   -0.60891E-05   -0.18167E-06  6984   0.536E-03
  21 F= -.20281155E+03 E0= -.20019702E+03  d E =0.374472E-01
quench:  g(F)=  0.000E+00 g(S)=  0.000E+00 dE (1.order)= 0.000E+00
 bond charge predicted
       N       E                     dE             d eps       ncg     rms          rms(c)
DAV:   1    -0.202964252163E+03   -0.15271E+00   -0.17768E+02 11272   0.970E+00    0.504E+00
DAV:   2    -0.203060699954E+03   -0.96448E-01   -0.43407E+00 11224   0.166E+00    0.344E+00
DAV:   3    -0.202883267038E+03    0.17743E+00   -0.33656E-01 12112   0.754E-01    0.131E+00
DAV:   4    -0.202877211100E+03    0.60559E-02   -0.95912E-02 12000   0.163E+00    0.195E+00
DAV:   5    -0.202855811121E+03    0.21400E-01   -0.12331E-01 12656   0.169E+00    0.135E+00
DAV:   6    -0.202849092247E+03    0.67189E-02   -0.55796E-02 12440   0.113E+00    0.966E-01
DAV:   7    -0.202843198236E+03    0.58940E-02   -0.12774E-02 12144   0.651E-01    0.416E-01
DAV:   8    -0.202842517296E+03    0.68094E-03   -0.29856E-03 12072   0.328E-01    0.178E-01
DAV:   9    -0.202845828297E+03   -0.33110E-02   -0.27648E-03 11624   0.231E-01    0.266E-01
DAV:  10    -0.202846827193E+03   -0.99890E-03   -0.20695E-03 11880   0.217E-01    0.799E-02
DAV:  11    -0.202848022689E+03   -0.11955E-02   -0.62637E-04 11728   0.109E-01    0.965E-02
DAV:  12    -0.202848447179E+03   -0.42449E-03   -0.23339E-04 11832   0.795E-02    0.282E-02
DAV:  13    -0.202849232143E+03   -0.78496E-03   -0.18953E-04 11272   0.409E-02    0.380E-02
DAV:  14    -0.202849566245E+03   -0.33410E-03   -0.92167E-05  9936   0.361E-02    0.173E-02
DAV:  15    -0.202849691862E+03   -0.12562E-03   -0.24718E-05  8176   0.167E-02    0.143E-02
DAV:  16    -0.202849720315E+03   -0.28453E-04   -0.70462E-06  7360   0.126E-02    0.830E-03
DAV:  17    -0.202849765107E+03   -0.44792E-04   -0.90225E-06  7528   0.819E-03    0.704E-03
DAV:  18    -0.202849770192E+03   -0.50844E-05   -0.20073E-06  6976   0.629E-03
  22 F= -.20284977E+03 E0= -.20023523E+03  d E =-.382183E-01
quench:  g(F)=  0.000E+00 g(S)=  0.000E+00 dE (1.order)= 0.000E+00
 bond charge predicted
       N       E                     dE             d eps       ncg     rms          rms(c)
DAV:   1    -0.202955219459E+03   -0.10545E+00   -0.17539E+02 11264   0.921E+00    0.504E+00
DAV:   2    -0.203039145978E+03   -0.83927E-01   -0.41915E+00 11232   0.161E+00    0.342E+00
DAV:   3    -0.202911782427E+03    0.12736E+00   -0.39102E-01 12600   0.170E+00    0.259E+00
DAV:   4    -0.203297492152E+03   -0.38571E+00   -0.10050E+00 14248   0.495E+00    0.688E+00
DAV:   5    -0.202824283620E+03    0.47321E+00   -0.65949E-01 14528   0.360E+00    0.691E-01
DAV:   6    -0.202829696858E+03   -0.54132E-02   -0.35362E-02 11856   0.991E-01    0.912E-01
DAV:   7    -0.202824315400E+03    0.53815E-02   -0.95853E-03 11880   0.627E-01    0.345E-01
DAV:   8    -0.202824228489E+03    0.86911E-04   -0.27122E-03 11704   0.296E-01    0.200E-01
DAV:   9    -0.202826922904E+03   -0.26944E-02   -0.22982E-03 11552   0.201E-01    0.216E-01
DAV:  10    -0.202827928482E+03   -0.10056E-02   -0.18709E-03 11824   0.209E-01    0.107E-01
DAV:  11    -0.202829122211E+03   -0.11937E-02   -0.64482E-04 11672   0.110E-01    0.881E-02
DAV:  12    -0.202829415597E+03   -0.29339E-03   -0.19900E-04 11880   0.731E-02    0.341E-02
DAV:  13    -0.202830319391E+03   -0.90379E-03   -0.24295E-04 11392   0.388E-02    0.352E-02
DAV:  14    -0.202830531012E+03   -0.21162E-03   -0.67049E-05 10120   0.346E-02    0.180E-02
DAV:  15    -0.202830625923E+03   -0.94912E-04   -0.15868E-05  7744   0.130E-02    0.103E-02
DAV:  16    -0.202830668234E+03   -0.42311E-04   -0.88772E-06  7592   0.128E-02    0.135E-02
DAV:  17    -0.202830700710E+03   -0.32476E-04   -0.84231E-06  7448   0.107E-02    0.520E-03
DAV:  18    -0.202830706047E+03   -0.53373E-05   -0.18225E-06  6984   0.561E-03
  23 F= -.20283071E+03 E0= -.20021603E+03  d E =0.190641E-01
quench:  g(F)=  0.000E+00 g(S)=  0.000E+00 dE (1.order)= 0.000E+00
 bond charge predicted
       N       E                     dE             d eps       ncg     rms          rms(c)
DAV:   1    -0.202941685520E+03   -0.11098E+00   -0.17743E+02 11264   0.964E+00    0.504E+00
DAV:   2    -0.203041734828E+03   -0.10005E+00   -0.43733E+00 11224   0.165E+00    0.344E+00
DAV:   3    -0.202863850708E+03    0.17788E+00   -0.33551E-01 12112   0.745E-01    0.132E+00
DAV:   4    -0.202875328158E+03   -0.11477E-01   -0.12217E-01 12152   0.181E+00    0.241E+00
DAV:   5    -0.202835480145E+03    0.39848E-01   -0.15074E-01 12744   0.184E+00    0.134E+00
DAV:   6    -0.202827484021E+03    0.79961E-02   -0.49470E-02 12232   0.112E+00    0.887E-01
DAV:   7    -0.202822966687E+03    0.45173E-02   -0.10707E-02 11984   0.626E-01    0.418E-01
DAV:   8    -0.202822290003E+03    0.67668E-03   -0.30945E-03 12032   0.333E-01    0.179E-01
DAV:   9    -0.202825567091E+03   -0.32771E-02   -0.27759E-03 11592   0.232E-01    0.268E-01
DAV:  10    -0.202826551565E+03   -0.98447E-03   -0.20656E-03 11888   0.217E-01    0.832E-02
DAV:  11    -0.202827777553E+03   -0.12260E-02   -0.64546E-04 11680   0.110E-01    0.983E-02
DAV:  12    -0.202828195686E+03   -0.41813E-03   -0.24211E-04 11904   0.811E-02    0.287E-02
DAV:  13    -0.202828978981E+03   -0.78330E-03   -0.19182E-04 11248   0.411E-02    0.384E-02
DAV:  14    -0.202829302262E+03   -0.32328E-03   -0.90551E-05  9952   0.362E-02    0.177E-02
DAV:  15    -0.202829425656E+03   -0.12339E-03   -0.24315E-05  8088   0.167E-02    0.144E-02
DAV:  16    -0.202829453530E+03   -0.27875E-04   -0.70693E-06  7376   0.126E-02    0.883E-03
DAV:  17    -0.202829500326E+03   -0.46796E-04   -0.96318E-06  7536   0.806E-03    0.637E-03
DAV:  18    -0.202829504821E+03   -0.44946E-05   -0.18138E-06  7000   0.592E-03
  24 F= -.20282950E+03 E0= -.20021483E+03  d E =0.120123E-02
quench:  g(F)=  0.000E+00 g(S)=  0.000E+00 dE (1.order)= 0.000E+00
 bond charge predicted
       N       E                     dE             d eps       ncg     rms          rms(c)
DAV:   1    -0.202959193682E+03   -0.12969E+00   -0.17684E+02 11272   0.920E+00    0.506E+00
DAV:   2    -0.203039715850E+03   -0.80522E-01   -0.41984E+00 11232   0.159E+00    0.343E+00
DAV:   3    -0.202921754319E+03    0.11796E+00   -0.40843E-01 12688   0.184E+00    0.282E+00
DAV:   4    -0.203251098010E+03   -0.32934E+00   -0.10088E+00 14320   0.488E+00    0.654E+00
DAV:   5    -0.202821211233E+03    0.42989E+00   -0.56885E-01 14536   0.343E+00    0.618E-01
DAV:   6    -0.202828096439E+03   -0.68852E-02   -0.34006E-02 11808   0.958E-01    0.917E-01
DAV:   7    -0.202822297862E+03    0.57986E-02   -0.95663E-03 11928   0.629E-01    0.329E-01
DAV:   8    -0.202822399993E+03   -0.10213E-03   -0.26016E-03 11664   0.287E-01    0.209E-01
DAV:   9    -0.202825082770E+03   -0.26828E-02   -0.22538E-03 11560   0.198E-01    0.207E-01
DAV:  10    -0.202826103955E+03   -0.10212E-02   -0.18213E-03 11832   0.207E-01    0.113E-01
DAV:  11    -0.202827294274E+03   -0.11903E-02   -0.64680E-04 11640   0.110E-01    0.848E-02
DAV:  12    -0.202827574543E+03   -0.28027E-03   -0.19046E-04 11800   0.710E-02    0.343E-02
DAV:  13    -0.202828503359E+03   -0.92882E-03   -0.25255E-04 11280   0.375E-02    0.336E-02
DAV:  14    -0.202828695364E+03   -0.19201E-03   -0.61568E-05 10048   0.336E-02    0.174E-02
DAV:  15    -0.202828788133E+03   -0.92769E-04   -0.15269E-05  7704   0.126E-02    0.965E-03
DAV:  16    -0.202828833721E+03   -0.45588E-04   -0.94840E-06  7720   0.127E-02    0.139E-02
DAV:  17    -0.202828860778E+03   -0.27058E-04   -0.75894E-06  7384   0.110E-02    0.503E-03
DAV:  18    -0.202828866043E+03   -0.52642E-05   -0.17316E-06  6984   0.543E-03
  25 F= -.20282887E+03 E0= -.20021403E+03  d E =0.638778E-03
quench:  g(F)=  0.000E+00 g(S)=  0.000E+00 dE (1.order)= 0.000E+00
 bond charge predicted
       N       E                     dE             d eps       ncg     rms          rms(c)
DAV:   1    -0.202961186608E+03   -0.13233E+00   -0.17883E+02 11256   0.961E+00    0.502E+00
DAV:   2    -0.203057688097E+03   -0.96501E-01   -0.43128E+00 11232   0.162E+00    0.342E+00
DAV:   3    -0.202882617068E+03    0.17507E+00   -0.33231E-01 12104   0.781E-01    0.136E+00
DAV:   4    -0.203033889470E+03   -0.15127E+00   -0.30993E-01 13072   0.291E+00    0.455E+00
DAV:   5    -0.202843873034E+03    0.19002E+00   -0.27194E-01 13296   0.260E+00    0.856E-01
DAV:   6    -0.202845916118E+03   -0.20431E-02   -0.33370E-02 11784   0.984E-01    0.877E-01
DAV:   7    -0.202841067201E+03    0.48489E-02   -0.10161E-02 11856   0.626E-01    0.382E-01
DAV:   8    -0.202840791964E+03    0.27524E-03   -0.28856E-03 11904   0.317E-01    0.188E-01
DAV:   9    -0.202843933380E+03   -0.31414E-02   -0.25100E-03 11560   0.225E-01    0.251E-01
DAV:  10    -0.202844829835E+03   -0.89646E-03   -0.18809E-03 11872   0.210E-01    0.898E-02
DAV:  11    -0.202846151911E+03   -0.13221E-02   -0.65710E-04 11592   0.109E-01    0.967E-02
DAV:  12    -0.202846512018E+03   -0.36011E-03   -0.23027E-04 11968   0.797E-02    0.302E-02
DAV:  13    -0.202847313416E+03   -0.80140E-03   -0.19999E-04 11296   0.405E-02    0.380E-02
DAV:  14    -0.202847610261E+03   -0.29684E-03   -0.85640E-05  9944   0.361E-02    0.173E-02
DAV:  15    -0.202847722518E+03   -0.11226E-03   -0.20325E-05  7960   0.147E-02    0.128E-02
DAV:  16    -0.202847751483E+03   -0.28966E-04   -0.66993E-06  7416   0.121E-02    0.109E-02
DAV:  17    -0.202847800950E+03   -0.49466E-04   -0.10876E-05  7536   0.857E-03    0.454E-03
DAV:  18    -0.202847806266E+03   -0.53159E-05   -0.16203E-06  6984   0.481E-03
  26 F= -.20284781E+03 E0= -.20023299E+03  d E =-.189402E-01
quench:  g(F)=  0.000E+00 g(S)=  0.000E+00 dE (1.order)= 0.000E+00
 bond charge predicted
       N       E                     dE             d eps       ncg     rms          rms(c)
DAV:   1    -0.202955602068E+03   -0.10780E+00   -0.17558E+02 11272   0.909E+00    0.505E+00
DAV:   2    -0.203035659705E+03   -0.80058E-01   -0.41691E+00 11232   0.158E+00    0.343E+00
DAV:   3    -0.202910392970E+03    0.12527E+00   -0.39731E-01 12608   0.174E+00    0.266E+00
DAV:   4    -0.203279703703E+03   -0.36931E+00   -0.10086E+00 14336   0.494E+00    0.678E+00
DAV:   5    -0.202819252502E+03    0.46045E+00   -0.63362E-01 14472   0.355E+00    0.696E-01
DAV:   6    -0.202824622271E+03   -0.53698E-02   -0.34890E-02 11920   0.992E-01    0.911E-01
DAV:   7    -0.202819297848E+03    0.53244E-02   -0.94422E-03 11904   0.624E-01    0.342E-01
DAV:   8    -0.202819261535E+03    0.36313E-04   -0.26794E-03 11712   0.295E-01    0.201E-01
DAV:   9    -0.202822014086E+03   -0.27526E-02   -0.23581E-03 11544   0.203E-01    0.219E-01
DAV:  10    -0.202823021254E+03   -0.10072E-02   -0.19004E-03 11824   0.210E-01    0.106E-01
DAV:  11    -0.202824219882E+03   -0.11986E-02   -0.62813E-04 11656   0.108E-01    0.863E-02
DAV:  12    -0.202824504613E+03   -0.28473E-03   -0.19438E-04 11904   0.722E-02    0.341E-02
DAV:  13    -0.202825414627E+03   -0.91001E-03   -0.24749E-04 11312   0.378E-02    0.339E-02
DAV:  14    -0.202825603739E+03   -0.18911E-03   -0.61063E-05  9976   0.336E-02    0.180E-02
DAV:  15    -0.202825693838E+03   -0.90099E-04   -0.15455E-05  7712   0.131E-02    0.101E-02
DAV:  16    -0.202825733596E+03   -0.39758E-04   -0.85981E-06  7544   0.127E-02    0.135E-02
DAV:  17    -0.202825764719E+03   -0.31123E-04   -0.82282E-06  7368   0.106E-02    0.509E-03
DAV:  18    -0.202825769711E+03   -0.49925E-05   -0.17473E-06  6984   0.548E-03
  27 F= -.20282577E+03 E0= -.20021082E+03  d E =0.220366E-01
quench:  g(F)=  0.000E+00 g(S)=  0.000E+00 dE (1.order)= 0.000E+00
 bond charge predicted
       N       E                     dE             d eps       ncg     rms          rms(c)
DAV:   1    -0.202961432516E+03   -0.13567E+00   -0.17857E+02 11264   0.949E+00    0.503E+00
DAV:   2    -0.203054157177E+03   -0.92725E-01   -0.42931E+00 11232   0.160E+00    0.343E+00
DAV:   3    -0.202878471746E+03    0.17569E+00   -0.33630E-01 12104   0.804E-01    0.138E+00
DAV:   4    -0.203072078122E+03   -0.19361E+00   -0.36891E-01 13240   0.318E+00    0.501E+00
DAV:   5    -0.202838073252E+03    0.23400E+00   -0.30228E-01 13408   0.280E+00    0.795E-01
DAV:   6    -0.202841024130E+03   -0.29509E-02   -0.32941E-02 11760   0.966E-01    0.861E-01
DAV:   7    -0.202836396189E+03    0.46279E-02   -0.10263E-02 11792   0.624E-01    0.379E-01
DAV:   8    -0.202836179667E+03    0.21652E-03   -0.28162E-03 11832   0.315E-01    0.192E-01
DAV:   9    -0.202839307287E+03   -0.31276E-02   -0.24929E-03 11560   0.227E-01    0.252E-01
DAV:  10    -0.202840220836E+03   -0.91355E-03   -0.18868E-03 11864   0.211E-01    0.907E-02
DAV:  11    -0.202841567715E+03   -0.13469E-02   -0.67365E-04 11600   0.110E-01    0.977E-02
DAV:  12    -0.202841924270E+03   -0.35656E-03   -0.23483E-04 11976   0.806E-02    0.310E-02
DAV:  13    -0.202842722729E+03   -0.79846E-03   -0.20094E-04 11384   0.409E-02    0.383E-02
DAV:  14    -0.202843017207E+03   -0.29448E-03   -0.86235E-05  9936   0.364E-02    0.178E-02
DAV:  15    -0.202843126458E+03   -0.10925E-03   -0.20234E-05  7928   0.151E-02    0.137E-02
DAV:  16    -0.202843154944E+03   -0.28486E-04   -0.68423E-06  7392   0.123E-02    0.107E-02
DAV:  17    -0.202843207136E+03   -0.52192E-04   -0.11548E-05  7568   0.841E-03    0.457E-03
DAV:  18    -0.202843212689E+03   -0.55529E-05   -0.16308E-06  6992   0.471E-03
  28 F= -.20284321E+03 E0= -.20022828E+03  d E =-.174430E-01
quench:  g(F)=  0.000E+00 g(S)=  0.000E+00 dE (1.order)= 0.000E+00
 bond charge predicted
       N       E                     dE             d eps       ncg     rms          rms(c)
DAV:   1    -0.202956698841E+03   -0.11349E+00   -0.17581E+02 11272   0.903E+00    0.505E+00
DAV:   2    -0.203033945706E+03   -0.77247E-01   -0.41539E+00 11224   0.156E+00    0.343E+00
DAV:   3    -0.202905721391E+03    0.12822E+00   -0.39642E-01 12584   0.171E+00    0.262E+00
DAV:   4    -0.203285185290E+03   -0.37946E+00   -0.10071E+00 14328   0.495E+00    0.684E+00
DAV:   5    -0.202816945706E+03    0.46824E+00   -0.64934E-01 14464   0.358E+00    0.703E-01
DAV:   6    -0.202822229461E+03   -0.52838E-02   -0.34530E-02 11936   0.992E-01    0.912E-01
DAV:   7    -0.202816902988E+03    0.53265E-02   -0.93498E-03 11912   0.622E-01    0.337E-01
DAV:   8    -0.202816922093E+03   -0.19105E-04   -0.26679E-03 11704   0.293E-01    0.202E-01
DAV:   9    -0.202819694801E+03   -0.27727E-02   -0.23480E-03 11536   0.201E-01    0.216E-01
DAV:  10    -0.202820705057E+03   -0.10103E-02   -0.18783E-03 11824   0.208E-01    0.107E-01
DAV:  11    -0.202821909723E+03   -0.12047E-02   -0.62443E-04 11632   0.108E-01    0.845E-02
DAV:  12    -0.202822190069E+03   -0.28035E-03   -0.18859E-04 11840   0.709E-02    0.343E-02
DAV:  13    -0.202823107894E+03   -0.91783E-03   -0.25178E-04 11272   0.370E-02    0.329E-02
DAV:  14    -0.202823284591E+03   -0.17670E-03   -0.57637E-05  9944   0.328E-02    0.179E-02
DAV:  15    -0.202823371434E+03   -0.86843E-04   -0.14757E-05  7672   0.129E-02    0.992E-03
DAV:  16    -0.202823412592E+03   -0.41158E-04   -0.88150E-06  7560   0.126E-02    0.136E-02
DAV:  17    -0.202823440968E+03   -0.28376E-04   -0.79347E-06  7360   0.108E-02    0.510E-03
DAV:  18    -0.202823445723E+03   -0.47551E-05   -0.17129E-06  6984   0.542E-03
  29 F= -.20282345E+03 E0= -.20020838E+03  d E =0.197670E-01
quench:  g(F)=  0.000E+00 g(S)=  0.000E+00 dE (1.order)= 0.000E+00
 bond charge predicted
       N       E                     dE             d eps       ncg     rms          rms(c)
DAV:   1    -0.202959762307E+03   -0.13632E+00   -0.17830E+02 11264   0.941E+00    0.503E+00
DAV:   2    -0.203052112778E+03   -0.92350E-01   -0.42973E+00 11232   0.159E+00    0.343E+00
DAV:   3    -0.202876129062E+03    0.17598E+00   -0.33757E-01 12104   0.817E-01    0.140E+00
DAV:   4    -0.203097646200E+03   -0.22152E+00   -0.40941E-01 13344   0.334E+00    0.529E+00
DAV:   5    -0.202834465408E+03    0.26318E+00   -0.34016E-01 13504   0.293E+00    0.760E-01
DAV:   6    -0.202837863795E+03   -0.33984E-02   -0.32890E-02 11680   0.954E-01    0.847E-01
DAV:   7    -0.202833388352E+03    0.44754E-02   -0.10354E-02 11704   0.621E-01    0.372E-01
DAV:   8    -0.202833251439E+03    0.13691E-03   -0.27391E-03 11776   0.312E-01    0.197E-01
DAV:   9    -0.202836329673E+03   -0.30782E-02   -0.24429E-03 11552   0.228E-01    0.251E-01
DAV:  10    -0.202837249943E+03   -0.92027E-03   -0.18736E-03 11848   0.211E-01    0.921E-02
DAV:  11    -0.202838626359E+03   -0.13764E-02   -0.68971E-04 11592   0.111E-01    0.984E-02
DAV:  12    -0.202838978828E+03   -0.35247E-03   -0.23801E-04 11992   0.812E-02    0.315E-02
DAV:  13    -0.202839777324E+03   -0.79850E-03   -0.20184E-04 11368   0.410E-02    0.384E-02
DAV:  14    -0.202840068618E+03   -0.29129E-03   -0.86366E-05  9928   0.367E-02    0.180E-02
DAV:  15    -0.202840175923E+03   -0.10731E-03   -0.20155E-05  7912   0.153E-02    0.142E-02
DAV:  16    -0.202840204100E+03   -0.28177E-04   -0.69328E-06  7368   0.125E-02    0.107E-02
DAV:  17    -0.202840257553E+03   -0.53453E-04   -0.11913E-05  7584   0.836E-03    0.461E-03
DAV:  18    -0.202840263158E+03   -0.56044E-05   -0.16280E-06  7000   0.466E-03
  30 F= -.20284026E+03 E0= -.20022522E+03  d E =-.168174E-01
quench:  g(F)=  0.000E+00 g(S)=  0.000E+00 dE (1.order)= 0.000E+00
 bond charge predicted
       N       E                     dE             d eps       ncg     rms          rms(c)
DAV:   1    -0.202955418011E+03   -0.11516E+00   -0.17600E+02 11272   0.899E+00    0.505E+00
DAV:   2    -0.203032910330E+03   -0.77492E-01   -0.41624E+00 11224   0.154E+00    0.343E+00
DAV:   3    -0.202902020978E+03    0.13089E+00   -0.39420E-01 12584   0.168E+00    0.258E+00
DAV:   4    -0.203294017912E+03   -0.39200E+00   -0.10079E+00 14312   0.497E+00    0.692E+00
DAV:   5    -0.202815364661E+03    0.47865E+00   -0.66997E-01 14456   0.361E+00    0.711E-01
DAV:   6    -0.202820544238E+03   -0.51796E-02   -0.34408E-02 11936   0.994E-01    0.914E-01
DAV:   7    -0.202815177108E+03    0.53671E-02   -0.93268E-03 11904   0.621E-01    0.332E-01
DAV:   8    -0.202815259118E+03   -0.82010E-04   -0.26702E-03 11712   0.292E-01    0.203E-01
DAV:   9    -0.202818049143E+03   -0.27900E-02   -0.23349E-03 11528   0.200E-01    0.212E-01
DAV:  10    -0.202819060238E+03   -0.10111E-02   -0.18586E-03 11824   0.207E-01    0.108E-01
DAV:  11    -0.202820271461E+03   -0.12112E-02   -0.62376E-04 11616   0.107E-01    0.831E-02
DAV:  12    -0.202820548526E+03   -0.27706E-03   -0.18399E-04 11808   0.699E-02    0.345E-02
DAV:  13    -0.202821471596E+03   -0.92307E-03   -0.25548E-04 11248   0.364E-02    0.320E-02
DAV:  14    -0.202821638697E+03   -0.16710E-03   -0.54955E-05  9880   0.322E-02    0.179E-02
DAV:  15    -0.202821722413E+03   -0.83716E-04   -0.14173E-05  7632   0.128E-02    0.981E-03
DAV:  16    -0.202821764738E+03   -0.42325E-04   -0.90367E-06  7632   0.126E-02    0.137E-02
DAV:  17    -0.202821791247E+03   -0.26509E-04   -0.76579E-06  7344   0.109E-02    0.513E-03
DAV:  18    -0.202821795843E+03   -0.45961E-05   -0.16984E-06  6984   0.539E-03
  31 F= -.20282180E+03 E0= -.20020662E+03  d E =0.184673E-01
quench:  g(F)=  0.000E+00 g(S)=  0.000E+00 dE (1.order)= 0.000E+00
 bond charge predicted
       N       E                     dE             d eps       ncg     rms          rms(c)
DAV:   1    -0.202956009542E+03   -0.13422E+00   -0.17805E+02 11272   0.935E+00    0.504E+00
DAV:   2    -0.203051068861E+03   -0.95059E-01   -0.43280E+00 11232   0.158E+00    0.344E+00
DAV:   3    -0.202875199974E+03    0.17587E+00   -0.33744E-01 12096   0.829E-01    0.143E+00
DAV:   4    -0.203124319029E+03   -0.24912E+00   -0.45084E-01 13480   0.350E+00    0.556E+00
DAV:   5    -0.202831958440E+03    0.29236E+00   -0.38057E-01 13696   0.305E+00    0.731E-01
DAV:   6    -0.202835674611E+03   -0.37162E-02   -0.33068E-02 11640   0.945E-01    0.834E-01
DAV:   7    -0.202831310808E+03    0.43638E-02   -0.10488E-02 11672   0.619E-01    0.363E-01
DAV:   8    -0.202831299949E+03    0.10859E-04   -0.26496E-03 11768   0.307E-01    0.203E-01
DAV:   9    -0.202834310707E+03   -0.30108E-02   -0.23693E-03 11568   0.229E-01    0.250E-01
DAV:  10    -0.202835232534E+03   -0.92183E-03   -0.18492E-03 11856   0.210E-01    0.940E-02
DAV:  11    -0.202836641427E+03   -0.14089E-02   -0.70746E-04 11592   0.112E-01    0.990E-02
DAV:  12    -0.202836987977E+03   -0.34655E-03   -0.24076E-04 11984   0.817E-02    0.319E-02
DAV:  13    -0.202837785754E+03   -0.79778E-03   -0.20260E-04 11376   0.410E-02    0.384E-02
DAV:  14    -0.202838074820E+03   -0.28907E-03   -0.86593E-05  9944   0.369E-02    0.181E-02
DAV:  15    -0.202838180008E+03   -0.10519E-03   -0.19877E-05  7848   0.153E-02    0.146E-02
DAV:  16    -0.202838208053E+03   -0.28045E-04   -0.70053E-06  7360   0.126E-02    0.108E-02
DAV:  17    -0.202838262650E+03   -0.54597E-04   -0.12331E-05  7560   0.838E-03    0.469E-03
DAV:  18    -0.202838268182E+03   -0.55318E-05   -0.16368E-06  7000   0.468E-03
  32 F= -.20283827E+03 E0= -.20022311E+03  d E =-.164723E-01
quench:  g(F)=  0.000E+00 g(S)=  0.000E+00 dE (1.order)= 0.000E+00
 bond charge predicted
       N       E                     dE             d eps       ncg     rms          rms(c)
DAV:   1    -0.202956752343E+03   -0.11849E+00   -0.17618E+02 11272   0.895E+00    0.505E+00
DAV:   2    -0.203031993616E+03   -0.75241E-01   -0.41471E+00 11224   0.153E+00    0.343E+00
DAV:   3    -0.202898903824E+03    0.13309E+00   -0.39297E-01 12576   0.166E+00    0.254E+00
DAV:   4    -0.203299200933E+03   -0.40030E+00   -0.10048E+00 14312   0.497E+00    0.696E+00
DAV:   5    -0.202814256892E+03    0.48494E+00   -0.68274E-01 14456   0.364E+00    0.717E-01
DAV:   6    -0.202819306877E+03   -0.50500E-02   -0.34213E-02 11944   0.994E-01    0.912E-01
DAV:   7    -0.202813993864E+03    0.53130E-02   -0.92533E-03 11912   0.618E-01    0.329E-01
DAV:   8    -0.202814114218E+03   -0.12035E-03   -0.26708E-03 11696   0.292E-01    0.204E-01
DAV:   9    -0.202816914933E+03   -0.28007E-02   -0.23257E-03 11536   0.199E-01    0.210E-01
DAV:  10    -0.202817931884E+03   -0.10170E-02   -0.18437E-03 11832   0.206E-01    0.110E-01
DAV:  11    -0.202819147121E+03   -0.12152E-02   -0.62396E-04 11616   0.107E-01    0.821E-02
DAV:  12    -0.202819422082E+03   -0.27496E-03   -0.18080E-04 11784   0.692E-02    0.347E-02
DAV:  13    -0.202820346588E+03   -0.92451E-03   -0.25712E-04 11224   0.360E-02    0.314E-02
DAV:  14    -0.202820507419E+03   -0.16083E-03   -0.53183E-05  9816   0.317E-02    0.179E-02
DAV:  15    -0.202820588530E+03   -0.81111E-04   -0.13739E-05  7616   0.127E-02    0.976E-03
DAV:  16    -0.202820631428E+03   -0.42898E-04   -0.91097E-06  7656   0.126E-02    0.137E-02
DAV:  17    -0.202820656627E+03   -0.25199E-04   -0.74718E-06  7320   0.109E-02    0.516E-03
DAV:  18    -0.202820661069E+03   -0.44420E-05   -0.16834E-06  6976   0.537E-03
  33 F= -.20282066E+03 E0= -.20020537E+03  d E =0.176071E-01
quench:  g(F)=  0.000E+00 g(S)=  0.000E+00 dE (1.order)= 0.000E+00
 bond charge predicted
       N       E                     dE             d eps       ncg     rms          rms(c)
DAV:   1    -0.202954783224E+03   -0.13413E+00   -0.17787E+02 11272   0.930E+00    0.504E+00
DAV:   2    -0.203050176939E+03   -0.95394E-01   -0.43362E+00 11232   0.157E+00    0.344E+00
DAV:   3    -0.202874588368E+03    0.17559E+00   -0.33841E-01 12104   0.844E-01    0.144E+00
DAV:   4    -0.203149600840E+03   -0.27501E+00   -0.48939E-01 13568   0.364E+00    0.580E+00
DAV:   5    -0.202830189491E+03    0.31941E+00   -0.42428E-01 13792   0.316E+00    0.705E-01
DAV:   6    -0.202834131594E+03   -0.39421E-02   -0.33161E-02 11640   0.935E-01    0.817E-01
DAV:   7    -0.202829916196E+03    0.42154E-02   -0.10605E-02 11640   0.613E-01    0.348E-01
DAV:   8    -0.202830067028E+03   -0.15083E-03   -0.25361E-03 11760   0.301E-01    0.211E-01
DAV:   9    -0.202833018688E+03   -0.29517E-02   -0.22975E-03 11560   0.231E-01    0.249E-01
DAV:  10    -0.202833928808E+03   -0.91012E-03   -0.18163E-03 11840   0.210E-01    0.950E-02
DAV:  11    -0.202835349065E+03   -0.14203E-02   -0.71496E-04 11592   0.113E-01    0.990E-02
DAV:  12    -0.202835690156E+03   -0.34109E-03   -0.24056E-04 11984   0.817E-02    0.322E-02
DAV:  13    -0.202836486672E+03   -0.79652E-03   -0.20291E-04 11368   0.410E-02    0.383E-02
DAV:  14    -0.202836771379E+03   -0.28471E-03   -0.86032E-05  9912   0.370E-02    0.183E-02
DAV:  15    -0.202836875180E+03   -0.10380E-03   -0.19801E-05  7832   0.155E-02    0.150E-02
DAV:  16    -0.202836903021E+03   -0.27841E-04   -0.70627E-06  7344   0.127E-02    0.108E-02
DAV:  17    -0.202836958445E+03   -0.55424E-04   -0.12629E-05  7568   0.837E-03    0.480E-03
DAV:  18    -0.202836963821E+03   -0.53764E-05   -0.16436E-06  6976   0.480E-03
  34 F= -.20283696E+03 E0= -.20022169E+03  d E =-.163028E-01
quench:  g(F)=  0.000E+00 g(S)=  0.000E+00 dE (1.order)= 0.000E+00
 bond charge predicted
       N       E                     dE             d eps       ncg     rms          rms(c)
DAV:   1    -0.202959130921E+03   -0.12217E+00   -0.17634E+02 11272   0.890E+00    0.505E+00
DAV:   2    -0.203031278451E+03   -0.72148E-01   -0.41231E+00 11216   0.152E+00    0.343E+00
DAV:   3    -0.202896462595E+03    0.13482E+00   -0.39234E-01 12584   0.164E+00    0.250E+00
DAV:   4    -0.203302102347E+03   -0.40564E+00   -0.10008E+00 14304   0.497E+00    0.699E+00
DAV:   5    -0.202813553184E+03    0.48855E+00   -0.69040E-01 14480   0.365E+00    0.723E-01
DAV:   6    -0.202818451505E+03   -0.48983E-02   -0.34052E-02 11952   0.993E-01    0.909E-01
DAV:   7    -0.202813212299E+03    0.52392E-02   -0.91645E-03 11920   0.615E-01    0.327E-01
DAV:   8    -0.202813358657E+03   -0.14636E-03   -0.26712E-03 11696   0.291E-01    0.204E-01
DAV:   9    -0.202816168027E+03   -0.28094E-02   -0.23194E-03 11552   0.198E-01    0.208E-01
DAV:  10    -0.202817191564E+03   -0.10235E-02   -0.18319E-03 11840   0.205E-01    0.110E-01
DAV:  11    -0.202818409280E+03   -0.12177E-02   -0.62383E-04 11616   0.107E-01    0.814E-02
DAV:  12    -0.202818682389E+03   -0.27311E-03   -0.17847E-04 11720   0.687E-02    0.347E-02
DAV:  13    -0.202819605957E+03   -0.92357E-03   -0.25760E-04 11216   0.356E-02    0.309E-02
DAV:  14    -0.202819762049E+03   -0.15609E-03   -0.51891E-05  9744   0.314E-02    0.179E-02
DAV:  15    -0.202819841531E+03   -0.79482E-04   -0.13489E-05  7600   0.127E-02    0.972E-03
DAV:  16    -0.202819884420E+03   -0.42889E-04   -0.90824E-06  7680   0.125E-02    0.136E-02
DAV:  17    -0.202819908705E+03   -0.24286E-04   -0.72952E-06  7304   0.109E-02    0.518E-03
DAV:  18    -0.202819913020E+03   -0.43150E-05   -0.16734E-06  6968   0.535E-03
  35 F= -.20281991E+03 E0= -.20020452E+03  d E =0.170508E-01
quench:  g(F)=  0.000E+00 g(S)=  0.000E+00 dE (1.order)= 0.000E+00
 bond charge predicted
       N       E                     dE             d eps       ncg     rms          rms(c)
DAV:   1    -0.202956977659E+03   -0.13707E+00   -0.17776E+02 11272   0.925E+00    0.504E+00
DAV:   2    -0.203049299981E+03   -0.92322E-01   -0.43123E+00 11232   0.156E+00    0.344E+00
DAV:   3    -0.202873945597E+03    0.17535E+00   -0.33973E-01 12096   0.859E-01    0.146E+00
DAV:   4    -0.203170471764E+03   -0.29653E+00   -0.52123E-01 13584   0.375E+00    0.598E+00
DAV:   5    -0.202828992035E+03    0.34148E+00   -0.46115E-01 13832   0.324E+00    0.685E-01
DAV:   6    -0.202833040370E+03   -0.40483E-02   -0.33135E-02 11608   0.925E-01    0.800E-01
DAV:   7    -0.202828983888E+03    0.40565E-02   -0.10666E-02 11624   0.606E-01    0.332E-01
DAV:   8    -0.202829317886E+03   -0.33400E-03   -0.24354E-03 11752   0.294E-01    0.219E-01
DAV:   9    -0.202832213422E+03   -0.28955E-02   -0.22179E-03 11560   0.234E-01    0.249E-01
DAV:  10    -0.202833102597E+03   -0.88917E-03   -0.17713E-03 11832   0.209E-01    0.959E-02
DAV:  11    -0.202834522082E+03   -0.14195E-02   -0.71710E-04 11592   0.113E-01    0.987E-02
DAV:  12    -0.202834858574E+03   -0.33649E-03   -0.23918E-04 11992   0.815E-02    0.325E-02
DAV:  13    -0.202835653882E+03   -0.79531E-03   -0.20303E-04 11376   0.409E-02    0.382E-02
DAV:  14    -0.202835934960E+03   -0.28108E-03   -0.85584E-05  9904   0.370E-02    0.183E-02
DAV:  15    -0.202836037106E+03   -0.10215E-03   -0.19612E-05  7816   0.156E-02    0.152E-02
DAV:  16    -0.202836064672E+03   -0.27567E-04   -0.70577E-06  7344   0.127E-02    0.108E-02
DAV:  17    -0.202836120239E+03   -0.55567E-04   -0.12731E-05  7568   0.837E-03    0.492E-03
DAV:  18    -0.202836125413E+03   -0.51738E-05   -0.16428E-06  7000   0.493E-03
  36 F= -.20283613E+03 E0= -.20022075E+03  d E =-.162124E-01
quench:  g(F)=  0.000E+00 g(S)=  0.000E+00 dE (1.order)= 0.000E+00
 bond charge predicted
       N       E                     dE             d eps       ncg     rms          rms(c)
DAV:   1    -0.202960256582E+03   -0.12414E+00   -0.17647E+02 11272   0.887E+00    0.505E+00
DAV:   2    -0.203031059262E+03   -0.70803E-01   -0.41131E+00 11216   0.151E+00    0.343E+00
DAV:   3    -0.202894548900E+03    0.13651E+00   -0.39113E-01 12576   0.162E+00    0.247E+00
DAV:   4    -0.203306645012E+03   -0.41210E+00   -0.99915E-01 14280   0.498E+00    0.703E+00
DAV:   5    -0.202813198350E+03    0.49345E+00   -0.70053E-01 14536   0.367E+00    0.729E-01
DAV:   6    -0.202817930984E+03   -0.47326E-02   -0.33949E-02 11960   0.993E-01    0.906E-01
DAV:   7    -0.202812728486E+03    0.52025E-02   -0.90987E-03 11912   0.613E-01    0.325E-01
DAV:   8    -0.202812910569E+03   -0.18208E-03   -0.26770E-03 11696   0.291E-01    0.205E-01
DAV:   9    -0.202815712887E+03   -0.28023E-02   -0.23076E-03 11552   0.198E-01    0.206E-01
DAV:  10    -0.202816744229E+03   -0.10313E-02   -0.18216E-03 11840   0.205E-01    0.111E-01
DAV:  11    -0.202817963325E+03   -0.12191E-02   -0.62423E-04 11608   0.107E-01    0.808E-02
DAV:  12    -0.202818235355E+03   -0.27203E-03   -0.17642E-04 11704   0.683E-02    0.348E-02
DAV:  13    -0.202819158587E+03   -0.92323E-03   -0.25837E-04 11216   0.353E-02    0.306E-02
DAV:  14    -0.202819310802E+03   -0.15222E-03   -0.50900E-05  9728   0.311E-02    0.179E-02
DAV:  15    -0.202819388947E+03   -0.78144E-04   -0.13275E-05  7584   0.126E-02    0.972E-03
DAV:  16    -0.202819431813E+03   -0.42866E-04   -0.90816E-06  7688   0.125E-02    0.135E-02
DAV:  17    -0.202819455388E+03   -0.23576E-04   -0.71766E-06  7280   0.109E-02    0.519E-03
DAV:  18    -0.202819459626E+03   -0.42380E-05   -0.16690E-06  6968   0.533E-03
  37 F= -.20281946E+03 E0= -.20020396E+03  d E =0.166658E-01
quench:  g(F)=  0.000E+00 g(S)=  0.000E+00 dE (1.order)= 0.000E+00
 bond charge predicted
       N       E                     dE             d eps       ncg     rms          rms(c)
DAV:   1    -0.202959100928E+03   -0.13965E+00   -0.17765E+02 11280   0.922E+00    0.504E+00
DAV:   2    -0.203048814323E+03   -0.89713E-01   -0.42911E+00 11232   0.155E+00    0.344E+00
DAV:   3    -0.202873640939E+03    0.17517E+00   -0.34083E-01 12088   0.873E-01    0.147E+00
DAV:   4    -0.203187649432E+03   -0.31401E+00   -0.54766E-01 13624   0.385E+00    0.612E+00
DAV:   5    -0.202828248137E+03    0.35940E+00   -0.49239E-01 13864   0.331E+00    0.671E-01
DAV:   6    -0.202832356603E+03   -0.41085E-02   -0.33166E-02 11584   0.918E-01    0.787E-01
DAV:   7    -0.202828420227E+03    0.39364E-02   -0.10745E-02 11648   0.600E-01    0.315E-01
DAV:   8    -0.202828940154E+03   -0.51993E-03   -0.23777E-03 11768   0.289E-01    0.226E-01
DAV:   9    -0.202831767739E+03   -0.28276E-02   -0.21352E-03 11568   0.236E-01    0.249E-01
DAV:  10    -0.202832630250E+03   -0.86251E-03   -0.17180E-03 11840   0.209E-01    0.968E-02
DAV:  11    -0.202834049693E+03   -0.14194E-02   -0.71973E-04 11592   0.113E-01    0.985E-02
DAV:  12    -0.202834381509E+03   -0.33182E-03   -0.23806E-04 12008   0.813E-02    0.327E-02
DAV:  13    -0.202835173549E+03   -0.79204E-03   -0.20259E-04 11368   0.408E-02    0.382E-02
DAV:  14    -0.202835452096E+03   -0.27855E-03   -0.85406E-05  9912   0.371E-02    0.183E-02
DAV:  15    -0.202835552500E+03   -0.10040E-03   -0.19294E-05  7784   0.155E-02    0.153E-02
DAV:  16    -0.202835579666E+03   -0.27165E-04   -0.70020E-06  7320   0.127E-02    0.109E-02
DAV:  17    -0.202835635085E+03   -0.55420E-04   -0.12825E-05  7560   0.842E-03    0.505E-03
DAV:  18    -0.202835640057E+03   -0.49713E-05   -0.16464E-06  7000   0.506E-03
  38 F= -.20283564E+03 E0= -.20022016E+03  d E =-.161804E-01
quench:  g(F)=  0.000E+00 g(S)=  0.000E+00 dE (1.order)= 0.000E+00
 bond charge predicted
       N       E                     dE             d eps       ncg     rms          rms(c)
DAV:   1    -0.202961055225E+03   -0.12542E+00   -0.17657E+02 11272   0.885E+00    0.505E+00
DAV:   2    -0.203030994767E+03   -0.69940E-01   -0.41069E+00 11216   0.150E+00    0.343E+00
DAV:   3    -0.202892807068E+03    0.13819E+00   -0.38967E-01 12560   0.160E+00    0.244E+00
DAV:   4    -0.203311939081E+03   -0.41913E+00   -0.99814E-01 14264   0.498E+00    0.707E+00
DAV:   5    -0.202813031225E+03    0.49891E+00   -0.71156E-01 14536   0.369E+00    0.735E-01
DAV:   6    -0.202817628861E+03   -0.45976E-02   -0.33869E-02 11952   0.994E-01    0.905E-01
DAV:   7    -0.202812461977E+03    0.51669E-02   -0.90478E-03 11904   0.611E-01    0.323E-01
DAV:   8    -0.202812664424E+03   -0.20245E-03   -0.26807E-03 11712   0.291E-01    0.205E-01
DAV:   9    -0.202815463009E+03   -0.27986E-02   -0.22951E-03 11536   0.197E-01    0.205E-01
DAV:  10    -0.202816497691E+03   -0.10347E-02   -0.18086E-03 11832   0.204E-01    0.112E-01
DAV:  11    -0.202817718199E+03   -0.12205E-02   -0.62472E-04 11608   0.107E-01    0.802E-02
DAV:  12    -0.202817989182E+03   -0.27098E-03   -0.17434E-04 11672   0.679E-02    0.350E-02
DAV:  13    -0.202818910067E+03   -0.92089E-03   -0.25831E-04 11224   0.352E-02    0.303E-02
DAV:  14    -0.202819060105E+03   -0.15004E-03   -0.50355E-05  9704   0.309E-02    0.179E-02
DAV:  15    -0.202819136755E+03   -0.76649E-04   -0.13045E-05  7568   0.126E-02    0.972E-03
DAV:  16    -0.202819179697E+03   -0.42943E-04   -0.90805E-06  7688   0.125E-02    0.134E-02
DAV:  17    -0.202819202627E+03   -0.22929E-04   -0.70600E-06  7272   0.109E-02    0.520E-03
DAV:  18    -0.202819206806E+03   -0.41791E-05   -0.16592E-06  6960   0.530E-03
  39 F= -.20281921E+03 E0= -.20020361E+03  d E =0.164333E-01
quench:  g(F)=  0.000E+00 g(S)=  0.000E+00 dE (1.order)= 0.000E+00
 bond charge predicted
       N       E                     dE             d eps       ncg     rms          rms(c)
DAV:   1    -0.202960555198E+03   -0.14135E+00   -0.17756E+02 11280   0.918E+00    0.504E+00
DAV:   2    -0.203048619022E+03   -0.88064E-01   -0.42777E+00 11232   0.154E+00    0.344E+00
DAV:   3    -0.202873700405E+03    0.17492E+00   -0.34188E-01 12096   0.887E-01    0.148E+00
DAV:   4    -0.203205908872E+03   -0.33221E+00   -0.57573E-01 13672   0.394E+00    0.627E+00
DAV:   5    -0.202827776857E+03    0.37813E+00   -0.52620E-01 13872   0.337E+00    0.659E-01
DAV:   6    -0.202831935994E+03   -0.41591E-02   -0.33346E-02 11568   0.913E-01    0.775E-01
DAV:   7    -0.202828081320E+03    0.38547E-02   -0.10889E-02 11648   0.594E-01    0.296E-01
DAV:   8    -0.202828820969E+03   -0.73965E-03   -0.23691E-03 11768   0.283E-01    0.236E-01
DAV:   9    -0.202831569961E+03   -0.27490E-02   -0.20349E-03 11536   0.239E-01    0.249E-01
DAV:  10    -0.202832388127E+03   -0.81817E-03   -0.16354E-03 11848   0.208E-01    0.981E-02
DAV:  11    -0.202833802474E+03   -0.14143E-02   -0.72128E-04 11576   0.114E-01    0.984E-02
DAV:  12    -0.202834132027E+03   -0.32955E-03   -0.23743E-04 12008   0.812E-02    0.330E-02
DAV:  13    -0.202834922593E+03   -0.79057E-03   -0.20300E-04 11344   0.410E-02    0.383E-02
DAV:  14    -0.202835198879E+03   -0.27629E-03   -0.85518E-05  9928   0.372E-02    0.182E-02
DAV:  15    -0.202835296758E+03   -0.97879E-04   -0.18702E-05  7744   0.153E-02    0.152E-02
DAV:  16    -0.202835323872E+03   -0.27114E-04   -0.69419E-06  7328   0.126E-02    0.110E-02
DAV:  17    -0.202835379054E+03   -0.55182E-04   -0.12853E-05  7552   0.853E-03    0.522E-03
DAV:  18    -0.202835383842E+03   -0.47885E-05   -0.16559E-06  7016   0.520E-03
  40 F= -.20283538E+03 E0= -.20021981E+03  d E =-.161770E-01
quench:  g(F)=  0.000E+00 g(S)=  0.000E+00 dE (1.order)= 0.000E+00
 bond charge predicted
       N       E                     dE             d eps       ncg     rms          rms(c)
DAV:   1    -0.202961592746E+03   -0.12621E+00   -0.17667E+02 11264   0.882E+00    0.505E+00
DAV:   2    -0.203031084735E+03   -0.69492E-01   -0.41037E+00 11224   0.150E+00    0.343E+00
DAV:   3    -0.202891348117E+03    0.13974E+00   -0.38805E-01 12552   0.158E+00    0.241E+00
DAV:   4    -0.203317482484E+03   -0.42613E+00   -0.99680E-01 14256   0.499E+00    0.711E+00
DAV:   5    -0.202813009453E+03    0.50447E+00   -0.72249E-01 14440   0.371E+00    0.741E-01
DAV:   6    -0.202817480935E+03   -0.44715E-02   -0.33904E-02 11968   0.995E-01    0.903E-01
DAV:   7    -0.202812338745E+03    0.51422E-02   -0.90355E-03 11888   0.610E-01    0.321E-01
DAV:   8    -0.202812567646E+03   -0.22890E-03   -0.26871E-03 11728   0.291E-01    0.206E-01
DAV:   9    -0.202815357453E+03   -0.27898E-02   -0.22855E-03 11536   0.197E-01    0.203E-01
DAV:  10    -0.202816391151E+03   -0.10337E-02   -0.17980E-03 11832   0.204E-01    0.112E-01
DAV:  11    -0.202817611459E+03   -0.12203E-02   -0.62481E-04 11608   0.107E-01    0.797E-02
DAV:  12    -0.202817881064E+03   -0.26961E-03   -0.17251E-04 11672   0.675E-02    0.350E-02
DAV:  13    -0.202818798125E+03   -0.91706E-03   -0.25769E-04 11208   0.351E-02    0.302E-02
DAV:  14    -0.202818947061E+03   -0.14894E-03   -0.50224E-05  9696   0.309E-02    0.179E-02
DAV:  15    -0.202819022572E+03   -0.75511E-04   -0.12874E-05  7552   0.126E-02    0.972E-03
DAV:  16    -0.202819065591E+03   -0.43019E-04   -0.90779E-06  7672   0.124E-02    0.134E-02
DAV:  17    -0.202819088060E+03   -0.22469E-04   -0.69826E-06  7232   0.109E-02    0.521E-03
DAV:  18    -0.202819092203E+03   -0.41432E-05   -0.16647E-06  6960   0.528E-03
  41 F= -.20281909E+03 E0= -.20020341E+03  d E =0.162916E-01
quench:  g(F)=  0.000E+00 g(S)=  0.000E+00 dE (1.order)= 0.000E+00
 bond charge predicted
       N       E                     dE             d eps       ncg     rms          rms(c)
DAV:   1    -0.202961586399E+03   -0.14250E+00   -0.17749E+02 11280   0.915E+00    0.504E+00
DAV:   2    -0.203048561736E+03   -0.86975E-01   -0.42690E+00 11208   0.153E+00    0.344E+00
DAV:   3    -0.202873958011E+03    0.17460E+00   -0.34274E-01 12080   0.901E-01    0.150E+00
DAV:   4    -0.203222793114E+03   -0.34884E+00   -0.60196E-01 13752   0.402E+00    0.640E+00
DAV:   5    -0.202827494716E+03    0.39530E+00   -0.55540E-01 13920   0.344E+00    0.649E-01
DAV:   6    -0.202831708688E+03   -0.42140E-02   -0.33598E-02 11544   0.910E-01    0.767E-01
DAV:   7    -0.202827890939E+03    0.38177E-02   -0.11063E-02 11656   0.590E-01    0.277E-01
DAV:   8    -0.202828859052E+03   -0.96811E-03   -0.24351E-03 11728   0.278E-01    0.244E-01
DAV:   9    -0.202831531715E+03   -0.26727E-02   -0.19331E-03 11544   0.241E-01    0.247E-01
DAV:  10    -0.202832294143E+03   -0.76243E-03   -0.15150E-03 11840   0.206E-01    0.100E-01
DAV:  11    -0.202833699816E+03   -0.14057E-02   -0.72037E-04 11552   0.115E-01    0.982E-02
DAV:  12    -0.202834026579E+03   -0.32676E-03   -0.23608E-04 12000   0.811E-02    0.334E-02
DAV:  13    -0.202834816158E+03   -0.78958E-03   -0.20373E-04 11344   0.411E-02    0.385E-02
DAV:  14    -0.202835091299E+03   -0.27514E-03   -0.85934E-05  9928   0.373E-02    0.180E-02
DAV:  15    -0.202835186475E+03   -0.95175E-04   -0.17904E-05  7752   0.148E-02    0.150E-02
DAV:  16    -0.202835213637E+03   -0.27162E-04   -0.68437E-06  7312   0.125E-02    0.111E-02
DAV:  17    -0.202835268241E+03   -0.54604E-04   -0.12791E-05  7552   0.870E-03    0.540E-03
DAV:  18    -0.202835272881E+03   -0.46403E-05   -0.16656E-06  7016   0.532E-03
  42 F= -.20283527E+03 E0= -.20021961E+03  d E =-.161807E-01
quench:  g(F)=  0.000E+00 g(S)=  0.000E+00 dE (1.order)= 0.000E+00
 bond charge predicted
       N       E                     dE             d eps       ncg     rms          rms(c)
DAV:   1    -0.202962131456E+03   -0.12686E+00   -0.17675E+02 11272   0.881E+00    0.505E+00
DAV:   2    -0.203031150651E+03   -0.69019E-01   -0.41004E+00 11224   0.149E+00    0.343E+00
DAV:   3    -0.202890258235E+03    0.14089E+00   -0.38684E-01 12552   0.156E+00    0.239E+00
DAV:   4    -0.203321602802E+03   -0.43134E+00   -0.99521E-01 14256   0.500E+00    0.714E+00
DAV:   5    -0.202813055073E+03    0.50855E+00   -0.73036E-01 14424   0.372E+00    0.746E-01
DAV:   6    -0.202817412273E+03   -0.43572E-02   -0.33884E-02 11968   0.995E-01    0.902E-01
DAV:   7    -0.202812306242E+03    0.51060E-02   -0.90194E-03 11888   0.609E-01    0.320E-01
DAV:   8    -0.202812550523E+03   -0.24428E-03   -0.26916E-03 11736   0.291E-01    0.206E-01
DAV:   9    -0.202815330952E+03   -0.27804E-02   -0.22774E-03 11536   0.197E-01    0.202E-01
DAV:  10    -0.202816363863E+03   -0.10329E-02   -0.17914E-03 11832   0.203E-01    0.112E-01
DAV:  11    -0.202817584034E+03   -0.12202E-02   -0.62577E-04 11608   0.107E-01    0.795E-02
DAV:  12    -0.202817853422E+03   -0.26939E-03   -0.17172E-04 11672   0.673E-02    0.351E-02
DAV:  13    -0.202818766909E+03   -0.91349E-03   -0.25679E-04 11208   0.352E-02    0.303E-02
DAV:  14    -0.202818915279E+03   -0.14837E-03   -0.50365E-05  9680   0.310E-02    0.179E-02
DAV:  15    -0.202818990270E+03   -0.74991E-04   -0.12813E-05  7536   0.125E-02    0.974E-03
DAV:  16    -0.202819033095E+03   -0.42825E-04   -0.90336E-06  7680   0.124E-02    0.133E-02
[...]
 156 F= -.20283816E+03 E0= -.20022067E+03  d E =-.176123E-01
quench:  g(F)=  0.000E+00 g(S)=  0.000E+00 dE (1.order)= 0.000E+00
 bond charge predicted
       N       E                     dE             d eps       ncg     rms          rms(c)
DAV:   1    -0.202970530123E+03   -0.13237E+00   -0.17724E+02 11280   0.867E+00    0.505E+00
DAV:   2    -0.203032500496E+03   -0.61970E-01   -0.40430E+00 11216   0.144E+00    0.343E+00
DAV:   3    -0.202872066036E+03    0.16043E+00   -0.36404E-01 12280   0.126E+00    0.193E+00
DAV:   4    -0.203370395750E+03   -0.49833E+00   -0.91752E-01 14232   0.496E+00    0.748E+00
DAV:   5    -0.202815596530E+03    0.55480E+00   -0.78771E-01 14176   0.390E+00    0.807E-01
DAV:   6    -0.202818341024E+03   -0.27445E-02   -0.33708E-02 12000   0.100E+00    0.871E-01
DAV:   7    -0.202813850049E+03    0.44910E-02   -0.88060E-03 11856   0.593E-01    0.307E-01
DAV:   8    -0.202814261741E+03   -0.41169E-03   -0.27443E-03 11728   0.293E-01    0.209E-01
DAV:   9    -0.202816896004E+03   -0.26343E-02   -0.21740E-03 11520   0.198E-01    0.195E-01
DAV:  10    -0.202817908211E+03   -0.10122E-02   -0.17191E-03 11832   0.199E-01    0.114E-01
DAV:  11    -0.202819144741E+03   -0.12365E-02   -0.62681E-04 11560   0.105E-01    0.761E-02
DAV:  12    -0.202819399865E+03   -0.25512E-03   -0.15778E-04 11544   0.646E-02    0.356E-02
DAV:  13    -0.202820275728E+03   -0.87586E-03   -0.25152E-04 11192   0.340E-02    0.284E-02
DAV:  14    -0.202820405204E+03   -0.12948E-03   -0.44730E-05  9424   0.294E-02    0.187E-02
DAV:  15    -0.202820471585E+03   -0.66381E-04   -0.11737E-05  7448   0.128E-02    0.100E-02
DAV:  16    -0.202820511964E+03   -0.40379E-04   -0.89342E-06  7640   0.122E-02    0.133E-02
DAV:  17    -0.202820531424E+03   -0.19460E-04   -0.65977E-06  7160   0.109E-02    0.521E-03
DAV:  18    -0.202820535356E+03   -0.39321E-05   -0.16253E-06  6936   0.510E-03
 157 F= -.20282054E+03 E0= -.20020298E+03  d E =0.176279E-01
quench:  g(F)=  0.000E+00 g(S)=  0.000E+00 dE (1.order)= 0.000E+00
 bond charge predicted
       N       E                     dE             d eps       ncg     rms          rms(c)
DAV:   1    -0.202974556679E+03   -0.15403E+00   -0.17721E+02 11296   0.898E+00    0.505E+00
DAV:   2    -0.203051582257E+03   -0.77026E-01   -0.41833E+00 11208   0.148E+00    0.344E+00
DAV:   3    -0.202886877958E+03    0.16470E+00   -0.35416E-01 12232   0.116E+00    0.182E+00
DAV:   4    -0.203394360321E+03   -0.50748E+00   -0.90717E-01 14216   0.487E+00    0.754E+00
DAV:   5    -0.202830704015E+03    0.56366E+00   -0.79367E-01 14232   0.396E+00    0.687E-01
DAV:   6    -0.202835876062E+03   -0.51720E-02   -0.35493E-02 11760   0.980E-01    0.870E-01
DAV:   7    -0.202831539521E+03    0.43365E-02   -0.10166E-02 11736   0.631E-01    0.357E-01
DAV:   8    -0.202831528146E+03    0.11376E-04   -0.27381E-03 11768   0.308E-01    0.205E-01
DAV:   9    -0.202834260212E+03   -0.27321E-02   -0.21597E-03 11552   0.205E-01    0.220E-01
DAV:  10    -0.202835361096E+03   -0.11009E-02   -0.19069E-03 11832   0.211E-01    0.111E-01
DAV:  11    -0.202836703019E+03   -0.13419E-02   -0.71531E-04 11536   0.114E-01    0.918E-02
DAV:  12    -0.202836978168E+03   -0.27515E-03   -0.20809E-04 11976   0.762E-02    0.342E-02
DAV:  13    -0.202837800774E+03   -0.82261E-03   -0.22436E-04 11312   0.388E-02    0.352E-02
DAV:  14    -0.202838001161E+03   -0.20039E-03   -0.66198E-05  9832   0.348E-02    0.191E-02
DAV:  15    -0.202838093037E+03   -0.91876E-04   -0.15369E-05  7632   0.131E-02    0.114E-02
DAV:  16    -0.202838139305E+03   -0.46267E-04   -0.99456E-06  7688   0.130E-02    0.149E-02
DAV:  17    -0.202838168996E+03   -0.29692E-04   -0.89335E-06  7416   0.115E-02    0.479E-03
DAV:  18    -0.202838174507E+03   -0.55111E-05   -0.17464E-06  6960   0.507E-03
 158 F= -.20283817E+03 E0= -.20022067E+03  d E =-.176392E-01
quench:  g(F)=  0.000E+00 g(S)=  0.000E+00 dE (1.order)= 0.000E+00
 bond charge predicted
       N       E                     dE             d eps       ncg     rms          rms(c)
DAV:   1    -0.202970535350E+03   -0.13237E+00   -0.17724E+02 11280   0.867E+00    0.505E+00
DAV:   2    -0.203032488082E+03   -0.61953E-01   -0.40428E+00 11216   0.144E+00    0.343E+00
DAV:   3    -0.202871995437E+03    0.16049E+00   -0.36396E-01 12280   0.125E+00    0.193E+00
DAV:   4    -0.203370394290E+03   -0.49840E+00   -0.91705E-01 14216   0.495E+00    0.748E+00
DAV:   5    -0.202815585457E+03    0.55481E+00   -0.78796E-01 14168   0.390E+00    0.808E-01
DAV:   6    -0.202818323871E+03   -0.27384E-02   -0.33705E-02 12000   0.100E+00    0.871E-01
DAV:   7    -0.202813835791E+03    0.44881E-02   -0.88019E-03 11856   0.593E-01    0.307E-01
DAV:   8    -0.202814247787E+03   -0.41200E-03   -0.27445E-03 11728   0.293E-01    0.209E-01
DAV:   9    -0.202816881860E+03   -0.26341E-02   -0.21747E-03 11520   0.198E-01    0.195E-01
DAV:  10    -0.202817893396E+03   -0.10115E-02   -0.17189E-03 11832   0.199E-01    0.114E-01
DAV:  11    -0.202819129483E+03   -0.12361E-02   -0.62656E-04 11560   0.105E-01    0.761E-02
DAV:  12    -0.202819384709E+03   -0.25523E-03   -0.15781E-04 11552   0.646E-02    0.356E-02
DAV:  13    -0.202820260226E+03   -0.87552E-03   -0.25145E-04 11192   0.341E-02    0.285E-02
DAV:  14    -0.202820389756E+03   -0.12953E-03   -0.44812E-05  9432   0.294E-02    0.187E-02
DAV:  15    -0.202820456111E+03   -0.66355E-04   -0.11735E-05  7448   0.128E-02    0.100E-02
DAV:  16    -0.202820496409E+03   -0.40299E-04   -0.89203E-06  7640   0.122E-02    0.133E-02
DAV:  17    -0.202820515917E+03   -0.19507E-04   -0.65993E-06  7152   0.109E-02    0.521E-03
DAV:  18    -0.202820519842E+03   -0.39249E-05   -0.16302E-06  6936   0.510E-03
 159 F= -.20282052E+03 E0= -.20020296E+03  d E =0.176547E-01
quench:  g(F)=  0.000E+00 g(S)=  0.000E+00 dE (1.order)= 0.000E+00
 bond charge predicted
       N       E                     dE             d eps       ncg     rms          rms(c)
DAV:   1    -0.202974606128E+03   -0.15409E+00   -0.17721E+02 11296   0.898E+00    0.505E+00
DAV:   2    -0.203051592466E+03   -0.76986E-01   -0.41830E+00 11208   0.148E+00    0.344E+00
DAV:   3    -0.202886960801E+03    0.16463E+00   -0.35427E-01 12248   0.116E+00    0.182E+00
DAV:   4    -0.203394643351E+03   -0.50768E+00   -0.90819E-01 14216   0.487E+00    0.754E+00
DAV:   5    -0.202830730681E+03    0.56391E+00   -0.79403E-01 14232   0.396E+00    0.688E-01
DAV:   6    -0.202835891314E+03   -0.51606E-02   -0.35501E-02 11760   0.980E-01    0.871E-01
DAV:   7    -0.202831553707E+03    0.43376E-02   -0.10160E-02 11736   0.632E-01    0.357E-01
DAV:   8    -0.202831539263E+03    0.14444E-04   -0.27417E-03 11768   0.308E-01    0.205E-01
DAV:   9    -0.202834271985E+03   -0.27327E-02   -0.21613E-03 11552   0.205E-01    0.220E-01
DAV:  10    -0.202835373078E+03   -0.11011E-02   -0.19075E-03 11832   0.211E-01    0.111E-01
DAV:  11    -0.202836714468E+03   -0.13414E-02   -0.71539E-04 11536   0.114E-01    0.918E-02
DAV:  12    -0.202836989603E+03   -0.27514E-03   -0.20821E-04 11976   0.762E-02    0.342E-02
DAV:  13    -0.202837811475E+03   -0.82187E-03   -0.22413E-04 11312   0.389E-02    0.353E-02
DAV:  14    -0.202838012346E+03   -0.20087E-03   -0.66390E-05  9832   0.348E-02    0.191E-02
DAV:  15    -0.202838104200E+03   -0.91854E-04   -0.15378E-05  7632   0.131E-02    0.114E-02
DAV:  16    -0.202838150347E+03   -0.46146E-04   -0.99175E-06  7688   0.130E-02    0.149E-02
DAV:  17    -0.202838180114E+03   -0.29768E-04   -0.89393E-06  7416   0.115E-02    0.479E-03
DAV:  18    -0.202838185609E+03   -0.54949E-05   -0.17469E-06  6960   0.508E-03
 160 F= -.20283819E+03 E0= -.20022068E+03  d E =-.176658E-01
quench:  g(F)=  0.000E+00 g(S)=  0.000E+00 dE (1.order)= 0.000E+00
 bond charge predicted
       N       E                     dE             d eps       ncg     rms          rms(c)
DAV:   1    -0.202970564790E+03   -0.13238E+00   -0.17724E+02 11280   0.867E+00    0.505E+00
DAV:   2    -0.203032475673E+03   -0.61911E-01   -0.40424E+00 11216   0.144E+00    0.343E+00
DAV:   3    -0.202871941600E+03    0.16053E+00   -0.36390E-01 12280   0.125E+00    0.193E+00
DAV:   4    -0.203370382372E+03   -0.49844E+00   -0.91679E-01 14240   0.495E+00    0.748E+00
DAV:   5    -0.202815573063E+03    0.55481E+00   -0.78821E-01 14160   0.390E+00    0.808E-01
DAV:   6    -0.202818306079E+03   -0.27330E-02   -0.33723E-02 12000   0.100E+00    0.871E-01
DAV:   7    -0.202813821760E+03    0.44843E-02   -0.88066E-03 11856   0.593E-01    0.307E-01
DAV:   8    -0.202814233624E+03   -0.41186E-03   -0.27451E-03 11728   0.293E-01    0.209E-01
DAV:   9    -0.202816866702E+03   -0.26331E-02   -0.21745E-03 11520   0.198E-01    0.195E-01
DAV:  10    -0.202817877980E+03   -0.10113E-02   -0.17192E-03 11832   0.199E-01    0.114E-01
DAV:  11    -0.202819114283E+03   -0.12363E-02   -0.62678E-04 11552   0.105E-01    0.761E-02
DAV:  12    -0.202819369539E+03   -0.25526E-03   -0.15791E-04 11552   0.646E-02    0.356E-02
DAV:  13    -0.202820244440E+03   -0.87490E-03   -0.25126E-04 11192   0.341E-02    0.285E-02
DAV:  14    -0.202820374154E+03   -0.12971E-03   -0.44914E-05  9432   0.294E-02    0.187E-02
DAV:  15    -0.202820440575E+03   -0.66421E-04   -0.11747E-05  7448   0.128E-02    0.100E-02
DAV:  16    -0.202820480853E+03   -0.40278E-04   -0.89199E-06  7640   0.122E-02    0.133E-02
DAV:  17    -0.202820500370E+03   -0.19517E-04   -0.66036E-06  7152   0.109E-02    0.521E-03
DAV:  18    -0.202820504290E+03   -0.39202E-05   -0.16298E-06  6936   0.510E-03
 161 F= -.20282050E+03 E0= -.20020294E+03  d E =0.176813E-01
quench:  g(F)=  0.000E+00 g(S)=  0.000E+00 dE (1.order)= 0.000E+00
 bond charge predicted
       N       E                     dE             d eps       ncg     rms          rms(c)
DAV:   1    -0.202974646609E+03   -0.15415E+00   -0.17721E+02 11296   0.898E+00    0.505E+00
DAV:   2    -0.203051602146E+03   -0.76956E-01   -0.41827E+00 11208   0.148E+00    0.344E+00
DAV:   3    -0.202887013582E+03    0.16459E+00   -0.35434E-01 12248   0.116E+00    0.182E+00
DAV:   4    -0.203394818704E+03   -0.50781E+00   -0.90875E-01 14216   0.487E+00    0.754E+00
DAV:   5    -0.202830743982E+03    0.56407E+00   -0.79424E-01 14232   0.396E+00    0.688E-01
DAV:   6    -0.202835907986E+03   -0.51640E-02   -0.35502E-02 11760   0.980E-01    0.871E-01
DAV:   7    -0.202831565970E+03    0.43420E-02   -0.10159E-02 11736   0.632E-01    0.357E-01
DAV:   8    -0.202831551087E+03    0.14883E-04   -0.27429E-03 11768   0.308E-01    0.205E-01
DAV:   9    -0.202834283737E+03   -0.27327E-02   -0.21615E-03 11552   0.205E-01    0.220E-01
DAV:  10    -0.202835384990E+03   -0.11013E-02   -0.19074E-03 11832   0.211E-01    0.111E-01
DAV:  11    -0.202836725907E+03   -0.13409E-02   -0.71532E-04 11536   0.114E-01    0.918E-02
DAV:  12    -0.202837000778E+03   -0.27487E-03   -0.20814E-04 11976   0.762E-02    0.342E-02
DAV:  13    -0.202837822466E+03   -0.82169E-03   -0.22410E-04 11312   0.389E-02    0.353E-02
DAV:  14    -0.202838023325E+03   -0.20086E-03   -0.66396E-05  9824   0.348E-02    0.191E-02
DAV:  15    -0.202838115147E+03   -0.91822E-04   -0.15374E-05  7632   0.131E-02    0.114E-02
DAV:  16    -0.202838161350E+03   -0.46203E-04   -0.99221E-06  7688   0.130E-02    0.149E-02
DAV:  17    -0.202838191025E+03   -0.29675E-04   -0.89251E-06  7416   0.115E-02    0.480E-03
DAV:  18    -0.202838196508E+03   -0.54830E-05   -0.17454E-06  6960   0.508E-03
 162 F= -.20283820E+03 E0= -.20022068E+03  d E =-.176922E-01
quench:  g(F)=  0.000E+00 g(S)=  0.000E+00 dE (1.order)= 0.000E+00
 bond charge predicted
       N       E                     dE             d eps       ncg     rms          rms(c)
DAV:   1    -0.202970570377E+03   -0.13238E+00   -0.17724E+02 11280   0.867E+00    0.505E+00
DAV:   2    -0.203032465606E+03   -0.61895E-01   -0.40423E+00 11216   0.144E+00    0.343E+00
DAV:   3    -0.202871910949E+03    0.16055E+00   -0.36386E-01 12280   0.125E+00    0.193E+00
DAV:   4    -0.203370400615E+03   -0.49849E+00   -0.91669E-01 14240   0.495E+00    0.748E+00
DAV:   5    -0.202815561709E+03    0.55484E+00   -0.78843E-01 14160   0.390E+00    0.808E-01
DAV:   6    -0.202818289651E+03   -0.27279E-02   -0.33728E-02 12000   0.100E+00    0.871E-01
DAV:   7    -0.202813807811E+03    0.44818E-02   -0.88065E-03 11856   0.593E-01    0.307E-01
DAV:   8    -0.202814219539E+03   -0.41173E-03   -0.27453E-03 11728   0.293E-01    0.209E-01
DAV:   9    -0.202816852140E+03   -0.26326E-02   -0.21743E-03 11520   0.198E-01    0.195E-01
DAV:  10    -0.202817863168E+03   -0.10110E-02   -0.17192E-03 11832   0.199E-01    0.114E-01
DAV:  11    -0.202819099272E+03   -0.12361E-02   -0.62685E-04 11552   0.105E-01    0.761E-02
DAV:  12    -0.202819354574E+03   -0.25530E-03   -0.15796E-04 11560   0.646E-02    0.356E-02
DAV:  13    -0.202820229032E+03   -0.87446E-03   -0.25114E-04 11184   0.341E-02    0.285E-02
DAV:  14    -0.202820358767E+03   -0.12973E-03   -0.44951E-05  9432   0.295E-02    0.187E-02
DAV:  15    -0.202820425197E+03   -0.66430E-04   -0.11749E-05  7448   0.128E-02    0.100E-02
DAV:  16    -0.202820465446E+03   -0.40250E-04   -0.89145E-06  7640   0.122E-02    0.133E-02
DAV:  17    -0.202820484973E+03   -0.19526E-04   -0.66047E-06  7152   0.109E-02    0.521E-03
DAV:  18    -0.202820488888E+03   -0.39152E-05   -0.16292E-06  6936   0.510E-03
 163 F= -.20282049E+03 E0= -.20020291E+03  d E =0.177076E-01
quench:  g(F)=  0.000E+00 g(S)=  0.000E+00 dE (1.order)= 0.000E+00
 bond charge predicted
       N       E                     dE             d eps       ncg     rms          rms(c)
DAV:   1    -0.202974659935E+03   -0.15417E+00   -0.17721E+02 11296   0.898E+00    0.505E+00
DAV:   2    -0.203051613930E+03   -0.76954E-01   -0.41828E+00 11208   0.148E+00    0.344E+00
DAV:   3    -0.202887133363E+03    0.16448E+00   -0.35447E-01 12256   0.116E+00    0.183E+00
DAV:   4    -0.203395266789E+03   -0.50813E+00   -0.91029E-01 14216   0.487E+00    0.755E+00
DAV:   5    -0.202830769953E+03    0.56450E+00   -0.79482E-01 14232   0.397E+00    0.689E-01
DAV:   6    -0.202835929629E+03   -0.51597E-02   -0.35501E-02 11760   0.981E-01    0.872E-01
DAV:   7    -0.202831579190E+03    0.43504E-02   -0.10150E-02 11744   0.632E-01    0.357E-01
DAV:   8    -0.202831561634E+03    0.17556E-04   -0.27484E-03 11768   0.308E-01    0.205E-01
DAV:   9    -0.202834295884E+03   -0.27342E-02   -0.21633E-03 11552   0.205E-01    0.220E-01
DAV:  10    -0.202835397304E+03   -0.11014E-02   -0.19077E-03 11832   0.211E-01    0.111E-01
DAV:  11    -0.202836737331E+03   -0.13400E-02   -0.71504E-04 11536   0.114E-01    0.918E-02
DAV:  12    -0.202837011895E+03   -0.27456E-03   -0.20800E-04 11976   0.761E-02    0.342E-02
DAV:  13    -0.202837833391E+03   -0.82150E-03   -0.22406E-04 11312   0.389E-02    0.353E-02
DAV:  14    -0.202838034267E+03   -0.20088E-03   -0.66434E-05  9824   0.348E-02    0.191E-02
DAV:  15    -0.202838126028E+03   -0.91761E-04   -0.15364E-05  7632   0.131E-02    0.114E-02
DAV:  16    -0.202838172216E+03   -0.46188E-04   -0.99101E-06  7688   0.130E-02    0.149E-02
DAV:  17    -0.202838201868E+03   -0.29652E-04   -0.89157E-06  7416   0.115E-02    0.481E-03
DAV:  18    -0.202838207330E+03   -0.54617E-05   -0.17458E-06  6960   0.509E-03
 164 F= -.20283821E+03 E0= -.20022068E+03  d E =-.177184E-01
quench:  g(F)=  0.000E+00 g(S)=  0.000E+00 dE (1.order)= 0.000E+00
 bond charge predicted
       N       E                     dE             d eps       ncg     rms          rms(c)
DAV:   1    -0.202970572828E+03   -0.13237E+00   -0.17724E+02 11280   0.867E+00    0.505E+00
DAV:   2    -0.203032457796E+03   -0.61885E-01   -0.40421E+00 11216   0.144E+00    0.343E+00
DAV:   3    -0.202871855186E+03    0.16060E+00   -0.36379E-01 12280   0.125E+00    0.192E+00
DAV:   4    -0.203370428174E+03   -0.49857E+00   -0.91637E-01 14240   0.495E+00    0.748E+00
DAV:   5    -0.202815550281E+03    0.55488E+00   -0.78865E-01 14152   0.390E+00    0.808E-01
DAV:   6    -0.202818272764E+03   -0.27225E-02   -0.33735E-02 12000   0.100E+00    0.871E-01
DAV:   7    -0.202813793454E+03    0.44793E-02   -0.88051E-03 11856   0.593E-01    0.307E-01
DAV:   8    -0.202814205864E+03   -0.41241E-03   -0.27453E-03 11728   0.293E-01    0.209E-01
DAV:   9    -0.202816837782E+03   -0.26319E-02   -0.21745E-03 11520   0.198E-01    0.195E-01
DAV:  10    -0.202817848496E+03   -0.10107E-02   -0.17189E-03 11832   0.199E-01    0.114E-01
DAV:  11    -0.202819084197E+03   -0.12357E-02   -0.62670E-04 11552   0.105E-01    0.761E-02
DAV:  12    -0.202819339493E+03   -0.25530E-03   -0.15793E-04 11544   0.646E-02    0.356E-02
DAV:  13    -0.202820213756E+03   -0.87426E-03   -0.25118E-04 11184   0.341E-02    0.286E-02
DAV:  14    -0.202820343417E+03   -0.12966E-03   -0.44973E-05  9440   0.295E-02    0.187E-02
DAV:  15    -0.202820409790E+03   -0.66373E-04   -0.11743E-05  7448   0.128E-02    0.100E-02
DAV:  16    -0.202820449997E+03   -0.40208E-04   -0.89066E-06  7640   0.122E-02    0.133E-02
DAV:  17    -0.202820469554E+03   -0.19557E-04   -0.66086E-06  7152   0.109E-02    0.521E-03
DAV:  18    -0.202820473467E+03   -0.39135E-05   -0.16295E-06  6936   0.510E-03
 165 F= -.20282047E+03 E0= -.20020289E+03  d E =0.177339E-01
quench:  g(F)=  0.000E+00 g(S)=  0.000E+00 dE (1.order)= 0.000E+00
 bond charge predicted
       N       E                     dE             d eps       ncg     rms          rms(c)
DAV:   1    -0.202974692106E+03   -0.15422E+00   -0.17721E+02 11296   0.898E+00    0.505E+00
DAV:   2    -0.203051619010E+03   -0.76927E-01   -0.41826E+00 11208   0.148E+00    0.344E+00
DAV:   3    -0.202887193342E+03    0.16443E+00   -0.35454E-01 12256   0.116E+00    0.183E+00
DAV:   4    -0.203395456892E+03   -0.50826E+00   -0.91096E-01 14216   0.488E+00    0.755E+00
DAV:   5    -0.202830790302E+03    0.56467E+00   -0.79503E-01 14232   0.397E+00    0.690E-01
DAV:   6    -0.202835944794E+03   -0.51545E-02   -0.35504E-02 11760   0.981E-01    0.872E-01
DAV:   7    -0.202831591569E+03    0.43532E-02   -0.10146E-02 11744   0.632E-01    0.357E-01
DAV:   8    -0.202831572469E+03    0.19100E-04   -0.27509E-03 11768   0.308E-01    0.205E-01
DAV:   9    -0.202834307404E+03   -0.27349E-02   -0.21641E-03 11552   0.205E-01    0.220E-01
DAV:  10    -0.202835408875E+03   -0.11015E-02   -0.19079E-03 11832   0.211E-01    0.111E-01
DAV:  11    -0.202836748410E+03   -0.13395E-02   -0.71502E-04 11536   0.114E-01    0.918E-02
DAV:  12    -0.202837022840E+03   -0.27443E-03   -0.20800E-04 11976   0.761E-02    0.342E-02
DAV:  13    -0.202837843973E+03   -0.82113E-03   -0.22398E-04 11312   0.389E-02    0.353E-02
DAV:  14    -0.202838044964E+03   -0.20099E-03   -0.66500E-05  9832   0.348E-02    0.191E-02
DAV:  15    -0.202838136683E+03   -0.91719E-04   -0.15363E-05  7632   0.131E-02    0.114E-02
DAV:  16    -0.202838182819E+03   -0.46136E-04   -0.98965E-06  7688   0.130E-02    0.149E-02
DAV:  17    -0.202838212498E+03   -0.29679E-04   -0.89166E-06  7416   0.115E-02    0.481E-03
DAV:  18    -0.202838217945E+03   -0.54471E-05   -0.17460E-06  6960   0.510E-03
 166 F= -.20283822E+03 E0= -.20022069E+03  d E =-.177445E-01
quench:  g(F)=  0.000E+00 g(S)=  0.000E+00 dE (1.order)= 0.000E+00
 bond charge predicted
       N       E                     dE             d eps       ncg     rms          rms(c)
DAV:   1    -0.202970583704E+03   -0.13237E+00   -0.17724E+02 11280   0.866E+00    0.505E+00
DAV:   2    -0.203032450375E+03   -0.61867E-01   -0.40419E+00 11216   0.144E+00    0.343E+00
DAV:   3    -0.202871746818E+03    0.16070E+00   -0.36366E-01 12280   0.125E+00    0.192E+00
DAV:   4    -0.203370424132E+03   -0.49868E+00   -0.91555E-01 14240   0.495E+00    0.748E+00
DAV:   5    -0.202815543805E+03    0.55488E+00   -0.78894E-01 14144   0.390E+00    0.809E-01
DAV:   6    -0.202818254459E+03   -0.27107E-02   -0.33745E-02 12000   0.100E+00    0.871E-01
DAV:   7    -0.202813780524E+03    0.44739E-02   -0.88054E-03 11856   0.593E-01    0.307E-01
