PBE-grap                                
           1
     8.309900    0.000000    0.000000
    -4.154950    7.196585    0.000000
     0.000000    0.000000   16.523500
   Pd   C    O 
  36   1   2
Direct configuration=     1
   0.99982095  0.00108106  0.43401225
   0.11093000  0.22330000  0.16024000
   0.22205312  0.11219695  0.29703506
   0.33314280  0.00106897  0.43401957
   0.44426000  0.22330000  0.16024000
   0.55537178  0.11218031  0.29703935
   0.66649849  0.00108313  0.43396761
   0.77760000  0.22330000  0.16024000
   0.88870505  0.11218785  0.29703564
   0.99982116  0.33440569  0.43400651
   0.11093000  0.55664000  0.16024000
   0.22204322  0.44552108  0.29703349
   0.33311560  0.33440599  0.43406629
   0.44426000  0.55664000  0.16024000
   0.55535810  0.44551067  0.29704176
   0.66650256  0.33441519  0.43396754
   0.77760000  0.55664000  0.16024000
   0.88872097  0.44551874  0.29704375
   0.99981485  0.66775398  0.43397996
   0.11093000  0.88997000  0.16024000
   0.22204699  0.77886132  0.29703831
   0.33315652  0.66775299  0.43397890
   0.44426000  0.88997000  0.16024000
   0.55537731  0.77885989  0.29703849
   0.66650126  0.66776038  0.43396970
   0.77760000  0.88997000  0.16024000
   0.88871556  0.77887120  0.29704190
   0.99982000  0.00108000  0.02337000
   0.33315000  0.00108000  0.02337000
   0.66649000  0.00108000  0.02337000
   0.99982000  0.33441000  0.02337000
   0.33315000  0.33441000  0.02337000
   0.66649000  0.33441000  0.02337000
   0.99982000  0.66775000  0.02337000
   0.33315000  0.66775000  0.02337000
   0.66649000  0.66775000  0.02337000
   0.20176057  0.07535512  0.65134971
   0.20296761  0.30909802  0.64699224
   0.25462861  0.91548125  0.66179494
Direct configuration=     2
   0.99982533  0.00108247  0.43407484
   0.11093000  0.22330000  0.16024000
   0.22206653  0.11221021  0.29693050
   0.33313477  0.00105611  0.43407495
   0.44426000  0.22330000  0.16024000
   0.55535715  0.11216688  0.29693708
   0.66651078  0.00108786  0.43395272
   0.77760000  0.22330000  0.16024000
   0.88869818  0.11218671  0.29692755
   0.99982492  0.33440017  0.43405714
   0.11093000  0.55664000  0.16024000
   0.22204712  0.44551841  0.29692745
   0.33305939  0.33439604  0.43422170
   0.44426000  0.55664000  0.16024000
   0.55531936  0.44549401  0.29694807
   0.66652181  0.33442279  0.43395282
   0.77760000  0.55664000  0.16024000
   0.88874048  0.44551324  0.29694846
   0.99980567  0.66775844  0.43398091
   0.11093000  0.88997000  0.16024000
   0.22205799  0.77886484  0.29693575
   0.33316642  0.66775902  0.43397971
   0.44426000  0.88997000  0.16024000
   0.55537087  0.77885658  0.29693582
   0.66652018  0.66777679  0.43395943
   0.77760000  0.88997000  0.16024000
   0.88872547  0.77889369  0.29694363
   0.99982000  0.00108000  0.02337000
   0.33315000  0.00108000  0.02337000
   0.66649000  0.00108000  0.02337000
   0.99982000  0.33441000  0.02337000
   0.33315000  0.33441000  0.02337000
   0.66649000  0.33441000  0.02337000
   0.99982000  0.66775000  0.02337000
   0.33315000  0.66775000  0.02337000
   0.66649000  0.66775000  0.02337000
   0.20381174  0.06645259  0.64829129
   0.20012497  0.30083486  0.64328645
   0.25080483  0.92930133  0.65745678
Direct configuration=     3
   0.99983063  0.00108054  0.43416938
   0.11093000  0.22330000  0.16024000
   0.22207643  0.11222865  0.29686812
   0.33313539  0.00104913  0.43412546
   0.44426000  0.22330000  0.16024000
   0.55534671  0.11215461  0.29687035
   0.66651758  0.00109163  0.43397119
   0.77760000  0.22330000  0.16024000
   0.88869495  0.11218736  0.29685874
   0.99982925  0.33439464  0.43414342
   0.11093000  0.55664000  0.16024000
   0.22205051  0.44551188  0.29686191
   0.33300439  0.33438063  0.43442196
   0.44426000  0.55664000  0.16024000
   0.55527352  0.44547296  0.29689552
   0.66653469  0.33442774  0.43397197
   0.77760000  0.55664000  0.16024000
   0.88875679  0.44549653  0.29689141
   0.99979835  0.66776196  0.43400650
   0.11093000  0.88997000  0.16024000
   0.22207023  0.77886902  0.29687121
   0.33317418  0.66776980  0.43401017
   0.44426000  0.88997000  0.16024000
   0.55536478  0.77885176  0.29686866
   0.66653980  0.66779224  0.43398345
   0.77760000  0.88997000  0.16024000
   0.88873736  0.77892007  0.29688434
   0.99982000  0.00108000  0.02337000
   0.33315000  0.00108000  0.02337000
   0.66649000  0.00108000  0.02337000
   0.99982000  0.33441000  0.02337000
   0.33315000  0.33441000  0.02337000
   0.66649000  0.33441000  0.02337000
   0.99982000  0.66775000  0.02337000
   0.33315000  0.66775000  0.02337000
   0.66649000  0.66775000  0.02337000
   0.20703369  0.05637924  0.64652609
   0.19840876  0.29370524  0.64075430
   0.24622793  0.94428341  0.65422253
Direct configuration=     4
   0.99983565  0.00107735  0.43426258
   0.11093000  0.22330000  0.16024000
   0.22207892  0.11224490  0.29685423
   0.33314028  0.00104668  0.43416771
   0.44426000  0.22330000  0.16024000
   0.55534640  0.11214883  0.29685030
   0.66651836  0.00109395  0.43401743
   0.77760000  0.22330000  0.16024000
   0.88869370  0.11218851  0.29683801
   0.99983430  0.33439038  0.43423986
   0.11093000  0.55664000  0.16024000
   0.22205189  0.44550617  0.29684702
   0.33296408  0.33436539  0.43460543
   0.44426000  0.55664000  0.16024000
   0.55523750  0.44545678  0.29688846
   0.66653936  0.33442893  0.43401805
   0.77760000  0.55664000  0.16024000
   0.88876855  0.44548046  0.29688012
   0.99979520  0.66776545  0.43405351
   0.11093000  0.88997000  0.16024000
   0.22207771  0.77887024  0.29685280
   0.33317737  0.66778107  0.43406286
   0.44426000  0.88997000  0.16024000
   0.55536128  0.77884937  0.29684951
   0.66655399  0.66780241  0.43403336
   0.77760000  0.88997000  0.16024000
   0.88874479  0.77894067  0.29687241
   0.99982000  0.00108000  0.02337000
   0.33315000  0.00108000  0.02337000
   0.66649000  0.00108000  0.02337000
   0.99982000  0.33441000  0.02337000
   0.33315000  0.33441000  0.02337000
   0.66649000  0.33441000  0.02337000
   0.99982000  0.66775000  0.02337000
   0.33315000  0.66775000  0.02337000
   0.66649000  0.66775000  0.02337000
   0.20588818  0.06105822  0.64563216
   0.19813885  0.28995079  0.64005054
   0.24691677  0.94282718  0.65384953
Direct configuration=     5
   0.99984243  0.00107805  0.43436548
   0.11093000  0.22330000  0.16024000
   0.22208234  0.11226633  0.29683657
   0.33314360  0.00104700  0.43421194
   0.44426000  0.22330000  0.16024000
   0.55534482  0.11214164  0.29682212
   0.66652114  0.00109742  0.43406022
   0.77760000  0.22330000  0.16024000
   0.88869422  0.11218985  0.29681121
   0.99983536  0.33438226  0.43433402
   0.11093000  0.55664000  0.16024000
   0.22205490  0.44549645  0.29682934
   0.33292352  0.33434686  0.43479971
   0.44426000  0.55664000  0.16024000
   0.55519246  0.44543693  0.29687766
   0.66654612  0.33443023  0.43406048
   0.77760000  0.55664000  0.16024000
   0.88878134  0.44546423  0.29686230
   0.99979099  0.66776640  0.43409734
   0.11093000  0.88997000  0.16024000
   0.22208479  0.77887115  0.29682559
   0.33318318  0.66779392  0.43411043
   0.44426000  0.88997000  0.16024000
   0.55535661  0.77884365  0.29682236
   0.66656954  0.66781465  0.43408046
   0.77760000  0.88997000  0.16024000
   0.88875378  0.77896267  0.29685371
   0.99982000  0.00108000  0.02337000
   0.33315000  0.00108000  0.02337000
   0.66649000  0.00108000  0.02337000
   0.99982000  0.33441000  0.02337000
   0.33315000  0.33441000  0.02337000
   0.66649000  0.33441000  0.02337000
   0.99982000  0.66775000  0.02337000
   0.33315000  0.66775000  0.02337000
   0.66649000  0.66775000  0.02337000
   0.20658618  0.06177955  0.64445978
   0.19745191  0.28312270  0.63878280
   0.24540160  0.94784472  0.65245991
Direct configuration=     6
   0.99984674  0.00107441  0.43448235
   0.11093000  0.22330000  0.16024000
   0.22208475  0.11229349  0.29682651
   0.33314882  0.00104735  0.43425656
   0.44426000  0.22330000  0.16024000
   0.55534497  0.11213510  0.29679480
   0.66652289  0.00110111  0.43411112
   0.77760000  0.22330000  0.16024000
   0.88869574  0.11218959  0.29679014
   0.99983249  0.33437307  0.43443203
   0.11093000  0.55664000  0.16024000
   0.22206109  0.44548444  0.29682055
   0.33288449  0.33432808  0.43500564
   0.44426000  0.55664000  0.16024000
   0.55514026  0.44541315  0.29687393
   0.66655033  0.33442859  0.43411050
   0.77760000  0.55664000  0.16024000
   0.88879325  0.44544748  0.29684624
   0.99978864  0.66776772  0.43414882
   0.11093000  0.88997000  0.16024000
   0.22209142  0.77887211  0.29680090
   0.33318827  0.66780893  0.43416258
   0.44426000  0.88997000  0.16024000
   0.55535376  0.77883866  0.29679791
   0.66658297  0.66782684  0.43413511
   0.77760000  0.88997000  0.16024000
   0.88876348  0.77898635  0.29683761
   0.99982000  0.00108000  0.02337000
   0.33315000  0.00108000  0.02337000
   0.66649000  0.00108000  0.02337000
   0.99982000  0.33441000  0.02337000
   0.33315000  0.33441000  0.02337000
   0.66649000  0.33441000  0.02337000
   0.99982000  0.66775000  0.02337000
   0.33315000  0.66775000  0.02337000
   0.66649000  0.66775000  0.02337000
   0.20525734  0.07100082  0.64256561
   0.19667594  0.27325998  0.63735059
   0.24572015  0.94719394  0.65126048
Direct configuration=     7
   0.99985453  0.00106923  0.43457485
   0.11093000  0.22330000  0.16024000
   0.22208689  0.11231919  0.29681601
   0.33315411  0.00105528  0.43428965
   0.44426000  0.22330000  0.16024000
   0.55534427  0.11212761  0.29676065
   0.66653238  0.00110737  0.43413844
   0.77760000  0.22330000  0.16024000
   0.88870074  0.11219114  0.29676691
   0.99981874  0.33436296  0.43447635
   0.11093000  0.55664000  0.16024000
   0.22206560  0.44546919  0.29681383
   0.33287118  0.33431943  0.43511711
   0.44426000  0.55664000  0.16024000
   0.55510015  0.44539776  0.29686226
   0.66655020  0.33442573  0.43413730
   0.77760000  0.55664000  0.16024000
   0.88880492  0.44544216  0.29682054
   0.99978501  0.66776949  0.43417677
   0.11093000  0.88997000  0.16024000
   0.22209369  0.77887225  0.29676780
   0.33319308  0.66781623  0.43418511
   0.44426000  0.88997000  0.16024000
   0.55535084  0.77883386  0.29676728
   0.66658744  0.66783429  0.43416535
   0.77760000  0.88997000  0.16024000
   0.88877220  0.77900051  0.29681198
   0.99982000  0.00108000  0.02337000
   0.33315000  0.00108000  0.02337000
   0.66649000  0.00108000  0.02337000
   0.99982000  0.33441000  0.02337000
   0.33315000  0.33441000  0.02337000
   0.66649000  0.33441000  0.02337000
   0.99982000  0.66775000  0.02337000
   0.33315000  0.66775000  0.02337000
   0.66649000  0.66775000  0.02337000
   0.20714635  0.07474176  0.64039054
   0.19531364  0.25693071  0.63531240
   0.24226380  0.95766723  0.64842276
Direct configuration=     8
   0.99985111  0.00105466  0.43473561
   0.11093000  0.22330000  0.16024000
   0.22208207  0.11233278  0.29688789
   0.33316167  0.00106117  0.43442238
   0.44426000  0.22330000  0.16024000
   0.55534972  0.11212879  0.29681061
   0.66653982  0.00111180  0.43429502
   0.77760000  0.22330000  0.16024000
   0.88870494  0.11219281  0.29682892
   0.99980564  0.33435167  0.43461659
   0.11093000  0.55664000  0.16024000
   0.22206274  0.44546259  0.29688469
   0.33289010  0.33432190  0.43525435
   0.44426000  0.55664000  0.16024000
   0.55509041  0.44539671  0.29692177
   0.66653985  0.33442021  0.43428938
   0.77760000  0.55664000  0.16024000
   0.88880755  0.44544349  0.29687280
   0.99978573  0.66777320  0.43432887
   0.11093000  0.88997000  0.16024000
   0.22208664  0.77886731  0.29681844
   0.33319296  0.66782320  0.43433382
   0.44426000  0.88997000  0.16024000
   0.55534799  0.77882836  0.29682162
   0.66658621  0.66783571  0.43432002
   0.77760000  0.88997000  0.16024000
   0.88877550  0.77900179  0.29686731
   0.99982000  0.00108000  0.02337000
   0.33315000  0.00108000  0.02337000
   0.66649000  0.00108000  0.02337000
   0.99982000  0.33441000  0.02337000
   0.33315000  0.33441000  0.02337000
   0.66649000  0.33441000  0.02337000
   0.99982000  0.66775000  0.02337000
   0.33315000  0.66775000  0.02337000
   0.66649000  0.66775000  0.02337000
   0.20820082  0.09151840  0.64239412
   0.19800086  0.24282855  0.63813163
   0.24164752  0.95726097  0.65077551
Direct configuration=     9
   0.99983290  0.00103677  0.43487538
   0.11093000  0.22330000  0.16024000
   0.22207606  0.11233882  0.29697310
   0.33316286  0.00106801  0.43458675
   0.44426000  0.22330000  0.16024000
   0.55534949  0.11213004  0.29687073
   0.66655902  0.00111514  0.43446905
   0.77760000  0.22330000  0.16024000
   0.88870890  0.11219125  0.29690237
   0.99979661  0.33433422  0.43476213
   0.11093000  0.55664000  0.16024000
   0.22205982  0.44546081  0.29696477
   0.33293114  0.33434705  0.43534147
   0.44426000  0.55664000  0.16024000
   0.55509880  0.44540707  0.29698530
   0.66652664  0.33441942  0.43445654
   0.77760000  0.55664000  0.16024000
   0.88880310  0.44545227  0.29693131
   0.99978546  0.66777935  0.43449930
   0.11093000  0.88997000  0.16024000
   0.22207764  0.77886536  0.29687684
   0.33319206  0.66781640  0.43449848
   0.44426000  0.88997000  0.16024000
   0.55534474  0.77881974  0.29688521
   0.66657850  0.66783305  0.43449148
   0.77760000  0.88997000  0.16024000
   0.88877507  0.77899248  0.29692841
   0.99982000  0.00108000  0.02337000
   0.33315000  0.00108000  0.02337000
   0.66649000  0.00108000  0.02337000
   0.99982000  0.33441000  0.02337000
   0.33315000  0.33441000  0.02337000
   0.66649000  0.33441000  0.02337000
   0.99982000  0.66775000  0.02337000
   0.33315000  0.66775000  0.02337000
   0.66649000  0.66775000  0.02337000
   0.21297001  0.09573851  0.64560522
   0.20068647  0.22865282  0.64123547
   0.23764703  0.96972149  0.65248712
Direct configuration=    10
   0.99982233  0.00105869  0.43484469
   0.11093000  0.22330000  0.16024000
   0.22207598  0.11233408  0.29698116
   0.33313751  0.00106833  0.43462813
   0.44426000  0.22330000  0.16024000
   0.55535849  0.11213545  0.29687305
   0.66655586  0.00111722  0.43451001
   0.77760000  0.22330000  0.16024000
   0.88870507  0.11219739  0.29690642
   0.99980011  0.33432191  0.43477584
   0.11093000  0.55664000  0.16024000
   0.22205517  0.44546662  0.29697307
   0.33293784  0.33431068  0.43529001
   0.44426000  0.55664000  0.16024000
   0.55513306  0.44542552  0.29697368
   0.66650268  0.33440858  0.43449324
   0.77760000  0.55664000  0.16024000
   0.88880070  0.44546181  0.29693334
   0.99980443  0.66780714  0.43454238
   0.11093000  0.88997000  0.16024000
   0.22207306  0.77886385  0.29688368
   0.33318571  0.66780777  0.43453510
   0.44426000  0.88997000  0.16024000
   0.55534565  0.77881673  0.29689302
   0.66656464  0.66782239  0.43452825
   0.77760000  0.88997000  0.16024000
   0.88877243  0.77897804  0.29692866
   0.99982000  0.00108000  0.02337000
   0.33315000  0.00108000  0.02337000
   0.66649000  0.00108000  0.02337000
   0.99982000  0.33441000  0.02337000
   0.33315000  0.33441000  0.02337000
   0.66649000  0.33441000  0.02337000
   0.99982000  0.66775000  0.02337000
   0.33315000  0.66775000  0.02337000
   0.66649000  0.66775000  0.02337000
   0.21368594  0.09494478  0.64740957
   0.19991482  0.23050353  0.64272525
   0.23744553  0.96844331  0.65393882
Direct configuration=    11
   0.99982682  0.00109517  0.43482113
   0.11093000  0.22330000  0.16024000
   0.22207719  0.11232649  0.29698793
   0.33311196  0.00107542  0.43468327
   0.44426000  0.22330000  0.16024000
   0.55537139  0.11214175  0.29687846
   0.66655119  0.00111938  0.43457070
   0.77760000  0.22330000  0.16024000
   0.88869635  0.11220471  0.29691300
   0.99981732  0.33430790  0.43481020
   0.11093000  0.55664000  0.16024000
   0.22204704  0.44547843  0.29698345
   0.33294650  0.33425654  0.43522937
   0.44426000  0.55664000  0.16024000
   0.55518756  0.44545488  0.29695639
   0.66647215  0.33439632  0.43454928
   0.77760000  0.55664000  0.16024000
   0.88879900  0.44547348  0.29694085
   0.99982635  0.66784057  0.43460747
   0.11093000  0.88997000  0.16024000
   0.22206815  0.77886102  0.29689543
   0.33317757  0.66779477  0.43459340
   0.44426000  0.88997000  0.16024000
   0.55534596  0.77881281  0.29690682
   0.66654662  0.66780586  0.43458263
   0.77760000  0.88997000  0.16024000
   0.88876788  0.77895734  0.29692983
   0.99982000  0.00108000  0.02337000
   0.33315000  0.00108000  0.02337000
   0.66649000  0.00108000  0.02337000
   0.99982000  0.33441000  0.02337000
   0.33315000  0.33441000  0.02337000
   0.66649000  0.33441000  0.02337000
   0.99982000  0.66775000  0.02337000
   0.33315000  0.66775000  0.02337000
   0.66649000  0.66775000  0.02337000
   0.21390391  0.09924219  0.65012308
   0.19933514  0.22795532  0.64541993
   0.23729372  0.96626955  0.65643313
Direct configuration=    12
   0.99982462  0.00110800  0.43481940
   0.11093000  0.22330000  0.16024000
   0.22207960  0.11232203  0.29699703
   0.33309711  0.00107687  0.43472791
   0.44426000  0.22330000  0.16024000
   0.55537286  0.11214278  0.29688769
   0.66655156  0.00111969  0.43461002
   0.77760000  0.22330000  0.16024000
   0.88869207  0.11220754  0.29692197
   0.99982448  0.33430241  0.43483598
   0.11093000  0.55664000  0.16024000
   0.22204352  0.44548457  0.29699448
   0.33295583  0.33423977  0.43520350
   0.44426000  0.55664000  0.16024000
   0.55521387  0.44546941  0.29695406
   0.66645915  0.33439309  0.43458551
   0.77760000  0.55664000  0.16024000
   0.88879859  0.44548120  0.29695046
   0.99983402  0.66785316  0.43464855
   0.11093000  0.88997000  0.16024000
   0.22206603  0.77886125  0.29690686
   0.33317312  0.66778548  0.43463104
   0.44426000  0.88997000  0.16024000
   0.55534608  0.77881035  0.29691918
   0.66653678  0.66779688  0.43461923
   0.77760000  0.88997000  0.16024000
   0.88876616  0.77894735  0.29693495
   0.99982000  0.00108000  0.02337000
   0.33315000  0.00108000  0.02337000
   0.66649000  0.00108000  0.02337000
   0.99982000  0.33441000  0.02337000
   0.33315000  0.33441000  0.02337000
   0.66649000  0.33441000  0.02337000
   0.99982000  0.66775000  0.02337000
   0.33315000  0.66775000  0.02337000
   0.66649000  0.66775000  0.02337000
   0.21541343  0.09126319  0.65178702
   0.19843337  0.23232072  0.64647458
   0.23645485  0.96969437  0.65735378
Direct configuration=    13
   0.99983862  0.00112417  0.43483321
   0.11093000  0.22330000  0.16024000
   0.22208166  0.11232014  0.29700260
   0.33309323  0.00108060  0.43475437
   0.44426000  0.22330000  0.16024000
   0.55537756  0.11214499  0.29689626
   0.66654921  0.00111974  0.43464585
   0.77760000  0.22330000  0.16024000
   0.88868792  0.11220999  0.29693094
   0.99983733  0.33430062  0.43486805
   0.11093000  0.55664000  0.16024000
   0.22203879  0.44548746  0.29700377
   0.33295803  0.33421524  0.43520157
   0.44426000  0.55664000  0.16024000
   0.55523555  0.44548064  0.29695286
   0.66644873  0.33438929  0.43461836
   0.77760000  0.55664000  0.16024000
   0.88879907  0.44548411  0.29696191
   0.99984067  0.66786388  0.43468485
   0.11093000  0.88997000  0.16024000
   0.22206450  0.77885997  0.29691866
   0.33316964  0.66778251  0.43466711
   0.44426000  0.88997000  0.16024000
   0.55534452  0.77880719  0.29693103
   0.66653123  0.66779035  0.43465143
   0.77760000  0.88997000  0.16024000
   0.88876534  0.77894164  0.29694156
   0.99982000  0.00108000  0.02337000
   0.33315000  0.00108000  0.02337000
   0.66649000  0.00108000  0.02337000
   0.99982000  0.33441000  0.02337000
   0.33315000  0.33441000  0.02337000
   0.66649000  0.33441000  0.02337000
   0.99982000  0.66775000  0.02337000
   0.33315000  0.66775000  0.02337000
   0.66649000  0.66775000  0.02337000
   0.21355259  0.10505423  0.65265382
   0.19880171  0.22634355  0.64806355
   0.23765845  0.96163263  0.65899330
Direct configuration=    14
   0.99982647  0.00111232  0.43487874
   0.11093000  0.22330000  0.16024000
   0.22208304  0.11231862  0.29703269
   0.33309398  0.00108039  0.43481680
   0.44426000  0.22330000  0.16024000
   0.55537227  0.11214244  0.29692368
   0.66655851  0.00112046  0.43470276
   0.77760000  0.22330000  0.16024000
   0.88868799  0.11220882  0.29695940
   0.99983623  0.33429984  0.43491789
   0.11093000  0.55664000  0.16024000
   0.22203684  0.44548781  0.29703203
   0.33297655  0.33423674  0.43522744
   0.44426000  0.55664000  0.16024000
   0.55523846  0.44548229  0.29697965
   0.66644836  0.33439300  0.43467313
   0.77760000  0.55664000  0.16024000
   0.88879925  0.44548940  0.29698703
   0.99983393  0.66785906  0.43474145
   0.11093000  0.88997000  0.16024000
   0.22206275  0.77886108  0.29694366
   0.33316979  0.66777845  0.43472185
   0.44426000  0.88997000  0.16024000
   0.55534295  0.77880444  0.29695616
   0.66652832  0.66778881  0.43470715
   0.77760000  0.88997000  0.16024000
   0.88876545  0.77893834  0.29696557
   0.99982000  0.00108000  0.02337000
   0.33315000  0.00108000  0.02337000
   0.66649000  0.00108000  0.02337000
   0.99982000  0.33441000  0.02337000
   0.33315000  0.33441000  0.02337000
   0.66649000  0.33441000  0.02337000
   0.99982000  0.66775000  0.02337000
   0.33315000  0.66775000  0.02337000
   0.66649000  0.66775000  0.02337000
   0.21662840  0.08754309  0.65407290
   0.19793049  0.23809753  0.64833327
   0.23642103  0.96809368  0.65934577
Direct configuration=    15
   0.99981798  0.00109895  0.43493424
   0.11093000  0.22330000  0.16024000
   0.22208310  0.11232092  0.29706402
   0.33310044  0.00107622  0.43486151
   0.44426000  0.22330000  0.16024000
   0.55537185  0.11214254  0.29695213
   0.66655833  0.00111956  0.43476125
   0.77760000  0.22330000  0.16024000
   0.88868747  0.11220842  0.29698854
   0.99983131  0.33430204  0.43497247
   0.11093000  0.55664000  0.16024000
   0.22203525  0.44548555  0.29706244
   0.33298850  0.33424672  0.43527984
   0.44426000  0.55664000  0.16024000
   0.55523576  0.44548266  0.29700960
   0.66644893  0.33439327  0.43473068
   0.77760000  0.55664000  0.16024000
   0.88879953  0.44548998  0.29701452
   0.99983067  0.66785687  0.43479891
   0.11093000  0.88997000  0.16024000
   0.22206038  0.77885932  0.29697095
   0.33316871  0.66778494  0.43477867
   0.44426000  0.88997000  0.16024000
   0.55534151  0.77880224  0.29698375
   0.66653121  0.66779178  0.43476504
   0.77760000  0.88997000  0.16024000
   0.88876540  0.77893978  0.29699362
   0.99982000  0.00108000  0.02337000
   0.33315000  0.00108000  0.02337000
   0.66649000  0.00108000  0.02337000
   0.99982000  0.33441000  0.02337000
   0.33315000  0.33441000  0.02337000
   0.66649000  0.33441000  0.02337000
   0.99982000  0.66775000  0.02337000
   0.33315000  0.66775000  0.02337000
   0.66649000  0.66775000  0.02337000
   0.21457673  0.10592325  0.65407653
   0.19955264  0.23041455  0.64937940
   0.23790592  0.95815930  0.66049992
Direct configuration=    16
   0.99983167  0.00111603  0.43495290
   0.11093000  0.22330000  0.16024000
   0.22208626  0.11231584  0.29707419
   0.33308904  0.00108329  0.43491258
   0.44426000  0.22330000  0.16024000
   0.55536959  0.11214241  0.29696436
   0.66656132  0.00111972  0.43479405
   0.77760000  0.22330000  0.16024000
   0.88868233  0.11220656  0.29700113
   0.99984456  0.33429840  0.43500185
   0.11093000  0.55664000  0.16024000
   0.22203199  0.44549006  0.29707429
   0.33299363  0.33423449  0.43527088
   0.44426000  0.55664000  0.16024000
   0.55525829  0.44549391  0.29701213
   0.66644123  0.33439364  0.43476249
   0.77760000  0.55664000  0.16024000
   0.88880278  0.44550048  0.29702738
   0.99983289  0.66786272  0.43483630
   0.11093000  0.88997000  0.16024000
   0.22205998  0.77886108  0.29698555
   0.33316536  0.66777285  0.43481364
   0.44426000  0.88997000  0.16024000
   0.55534082  0.77880120  0.29699735
   0.66652313  0.66778346  0.43479644
   0.77760000  0.88997000  0.16024000
   0.88876354  0.77893245  0.29700269
   0.99982000  0.00108000  0.02337000
   0.33315000  0.00108000  0.02337000
   0.66649000  0.00108000  0.02337000
   0.99982000  0.33441000  0.02337000
   0.33315000  0.33441000  0.02337000
   0.66649000  0.33441000  0.02337000
   0.99982000  0.66775000  0.02337000
   0.33315000  0.66775000  0.02337000
   0.66649000  0.66775000  0.02337000
   0.21719772  0.08804159  0.65602166
   0.19825471  0.23900937  0.65024992
   0.23637945  0.96726950  0.66117810
Direct configuration=    17
   0.99982241  0.00110159  0.43500751
   0.11093000  0.22330000  0.16024000
   0.22208607  0.11231843  0.29710555
   0.33309656  0.00107824  0.43495606
   0.44426000  0.22330000  0.16024000
   0.55536874  0.11214313  0.29699310
   0.66655844  0.00111654  0.43485070
   0.77760000  0.22330000  0.16024000
   0.88868113  0.11220509  0.29702993
   0.99983788  0.33429955  0.43505527
   0.11093000  0.55664000  0.16024000
   0.22203090  0.44548825  0.29710431
   0.33300568  0.33424516  0.43532418
   0.44426000  0.55664000  0.16024000
   0.55525523  0.44549395  0.29704308
   0.66644312  0.33439425  0.43481895
   0.77760000  0.55664000  0.16024000
   0.88880468  0.44550416  0.29705505
   0.99983058  0.66785974  0.43489242
   0.11093000  0.88997000  0.16024000
   0.22205796  0.77885951  0.29701426
   0.33316453  0.66777975  0.43487000
   0.44426000  0.88997000  0.16024000
   0.55533986  0.77880116  0.29702513
   0.66652591  0.66778649  0.43485268
   0.77760000  0.88997000  0.16024000
   0.88876379  0.77893444  0.29703201
   0.99982000  0.00108000  0.02337000
   0.33315000  0.00108000  0.02337000
   0.66649000  0.00108000  0.02337000
   0.99982000  0.33441000  0.02337000
   0.33315000  0.33441000  0.02337000
   0.66649000  0.33441000  0.02337000
   0.99982000  0.66775000  0.02337000
   0.33315000  0.66775000  0.02337000
   0.66649000  0.66775000  0.02337000
   0.21516410  0.10647717  0.65599907
   0.19997673  0.23062630  0.65129931
   0.23772042  0.95796272  0.66226753
Direct configuration=    18
   0.99983978  0.00111372  0.43503734
   0.11093000  0.22330000  0.16024000
   0.22208844  0.11231548  0.29711746
   0.33309262  0.00108656  0.43500302
   0.44426000  0.22330000  0.16024000
   0.55536543  0.11214216  0.29700655
   0.66656268  0.00111597  0.43488189
   0.77760000  0.22330000  0.16024000
   0.88867967  0.11220276  0.29704521
   0.99984968  0.33429755  0.43508761
   0.11093000  0.55664000  0.16024000
   0.22202915  0.44549144  0.29711785
   0.33301066  0.33423948  0.43532991
   0.44426000  0.55664000  0.16024000
   0.55527144  0.44550118  0.29705042
   0.66643839  0.33439573  0.43484963
   0.77760000  0.55664000  0.16024000
   0.88880689  0.44551122  0.29706980
   0.99983183  0.66786143  0.43492690
   0.11093000  0.88997000  0.16024000
   0.22205706  0.77886130  0.29702953
   0.33316195  0.66776942  0.43490309
   0.44426000  0.88997000  0.16024000
   0.55533831  0.77880022  0.29703936
   0.66652012  0.66778071  0.43488272
   0.77760000  0.88997000  0.16024000
   0.88876277  0.77892991  0.29704347
   0.99982000  0.00108000  0.02337000
   0.33315000  0.00108000  0.02337000
   0.66649000  0.00108000  0.02337000
   0.99982000  0.33441000  0.02337000
   0.33315000  0.33441000  0.02337000
   0.66649000  0.33441000  0.02337000
   0.99982000  0.66775000  0.02337000
   0.33315000  0.66775000  0.02337000
   0.66649000  0.66775000  0.02337000
   0.21770675  0.08845381  0.65772621
   0.19870996  0.23939439  0.65197411
   0.23629318  0.96706040  0.66279507
Direct configuration=    19
   0.99983048  0.00110037  0.43508756
   0.11093000  0.22330000  0.16024000
   0.22208767  0.11231774  0.29714741
   0.33309970  0.00107976  0.43504273
   0.44426000  0.22330000  0.16024000
   0.55536501  0.11214313  0.29703496
   0.66655981  0.00111322  0.43493548
   0.77760000  0.22330000  0.16024000
   0.88868029  0.11220201  0.29707266
   0.99984193  0.33430055  0.43513628
   0.11093000  0.55664000  0.16024000
   0.22202827  0.44548948  0.29714567
   0.33302218  0.33424952  0.43538069
   0.44426000  0.55664000  0.16024000
   0.55526857  0.44550107  0.29708016
   0.66643960  0.33439643  0.43490184
   0.77760000  0.55664000  0.16024000
   0.88880752  0.44551334  0.29709680
   0.99982961  0.66785762  0.43497889
   0.11093000  0.88997000  0.16024000
   0.22205462  0.77885998  0.29705753
   0.33316075  0.66777569  0.43495504
   0.44426000  0.88997000  0.16024000
   0.55533732  0.77880036  0.29706681
   0.66652331  0.66778345  0.43493523
   0.77760000  0.88997000  0.16024000
   0.88876364  0.77893295  0.29707165
   0.99982000  0.00108000  0.02337000
   0.33315000  0.00108000  0.02337000
   0.66649000  0.00108000  0.02337000
   0.99982000  0.33441000  0.02337000
   0.33315000  0.33441000  0.02337000
   0.66649000  0.33441000  0.02337000
   0.99982000  0.66775000  0.02337000
   0.33315000  0.66775000  0.02337000
   0.66649000  0.66775000  0.02337000
   0.21565809  0.10689874  0.65764017
   0.20041538  0.23080699  0.65296307
   0.23758334  0.95788579  0.66380919
Direct configuration=    20
   0.99982040  0.00108918  0.43512956
   0.11093000  0.22330000  0.16024000
   0.22208989  0.11231585  0.29717648
   0.33309983  0.00107883  0.43510161
   0.44426000  0.22330000  0.16024000
   0.55535938  0.11214142  0.29706386
   0.66656568  0.00111354  0.43498745
   0.77760000  0.22330000  0.16024000
   0.88868021  0.11219958  0.29710077
   0.99983774  0.33429959  0.43518058
   0.11093000  0.55664000  0.16024000
   0.22202656  0.44548955  0.29717243
   0.33303753  0.33426990  0.43540556
   0.44426000  0.55664000  0.16024000
   0.55527324  0.44550420  0.29710739
   0.66643986  0.33440028  0.43495271
   0.77760000  0.55664000  0.16024000
   0.88880764  0.44552083  0.29712280
   0.99982383  0.66785064  0.43503116
   0.11093000  0.88997000  0.16024000
   0.22205262  0.77886048  0.29708430
   0.33316013  0.66777093  0.43500513
   0.44426000  0.88997000  0.16024000
   0.55533759  0.77880177  0.29709239
   0.66652289  0.66778239  0.43498592
   0.77760000  0.88997000  0.16024000
   0.88876370  0.77892997  0.29709707
   0.99982000  0.00108000  0.02337000