   39   39 1000    1
  0.2533726E+02  0.8309900E-09  0.8309900E-09  0.1652350E-08  0.0000000E+00
  1.000000000000000E-004
  CAR 
 PBE-grap                                
    376     24    228
