       N       E                     dE             d eps       ncg     rms          rms(c)
DAV:   1     0.210024311523E+04    0.21002E+04   -0.15212E+05 10968   0.116E+03
DAV:   2    -0.952969706524E+02   -0.21955E+04   -0.20685E+04 11888   0.293E+02
DAV:   3    -0.210941996250E+03   -0.11565E+03   -0.10580E+03 12224   0.616E+01
DAV:   4    -0.214233715673E+03   -0.32917E+01   -0.32409E+01 12568   0.104E+01
DAV:   5    -0.214398867438E+03   -0.16515E+00   -0.16412E+00 16984   0.212E+00    0.396E+01
DAV:   6    -0.204846467510E+03    0.95524E+01   -0.32788E+01 11636   0.140E+01    0.196E+01
DAV:   7    -0.208560026748E+03   -0.37136E+01   -0.77692E+00 12088   0.155E+01    0.230E+01
DAV:   8    -0.206212978722E+03    0.23470E+01   -0.13061E+01 13032   0.168E+01    0.149E+01
DAV:   9    -0.207944477112E+03   -0.17315E+01   -0.11312E+01 12936   0.170E+01    0.168E+01
DAV:  10    -0.205029329982E+03    0.29151E+01   -0.47996E+00 12648   0.117E+01    0.953E+00
DAV:  11    -0.204017363157E+03    0.10120E+01   -0.14662E+00 12456   0.618E+00    0.153E+00
DAV:  12    -0.204012954624E+03    0.44085E-02   -0.20826E-01 11816   0.149E+00    0.933E-01
DAV:  13    -0.204010716092E+03    0.22385E-02   -0.34613E-02 11412   0.896E-01    0.639E-01
DAV:  14    -0.204008839014E+03    0.18771E-02   -0.14294E-02 11756   0.591E-01    0.608E-01
DAV:  15    -0.204006382314E+03    0.24567E-02   -0.80939E-03 11696   0.480E-01    0.466E-01
DAV:  16    -0.204002825356E+03    0.35570E-02   -0.55294E-03 11680   0.369E-01    0.172E-01
DAV:  17    -0.204002364440E+03    0.46092E-03   -0.17806E-03 11752   0.202E-01    0.143E-01
DAV:  18    -0.204001862963E+03    0.50148E-03   -0.14546E-03 11664   0.160E-01    0.163E-01
DAV:  19    -0.204001707119E+03    0.15584E-03   -0.82416E-04 11788   0.141E-01    0.123E-01
DAV:  20    -0.204001637886E+03    0.69233E-04   -0.47635E-04 11820   0.108E-01    0.565E-02
DAV:  21    -0.204001797834E+03   -0.15995E-03   -0.22579E-04 11864   0.624E-02    0.718E-02
DAV:  22    -0.204001884421E+03   -0.86588E-04   -0.15431E-04 11540   0.583E-02    0.417E-02
DAV:  23    -0.204001994323E+03   -0.10990E-03   -0.67168E-05 10020   0.327E-02    0.215E-02
DAV:  24    -0.204002016568E+03   -0.22245E-04   -0.14174E-05  7496   0.175E-02    0.124E-02
DAV:  25    -0.204002057003E+03   -0.40434E-04   -0.76076E-06  7452   0.106E-02    0.104E-02
DAV:  26    -0.204002072809E+03   -0.15807E-04   -0.36197E-06  7016   0.906E-03    0.762E-03
DAV:  27    -0.204002089144E+03   -0.16335E-04   -0.35892E-06  7328   0.561E-03    0.443E-03
DAV:  28    -0.204002090927E+03   -0.17823E-05   -0.76541E-07  6760   0.341E-03
   1 F= -.20400209E+03 E0= -.20138398E+03  d E =-.204002E+03
       N       E                     dE             d eps       ncg     rms          rms(c)
DAV:   1    -0.204002479448E+03   -0.39030E-03   -0.59419E-03 11004   0.975E-02    0.950E-03
DAV:   2    -0.204002487220E+03   -0.77720E-05   -0.79242E-05  7384   0.159E-02    0.110E-02
DAV:   3    -0.204002487886E+03   -0.66620E-06   -0.80265E-06  6352   0.132E-02    0.129E-02
DAV:   4    -0.204002487406E+03    0.48058E-06   -0.53290E-06  6000   0.111E-02
   2 F= -.20400249E+03 E0= -.20138436E+03  d E =-.396479E-03
       N       E                     dE             d eps       ncg     rms          rms(c)
DAV:   1    -0.204003183660E+03   -0.69577E-03   -0.22972E-02 10968   0.192E-01    0.196E-02
DAV:   2    -0.204003215034E+03   -0.31374E-04   -0.31206E-04 11308   0.338E-02    0.290E-02
DAV:   3    -0.204003212868E+03    0.21656E-05   -0.27580E-05  7104   0.273E-02    0.247E-02
DAV:   4    -0.204003211498E+03    0.13702E-05   -0.19346E-05  6632   0.218E-02
   3 F= -.20400321E+03 E0= -.20138504E+03  d E =-.724093E-03
       N       E                     dE             d eps       ncg     rms          rms(c)
DAV:   1    -0.204004089598E+03   -0.87673E-03   -0.49755E-02 10960   0.286E-01    0.311E-02
DAV:   2    -0.204004158320E+03   -0.68721E-04   -0.68716E-04 11572   0.542E-02    0.466E-02
DAV:   3    -0.204004152015E+03    0.63040E-05   -0.70997E-05  8948   0.436E-02    0.390E-02
DAV:   4    -0.204004146880E+03    0.51358E-05   -0.46038E-05  6804   0.337E-02
   4 F= -.20400415E+03 E0= -.20138598E+03  d E =-.935381E-03
       N       E                     dE             d eps       ncg     rms          rms(c)
DAV:   1    -0.204005052858E+03   -0.90084E-03   -0.85168E-02 10952   0.378E-01    0.450E-02
DAV:   2    -0.204005226980E+03   -0.17412E-03   -0.12609E-03 11620   0.946E-02    0.980E-02
DAV:   3    -0.204005153294E+03    0.73686E-04   -0.17620E-04 12120   0.754E-02    0.470E-02
DAV:   4    -0.204005155454E+03   -0.21598E-05   -0.90297E-05  7512   0.465E-02
   5 F= -.20400516E+03 E0= -.20138691E+03  d E =-.100857E-02
       N       E                     dE             d eps       ncg     rms          rms(c)
DAV:   1    -0.204005937166E+03   -0.78387E-03   -0.12576E-01 10952   0.466E-01    0.567E-02
DAV:   2    -0.204006165262E+03   -0.22810E-03   -0.19256E-03 11556   0.113E-01    0.107E-01
DAV:   3    -0.204006111221E+03    0.54040E-04   -0.32510E-04 11820   0.920E-02    0.781E-02
DAV:   4    -0.204006073098E+03    0.38123E-04   -0.15717E-04 11028   0.614E-02    0.472E-02
DAV:   5    -0.204006064980E+03    0.81181E-05   -0.40110E-05  8112   0.371E-02
   6 F= -.20400606E+03 E0= -.20138776E+03  d E =-.909526E-03
       N       E                     dE             d eps       ncg     rms          rms(c)
DAV:   1    -0.204006628797E+03   -0.55570E-03   -0.16996E-01 10944   0.556E-01    0.606E-02
DAV:   2    -0.204006860989E+03   -0.23219E-03   -0.24012E-03 11520   0.909E-02    0.676E-02
DAV:   3    -0.204006860465E+03    0.52401E-06   -0.15760E-04 12120   0.734E-02    0.667E-02
DAV:   4    -0.204006863822E+03   -0.33572E-05   -0.12928E-04  8636   0.582E-02    0.712E-02
DAV:   5    -0.204006822271E+03    0.41551E-04   -0.94164E-05  7904   0.498E-02    0.287E-02
DAV:   6    -0.204006826242E+03   -0.39712E-05   -0.36254E-05  7320   0.293E-02
   7 F= -.20400683E+03 E0= -.20138853E+03  d E =-.761262E-03
       N       E                     dE             d eps       ncg     rms          rms(c)
DAV:   1    -0.204007125096E+03   -0.30282E-03   -0.19820E-01 10944   0.619E-01    0.679E-02
DAV:   2    -0.204007432328E+03   -0.30723E-03   -0.31266E-03 11460   0.105E-01    0.793E-02
DAV:   3    -0.204007451908E+03   -0.19580E-04   -0.30794E-04 11868   0.879E-02    0.904E-02
DAV:   4    -0.204007421491E+03    0.30418E-04   -0.23314E-04 10552   0.751E-02    0.700E-02
DAV:   5    -0.204007382987E+03    0.38504E-04   -0.80973E-05  8420   0.505E-02    0.323E-02
DAV:   6    -0.204007392401E+03   -0.94141E-05   -0.41501E-05  8872   0.392E-02
   8 F= -.20400739E+03 E0= -.20138900E+03  d E =-.566159E-03
       N       E                     dE             d eps       ncg     rms          rms(c)
DAV:   1    -0.204006808011E+03    0.57498E-03   -0.14302E-01 10944   0.491E-01    0.940E-02
DAV:   2    -0.204007093888E+03   -0.28588E-03   -0.33291E-03 11264   0.106E-01    0.106E-01
DAV:   3    -0.204007109593E+03   -0.15706E-04   -0.47293E-04 12020   0.110E-01    0.117E-01
DAV:   4    -0.204007060952E+03    0.48641E-04   -0.39107E-04 11296   0.966E-02    0.975E-02
DAV:   5    -0.204006980838E+03    0.80114E-04   -0.19275E-04 10248   0.735E-02    0.449E-02
DAV:   6    -0.204006999279E+03   -0.18441E-04   -0.87075E-05 10860   0.580E-02    0.658E-02
DAV:   7    -0.204006953313E+03    0.45966E-04   -0.57236E-05  8980   0.487E-02    0.109E-02
DAV:   8    -0.204006955240E+03   -0.19269E-05   -0.12545E-05  5928   0.175E-02
   9 F= -.20400696E+03 E0= -.20138859E+03  d E =0.437161E-03
       N       E                     dE             d eps       ncg     rms          rms(c)
DAV:   1    -0.204007696496E+03   -0.74318E-03   -0.12924E-02 11040   0.103E-01    0.462E-02
DAV:   2    -0.204007724513E+03   -0.28017E-04   -0.49664E-04  6976   0.228E-02    0.373E-02
DAV:   3    -0.204007722297E+03    0.22168E-05   -0.36817E-05  7408   0.312E-02    0.423E-02
DAV:   4    -0.204007723567E+03   -0.12698E-05   -0.68446E-05  7092   0.427E-02
  10 F= -.20400772E+03 E0= -.20138936E+03  d E =-.768327E-03
       N       E                     dE             d eps       ncg     rms          rms(c)
DAV:   1    -0.204007791986E+03   -0.69690E-04   -0.23359E-02 10968   0.196E-01    0.780E-02
DAV:   2    -0.204008819706E+03   -0.10277E-02   -0.22752E-03 12672   0.225E-01    0.327E-01
DAV:   3    -0.204007887439E+03    0.93227E-03   -0.15707E-03 12788   0.202E-01    0.106E-01
DAV:   4    -0.204007796152E+03    0.91287E-04   -0.19215E-04 12372   0.737E-02    0.502E-02
DAV:   5    -0.204007776465E+03    0.19687E-04   -0.66608E-05  7488   0.352E-02    0.322E-02
DAV:   6    -0.204007786202E+03   -0.97372E-05   -0.92518E-05  9324   0.496E-02
  11 F= -.20400779E+03 E0= -.20138943E+03  d E =-.626356E-04
       N       E                     dE             d eps       ncg     rms          rms(c)
DAV:   1    -0.204007912192E+03   -0.13573E-03   -0.35900E-03 10968   0.818E-02    0.213E-02
DAV:   2    -0.204007921624E+03   -0.94320E-05   -0.10224E-04  6720   0.239E-02    0.240E-02
DAV:   3    -0.204007923072E+03   -0.14476E-05   -0.23076E-05  6812   0.256E-02    0.281E-02
DAV:   4    -0.204007920029E+03    0.30432E-05   -0.21739E-05  6404   0.232E-02
  12 F= -.20400792E+03 E0= -.20138953E+03  d E =-.133827E-03
       N       E                     dE             d eps       ncg     rms          rms(c)
DAV:   1    -0.204007992076E+03   -0.69004E-04   -0.89365E-03 10944   0.126E-01    0.253E-02
DAV:   2    -0.204008035813E+03   -0.43737E-04   -0.21399E-04 10944   0.513E-02    0.606E-02
DAV:   3    -0.204008007145E+03    0.28668E-04   -0.61104E-05  8556   0.449E-02    0.299E-02
DAV:   4    -0.204008003738E+03    0.34070E-05   -0.26111E-05  6484   0.249E-02
  13 F= -.20400800E+03 E0= -.20138964E+03  d E =-.837095E-04
       N       E                     dE             d eps       ncg     rms          rms(c)
DAV:   1    -0.204008076912E+03   -0.69767E-04   -0.10172E-02 10944   0.139E-01    0.208E-02
DAV:   2    -0.204008113767E+03   -0.36855E-04   -0.22348E-04 10860   0.455E-02    0.487E-02
DAV:   3    -0.204008097685E+03    0.16082E-04   -0.50460E-05  7192   0.380E-02    0.282E-02
DAV:   4    -0.204008092900E+03    0.47847E-05   -0.20088E-05  6352   0.216E-02
  14 F= -.20400809E+03 E0= -.20138970E+03  d E =-.891621E-04
       N       E                     dE             d eps       ncg     rms          rms(c)
DAV:   1    -0.204008174336E+03   -0.76651E-04   -0.18507E-02 10944   0.180E-01    0.264E-02
DAV:   2    -0.204008217189E+03   -0.42853E-04   -0.30791E-04 11112   0.473E-02    0.477E-02
DAV:   3    -0.204008203081E+03    0.14108E-04   -0.51280E-05  7980   0.401E-02    0.290E-02
DAV:   4    -0.204008203359E+03   -0.27753E-06   -0.33161E-05  6528   0.281E-02
  15 F= -.20400820E+03 E0= -.20138984E+03  d E =-.110459E-03
       N       E                     dE             d eps       ncg     rms          rms(c)
DAV:   1    -0.204008289981E+03   -0.86899E-04   -0.26650E-02 10944   0.219E-01    0.368E-02
DAV:   2    -0.204008395638E+03   -0.10566E-03   -0.54223E-04 11308   0.793E-02    0.875E-02
DAV:   3    -0.204008338709E+03    0.56930E-04   -0.15033E-04 11636   0.677E-02    0.477E-02
DAV:   4    -0.204008326324E+03    0.12384E-04   -0.59381E-05  6932   0.378E-02    0.308E-02
DAV:   5    -0.204008324318E+03    0.20059E-05   -0.19951E-05  7072   0.251E-02
  16 F= -.20400832E+03 E0= -.20138996E+03  d E =-.120960E-03
       N       E                     dE             d eps       ncg     rms          rms(c)
DAV:   1    -0.204008392314E+03   -0.65990E-04   -0.38528E-02 10944   0.260E-01    0.362E-02
DAV:   2    -0.204008457974E+03   -0.65660E-04   -0.62302E-04 10956   0.501E-02    0.422E-02
DAV:   3    -0.204008451534E+03    0.64401E-05   -0.50053E-05 10136   0.435E-02    0.334E-02
DAV:   4    -0.204008447285E+03    0.42487E-05   -0.20014E-05  7192   0.265E-02
  17 F= -.20400845E+03 E0= -.20139009E+03  d E =-.122967E-03
       N       E                     dE             d eps       ncg     rms          rms(c)
DAV:   1    -0.204008462359E+03   -0.10825E-04   -0.27412E-02 10944   0.220E-01    0.511E-02
DAV:   2    -0.204009213333E+03   -0.75097E-03   -0.17765E-03 12788   0.178E-01    0.277E-01
DAV:   3    -0.204008503429E+03    0.70990E-03   -0.10440E-03 12948   0.155E-01    0.366E-02
DAV:   4    -0.204008499364E+03    0.40652E-05   -0.44239E-05  8720   0.286E-02
  18 F= -.20400850E+03 E0= -.20139015E+03  d E =-.520788E-04
       N       E                     dE             d eps       ncg     rms          rms(c)
DAV:   1    -0.204008615293E+03   -0.11186E-03   -0.81426E-03 10944   0.112E-01    0.382E-02
DAV:   2    -0.204008831191E+03   -0.21590E-03   -0.47723E-04 12164   0.113E-01    0.139E-01
DAV:   3    -0.204008626577E+03    0.20461E-03   -0.16337E-04 12152   0.903E-02    0.186E-02
DAV:   4    -0.204008631803E+03   -0.52255E-05   -0.28705E-05  6856   0.230E-02
  19 F= -.20400863E+03 E0= -.20139026E+03  d E =-.132439E-03
       N       E                     dE             d eps       ncg     rms          rms(c)
DAV:   1    -0.204008675726E+03   -0.49149E-04   -0.76869E-03 10944   0.119E-01    0.211E-02
DAV:   2    -0.204008748071E+03   -0.72345E-04   -0.22415E-04 10288   0.589E-02    0.833E-02
DAV:   3    -0.204008687878E+03    0.60194E-04   -0.10827E-04  7116   0.516E-02    0.214E-02
DAV:   4    -0.204008685762E+03    0.21153E-05   -0.18800E-05  6232   0.212E-02
  20 F= -.20400869E+03 E0= -.20139032E+03  d E =-.539595E-04
       N       E                     dE             d eps       ncg     rms          rms(c)
DAV:   1    -0.204008744149E+03   -0.56272E-04   -0.14869E-02 10944   0.156E-01    0.233E-02
DAV:   2    -0.204008765627E+03   -0.21478E-04   -0.22665E-04 10456   0.287E-02    0.206E-02
DAV:   3    -0.204008765987E+03   -0.35927E-06   -0.20783E-05  6648   0.249E-02    0.203E-02
DAV:   4    -0.204008770275E+03   -0.42885E-05   -0.19501E-05  6356   0.230E-02
  21 F= -.20400877E+03 E0= -.20139041E+03  d E =-.845130E-04
       N       E                     dE             d eps       ncg     rms          rms(c)
DAV:   1    -0.204008829289E+03   -0.63302E-04   -0.24897E-02 10944   0.200E-01    0.312E-02
DAV:   2    -0.204008912413E+03   -0.83124E-04   -0.44234E-04 11196   0.601E-02    0.762E-02
DAV:   3    -0.204008869217E+03    0.43196E-04   -0.12203E-04  8336   0.558E-02    0.342E-02
DAV:   4    -0.204008868774E+03    0.44280E-06   -0.33851E-05  7116   0.318E-02
  22 F= -.20400887E+03 E0= -.20139054E+03  d E =-.984991E-04
       N       E                     dE             d eps       ncg     rms          rms(c)
DAV:   1    -0.204008931980E+03   -0.62763E-04   -0.36014E-02 10944   0.243E-01    0.386E-02
DAV:   2    -0.204009001520E+03   -0.69540E-04   -0.58545E-04 10944   0.595E-02    0.538E-02
DAV:   3    -0.204008986196E+03    0.15324E-04   -0.78539E-05 11224   0.515E-02    0.376E-02
DAV:   4    -0.204008996380E+03   -0.10184E-04   -0.63827E-05  6824   0.400E-02    0.491E-02
DAV:   5    -0.204008981905E+03    0.14475E-04   -0.45050E-05  6932   0.351E-02    0.253E-02
DAV:   6    -0.204008977081E+03    0.48239E-05   -0.12196E-05  6276   0.224E-02
  23 F= -.20400898E+03 E0= -.20139061E+03  d E =-.108307E-03
       N       E                     dE             d eps       ncg     rms          rms(c)
DAV:   1    -0.204009045337E+03   -0.63432E-04   -0.49485E-02 10944   0.292E-01    0.383E-02
DAV:   2    -0.204009133077E+03   -0.87740E-04   -0.79199E-04 10944   0.615E-02    0.514E-02
DAV:   3    -0.204009135322E+03   -0.22448E-05   -0.12262E-04  9988   0.562E-02    0.541E-02
DAV:   4    -0.204009121199E+03    0.14123E-04   -0.79417E-05  6984   0.439E-02    0.354E-02
DAV:   5    -0.204009111193E+03    0.10006E-04   -0.18246E-05  6656   0.243E-02    0.116E-02
DAV:   6    -0.204009115036E+03   -0.38424E-05   -0.84343E-06  6072   0.184E-02
  24 F= -.20400912E+03 E0= -.20139074E+03  d E =-.137954E-03
       N       E                     dE             d eps       ncg     rms          rms(c)
DAV:   1    -0.204009135276E+03   -0.24083E-04   -0.54186E-02 10944   0.321E-01    0.446E-02
DAV:   2    -0.204009236190E+03   -0.10091E-03   -0.96846E-04 10944   0.627E-02    0.581E-02
DAV:   3    -0.204009241820E+03   -0.56296E-05   -0.14420E-04  9748   0.595E-02    0.634E-02
DAV:   4    -0.204009216246E+03    0.25574E-04   -0.82897E-05  7624   0.455E-02    0.341E-02
DAV:   5    -0.204009211255E+03    0.49911E-05   -0.24307E-05  7156   0.305E-02
  25 F= -.20400921E+03 E0= -.20139084E+03  d E =-.962191E-04
       N       E                     dE             d eps       ncg     rms          rms(c)
DAV:   1    -0.204009188949E+03    0.27297E-04   -0.23243E-02 10968   0.177E-01    0.496E-02
DAV:   2    -0.204009332161E+03   -0.14321E-03   -0.76854E-04 11760   0.931E-02    0.104E-01
DAV:   3    -0.204009227008E+03    0.10515E-03   -0.12047E-04 12184   0.753E-02    0.356E-02
DAV:   4    -0.204009217971E+03    0.90366E-05   -0.37004E-05  7144   0.289E-02
  26 F= -.20400922E+03 E0= -.20139087E+03  d E =-.671644E-05
       N       E                     dE             d eps       ncg     rms          rms(c)
DAV:   1    -0.204009318749E+03   -0.91742E-04   -0.20116E-03 10948   0.619E-02    0.239E-02
DAV:   2    -0.204009418161E+03   -0.99412E-04   -0.28646E-04 11412   0.786E-02    0.963E-02
DAV:   3    -0.204009343187E+03    0.74974E-04   -0.18133E-04  8744   0.675E-02    0.471E-02
DAV:   4    -0.204009321452E+03    0.21736E-04   -0.35967E-05  6892   0.303E-02    0.950E-03
DAV:   5    -0.204009321844E+03   -0.39217E-06   -0.61110E-06  5540   0.906E-03
  27 F= -.20400932E+03 E0= -.20139098E+03  d E =-.103873E-03
       N       E                     dE             d eps       ncg     rms          rms(c)
DAV:   1    -0.204009364634E+03   -0.43182E-04   -0.47846E-03 10944   0.887E-02    0.218E-02
DAV:   2    -0.204009377024E+03   -0.12390E-04   -0.12050E-04  6880   0.265E-02    0.298E-02
DAV:   3    -0.204009371531E+03    0.54923E-05   -0.13555E-05  7036   0.245E-02    0.189E-02
DAV:   4    -0.204009368682E+03    0.28498E-05   -0.67436E-06  6216   0.124E-02
  28 F= -.20400937E+03 E0= -.20139103E+03  d E =-.468379E-04
       N       E                     dE             d eps       ncg     rms          rms(c)
DAV:   1    -0.204009404036E+03   -0.32505E-04   -0.63059E-03 10944   0.994E-02    0.204E-02
DAV:   2    -0.204009521655E+03   -0.11762E-03   -0.28842E-04 10720   0.729E-02    0.108E-01
DAV:   3    -0.204009414615E+03    0.10704E-03   -0.16843E-04  8228   0.643E-02    0.193E-02
DAV:   4    -0.204009411582E+03    0.30332E-05   -0.13401E-05  6156   0.182E-02
  29 F= -.20400941E+03 E0= -.20139109E+03  d E =-.429003E-04
       N       E                     dE             d eps       ncg     rms          rms(c)
DAV:   1    -0.204009448612E+03   -0.33997E-04   -0.90472E-03 10944   0.121E-01    0.204E-02
DAV:   2    -0.204009473554E+03   -0.24942E-04   -0.17033E-04  9648   0.377E-02    0.381E-02
DAV:   3    -0.204009461434E+03    0.12120E-04   -0.28547E-05  6568   0.310E-02    0.164E-02
DAV:   4    -0.204009465439E+03   -0.40050E-05   -0.16560E-05  6212   0.196E-02
  30 F= -.20400947E+03 E0= -.20139114E+03  d E =-.538568E-04
       N       E                     dE             d eps       ncg     rms          rms(c)
DAV:   1    -0.204009500610E+03   -0.39176E-04   -0.15160E-02 10944   0.156E-01    0.257E-02
DAV:   2    -0.204009572161E+03   -0.71551E-04   -0.31158E-04 10904   0.587E-02    0.763E-02
DAV:   3    -0.204009525565E+03    0.46597E-04   -0.10596E-04  7700   0.518E-02    0.290E-02
DAV:   4    -0.204009522248E+03    0.33164E-05   -0.23969E-05  6644   0.261E-02
  31 F= -.20400952E+03 E0= -.20139123E+03  d E =-.568095E-04
       N       E                     dE             d eps       ncg     rms          rms(c)
DAV:   1    -0.204009556217E+03   -0.30652E-04   -0.18675E-02 10944   0.177E-01    0.331E-02
DAV:   2    -0.204009621028E+03   -0.64811E-04   -0.38368E-04 11172   0.630E-02    0.655E-02
DAV:   3    -0.204009583293E+03    0.37735E-04   -0.70901E-05 11036   0.518E-02    0.279E-02
DAV:   4    -0.204009589650E+03   -0.63567E-05   -0.37304E-05  6588   0.301E-02
  32 F= -.20400959E+03 E0= -.20139129E+03  d E =-.674015E-04
       N       E                     dE             d eps       ncg     rms          rms(c)
DAV:   1    -0.204009581315E+03    0.19781E-05   -0.21552E-02 10944   0.182E-01    0.380E-02
DAV:   2    -0.204009807033E+03   -0.22572E-03   -0.74281E-04 11816   0.107E-01    0.145E-01
DAV:   3    -0.204009628776E+03    0.17826E-03   -0.34733E-04 11372   0.925E-02    0.485E-02
DAV:   4    -0.204009610585E+03    0.18191E-04   -0.49134E-05  8084   0.374E-02    0.246E-02
DAV:   5    -0.204009610713E+03   -0.12746E-06   -0.17645E-05  6988   0.237E-02
  33 F= -.20400961E+03 E0= -.20139129E+03  d E =-.210630E-04
       N       E                     dE             d eps       ncg     rms          rms(c)
DAV:   1    -0.204009660462E+03   -0.49877E-04   -0.57340E-03 10944   0.912E-02    0.257E-02
DAV:   2    -0.204009686345E+03   -0.25882E-04   -0.19662E-04  7400   0.378E-02    0.404E-02
DAV:   3    -0.204009676195E+03    0.10150E-04   -0.30758E-05  7196   0.325E-02    0.279E-02
DAV:   4    -0.204009674526E+03    0.16691E-05   -0.20709E-05  6392   0.222E-02
  34 F= -.20400967E+03 E0= -.20139140E+03  d E =-.638128E-04
       N       E                     dE             d eps       ncg     rms          rms(c)
DAV:   1    -0.204009696935E+03   -0.20741E-04   -0.43013E-03 10944   0.804E-02    0.206E-02
DAV:   2    -0.204009768090E+03   -0.71155E-04   -0.17346E-04 11420   0.625E-02    0.806E-02
DAV:   3    -0.204009712236E+03    0.55854E-04   -0.10309E-04  8472   0.553E-02    0.341E-02
DAV:   4    -0.204009702230E+03    0.10006E-04   -0.20653E-05  6520   0.224E-02    0.101E-02
DAV:   5    -0.204009702809E+03   -0.57866E-06   -0.48919E-06  5496   0.108E-02
  35 F= -.20400970E+03 E0= -.20139142E+03  d E =-.282834E-04
       N       E                     dE             d eps       ncg     rms          rms(c)
DAV:   1    -0.204009725749E+03   -0.23519E-04   -0.72098E-03 10944   0.100E-01    0.164E-02
DAV:   2    -0.204009739347E+03   -0.13598E-04   -0.11345E-04  6736   0.225E-02    0.232E-02
DAV:   3    -0.204009738757E+03    0.59080E-06   -0.20066E-05  6412   0.227E-02    0.216E-02
DAV:   4    -0.204009737510E+03    0.12463E-05   -0.12625E-05  6132   0.183E-02
  36 F= -.20400974E+03 E0= -.20139144E+03  d E =-.347013E-04
       N       E                     dE             d eps       ncg     rms          rms(c)
DAV:   1    -0.204009760577E+03   -0.21820E-04   -0.13236E-02 10944   0.131E-01    0.231E-02
DAV:   2    -0.204009788458E+03   -0.27881E-04   -0.20984E-04  8916   0.354E-02    0.361E-02
DAV:   3    -0.204009781665E+03    0.67933E-05   -0.31092E-05  7228   0.326E-02    0.253E-02
DAV:   4    -0.204009784190E+03   -0.25249E-05   -0.27599E-05  6464   0.257E-02
  37 F= -.20400978E+03 E0= -.20139153E+03  d E =-.466796E-04
       N       E                     dE             d eps       ncg     rms          rms(c)
DAV:   1    -0.204009803542E+03   -0.21877E-04   -0.19766E-02 10944   0.164E-01    0.315E-02
DAV:   2    -0.204009867162E+03   -0.63620E-04   -0.37207E-04 10940   0.597E-02    0.642E-02
DAV:   3    -0.204009841414E+03    0.25748E-04   -0.99842E-05  9156   0.536E-02    0.427E-02
DAV:   4    -0.204009831626E+03    0.97886E-05   -0.46893E-05  6688   0.340E-02
  38 F= -.20400983E+03 E0= -.20139155E+03  d E =-.474359E-04
       N       E                     dE             d eps       ncg     rms          rms(c)
DAV:   1    -0.204009852619E+03   -0.11205E-04   -0.28221E-02 10944   0.199E-01    0.390E-02
DAV:   2    -0.204009955108E+03   -0.10249E-03   -0.54947E-04 11264   0.804E-02    0.844E-02
DAV:   3    -0.204009902264E+03    0.52845E-04   -0.14414E-04 11552   0.683E-02    0.482E-02
DAV:   4    -0.204009891809E+03    0.10454E-04   -0.68957E-05  6928   0.404E-02    0.343E-02
DAV:   5    -0.204009890460E+03    0.13497E-05   -0.26918E-05  6776   0.294E-02
  39 F= -.20400989E+03 E0= -.20139161E+03  d E =-.588339E-04
       N       E                     dE             d eps       ncg     rms          rms(c)
DAV:   1    -0.204009864709E+03    0.27100E-04   -0.28467E-02 10944   0.211E-01    0.385E-02
DAV:   2    -0.204009909792E+03   -0.45083E-04   -0.53026E-04 10856   0.361E-02    0.320E-02
DAV:   3    -0.204009912876E+03   -0.30838E-05   -0.40713E-05  7628   0.335E-02    0.371E-02
DAV:   4    -0.204009916928E+03   -0.40522E-05   -0.53964E-05  7044   0.369E-02
  40 F= -.20400992E+03 E0= -.20139168E+03  d E =-.264686E-04
       N       E                     dE             d eps       ncg     rms          rms(c)
DAV:   1    -0.204009935379E+03   -0.22503E-04   -0.10598E-02 10964   0.115E-01    0.373E-02
DAV:   2    -0.204010200894E+03   -0.26551E-03   -0.69038E-04 12388   0.114E-01    0.160E-01
DAV:   3    -0.204009974874E+03    0.22602E-03   -0.40457E-04 11396   0.994E-02    0.523E-02
DAV:   4    -0.204009951352E+03    0.23522E-04   -0.45751E-05  7908   0.366E-02    0.230E-02
DAV:   5    -0.204009949579E+03    0.17726E-05   -0.16188E-05  6616   0.197E-02
  41 F= -.20400995E+03 E0= -.20139173E+03  d E =-.326508E-04
       N       E                     dE             d eps       ncg     rms          rms(c)
DAV:   1    -0.204009977763E+03   -0.26411E-04   -0.80692E-04 10944   0.415E-02    0.143E-02
DAV:   2    -0.204009999587E+03   -0.21825E-04   -0.68561E-05  8188   0.408E-02    0.437E-02
DAV:   3    -0.204009983111E+03    0.16477E-04   -0.33367E-05  6752   0.337E-02    0.228E-02
DAV:   4    -0.204009978865E+03    0.42457E-05   -0.95364E-06  5988   0.144E-02
  42 F= -.20400998E+03 E0= -.20139174E+03  d E =-.292861E-04
       N       E                     dE             d eps       ncg     rms          rms(c)
DAV:   1    -0.204009996655E+03   -0.13544E-04   -0.26657E-03 10944   0.600E-02    0.150E-02
DAV:   2    -0.204010003297E+03   -0.66426E-05   -0.53441E-05  6664   0.194E-02    0.210E-02
DAV:   3    -0.204010000357E+03    0.29407E-05   -0.68942E-06  5880   0.177E-02    0.127E-02
DAV:   4    -0.204010002561E+03   -0.22041E-05   -0.80967E-06  6004   0.144E-02
  43 F= -.20401000E+03 E0= -.20139178E+03  d E =-.236956E-04
       N       E                     dE             d eps       ncg     rms          rms(c)
DAV:   1    -0.204010015573E+03   -0.15216E-04   -0.58781E-03 10944   0.866E-02    0.182E-02
DAV:   2    -0.204010081133E+03   -0.65560E-04   -0.17927E-04  8512   0.551E-02    0.786E-02
DAV:   3    -0.204010025742E+03    0.55391E-04   -0.94571E-05  6956   0.490E-02    0.200E-02
DAV:   4    -0.204010023643E+03    0.20993E-05   -0.99846E-06  6320   0.176E-02
  44 F= -.20401002E+03 E0= -.20139178E+03  d E =-.210824E-04
       N       E                     dE             d eps       ncg     rms          rms(c)
DAV:   1    -0.204010040013E+03   -0.14270E-04   -0.10115E-02 10944   0.110E-01    0.217E-02
DAV:   2    -0.204010060057E+03   -0.20044E-04   -0.16786E-04  7752   0.333E-02    0.299E-02
DAV:   3    -0.204010054963E+03    0.50936E-05   -0.23553E-05  6796   0.290E-02    0.205E-02
DAV:   4    -0.204010058152E+03   -0.31894E-05   -0.20369E-05  6336   0.223E-02
  45 F= -.20401006E+03 E0= -.20139185E+03  d E =-.345093E-04
       N       E                     dE             d eps       ncg     rms          rms(c)
DAV:   1    -0.204010071120E+03   -0.16157E-04   -0.16301E-02 10944   0.143E-01    0.302E-02
DAV:   2    -0.204010179539E+03   -0.10842E-03   -0.37697E-04 11752   0.739E-02    0.964E-02
DAV:   3    -0.204010103607E+03    0.75932E-04   -0.16542E-04  9548   0.663E-02    0.408E-02
DAV:   4    -0.204010092418E+03    0.11188E-04   -0.37811E-05  7200   0.324E-02    0.226E-02
DAV:   5    -0.204010091695E+03    0.72328E-06   -0.11202E-05  6148   0.191E-02
  46 F= -.20401009E+03 E0= -.20139190E+03  d E =-.335426E-04
       N       E                     dE             d eps       ncg     rms          rms(c)
DAV:   1    -0.204010103124E+03   -0.10706E-04   -0.21609E-02 10944   0.170E-01    0.291E-02
DAV:   2    -0.204010135259E+03   -0.32135E-04   -0.34011E-04 10368   0.297E-02    0.250E-02
DAV:   3    -0.204010139618E+03   -0.43587E-05   -0.25017E-05  7440   0.307E-02    0.313E-02
DAV:   4    -0.204010136522E+03    0.30961E-05   -0.18597E-05  6956   0.255E-02
  47 F= -.20401014E+03 E0= -.20139195E+03  d E =-.448269E-04
       N       E                     dE             d eps       ncg     rms          rms(c)
DAV:   1    -0.204010108404E+03    0.31214E-04   -0.27716E-02 10944   0.186E-01    0.392E-02
DAV:   2    -0.204010502246E+03   -0.39384E-03   -0.10460E-03 12740   0.129E-01    0.196E-01
DAV:   3    -0.204010145569E+03    0.35668E-03   -0.53881E-04 12152   0.112E-01    0.267E-02
DAV:   4    -0.204010152731E+03   -0.71615E-05   -0.29913E-05  8036   0.316E-02
  48 F= -.20401015E+03 E0= -.20139203E+03  d E =-.162087E-04
       N       E                     dE             d eps       ncg     rms          rms(c)
DAV:   1    -0.204010159777E+03   -0.14208E-04   -0.85616E-03 10944   0.101E-01    0.318E-02
DAV:   2    -0.204010194234E+03   -0.34457E-04   -0.29522E-04  8256   0.406E-02    0.441E-02
DAV:   3    -0.204010180243E+03    0.13992E-04   -0.26624E-05  7812   0.350E-02    0.272E-02
DAV:   4    -0.204010178926E+03    0.13166E-05   -0.19278E-05  6624   0.219E-02
  49 F= -.20401018E+03 E0= -.20139202E+03  d E =-.261954E-04
       N       E                     dE             d eps       ncg     rms          rms(c)
DAV:   1    -0.204010217892E+03   -0.37650E-04   -0.17496E-03 11012   0.579E-02    0.375E-02
DAV:   2    -0.204011341584E+03   -0.11237E-02   -0.19186E-03 14244   0.210E-01    0.345E-01
DAV:   3    -0.204010212826E+03    0.11288E-02   -0.15580E-03 14052   0.186E-01    0.184E-02
DAV:   4    -0.204010211157E+03    0.16692E-05   -0.22731E-05  7732   0.191E-02
  50 F= -.20401021E+03 E0= -.20139206E+03  d E =-.322307E-04
       N       E                     dE             d eps       ncg     rms          rms(c)
DAV:   1    -0.204010222903E+03   -0.10077E-04   -0.41835E-03 10956   0.679E-02    0.149E-02
DAV:   2    -0.204010231222E+03   -0.83184E-05   -0.74666E-05  6776   0.231E-02    0.196E-02
DAV:   3    -0.204010228594E+03    0.26274E-05   -0.99223E-06  6056   0.194E-02    0.125E-02
DAV:   4    -0.204010230260E+03   -0.16664E-05   -0.80499E-06  5792   0.145E-02
  51 F= -.20401023E+03 E0= -.20139207E+03  d E =-.191038E-04
       N       E                     dE             d eps       ncg     rms          rms(c)
DAV:   1    -0.204010240460E+03   -0.11866E-04   -0.78180E-03 10944   0.897E-02    0.212E-02
DAV:   2    -0.204010310003E+03   -0.69544E-04   -0.21189E-04  9136   0.578E-02    0.799E-02
DAV:   3    -0.204010255134E+03    0.54869E-04   -0.10024E-04  7300   0.512E-02    0.261E-02
DAV:   4    -0.204010250921E+03    0.42125E-05   -0.14856E-05  6568   0.213E-02
  52 F= -.20401025E+03 E0= -.20139211E+03  d E =-.206610E-04
       N       E                     dE             d eps       ncg     rms          rms(c)
DAV:   1    -0.204010260072E+03   -0.49377E-05   -0.14512E-02 10944   0.119E-01    0.262E-02
DAV:   2    -0.204010286278E+03   -0.26206E-04   -0.23585E-04  8872   0.372E-02    0.315E-02
DAV:   3    -0.204010281183E+03    0.50945E-05   -0.27708E-05  7496   0.327E-02    0.235E-02
DAV:   4    -0.204010285592E+03   -0.44086E-05   -0.23562E-05  6448   0.255E-02
  53 F= -.20401029E+03 E0= -.20139214E+03  d E =-.346705E-04
       N       E                     dE             d eps       ncg     rms          rms(c)
DAV:   1    -0.204010289014E+03   -0.78311E-05   -0.21388E-02 10944   0.151E-01    0.375E-02
DAV:   2    -0.204010566955E+03   -0.27794E-03   -0.73308E-04 12540   0.113E-01    0.164E-01
DAV:   3    -0.204010326377E+03    0.24058E-03   -0.40884E-04 11572   0.997E-02    0.416E-02
DAV:   4    -0.204010316210E+03    0.10167E-04   -0.38372E-05  8016   0.354E-02    0.268E-02
DAV:   5    -0.204010314659E+03    0.15510E-05   -0.15691E-05  6904   0.236E-02
  54 F= -.20401031E+03 E0= -.20139216E+03  d E =-.290675E-04
       N       E                     dE             d eps       ncg     rms          rms(c)
DAV:   1    -0.204010306107E+03    0.10104E-04   -0.30841E-02 10944   0.180E-01    0.331E-02
DAV:   2    -0.204010347203E+03   -0.41097E-04   -0.46010E-04  9848   0.282E-02    0.203E-02
DAV:   3    -0.204010351304E+03   -0.41005E-05   -0.27082E-05  6740   0.264E-02    0.245E-02
DAV:   4    -0.204010348565E+03    0.27386E-05   -0.17405E-05  6208   0.243E-02
  55 F= -.20401035E+03 E0= -.20139221E+03  d E =-.339055E-04
       N       E                     dE             d eps       ncg     rms          rms(c)
DAV:   1    -0.204010282773E+03    0.68530E-04   -0.26135E-02 10944   0.164E-01    0.481E-02
DAV:   2    -0.204010812813E+03   -0.53004E-03   -0.13665E-03 12944   0.150E-01    0.230E-01
DAV:   3    -0.204010321069E+03    0.49174E-03   -0.75064E-04 12668   0.130E-01    0.357E-02
DAV:   4    -0.204010316401E+03    0.46673E-05   -0.41094E-05  7448   0.295E-02
  56 F= -.20401032E+03 E0= -.20139219E+03  d E =0.321636E-04
       N       E                     dE             d eps       ncg     rms          rms(c)
DAV:   1    -0.204010394505E+03   -0.73436E-04   -0.71984E-03 10964   0.878E-02    0.304E-02
DAV:   2    -0.204010465389E+03   -0.70885E-04   -0.33197E-04 11456   0.705E-02    0.747E-02
DAV:   3    -0.204010408689E+03    0.56700E-04   -0.73496E-05  9768   0.539E-02    0.205E-02
DAV:   4    -0.204010408524E+03    0.16573E-06   -0.16449E-05  6284   0.204E-02
  57 F= -.20401041E+03 E0= -.20139228E+03  d E =-.921222E-04
       N       E                     dE             d eps       ncg     rms          rms(c)
DAV:   1    -0.204010420654E+03   -0.11965E-04   -0.43763E-03 10944   0.722E-02    0.307E-02
DAV:   2    -0.204011008899E+03   -0.58824E-03   -0.10336E-03 13380   0.154E-01    0.249E-01
DAV:   3    -0.204010423453E+03    0.58545E-03   -0.82431E-04 12508   0.136E-01    0.208E-02
DAV:   4    -0.204010421271E+03    0.21820E-05   -0.17548E-05  6792   0.206E-02
  58 F= -.20401042E+03 E0= -.20139229E+03  d E =-.127470E-04
       N       E                     dE             d eps       ncg     rms          rms(c)
DAV:   1    -0.204010428728E+03   -0.52752E-05   -0.95187E-03 10944   0.931E-02    0.219E-02
DAV:   2    -0.204010448947E+03   -0.20220E-04   -0.15743E-04  6976   0.336E-02    0.312E-02
DAV:   3    -0.204010441615E+03    0.73329E-05   -0.20286E-05  6872   0.291E-02    0.168E-02
DAV:   4    -0.204010446664E+03   -0.50499E-05   -0.15812E-05  6284   0.213E-02
  59 F= -.20401045E+03 E0= -.20139233E+03  d E =-.253939E-04
       N       E                     dE             d eps       ncg     rms          rms(c)
DAV:   1    -0.204010445048E+03   -0.34337E-05   -0.17019E-02 10944   0.121E-01    0.319E-02
DAV:   2    -0.204010639207E+03   -0.19416E-03   -0.52142E-04 11828   0.928E-02    0.136E-01
DAV:   3    -0.204010473318E+03    0.16589E-03   -0.28122E-04  9932   0.822E-02    0.340E-02
DAV:   4    -0.204010467412E+03    0.59058E-05   -0.28340E-05  7316   0.306E-02
  60 F= -.20401047E+03 E0= -.20139233E+03  d E =-.207474E-04
       N       E                     dE             d eps       ncg     rms          rms(c)
DAV:   1    -0.204010461427E+03    0.11891E-04   -0.26598E-02 10944   0.150E-01    0.352E-02
DAV:   2    -0.204010505896E+03   -0.44470E-04   -0.41761E-04  9880   0.457E-02    0.388E-02
DAV:   3    -0.204010497908E+03    0.79879E-05   -0.51780E-05  8944   0.418E-02    0.275E-02
DAV:   4    -0.204010508529E+03   -0.10621E-04   -0.33316E-05  6736   0.326E-02    0.418E-02
DAV:   5    -0.204010499190E+03    0.93396E-05   -0.37871E-05  6552   0.310E-02
  61 F= -.20401050E+03 E0= -.20139239E+03  d E =-.317780E-04
       N       E                     dE             d eps       ncg     rms          rms(c)
DAV:   1    -0.204010481187E+03    0.27342E-04   -0.36415E-02 10944   0.181E-01    0.383E-02
DAV:   2    -0.204010552458E+03   -0.71271E-04   -0.57812E-04 10472   0.499E-02    0.539E-02
DAV:   3    -0.204010548659E+03    0.37994E-05   -0.10016E-04  8132   0.527E-02    0.514E-02
DAV:   4    -0.204010542627E+03    0.60311E-05   -0.72212E-05  7144   0.430E-02
  62 F= -.20401054E+03 E0= -.20139250E+03  d E =-.434376E-04
       N       E                     dE             d eps       ncg     rms          rms(c)
DAV:   1    -0.204010494720E+03    0.53938E-04   -0.48612E-02 10944   0.212E-01    0.475E-02
DAV:   2    -0.204010608242E+03   -0.11352E-03   -0.81089E-04 11168   0.742E-02    0.748E-02
DAV:   3    -0.204010562248E+03    0.45994E-04   -0.97542E-05 11796   0.647E-02    0.374E-02
DAV:   4    -0.204010588461E+03   -0.26213E-04   -0.83318E-05  7892   0.470E-02    0.623E-02
DAV:   5    -0.204010564528E+03    0.23934E-04   -0.80449E-05  6912   0.449E-02    0.338E-02
DAV:   6    -0.204010554856E+03    0.96719E-05   -0.21291E-05  6604   0.274E-02
  63 F= -.20401055E+03 E0= -.20139247E+03  d E =-.122286E-04
       N       E                     dE             d eps       ncg     rms          rms(c)
DAV:   1    -0.204010386353E+03    0.17817E-03   -0.34424E-02 10944   0.178E-01    0.517E-02
DAV:   2    -0.204010454241E+03   -0.67888E-04   -0.83415E-04 10688   0.499E-02    0.535E-02
DAV:   3    -0.204010461411E+03   -0.71701E-05   -0.11929E-04  9212   0.553E-02    0.641E-02
DAV:   4    -0.204010444525E+03    0.16886E-04   -0.10429E-04  7372   0.496E-02    0.481E-02
DAV:   5    -0.204010428203E+03    0.16321E-04   -0.62060E-05  7400   0.402E-02    0.250E-02
DAV:   6    -0.204010426962E+03    0.12410E-05   -0.24067E-05  7052   0.276E-02
  64 F= -.20401043E+03 E0= -.20139235E+03  d E =0.127894E-03
       N       E                     dE             d eps       ncg     rms          rms(c)
DAV:   1    -0.204010583758E+03   -0.15555E-03   -0.37888E-03 10348   0.585E-02    0.237E-02
DAV:   2    -0.204010596398E+03   -0.12640E-04   -0.11770E-04  6728   0.267E-02    0.313E-02
DAV:   3    -0.204010590177E+03    0.62211E-05   -0.14654E-05  6944   0.264E-02    0.213E-02
DAV:   4    -0.204010596145E+03   -0.59679E-05   -0.25441E-05  6848   0.246E-02
  65 F= -.20401060E+03 E0= -.20139255E+03  d E =-.169183E-03
       N       E                     dE             d eps       ncg     rms          rms(c)
DAV:   1    -0.204010601273E+03   -0.11096E-04   -0.80012E-03 10944   0.853E-02    0.283E-02
DAV:   2    -0.204010677219E+03   -0.75946E-04   -0.27753E-04  8844   0.621E-02    0.861E-02
DAV:   3    -0.204010614176E+03    0.63043E-04   -0.12915E-04  7788   0.563E-02    0.316E-02
DAV:   4    -0.204010609118E+03    0.50581E-05   -0.22514E-05  6924   0.266E-02
  66 F= -.20401061E+03 E0= -.20139253E+03  d E =-.129727E-04
       N       E                     dE             d eps       ncg     rms          rms(c)
DAV:   1    -0.204010616578E+03   -0.24024E-05   -0.63937E-03 10944   0.740E-02    0.206E-02
DAV:   2    -0.204010651478E+03   -0.34899E-04   -0.16845E-04  8616   0.459E-02    0.490E-02
DAV:   3    -0.204010628433E+03    0.23045E-04   -0.29211E-05  7592   0.366E-02    0.187E-02
DAV:   4    -0.204010628818E+03   -0.38523E-06   -0.14172E-05  6092   0.178E-02
  67 F= -.20401063E+03 E0= -.20139258E+03  d E =-.196999E-04
       N       E                     dE             d eps       ncg     rms          rms(c)
DAV:   1    -0.204010627460E+03    0.97227E-06   -0.13234E-02 10960   0.991E-02    0.265E-02
DAV:   2    -0.204010684364E+03   -0.56903E-04   -0.26368E-04  8712   0.526E-02    0.657E-02
DAV:   3    -0.204010651595E+03    0.32768E-04   -0.89509E-05  7340   0.481E-02    0.333E-02
DAV:   4    -0.204010646008E+03    0.55877E-05   -0.27725E-05  6864   0.281E-02
  68 F= -.20401065E+03 E0= -.20139257E+03  d E =-.171898E-04
       N       E                     dE             d eps       ncg     rms          rms(c)
DAV:   1    -0.204010640146E+03    0.11449E-04   -0.21654E-02 10960   0.125E-01    0.351E-02
DAV:   2    -0.204010708516E+03   -0.68370E-04   -0.39580E-04 11124   0.640E-02    0.658E-02
DAV:   3    -0.204010668202E+03    0.40314E-04   -0.63524E-05 10196   0.528E-02    0.273E-02
DAV:   4    -0.204010678827E+03   -0.10625E-04   -0.44564E-05  6700   0.337E-02    0.429E-02
DAV:   5    -0.204010670786E+03    0.80417E-05   -0.41166E-05  6584   0.322E-02
  69 F= -.20401067E+03 E0= -.20139261E+03  d E =-.247781E-04
       N       E                     dE             d eps       ncg     rms          rms(c)
DAV:   1    -0.204010644680E+03    0.34147E-04   -0.34036E-02 10960   0.161E-01    0.356E-02
DAV:   2    -0.204010693793E+03   -0.49113E-04   -0.50179E-04  7688   0.343E-02    0.303E-02
DAV:   3    -0.204010712309E+03   -0.18516E-04   -0.66677E-05  7652   0.440E-02    0.531E-02
DAV:   4    -0.204010702358E+03    0.99510E-05   -0.73841E-05  6800   0.422E-02
  70 F= -.20401070E+03 E0= -.20139269E+03  d E =-.315726E-04
       N       E                     dE             d eps       ncg     rms          rms(c)
DAV:   1    -0.204010638702E+03    0.73607E-04   -0.39261E-02 10960   0.172E-01    0.468E-02
DAV:   2    -0.204010740271E+03   -0.10157E-03   -0.70870E-04 11208   0.656E-02    0.742E-02
DAV:   3    -0.204010701199E+03    0.39072E-04   -0.91759E-05 11128   0.610E-02    0.446E-02
DAV:   4    -0.204010722819E+03   -0.21620E-04   -0.98098E-05  7552   0.485E-02    0.645E-02
DAV:   5    -0.204010688161E+03    0.34658E-04   -0.58335E-05  7296   0.404E-02    0.163E-02
DAV:   6    -0.204010689417E+03   -0.12556E-05   -0.10730E-05  6580   0.192E-02
  71 F= -.20401069E+03 E0= -.20139266E+03  d E =0.129418E-04
       N       E                     dE             d eps       ncg     rms          rms(c)
DAV:   1    -0.204010569929E+03    0.11823E-03   -0.34291E-02 10968   0.155E-01    0.464E-02
DAV:   2    -0.204010623806E+03   -0.53877E-04   -0.73508E-04  7488   0.315E-02    0.362E-02
DAV:   3    -0.204010637575E+03   -0.13769E-04   -0.73146E-05  7420   0.436E-02    0.576E-02
DAV:   4    -0.204010620356E+03    0.17219E-04   -0.89173E-05  7180   0.463E-02    0.396E-02
DAV:   5    -0.204010611049E+03    0.93071E-05   -0.48779E-05  7332   0.379E-02
  72 F= -.20401061E+03 E0= -.20139258E+03  d E =0.783677E-04
       N       E                     dE             d eps       ncg     rms          rms(c)
DAV:   1    -0.204010723388E+03   -0.10303E-03   -0.25750E-03  8648   0.515E-02    0.206E-02
DAV:   2    -0.204010739652E+03   -0.16264E-04   -0.11534E-04  6960   0.335E-02    0.368E-02
DAV:   3    -0.204010729167E+03    0.10485E-04   -0.24604E-05  6632   0.285E-02    0.187E-02
DAV:   4    -0.204010730063E+03   -0.89563E-06   -0.13300E-05  6104   0.176E-02
  73 F= -.20401073E+03 E0= -.20139271E+03  d E =-.119014E-03
       N       E                     dE             d eps       ncg     rms          rms(c)
DAV:   1    -0.204010743846E+03   -0.14679E-04   -0.66376E-03 10944   0.712E-02    0.289E-02
DAV:   2    -0.204010802696E+03   -0.58850E-04   -0.21818E-04  8692   0.561E-02    0.759E-02
DAV:   3    -0.204010757279E+03    0.45417E-04   -0.10308E-04  7896   0.522E-02    0.355E-02
DAV:   4    -0.204010750559E+03    0.67198E-05   -0.25872E-05  6968   0.275E-02
  74 F= -.20401075E+03 E0= -.20139270E+03  d E =-.204967E-04
       N       E                     dE             d eps       ncg     rms          rms(c)
DAV:   1    -0.204010745992E+03    0.11287E-04   -0.12404E-02 10952   0.936E-02    0.247E-02
DAV:   2    -0.204010778314E+03   -0.32322E-04   -0.23014E-04  8168   0.426E-02    0.409E-02
DAV:   3    -0.204010768061E+03    0.10253E-04   -0.38652E-05  7484   0.371E-02    0.286E-02
DAV:   4    -0.204010766650E+03    0.14111E-05   -0.28579E-05  6464   0.259E-02
  75 F= -.20401077E+03 E0= -.20139277E+03  d E =-.160905E-04
       N       E                     dE             d eps       ncg     rms          rms(c)
DAV:   1    -0.204010753530E+03    0.14531E-04   -0.20282E-02 11008   0.119E-01    0.346E-02
DAV:   2    -0.204010842383E+03   -0.88853E-04   -0.40394E-04 11400   0.689E-02    0.815E-02
DAV:   3    -0.204010792792E+03    0.49591E-04   -0.12723E-04  9528   0.616E-02    0.456E-02
DAV:   4    -0.204010781603E+03    0.11190E-04   -0.52989E-05  6952   0.366E-02    0.296E-02
DAV:   5    -0.204010779278E+03    0.23249E-05   -0.17709E-05  6904   0.247E-02
  76 F= -.20401078E+03 E0= -.20139278E+03  d E =-.126280E-04
       N       E                     dE             d eps       ncg     rms          rms(c)
DAV:   1    -0.204010750148E+03    0.31455E-04   -0.33812E-02 10976   0.151E-01    0.353E-02
DAV:   2    -0.204010796702E+03   -0.46554E-04   -0.49146E-04  7256   0.322E-02    0.271E-02
DAV:   3    -0.204010806770E+03   -0.10068E-04   -0.42546E-05  7704   0.387E-02    0.409E-02
DAV:   4    -0.204010808368E+03   -0.15975E-05   -0.52759E-05  6740   0.380E-02
  77 F= -.20401081E+03 E0= -.20139280E+03  d E =-.290898E-04
       N       E                     dE             d eps       ncg     rms          rms(c)
DAV:   1    -0.204010744373E+03    0.62397E-04   -0.42751E-02 10976   0.175E-01    0.476E-02
DAV:   2    -0.204010903112E+03   -0.15874E-03   -0.82008E-04 11552   0.820E-02    0.106E-01
DAV:   3    -0.204010820004E+03    0.83108E-04   -0.22433E-04 10228   0.771E-02    0.550E-02
DAV:   4    -0.204010813505E+03    0.64990E-05   -0.78034E-05  9260   0.476E-02
  78 F= -.20401081E+03 E0= -.20139287E+03  d E =-.513708E-05
       N       E                     dE             d eps       ncg     rms          rms(c)
DAV:   1    -0.204010664067E+03    0.15594E-03   -0.51875E-02 11008   0.191E-01    0.510E-02
DAV:   2    -0.204010761700E+03   -0.97633E-04   -0.97924E-04 10816   0.603E-02    0.568E-02
DAV:   3    -0.204010746524E+03    0.15176E-04   -0.77842E-05 10992   0.560E-02    0.450E-02
DAV:   4    -0.204010744423E+03    0.21015E-05   -0.51567E-05  8420   0.419E-02
  79 F= -.20401074E+03 E0= -.20139278E+03  d E =0.690821E-04
       N       E                     dE             d eps       ncg     rms          rms(c)
DAV:   1    -0.204010831334E+03   -0.84809E-04   -0.11767E-02 10944   0.111E-01    0.625E-02
DAV:   2    -0.204013044099E+03   -0.22128E-02   -0.36927E-03 14236   0.297E-01    0.483E-01
DAV:   3    -0.204010845402E+03    0.21987E-02   -0.27475E-03 14748   0.261E-01    0.401E-02
DAV:   4    -0.204010838364E+03    0.70381E-05   -0.57734E-05 11032   0.355E-02
  80 F= -.20401084E+03 E0= -.20139289E+03  d E =-.939408E-04
       N       E                     dE             d eps       ncg     rms          rms(c)
DAV:   1    -0.204010843026E+03    0.23762E-05   -0.76187E-03 10952   0.804E-02    0.234E-02
DAV:   2    -0.204010877337E+03   -0.34311E-04   -0.18373E-04  8852   0.463E-02    0.474E-02
DAV:   3    -0.204010856403E+03    0.20934E-04   -0.30506E-05  8096   0.376E-02    0.189E-02
DAV:   4    -0.204010859703E+03   -0.33004E-05   -0.19238E-05  6412   0.218E-02
  81 F= -.20401086E+03 E0= -.20139287E+03  d E =-.213397E-04
       N       E                     dE             d eps       ncg     rms          rms(c)
DAV:   1    -0.204010851428E+03    0.49748E-05   -0.13710E-02 10968   0.989E-02    0.301E-02
DAV:   2    -0.204010994869E+03   -0.14344E-03   -0.42368E-04 11312   0.829E-02    0.116E-01
DAV:   3    -0.204010875464E+03    0.11941E-03   -0.21971E-04  9124   0.732E-02    0.335E-02
DAV:   4    -0.204010868403E+03    0.70603E-05   -0.27664E-05  6920   0.292E-02
  82 F= -.20401087E+03 E0= -.20139291E+03  d E =-.870009E-05
       N       E                     dE             d eps       ncg     rms          rms(c)
DAV:   1    -0.204010853785E+03    0.21679E-04   -0.25122E-02 11040   0.130E-01    0.384E-02
DAV:   2    -0.204010936262E+03   -0.82478E-04   -0.45594E-04 11296   0.701E-02    0.731E-02
DAV:   3    -0.204010886773E+03    0.49489E-04   -0.74308E-05 10996   0.579E-02    0.307E-02
DAV:   4    -0.204010899142E+03   -0.12369E-04   -0.54290E-05  6924   0.370E-02    0.470E-02
DAV:   5    -0.204010888359E+03    0.10783E-04   -0.49567E-05  6696   0.354E-02    0.279E-02
DAV:   6    -0.204010881309E+03    0.70505E-05   -0.12749E-05  6264   0.219E-02
  83 F= -.20401088E+03 E0= -.20139290E+03  d E =-.129055E-04
       N       E                     dE             d eps       ncg     rms          rms(c)
DAV:   1    -0.204010849040E+03    0.39319E-04   -0.39111E-02 11008   0.157E-01    0.356E-02
DAV:   2    -0.204010901458E+03   -0.52418E-04   -0.56174E-04  7400   0.280E-02    0.231E-02
DAV:   3    -0.204010916690E+03   -0.15232E-04   -0.46509E-05  7180   0.363E-02    0.443E-02
DAV:   4    -0.204010908995E+03    0.76958E-05   -0.53754E-05  6596   0.365E-02
  84 F= -.20401091E+03 E0= -.20139294E+03  d E =-.276856E-04
       N       E                     dE             d eps       ncg     rms          rms(c)
DAV:   1    -0.204010850280E+03    0.66410E-04   -0.55312E-02 11032   0.190E-01    0.472E-02
DAV:   2    -0.204010948264E+03   -0.97983E-04   -0.84154E-04  9360   0.551E-02    0.595E-02
DAV:   3    -0.204010952330E+03   -0.40660E-05   -0.13948E-04  8812   0.624E-02    0.640E-02
DAV:   4    -0.204010946130E+03    0.61994E-05   -0.11709E-04  8328   0.541E-02    0.539E-02
DAV:   5    -0.204010922468E+03    0.23662E-04   -0.31031E-05  7760   0.372E-02    0.198E-02
DAV:   6    -0.204010923560E+03   -0.10917E-05   -0.15547E-05  6460   0.245E-02
  85 F= -.20401092E+03 E0= -.20139298E+03  d E =-.145651E-04
       N       E                     dE             d eps       ncg     rms          rms(c)
DAV:   1    -0.204010847632E+03    0.74836E-04   -0.72139E-02 10976   0.218E-01    0.485E-02
DAV:   2    -0.204010946121E+03   -0.98489E-04   -0.10514E-03  9128   0.352E-02    0.317E-02
DAV:   3    -0.204010995699E+03   -0.49579E-04   -0.11557E-04  8768   0.552E-02    0.774E-02
DAV:   4    -0.204010954842E+03    0.40857E-04   -0.11738E-04  7584   0.538E-02    0.394E-02
DAV:   5    -0.204010944971E+03    0.98707E-05   -0.32572E-05  6912   0.320E-02
  86 F= -.20401094E+03 E0= -.20139302E+03  d E =-.214116E-04
       N       E                     dE             d eps       ncg     rms          rms(c)
DAV:   1    -0.204010837104E+03    0.11774E-03   -0.93597E-02 10976   0.249E-01    0.601E-02
DAV:   2    -0.204011035953E+03   -0.19885E-03   -0.14897E-03 11416   0.915E-02    0.922E-02
DAV:   3    -0.204010966898E+03    0.69054E-04   -0.14512E-04 12304   0.797E-02    0.459E-02
DAV:   4    -0.204010976505E+03   -0.96071E-05   -0.74517E-05  9828   0.478E-02
  87 F= -.20401098E+03 E0= -.20139306E+03  d E =-.315340E-04
       N       E                     dE             d eps       ncg     rms          rms(c)
DAV:   1    -0.204010632548E+03    0.33435E-03   -0.77962E-02 11000   0.238E-01    0.902E-02
DAV:   2    -0.204012706483E+03   -0.20739E-02   -0.49490E-03 13612   0.296E-01    0.460E-01
DAV:   3    -0.204010744120E+03    0.19624E-02   -0.29756E-03 13928   0.258E-01    0.669E-02
DAV:   4    -0.204010737421E+03    0.66988E-05   -0.14185E-04 11504   0.604E-02    0.637E-02
DAV:   5    -0.204010726558E+03    0.10864E-04   -0.97282E-05 11220   0.601E-02    0.501E-02
DAV:   6    -0.204010717712E+03    0.88455E-05   -0.73744E-05 11016   0.527E-02
  88 F= -.20401072E+03 E0= -.20139283E+03  d E =0.258793E-03
       N       E                     dE             d eps       ncg     rms          rms(c)
DAV:   1    -0.204010974190E+03   -0.24763E-03   -0.85976E-03 10824   0.879E-02    0.341E-02
DAV:   2    -0.204010992088E+03   -0.17898E-04   -0.25462E-04  6872   0.308E-02    0.333E-02
DAV:   3    -0.204010989119E+03    0.29692E-05   -0.39882E-05  7144   0.345E-02    0.323E-02
DAV:   4    -0.204010998070E+03   -0.89514E-05   -0.51900E-05  7024   0.355E-02
  89 F= -.20401100E+03 E0= -.20139307E+03  d E =-.280358E-03
       N       E                     dE             d eps       ncg     rms          rms(c)
DAV:   1    -0.204010977851E+03    0.11268E-04   -0.13302E-02 10952   0.106E-01    0.328E-02
DAV:   2    -0.204011137307E+03   -0.15946E-03   -0.47556E-04 11280   0.878E-02    0.125E-01
DAV:   3    -0.204011000104E+03    0.13720E-03   -0.24584E-04  9244   0.780E-02    0.380E-02
DAV:   4    -0.204010990923E+03    0.91816E-05   -0.34299E-05  6908   0.314E-02
  90 F= -.20401099E+03 E0= -.20139309E+03  d E =0.714790E-05
       N       E                     dE             d eps       ncg     rms          rms(c)
DAV:   1    -0.204010981176E+03    0.18929E-04   -0.14500E-02 10968   0.983E-02    0.292E-02
DAV:   2    -0.204011036617E+03   -0.55442E-04   -0.31028E-04  9344   0.535E-02    0.586E-02
DAV:   3    -0.204011003558E+03    0.33059E-04   -0.41060E-05  8704   0.439E-02    0.203E-02
DAV:   4    -0.204011005519E+03   -0.19606E-05   -0.15044E-05  6692   0.203E-02
  91 F= -.20401101E+03 E0= -.20139309E+03  d E =-.145963E-04
       N       E                     dE             d eps       ncg     rms          rms(c)
DAV:   1    -0.204010982196E+03    0.21362E-04   -0.25157E-02 11032   0.130E-01    0.409E-02
DAV:   2    -0.204011565161E+03   -0.58296E-03   -0.12434E-03 13436   0.154E-01    0.243E-01
DAV:   3    -0.204011010770E+03    0.55439E-03   -0.74969E-04 12588   0.134E-01    0.208E-02
DAV:   4    -0.204011016455E+03   -0.56853E-05   -0.28880E-05  7520   0.274E-02
  92 F= -.20401102E+03 E0= -.20139313E+03  d E =-.109365E-04
       N       E                     dE             d eps       ncg     rms          rms(c)
DAV:   1    -0.204010967562E+03    0.43208E-04   -0.30225E-02 11064   0.141E-01    0.418E-02
DAV:   2    -0.204011047137E+03   -0.79574E-04   -0.55010E-04 10532   0.584E-02    0.651E-02
DAV:   3    -0.204011012671E+03    0.34466E-04   -0.53985E-05 10148   0.519E-02    0.329E-02
DAV:   4    -0.204011025212E+03   -0.12541E-04   -0.48672E-05  7196   0.348E-02    0.483E-02
DAV:   5    -0.204011010871E+03    0.14340E-04   -0.56624E-05  7012   0.374E-02    0.256E-02
DAV:   6    -0.204011007872E+03    0.29992E-05   -0.17038E-05  6448   0.234E-02
  93 F= -.20401101E+03 E0= -.20139309E+03  d E =0.858306E-05
       N       E                     dE             d eps       ncg     rms          rms(c)
DAV:   1    -0.204010920923E+03    0.89948E-04   -0.39099E-02 11056   0.154E-01    0.408E-02
DAV:   2    -0.204010978179E+03   -0.57256E-04   -0.69054E-04  7472   0.327E-02    0.332E-02
DAV:   3    -0.204010991642E+03   -0.13462E-04   -0.70815E-05  7552   0.431E-02    0.517E-02
DAV:   4    -0.204010983630E+03    0.80115E-05   -0.78734E-05  7200   0.437E-02
  94 F= -.20401098E+03 E0= -.20139308E+03  d E =0.242422E-04
       N       E                     dE             d eps       ncg     rms          rms(c)
DAV:   1    -0.204010984980E+03    0.66612E-05   -0.16474E-02 10952   0.114E-01    0.399E-02
DAV:   2    -0.204011089377E+03   -0.10440E-03   -0.57736E-04 10688   0.726E-02    0.905E-02
DAV:   3    -0.204011032707E+03    0.56670E-04   -0.16549E-04  8340   0.639E-02    0.508E-02
DAV:   4    -0.204011015586E+03    0.17121E-04   -0.53722E-05  7632   0.360E-02    0.295E-02
DAV:   5    -0.204011010140E+03    0.54458E-05   -0.26188E-05  6672   0.210E-02
  95 F= -.20401101E+03 E0= -.20139312E+03  d E =-.265102E-04
       N       E                     dE             d eps       ncg     rms          rms(c)
DAV:   1    -0.204011034890E+03   -0.19304E-04   -0.13297E-02 10928   0.981E-02    0.379E-02
DAV:   2    -0.204011209106E+03   -0.17422E-03   -0.43940E-04 12156   0.102E-01    0.124E-01
DAV:   3    -0.204011046860E+03    0.16225E-03   -0.13459E-04 12244   0.818E-02    0.210E-02
DAV:   4    -0.204011056368E+03   -0.95089E-05   -0.39322E-05  6764   0.291E-02
  96 F= -.20401106E+03 E0= -.20139314E+03  d E =-.462282E-04
       N       E                     dE             d eps       ncg     rms          rms(c)
DAV:   1    -0.204011031705E+03    0.15154E-04   -0.17471E-02 10960   0.112E-01    0.334E-02
DAV:   2    -0.204011155404E+03   -0.12370E-03   -0.48017E-04 11548   0.825E-02    0.103E-01
DAV:   3    -0.204011074460E+03    0.80944E-04   -0.20795E-04  9372   0.728E-02    0.498E-02
DAV:   4    -0.204011053269E+03    0.21192E-04   -0.53063E-05  7064   0.366E-02    0.188E-02
DAV:   5    -0.204011054560E+03   -0.12917E-05   -0.11296E-05  6716   0.171E-02
  97 F= -.20401105E+03 E0= -.20139312E+03  d E =0.180814E-05
       N       E                     dE             d eps       ncg     rms          rms(c)
DAV:   1    -0.204011015349E+03    0.37919E-04   -0.34034E-02 11040   0.142E-01    0.368E-02
DAV:   2    -0.204011082568E+03   -0.67219E-04   -0.51111E-04  8488   0.488E-02    0.530E-02
DAV:   3    -0.204011067739E+03    0.14829E-04   -0.58802E-05  8760   0.483E-02    0.378E-02
DAV:   4    -0.204011084329E+03   -0.16590E-04   -0.76716E-05  7024   0.426E-02    0.551E-02
DAV:   5    -0.204011057207E+03    0.27122E-04   -0.34956E-05  6888   0.329E-02    0.104E-02
DAV:   6    -0.204011059597E+03   -0.23899E-05   -0.84614E-06  6016   0.168E-02
  98 F= -.20401106E+03 E0= -.20139316E+03  d E =-.503692E-05
       N       E                     dE             d eps       ncg     rms          rms(c)
DAV:   1    -0.204010993613E+03    0.63594E-04   -0.49792E-02 11040   0.169E-01    0.415E-02
DAV:   2    -0.204011060131E+03   -0.66518E-04   -0.73053E-04  7424   0.244E-02    0.265E-02
DAV:   3    -0.204011107457E+03   -0.47326E-04   -0.90196E-05  7460   0.478E-02    0.744E-02
DAV:   4    -0.204011060225E+03    0.47232E-04   -0.86449E-05  7392   0.461E-02    0.208E-02
DAV:   5    -0.204011064744E+03   -0.45186E-05   -0.15873E-05  6660   0.260E-02
  99 F= -.20401106E+03 E0= -.20139320E+03  d E =-.514665E-05
       N       E                     dE             d eps       ncg     rms          rms(c)
DAV:   1    -0.204010930383E+03    0.12984E-03   -0.72817E-02 11040   0.205E-01    0.492E-02
DAV:   2    -0.204011039056E+03   -0.10867E-03   -0.11144E-03  8760   0.486E-02    0.454E-02
DAV:   3    -0.204011045408E+03   -0.63519E-05   -0.80263E-05 10044   0.546E-02    0.516E-02
DAV:   4    -0.204011046604E+03   -0.11957E-05   -0.72038E-05  8008   0.463E-02
 100 F= -.20401105E+03 E0= -.20139318E+03  d E =0.181402E-04
       N       E                     dE             d eps       ncg     rms          rms(c)
DAV:   1    -0.204010814736E+03    0.23067E-03   -0.47155E-02 11064   0.179E-01    0.670E-02
DAV:   2    -0.204011284106E+03   -0.46937E-03   -0.17452E-03 12624   0.143E-01    0.208E-01
DAV:   3    -0.204010903329E+03    0.38078E-03   -0.67668E-04 12324   0.126E-01    0.613E-02
DAV:   4    -0.204010899820E+03    0.35087E-05   -0.80489E-05 10832   0.514E-02
 101 F= -.20401090E+03 E0= -.20139310E+03  d E =0.146784E-03
       N       E                     dE             d eps       ncg     rms          rms(c)
DAV:   1    -0.204011050073E+03   -0.14674E-03   -0.93602E-03 10980   0.103E-01    0.339E-02
DAV:   2    -0.204011181997E+03   -0.13192E-03   -0.40094E-04 11956   0.864E-02    0.103E-01
DAV:   3    -0.204011073440E+03    0.10856E-03   -0.98010E-05 11464   0.690E-02    0.268E-02
DAV:   4    -0.204011075106E+03   -0.16661E-05   -0.33199E-05  6796   0.267E-02
 102 F= -.20401108E+03 E0= -.20139318E+03  d E =-.175286E-03
       N       E                     dE             d eps       ncg     rms          rms(c)
DAV:   1    -0.204011056174E+03    0.17266E-04   -0.14330E-02 10936   0.986E-02    0.309E-02
DAV:   2    -0.204011102105E+03   -0.45931E-04   -0.28648E-04  8488   0.516E-02    0.597E-02
DAV:   3    -0.204011081813E+03    0.20292E-04   -0.93071E-05  7356   0.488E-02    0.405E-02
DAV:   4    -0.204011071453E+03    0.10360E-04   -0.39802E-05  6964   0.324E-02    0.231E-02
DAV:   5    -0.204011071054E+03    0.39975E-06   -0.13385E-05  6948   0.222E-02
 103 F= -.20401107E+03 E0= -.20139316E+03  d E =0.405206E-05
       N       E                     dE             d eps       ncg     rms          rms(c)
DAV:   1    -0.204011043932E+03    0.27521E-04   -0.19926E-02 10952   0.112E-01    0.310E-02
DAV:   2    -0.204011088720E+03   -0.44787E-04   -0.34559E-04  7376   0.416E-02    0.456E-02
DAV:   3    -0.204011076895E+03    0.11825E-04   -0.37013E-05  7864   0.389E-02    0.317E-02
DAV:   4    -0.204011082879E+03   -0.59836E-05   -0.42891E-05  6784   0.321E-02
 104 F= -.20401108E+03 E0= -.20139323E+03  d E =-.118250E-04
       N       E                     dE             d eps       ncg     rms          rms(c)
DAV:   1    -0.204011024235E+03    0.52660E-04   -0.34430E-02 10976   0.149E-01    0.389E-02
DAV:   2    -0.204011112597E+03   -0.88362E-04   -0.59539E-04  9644   0.615E-02    0.695E-02
DAV:   3    -0.204011086954E+03    0.25643E-04   -0.12704E-04  8604   0.590E-02    0.495E-02
DAV:   4    -0.204011078852E+03    0.81012E-05   -0.69005E-05  7360   0.419E-02
 105 F= -.20401108E+03 E0= -.20139316E+03  d E =0.402621E-05
       N       E                     dE             d eps       ncg     rms          rms(c)
DAV:   1    -0.204011003288E+03    0.83665E-04   -0.39098E-02 10960   0.158E-01    0.504E-02
DAV:   2    -0.204011126703E+03   -0.12341E-03   -0.78597E-04 11472   0.824E-02    0.872E-02
DAV:   3    -0.204011058174E+03    0.68528E-04   -0.10599E-04 11872   0.687E-02    0.383E-02
DAV:   4    -0.204011074669E+03   -0.16495E-04   -0.68458E-05  7892   0.429E-02    0.551E-02
DAV:   5    -0.204011065528E+03    0.91413E-05   -0.88203E-05  7364   0.464E-02
 106 F= -.20401107E+03 E0= -.20139317E+03  d E =0.133245E-04
       N       E                     dE             d eps       ncg     rms          rms(c)
DAV:   1    -0.204010938026E+03    0.13664E-03   -0.47761E-02 11040   0.179E-01    0.502E-02
DAV:   2    -0.204011083881E+03   -0.14586E-03   -0.99951E-04 11200   0.825E-02    0.950E-02
DAV:   3    -0.204011031215E+03    0.52667E-04   -0.22152E-04  9620   0.758E-02    0.632E-02
DAV:   4    -0.204011010811E+03    0.20404E-04   -0.10318E-04  8956   0.514E-02    0.426E-02
DAV:   5    -0.204011001394E+03    0.94165E-05   -0.34607E-05  7740   0.357E-02
 107 F= -.20401100E+03 E0= -.20139309E+03  d E =0.641339E-04
       N       E                     dE             d eps       ncg     rms          rms(c)
DAV:   1    -0.204011031647E+03   -0.20836E-04   -0.16759E-02 10920   0.112E-01    0.429E-02
DAV:   2    -0.204011106521E+03   -0.74874E-04   -0.52617E-04 10720   0.668E-02    0.717E-02
DAV:   3    -0.204011064879E+03    0.41642E-04   -0.75614E-05  9376   0.546E-02    0.401E-02
DAV:   4    -0.204011068948E+03   -0.40693E-05   -0.58155E-05  7104   0.368E-02
 108 F= -.20401107E+03 E0= -.20139321E+03  d E =-.675543E-04
       N       E                     dE             d eps       ncg     rms          rms(c)
DAV:   1    -0.204011065928E+03   -0.10488E-05   -0.13999E-02 10920   0.109E-01    0.391E-02
DAV:   2    -0.204011404814E+03   -0.33889E-03   -0.75291E-04 12768   0.131E-01    0.181E-01
DAV:   3    -0.204011120519E+03    0.28430E-03   -0.52276E-04 12572   0.116E-01    0.647E-02
DAV:   4    -0.204011081044E+03    0.39475E-04   -0.69389E-05  8856   0.430E-02    0.182E-02
DAV:   5    -0.204011082890E+03   -0.18460E-05   -0.16133E-05  6568   0.209E-02
 109 F= -.20401108E+03 E0= -.20139323E+03  d E =-.139419E-04
       N       E                     dE             d eps       ncg     rms          rms(c)
DAV:   1    -0.204011053941E+03    0.27104E-04   -0.19502E-02 10968   0.110E-01    0.285E-02
DAV:   2    -0.204011082423E+03   -0.28482E-04   -0.29361E-04  6832   0.230E-02    0.251E-02
DAV:   3    -0.204011096777E+03   -0.14354E-04   -0.43845E-05  7100   0.348E-02    0.459E-02
DAV:   4    -0.204011085983E+03    0.10794E-04   -0.43777E-05  6820   0.329E-02    0.279E-02
DAV:   5    -0.204011080067E+03    0.59164E-05   -0.95952E-06  6408   0.219E-02
 110 F= -.20401108E+03 E0= -.20139323E+03  d E =0.282345E-05
       N       E                     dE             d eps       ncg     rms          rms(c)
DAV:   1    -0.204011029954E+03    0.56029E-04   -0.36074E-02 11040   0.144E-01    0.365E-02
DAV:   2    -0.204011094472E+03   -0.64518E-04   -0.56263E-04  9256   0.525E-02    0.467E-02
DAV:   3    -0.204011078793E+03    0.15680E-04   -0.59366E-05  8788   0.465E-02    0.275E-02
DAV:   4    -0.204011091623E+03   -0.12830E-04   -0.36026E-05  6800   0.334E-02    0.450E-02
DAV:   5    -0.204011079040E+03    0.12583E-04   -0.41478E-05  6556   0.323E-02    0.248E-02
DAV:   6    -0.204011074231E+03    0.48090E-05   -0.11066E-05  6176   0.198E-02
 111 F= -.20401107E+03 E0= -.20139320E+03  d E =0.583591E-05
       N       E                     dE             d eps       ncg     rms          rms(c)
DAV:   1    -0.204010994066E+03    0.84974E-04   -0.48762E-02 11024   0.165E-01    0.428E-02
DAV:   2    -0.204011058161E+03   -0.64095E-04   -0.73224E-04  7472   0.270E-02    0.281E-02
DAV:   3    -0.204011065403E+03   -0.72418E-05   -0.35305E-05  7096   0.319E-02    0.358E-02
DAV:   4    -0.204011068814E+03   -0.34107E-05   -0.51762E-05  7136   0.376E-02
 112 F= -.20401107E+03 E0= -.20139323E+03  d E =0.541703E-05
       N       E                     dE             d eps       ncg     rms          rms(c)
DAV:   1    -0.204010891388E+03    0.17401E-03   -0.66529E-02 11048   0.205E-01    0.577E-02
DAV:   2    -0.204011334682E+03   -0.44329E-03   -0.16970E-03 12576   0.141E-01    0.197E-01
DAV:   3    -0.204010999341E+03    0.33534E-03   -0.63100E-04 12548   0.123E-01    0.582E-02
DAV:   4    -0.204010988070E+03    0.11271E-04   -0.10051E-04 10600   0.542E-02    0.474E-02
DAV:   5    -0.204010974525E+03    0.13545E-04   -0.36314E-05  7932   0.367E-02    0.274E-02
DAV:   6    -0.204010972681E+03    0.18435E-05   -0.27637E-05  7260   0.324E-02
 113 F= -.20401097E+03 E0= -.20139315E+03  d E =0.961324E-04
       N       E                     dE             d eps       ncg     rms          rms(c)
DAV:   1    -0.204010944533E+03    0.29992E-04   -0.24985E-02 10968   0.124E-01    0.536E-02
DAV:   2    -0.204010997390E+03   -0.52857E-04   -0.73233E-04  9088   0.502E-02    0.544E-02
DAV:   3    -0.204010986821E+03    0.10569E-04   -0.91188E-05  9400   0.510E-02    0.493E-02
DAV:   4    -0.204010999888E+03   -0.13067E-04   -0.10150E-04  7520   0.497E-02    0.639E-02
DAV:   5    -0.204010977073E+03    0.22815E-04   -0.11249E-04  7660   0.526E-02    0.403E-02
DAV:   6    -0.204010971964E+03    0.51083E-05   -0.41220E-05  7768   0.399E-02
 114 F= -.20401097E+03 E0= -.20139308E+03  d E =0.717169E-06
       N       E                     dE             d eps       ncg     rms          rms(c)
DAV:   1    -0.204011053050E+03   -0.75977E-04   -0.59511E-03  9656   0.727E-02    0.250E-02
DAV:   2    -0.204011073368E+03   -0.20318E-04   -0.15372E-04  6892   0.368E-02    0.396E-02
DAV:   3    -0.204011060141E+03    0.13227E-04   -0.24740E-05  6992   0.322E-02    0.187E-02
DAV:   4    -0.204011067909E+03   -0.77679E-05   -0.24736E-05  6932   0.252E-02
 115 F= -.20401107E+03 E0= -.20139322E+03  d E =-.959450E-04
       N       E                     dE             d eps       ncg     rms          rms(c)
DAV:   1    -0.204011043356E+03    0.16785E-04   -0.11950E-02 10920   0.941E-02    0.285E-02
DAV:   2    -0.204011234170E+03   -0.19081E-03   -0.46512E-04 11820   0.932E-02    0.136E-01
DAV:   3    -0.204011064637E+03    0.16953E-03   -0.28367E-04  9676   0.821E-02    0.343E-02
DAV:   4    -0.204011055571E+03    0.90661E-05   -0.25304E-05  7076   0.281E-02
 116 F= -.20401106E+03 E0= -.20139319E+03  d E =0.123386E-04
       N       E                     dE             d eps       ncg     rms          rms(c)
DAV:   1    -0.204011025460E+03    0.39177E-04   -0.22072E-02 10968   0.115E-01    0.334E-02
DAV:   2    -0.204011071126E+03   -0.45666E-04   -0.37251E-04  9120   0.497E-02    0.456E-02
DAV:   3    -0.204011055368E+03    0.15758E-04   -0.46690E-05  8784   0.429E-02    0.264E-02
DAV:   4    -0.204011060106E+03   -0.47380E-05   -0.25224E-05  6892   0.288E-02
 117 F= -.20401106E+03 E0= -.20139320E+03  d E =-.453525E-05
       N       E                     dE             d eps       ncg     rms          rms(c)
DAV:   1    -0.204011007148E+03    0.48220E-04   -0.39485E-02 11040   0.159E-01    0.505E-02
DAV:   2    -0.204011762101E+03   -0.75495E-03   -0.17398E-03 13576   0.178E-01    0.274E-01
DAV:   3    -0.204011056636E+03    0.70546E-03   -0.10823E-03 13424   0.156E-01    0.385E-02
DAV:   4    -0.204011059845E+03   -0.32087E-05   -0.54942E-05 10076   0.425E-02
 118 F= -.20401106E+03 E0= -.20139316E+03  d E =0.261170E-06
       N       E                     dE             d eps       ncg     rms          rms(c)
DAV:   1    -0.204010973881E+03    0.82755E-04   -0.55402E-02 10968   0.186E-01    0.543E-02
DAV:   2    -0.204011080967E+03   -0.10709E-03   -0.91558E-04 10960   0.735E-02    0.688E-02
DAV:   3    -0.204011051298E+03    0.29669E-04   -0.10419E-04 11816   0.654E-02    0.451E-02
DAV:   4    -0.204011050679E+03    0.61899E-06   -0.47926E-05  9084   0.432E-02
 119 F= -.20401105E+03 E0= -.20139317E+03  d E =0.916576E-05
       N       E                     dE             d eps       ncg     rms          rms(c)
DAV:   1    -0.204010898924E+03    0.15237E-03   -0.78945E-02 11040   0.223E-01    0.641E-02
DAV:   2    -0.204011921414E+03   -0.10225E-02   -0.27429E-03 13880   0.205E-01    0.316E-01
DAV:   3    -0.204010991646E+03    0.92977E-03   -0.14180E-03 13844   0.178E-01    0.360E-02
DAV:   4    -0.204011008135E+03   -0.16489E-04   -0.97857E-05 11224   0.452E-02    0.495E-02
DAV:   5    -0.204010988356E+03    0.19779E-04   -0.66463E-05  8944   0.422E-02    0.169E-02
DAV:   6    -0.204010992005E+03   -0.36492E-05   -0.19107E-05  6576   0.231E-02
 120 F= -.20401099E+03 E0= -.20139315E+03  d E =0.586735E-04
       N       E                     dE             d eps       ncg     rms          rms(c)
DAV:   1    -0.204010761718E+03    0.22664E-03   -0.45520E-02 10984   0.162E-01    0.645E-02
DAV:   2    -0.204010833627E+03   -0.71909E-04   -0.11105E-03  7864   0.347E-02    0.534E-02
DAV:   3    -0.204010879715E+03   -0.46088E-04   -0.14810E-04  8760   0.624E-02    0.918E-02
DAV:   4    -0.204010822383E+03    0.57332E-04   -0.18570E-04  7936   0.658E-02    0.487E-02
DAV:   5    -0.204010833669E+03   -0.11286E-04   -0.99702E-05  9652   0.574E-02    0.581E-02
DAV:   6    -0.204010800586E+03    0.33084E-04   -0.31850E-05  8440   0.406E-02    0.203E-02
DAV:   7    -0.204010796537E+03    0.40488E-05   -0.92421E-06  5960   0.170E-02
 121 F= -.20401080E+03 E0= -.20139296E+03  d E =0.195469E-03
       N       E                     dE             d eps       ncg     rms          rms(c)
DAV:   1    -0.204011010644E+03   -0.21006E-03   -0.63003E-03  9076   0.593E-02    0.267E-02
DAV:   2    -0.204011021015E+03   -0.10371E-04   -0.16822E-04  6752   0.198E-02    0.221E-02
DAV:   3    -0.204011021045E+03   -0.30042E-07   -0.19481E-05  6688   0.238E-02    0.253E-02
DAV:   4    -0.204011023186E+03   -0.21408E-05   -0.29670E-05  6844   0.265E-02
 122 F= -.20401102E+03 E0= -.20139319E+03  d E =-.226649E-03
       N       E                     dE             d eps       ncg     rms          rms(c)
DAV:   1    -0.204011018152E+03    0.28932E-05   -0.14332E-02 10928   0.100E-01    0.318E-02
DAV:   2    -0.204011093716E+03   -0.75564E-04   -0.36547E-04  9772   0.636E-02    0.828E-02
DAV:   3    -0.204011044591E+03    0.49125E-04   -0.13561E-04  8344   0.585E-02    0.405E-02
DAV:   4    -0.204011033731E+03    0.10860E-04   -0.39391E-05  7120   0.317E-02    0.243E-02
DAV:   5    -0.204011030895E+03    0.28353E-05   -0.12853E-05  6776   0.204E-02
 123 F= -.20401103E+03 E0= -.20139323E+03  d E =-.770974E-05
       N       E                     dE             d eps       ncg     rms          rms(c)
DAV:   1    -0.204011010186E+03    0.23544E-04   -0.17557E-02 10952   0.106E-01    0.304E-02
DAV:   2    -0.204011065955E+03   -0.55769E-04   -0.33812E-04  9984   0.538E-02    0.581E-02
DAV:   3    -0.204011035313E+03    0.30642E-04   -0.43071E-05  8792   0.437E-02    0.231E-02
DAV:   4    -0.204011044093E+03   -0.87793E-05   -0.32298E-05  6644   0.277E-02
 124 F= -.20401104E+03 E0= -.20139323E+03  d E =-.131975E-04
       N       E                     dE             d eps       ncg     rms          rms(c)
DAV:   1    -0.204010991075E+03    0.44238E-04   -0.32845E-02 11040   0.145E-01    0.415E-02
DAV:   2    -0.204011214371E+03   -0.22330E-03   -0.79120E-04 12360   0.101E-01    0.142E-01
DAV:   3    -0.204011045172E+03    0.16920E-03   -0.33061E-04 10860   0.902E-02    0.449E-02
DAV:   4    -0.204011035650E+03    0.95220E-05   -0.59043E-05  8764   0.408E-02
 125 F= -.20401104E+03 E0= -.20139326E+03  d E =0.844240E-05
       N       E                     dE             d eps       ncg     rms          rms(c)
DAV:   1    -0.204010967469E+03    0.77704E-04   -0.44163E-02 10984   0.164E-01    0.522E-02
DAV:   2    -0.204011113276E+03   -0.14581E-03   -0.83510E-04 11820   0.910E-02    0.985E-02
DAV:   3    -0.204011022691E+03    0.90585E-04   -0.12840E-04 12376   0.753E-02    0.363E-02
DAV:   4    -0.204011032441E+03   -0.97501E-05   -0.52485E-05  9184   0.396E-02
 126 F= -.20401103E+03 E0= -.20139325E+03  d E =0.320937E-05
       N       E                     dE             d eps       ncg     rms          rms(c)
DAV:   1    -0.204010906661E+03    0.11603E-03   -0.63701E-02 11000   0.207E-01    0.711E-02
DAV:   2    -0.204013063694E+03   -0.21570E-02   -0.41874E-03 14068   0.296E-01    0.469E-01
DAV:   3    -0.204010975028E+03    0.20887E-02   -0.26845E-03 14440   0.258E-01    0.390E-02
DAV:   4    -0.204010990115E+03   -0.15086E-04   -0.98503E-05 11368   0.499E-02    0.544E-02
DAV:   5    -0.204010969329E+03    0.20786E-04   -0.42084E-05  9136   0.423E-02    0.247E-02
DAV:   6    -0.204010968904E+03    0.42441E-06   -0.24359E-05  7116   0.295E-02
 127 F= -.20401097E+03 E0= -.20139317E+03  d E =0.635369E-04
       N       E                     dE             d eps       ncg     rms          rms(c)
DAV:   1    -0.204010854034E+03    0.11529E-03   -0.33835E-02 11032   0.140E-01    0.561E-02
DAV:   2    -0.204010909101E+03   -0.55068E-04   -0.83912E-04  7648   0.359E-02    0.469E-02
DAV:   3    -0.204010918303E+03   -0.92016E-05   -0.82933E-05  8392   0.473E-02    0.601E-02
DAV:   4    -0.204010912720E+03    0.55830E-05   -0.12593E-04  7416   0.549E-02    0.571E-02
DAV:   5    -0.204010899165E+03    0.13554E-04   -0.92118E-05  8712   0.507E-02    0.412E-02
DAV:   6    -0.204010889651E+03    0.95147E-05   -0.26731E-05  7836   0.360E-02
 128 F= -.20401089E+03 E0= -.20139304E+03  d E =0.792534E-04
       N       E                     dE             d eps       ncg     rms          rms(c)
DAV:   1    -0.204011019066E+03   -0.11990E-03   -0.76519E-03  9876   0.764E-02    0.279E-02
DAV:   2    -0.204011031954E+03   -0.12888E-04   -0.18638E-04  6744   0.224E-02    0.254E-02
DAV:   3    -0.204011032038E+03   -0.83204E-07   -0.18785E-05  7044   0.269E-02    0.274E-02
DAV:   4    -0.204011032771E+03   -0.73293E-06   -0.26219E-05  6952   0.270E-02
 129 F= -.20401103E+03 E0= -.20139322E+03  d E =-.143120E-03
       N       E                     dE             d eps       ncg     rms          rms(c)
DAV:   1    -0.204011012659E+03    0.19379E-04   -0.12392E-02 10920   0.966E-02    0.308E-02
DAV:   2    -0.204011359953E+03   -0.34729E-03   -0.69858E-04 12676   0.122E-01    0.188E-01
DAV:   3    -0.204011030477E+03    0.32948E-03   -0.47665E-04 11340   0.107E-01    0.297E-02
DAV:   4    -0.204011024513E+03    0.59635E-05   -0.19471E-05  7036   0.256E-02
 130 F= -.20401102E+03 E0= -.20139319E+03  d E =0.825754E-05
       N       E                     dE             d eps       ncg     rms          rms(c)
DAV:   1    -0.204010994535E+03    0.35942E-04   -0.22398E-02 10984   0.113E-01    0.304E-02
DAV:   2    -0.204011023933E+03   -0.29398E-04   -0.32825E-04  6984   0.245E-02    0.220E-02
DAV:   3    -0.204011028792E+03   -0.48591E-05   -0.27698E-05  6864   0.294E-02    0.296E-02
DAV:   4    -0.204011034183E+03   -0.53905E-05   -0.37513E-05  6512   0.309E-02
 131 F= -.20401103E+03 E0= -.20139324E+03  d E =-.966976E-05
       N       E                     dE             d eps       ncg     rms          rms(c)
DAV:   1    -0.204010969622E+03    0.59170E-04   -0.41297E-02 11040   0.159E-01    0.411E-02
DAV:   2    -0.204011078987E+03   -0.10937E-03   -0.70172E-04  8832   0.660E-02    0.811E-02
DAV:   3    -0.204011035037E+03    0.43950E-04   -0.16584E-04  8036   0.633E-02    0.463E-02
DAV:   4    -0.204011031839E+03    0.31985E-05   -0.71992E-05  7948   0.426E-02
 132 F= -.20401103E+03 E0= -.20139324E+03  d E =0.234396E-05
       N       E                     dE             d eps       ncg     rms          rms(c)
DAV:   1    -0.204010939102E+03    0.95935E-04   -0.61125E-02 10952   0.191E-01    0.510E-02
DAV:   2    -0.204011018001E+03   -0.78899E-04   -0.89069E-04  7832   0.366E-02    0.363E-02
DAV:   3    -0.204011039275E+03   -0.21274E-04   -0.80035E-05  9464   0.493E-02    0.557E-02
DAV:   4    -0.204011035051E+03    0.42239E-05   -0.83163E-05  7912   0.492E-02
 133 F= -.20401104E+03 E0= -.20139326E+03  d E =-.321207E-05
       N       E                     dE             d eps       ncg     rms          rms(c)
DAV:   1    -0.204010872964E+03    0.16631E-03   -0.89496E-02 10952   0.237E-01    0.639E-02
DAV:   2    -0.204011397737E+03   -0.52477E-03   -0.19645E-03 12704   0.148E-01    0.211E-01
DAV:   3    -0.204010999600E+03    0.39814E-03   -0.70703E-04 12460   0.131E-01    0.560E-02
DAV:   4    -0.204011013116E+03   -0.13516E-04   -0.11831E-04 11956   0.609E-02    0.631E-02
DAV:   5    -0.204010982167E+03    0.30949E-04   -0.42066E-05  8872   0.438E-02    0.226E-02
DAV:   6    -0.204010986460E+03   -0.42927E-05   -0.30840E-05  7304   0.312E-02
 134 F= -.20401099E+03 E0= -.20139322E+03  d E =0.485914E-04
       N       E                     dE             d eps       ncg     rms          rms(c)
DAV:   1    -0.204010674919E+03    0.30725E-03   -0.68435E-02 11032   0.197E-01    0.697E-02
DAV:   2    -0.204010776781E+03   -0.10186E-03   -0.14488E-03  8400   0.390E-02    0.546E-02
DAV:   3    -0.204010767650E+03    0.91313E-05   -0.72275E-05  8808   0.432E-02    0.512E-02
DAV:   4    -0.204010786297E+03   -0.18647E-04   -0.12630E-04 10240   0.615E-02    0.677E-02
DAV:   5    -0.204010808076E+03   -0.21779E-04   -0.21551E-04  9112   0.710E-02    0.806E-02
DAV:   6    -0.204010751461E+03    0.56615E-04   -0.10373E-04  8232   0.544E-02    0.310E-02
DAV:   7    -0.204010741106E+03    0.10355E-04   -0.13197E-05  6500   0.239E-02    0.867E-03
DAV:   8    -0.204010741104E+03    0.16444E-08   -0.47090E-06  5656   0.976E-03
 135 F= -.20401074E+03 E0= -.20139295E+03  d E =0.245355E-03
       N       E                     dE             d eps       ncg     rms          rms(c)
DAV:   1    -0.204010999183E+03   -0.25808E-03   -0.96482E-03  9960   0.724E-02    0.329E-02
DAV:   2    -0.204011013212E+03   -0.14030E-04   -0.25906E-04  6848   0.132E-02    0.240E-02
DAV:   3    -0.204011007151E+03    0.60618E-05   -0.11243E-05  6848   0.114E-02    0.162E-02
DAV:   4    -0.204011021707E+03   -0.14557E-04   -0.35909E-05  7116   0.314E-02    0.426E-02
DAV:   5    -0.204011012133E+03    0.95737E-05   -0.43798E-05  6616   0.330E-02
 136 F= -.20401101E+03 E0= -.20139321E+03  d E =-.271029E-03
       N       E                     dE             d eps       ncg     rms          rms(c)
DAV:   1    -0.204010989563E+03    0.32144E-04   -0.13676E-02 10920   0.956E-02    0.229E-02
DAV:   2    -0.204011017934E+03   -0.28371E-04   -0.24092E-04  6904   0.319E-02    0.341E-02
DAV:   3    -0.204011013672E+03    0.42626E-05   -0.30658E-05  7132   0.314E-02    0.285E-02
DAV:   4    -0.204011012443E+03    0.12284E-05   -0.24559E-05  6464   0.247E-02
 137 F= -.20401101E+03 E0= -.20139325E+03  d E =-.309967E-06
       N       E                     dE             d eps       ncg     rms          rms(c)
DAV:   1    -0.204010983516E+03    0.30155E-04   -0.18396E-02 10952   0.106E-01    0.294E-02
DAV:   2    -0.204011019354E+03   -0.35837E-04   -0.31070E-04  6952   0.352E-02    0.373E-02
DAV:   3    -0.204011018243E+03    0.11106E-05   -0.44359E-05  7204   0.373E-02    0.374E-02
DAV:   4    -0.204011016002E+03    0.22408E-05   -0.39515E-05  6584   0.315E-02
 138 F= -.20401102E+03 E0= -.20139321E+03  d E =-.355906E-05
       N       E                     dE             d eps       ncg     rms          rms(c)
[...]
       N       E                     dE             d eps       ncg     rms          rms(c)
DAV:   1    -0.204010971617E+03    0.73844E-05   -0.15655E-03  7704   0.316E-02    0.857E-03
DAV:   2    -0.204010974510E+03   -0.28937E-05   -0.25961E-05  6420   0.116E-02    0.107E-02
DAV:   3    -0.204010974857E+03   -0.34669E-06   -0.50585E-06  5588   0.118E-02    0.127E-02
DAV:   4    -0.204010973911E+03    0.94613E-06   -0.36735E-06  5556   0.945E-03
 358 F= -.20401097E+03 E0= -.20139353E+03  d E =0.268801E-05
       N       E                     dE             d eps       ncg     rms          rms(c)
DAV:   1    -0.204010965958E+03    0.88992E-05   -0.28139E-03  9160   0.428E-02    0.108E-02
DAV:   2    -0.204010971321E+03   -0.53633E-05   -0.43911E-05  6544   0.152E-02    0.151E-02
DAV:   3    -0.204010970121E+03    0.12005E-05   -0.56858E-06  5500   0.143E-02    0.104E-02
DAV:   4    -0.204010971442E+03   -0.13218E-05   -0.59276E-06  5496   0.120E-02
 359 F= -.20401097E+03 E0= -.20139353E+03  d E =0.246848E-05
       N       E                     dE             d eps       ncg     rms          rms(c)
DAV:   1    -0.204010958750E+03    0.11370E-04   -0.40952E-03 10232   0.535E-02    0.140E-02
DAV:   2    -0.204010970491E+03   -0.11741E-04   -0.70256E-05  6804   0.232E-02    0.270E-02
DAV:   3    -0.204010965988E+03    0.45029E-05   -0.15494E-05  6260   0.219E-02    0.173E-02
DAV:   4    -0.204010965164E+03    0.82413E-06   -0.84052E-06  5940   0.149E-02
 360 F= -.20401097E+03 E0= -.20139354E+03  d E =0.627813E-05
       N       E                     dE             d eps       ncg     rms          rms(c)
DAV:   1    -0.204010948049E+03    0.17939E-04   -0.60069E-03 10776   0.635E-02    0.164E-02
DAV:   2    -0.204010960300E+03   -0.12251E-04   -0.98451E-05  6744   0.241E-02    0.236E-02
DAV:   3    -0.204010956446E+03    0.38545E-05   -0.11020E-05  6368   0.215E-02    0.137E-02
DAV:   4    -0.204010959649E+03   -0.32037E-05   -0.11199E-05  6104   0.172E-02
 361 F= -.20401096E+03 E0= -.20139352E+03  d E =0.551507E-05
       N       E                     dE             d eps       ncg     rms          rms(c)
DAV:   1    -0.204010931826E+03    0.24619E-04   -0.49840E-03 10544   0.625E-02    0.216E-02
DAV:   2    -0.204010983232E+03   -0.51406E-04   -0.17407E-04  7884   0.502E-02    0.684E-02
DAV:   3    -0.204010943674E+03    0.39558E-04   -0.77877E-05  7308   0.450E-02    0.271E-02
DAV:   4    -0.204010939166E+03    0.45083E-05   -0.12869E-05  6408   0.201E-02
 362 F= -.20401094E+03 E0= -.20139352E+03  d E =0.204832E-04
       N       E                     dE             d eps       ncg     rms          rms(c)
DAV:   1    -0.204010946919E+03   -0.32449E-05   -0.15060E-03  7372   0.377E-02    0.142E-02
DAV:   2    -0.204010962735E+03   -0.15816E-04   -0.68296E-05  7128   0.338E-02    0.352E-02
DAV:   3    -0.204010951122E+03    0.11613E-04   -0.15003E-05  6576   0.268E-02    0.139E-02
DAV:   4    -0.204010950532E+03    0.59005E-06   -0.59912E-06  5592   0.117E-02
 363 F= -.20401095E+03 E0= -.20139351E+03  d E =-.113655E-04
       N       E                     dE             d eps       ncg     rms          rms(c)
DAV:   1    -0.204010946101E+03    0.50207E-05   -0.79441E-04  7000   0.267E-02    0.968E-03
DAV:   2    -0.204010959047E+03   -0.12946E-04   -0.34146E-05  6968   0.257E-02    0.353E-02
DAV:   3    -0.204010948325E+03    0.10722E-04   -0.21101E-05  6348   0.233E-02    0.125E-02
DAV:   4    -0.204010947302E+03    0.10237E-05   -0.30379E-06  5568   0.100E-02
 364 F= -.20401095E+03 E0= -.20139352E+03  d E =0.322992E-05
       N       E                     dE             d eps       ncg     rms          rms(c)
DAV:   1    -0.204010941644E+03    0.66810E-05   -0.16317E-03  7864   0.338E-02    0.100E-02
DAV:   2    -0.204010946248E+03   -0.46040E-05   -0.28870E-05  6464   0.173E-02    0.169E-02
DAV:   3    -0.204010943787E+03    0.24613E-05   -0.38467E-06  5612   0.143E-02    0.735E-03
DAV:   4    -0.204010943928E+03   -0.14107E-06   -0.16835E-06  5476   0.792E-03
 365 F= -.20401094E+03 E0= -.20139351E+03  d E =0.337358E-05
       N       E                     dE             d eps       ncg     rms          rms(c)
DAV:   1    -0.204010936011E+03    0.77762E-05   -0.27132E-03  9112   0.425E-02    0.113E-02
DAV:   2    -0.204010955732E+03   -0.19721E-04   -0.64724E-05  7012   0.288E-02    0.428E-02
DAV:   3    -0.204010939517E+03    0.16215E-04   -0.26531E-05  6480   0.258E-02    0.785E-03
DAV:   4    -0.204010939852E+03   -0.33565E-06   -0.30823E-06  5580   0.907E-03
 366 F= -.20401094E+03 E0= -.20139350E+03  d E =0.407582E-05
       N       E                     dE             d eps       ncg     rms          rms(c)
DAV:   1    -0.204010927880E+03    0.11636E-04   -0.42138E-03 10184   0.526E-02    0.127E-02
DAV:   2    -0.204010933497E+03   -0.56162E-05   -0.61113E-05  6568   0.112E-02    0.946E-03
DAV:   3    -0.204010934246E+03   -0.74935E-06   -0.52781E-06  5656   0.126E-02    0.119E-02
DAV:   4    -0.204010934357E+03   -0.11056E-06   -0.43038E-06  5472   0.110E-02
 367 F= -.20401093E+03 E0= -.20139350E+03  d E =0.549557E-05
       N       E                     dE             d eps       ncg     rms          rms(c)
DAV:   1    -0.204010918192E+03    0.16054E-04   -0.55107E-03 10824   0.610E-02    0.159E-02
DAV:   2    -0.204010941992E+03   -0.23800E-04   -0.11030E-04  6948   0.309E-02    0.430E-02
DAV:   3    -0.204010925920E+03    0.16071E-04   -0.32416E-05  6556   0.282E-02    0.133E-02
DAV:   4    -0.204010926426E+03   -0.50553E-06   -0.62974E-06  5692   0.130E-02
 368 F= -.20401093E+03 E0= -.20139349E+03  d E =0.793100E-05
       N       E                     dE             d eps       ncg     rms          rms(c)
DAV:   1    -0.204010899190E+03    0.26731E-04   -0.68714E-03 10912   0.688E-02    0.173E-02
DAV:   2    -0.204010910498E+03   -0.11309E-04   -0.11884E-04  6752   0.185E-02    0.179E-02
DAV:   3    -0.204010910128E+03    0.36994E-06   -0.11419E-05  6320   0.191E-02    0.168E-02
DAV:   4    -0.204010913027E+03   -0.28987E-05   -0.13275E-05  6208   0.184E-02
 369 F= -.20401091E+03 E0= -.20139348E+03  d E =0.133986E-04
       N       E                     dE             d eps       ncg     rms          rms(c)
DAV:   1    -0.204010911206E+03   -0.10779E-05   -0.14195E-03  7116   0.393E-02    0.148E-02
DAV:   2    -0.204010938968E+03   -0.27762E-04   -0.82239E-05  6916   0.358E-02    0.515E-02
DAV:   3    -0.204010916000E+03    0.22968E-04   -0.39186E-05  6676   0.320E-02    0.168E-02
DAV:   4    -0.204010914344E+03    0.16563E-05   -0.43631E-06  5816   0.122E-02
 370 F= -.20401091E+03 E0= -.20139349E+03  d E =-.131702E-05
       N       E                     dE             d eps       ncg     rms          rms(c)
DAV:   1    -0.204010914900E+03    0.11000E-05   -0.26050E-04  6536   0.168E-02    0.536E-03
DAV:   2    -0.204010916757E+03   -0.18562E-05   -0.90470E-06  6284   0.112E-02    0.115E-02
DAV:   3    -0.204010915677E+03    0.10799E-05   -0.19416E-06  5472   0.930E-03    0.567E-03
DAV:   4    -0.204010915656E+03    0.20544E-07   -0.12206E-06  5472   0.533E-03
 371 F= -.20401092E+03 E0= -.20139348E+03  d E =-.131218E-05
       N       E                     dE             d eps       ncg     rms          rms(c)
DAV:   1    -0.204010912727E+03    0.29495E-05   -0.64768E-04  6928   0.217E-02    0.635E-03
DAV:   2    -0.204010915748E+03   -0.30204E-05   -0.14092E-05  6392   0.132E-02    0.158E-02
DAV:   3    -0.204010914076E+03    0.16719E-05   -0.51339E-06  5604   0.120E-02    0.854E-03
DAV:   4    -0.204010913629E+03    0.44706E-06   -0.16106E-06  5480   0.670E-03
 372 F= -.20401091E+03 E0= -.20139349E+03  d E =0.202762E-05
       N       E                     dE             d eps       ncg     rms          rms(c)
DAV:   1    -0.204010908927E+03    0.51492E-05   -0.11565E-03  7320   0.281E-02    0.800E-03
DAV:   2    -0.204010911981E+03   -0.30549E-05   -0.20310E-05  6396   0.134E-02    0.131E-02
DAV:   3    -0.204010910593E+03    0.13887E-05   -0.22627E-06  5472   0.112E-02    0.646E-03
DAV:   4    -0.204010910929E+03   -0.33670E-06   -0.18345E-06  5472   0.721E-03
 373 F= -.20401091E+03 E0= -.20139348E+03  d E =0.269923E-05
       N       E                     dE             d eps       ncg     rms          rms(c)
DAV:   1    -0.204010903664E+03    0.69290E-05   -0.21373E-03  8408   0.387E-02    0.113E-02
DAV:   2    -0.204010928373E+03   -0.24709E-04   -0.66774E-05  7120   0.335E-02    0.492E-02
DAV:   3    -0.204010906762E+03    0.21611E-04   -0.35085E-05  6520   0.297E-02    0.996E-03
DAV:   4    -0.204010906628E+03    0.13368E-06   -0.27985E-06  5660   0.102E-02
 374 F= -.20401091E+03 E0= -.20139349E+03  d E =0.430108E-05
       N       E                     dE             d eps       ncg     rms          rms(c)
DAV:   1    -0.204010896933E+03    0.98290E-05   -0.31643E-03  9616   0.465E-02    0.131E-02
DAV:   2    -0.204010904367E+03   -0.74340E-05   -0.52793E-05  6620   0.207E-02    0.200E-02
DAV:   3    -0.204010901261E+03    0.31064E-05   -0.55666E-06  5924   0.176E-02    0.106E-02
DAV:   4    -0.204010901699E+03   -0.43822E-06   -0.38191E-06  5476   0.112E-02
 375 F= -.20401090E+03 E0= -.20139347E+03  d E =0.492953E-05
       N       E                     dE             d eps       ncg     rms          rms(c)
DAV:   1    -0.204010888705E+03    0.12556E-04   -0.45995E-03 10528   0.579E-02    0.188E-02
DAV:   2    -0.204011014980E+03   -0.12627E-03   -0.25842E-04  9136   0.728E-02    0.113E-01
DAV:   3    -0.204010894237E+03    0.12074E-03   -0.16837E-04  7692   0.643E-02    0.139E-02
DAV:   4    -0.204010894336E+03   -0.99131E-07   -0.71580E-06  6320   0.150E-02
 376 F= -.20401089E+03 E0= -.20139348E+03  d E =0.736293E-05
       N       E                     dE             d eps       ncg     rms          rms(c)
DAV:   1    -0.204010873435E+03    0.20801E-04   -0.38996E-03 10264   0.538E-02    0.185E-02
DAV:   2    -0.204010885789E+03   -0.12353E-04   -0.92964E-05  6760   0.282E-02    0.279E-02
DAV:   3    -0.204010880018E+03    0.57701E-05   -0.11195E-05  6636   0.238E-02    0.166E-02
DAV:   4    -0.204010880776E+03   -0.75767E-06   -0.94722E-06  5948   0.161E-02
 377 F= -.20401088E+03 E0= -.20139345E+03  d E =0.135598E-04
       N       E                     dE             d eps       ncg     rms          rms(c)
DAV:   1    -0.204010886537E+03   -0.65187E-05   -0.10503E-03  7032   0.360E-02    0.167E-02
DAV:   2    -0.204011001327E+03   -0.11479E-03   -0.20516E-04  9368   0.707E-02    0.109E-01
DAV:   3    -0.204010891088E+03    0.11024E-03   -0.15956E-04  7596   0.631E-02    0.203E-02
DAV:   4    -0.204010887536E+03    0.35519E-05   -0.75504E-06  6400   0.151E-02
 378 F= -.20401089E+03 E0= -.20139347E+03  d E =-.675959E-05
       N       E                     dE             d eps       ncg     rms          rms(c)
DAV:   1    -0.204010884443E+03    0.66444E-05   -0.52456E-04  6840   0.219E-02    0.743E-03
DAV:   2    -0.204010886181E+03   -0.17379E-05   -0.12706E-05  6308   0.122E-02    0.103E-02
DAV:   3    -0.204010885554E+03    0.62662E-06   -0.23579E-06  5472   0.103E-02    0.747E-03
DAV:   4    -0.204010885587E+03   -0.32971E-07   -0.20207E-06  5472   0.722E-03
 379 F= -.20401089E+03 E0= -.20139346E+03  d E =0.194835E-05
       N       E                     dE             d eps       ncg     rms          rms(c)
DAV:   1    -0.204010880654E+03    0.49004E-05   -0.11272E-03  7336   0.289E-02    0.901E-03
DAV:   2    -0.204010890899E+03   -0.10246E-04   -0.29564E-05  6852   0.229E-02    0.308E-02
DAV:   3    -0.204010883111E+03    0.77880E-05   -0.15579E-05  6248   0.207E-02    0.120E-02
DAV:   4    -0.204010882116E+03    0.99594E-06   -0.28763E-06  5516   0.941E-03
 380 F= -.20401088E+03 E0= -.20139346E+03  d E =0.347182E-05
       N       E                     dE             d eps       ncg     rms          rms(c)
DAV:   1    -0.204010875397E+03    0.77146E-05   -0.19623E-03  8304   0.364E-02    0.101E-02
DAV:   2    -0.204010879002E+03   -0.36050E-05   -0.31816E-05  6452   0.147E-02    0.121E-02
DAV:   3    -0.204010878462E+03    0.53945E-06   -0.39601E-06  5472   0.128E-02    0.104E-02
DAV:   4    -0.204010878677E+03   -0.21508E-06   -0.40238E-06  5472   0.101E-02
 381 F= -.20401088E+03 E0= -.20139345E+03  d E =0.343806E-05
       N       E                     dE             d eps       ncg     rms          rms(c)
DAV:   1    -0.204010869228E+03    0.92347E-05   -0.30881E-03  9536   0.468E-02    0.140E-02
DAV:   2    -0.204010894887E+03   -0.25659E-04   -0.76093E-05  7176   0.361E-02    0.484E-02
DAV:   3    -0.204010875482E+03    0.19404E-04   -0.37833E-05  6668   0.326E-02    0.189E-02
DAV:   4    -0.204010872997E+03    0.24851E-05   -0.68204E-06  5996   0.144E-02
 382 F= -.20401087E+03 E0= -.20139346E+03  d E =0.568026E-05
       N       E                     dE             d eps       ncg     rms          rms(c)
DAV:   1    -0.204010861250E+03    0.14232E-04   -0.43971E-03 10384   0.544E-02    0.151E-02
DAV:   2    -0.204010868800E+03   -0.75495E-05   -0.69834E-05  6632   0.211E-02    0.170E-02
DAV:   3    -0.204010867093E+03    0.17066E-05   -0.70182E-06  5764   0.180E-02    0.118E-02
DAV:   4    -0.204010867671E+03   -0.57780E-06   -0.36615E-06  5504   0.125E-02
 383 F= -.20401087E+03 E0= -.20139346E+03  d E =0.532646E-05
       N       E                     dE             d eps       ncg     rms          rms(c)
DAV:   1    -0.204010853376E+03    0.13717E-04   -0.59668E-03 10912   0.655E-02    0.214E-02
DAV:   2    -0.204011053180E+03   -0.19980E-03   -0.38606E-04 10240   0.902E-02    0.143E-01
DAV:   3    -0.204010859481E+03    0.19370E-03   -0.26035E-04  9068   0.794E-02    0.126E-02
DAV:   4    -0.204010861275E+03   -0.17942E-05   -0.81646E-06  6504   0.162E-02
 384 F= -.20401086E+03 E0= -.20139346E+03  d E =0.639565E-05
       N       E                     dE             d eps       ncg     rms          rms(c)
DAV:   1    -0.204010837055E+03    0.22426E-04   -0.62322E-03 10920   0.663E-02    0.186E-02
DAV:   2    -0.204010846327E+03   -0.92718E-05   -0.10562E-04  6752   0.166E-02    0.154E-02
DAV:   3    -0.204010847274E+03   -0.94725E-06   -0.80461E-06  6224   0.179E-02    0.181E-02
DAV:   4    -0.204010848380E+03   -0.11061E-05   -0.11719E-05  6080   0.183E-02
 385 F= -.20401085E+03 E0= -.20139343E+03  d E =0.128952E-04
       N       E                     dE             d eps       ncg     rms          rms(c)
DAV:   1    -0.204010837533E+03    0.97404E-05   -0.23630E-03  8192   0.480E-02    0.200E-02
DAV:   2    -0.204010942708E+03   -0.10517E-03   -0.21110E-04  9988   0.690E-02    0.103E-01
DAV:   3    -0.204010846210E+03    0.96498E-04   -0.14765E-04  8052   0.615E-02    0.267E-02
DAV:   4    -0.204010840119E+03    0.60910E-05   -0.11392E-05  6532   0.185E-02
 386 F= -.20401084E+03 E0= -.20139343E+03  d E =0.826105E-05
       N       E                     dE             d eps       ncg     rms          rms(c)
DAV:   1    -0.204010846387E+03   -0.17729E-06   -0.17986E-04  6496   0.140E-02    0.454E-03
DAV:   2    -0.204010848163E+03   -0.17754E-05   -0.10704E-05  6368   0.962E-03    0.100E-02
DAV:   3    -0.204010847655E+03    0.50752E-06   -0.28324E-06  5472   0.851E-03    0.728E-03
DAV:   4    -0.204010847207E+03    0.44842E-06   -0.93871E-07  5472   0.498E-03
 387 F= -.20401085E+03 E0= -.20139343E+03  d E =-.708774E-05
       N       E                     dE             d eps       ncg     rms          rms(c)
DAV:   1    -0.204010846703E+03    0.95167E-06   -0.45292E-04  6736   0.170E-02    0.720E-03
DAV:   2    -0.204010847547E+03   -0.84363E-06   -0.11486E-05  6400   0.679E-03    0.740E-03
DAV:   3    -0.204010847351E+03    0.19569E-06   -0.17076E-06  5472   0.714E-03    0.625E-03
DAV:   4    -0.204010847441E+03   -0.89756E-07   -0.15153E-06  5472   0.596E-03
 388 F= -.20401085E+03 E0= -.20139343E+03  d E =-.234446E-06
       N       E                     dE             d eps       ncg     rms          rms(c)
DAV:   1    -0.204010844805E+03    0.25459E-05   -0.60834E-04  6872   0.228E-02    0.762E-03
DAV:   2    -0.204010871695E+03   -0.26890E-04   -0.52315E-05  7148   0.336E-02    0.528E-02
DAV:   3    -0.204010845559E+03    0.26136E-04   -0.36108E-05  6488   0.296E-02    0.490E-03
DAV:   4    -0.204010845564E+03   -0.47330E-08   -0.13703E-06  5660   0.552E-03
 389 F= -.20401085E+03 E0= -.20139342E+03  d E =0.187714E-05
       N       E                     dE             d eps       ncg     rms          rms(c)
DAV:   1    -0.204010840986E+03    0.45733E-05   -0.90894E-04  7112   0.246E-02    0.637E-03
DAV:   2    -0.204010842712E+03   -0.17257E-05   -0.14587E-05  6348   0.766E-03    0.825E-03
DAV:   3    -0.204010842554E+03    0.15735E-06   -0.16487E-06  5480   0.793E-03    0.715E-03
DAV:   4    -0.204010842868E+03   -0.31388E-06   -0.21418E-06  5496   0.718E-03
 390 F= -.20401084E+03 E0= -.20139343E+03  d E =0.269576E-05
       N       E                     dE             d eps       ncg     rms          rms(c)
DAV:   1    -0.204010836534E+03    0.60199E-05   -0.16030E-03  7808   0.334E-02    0.796E-03
DAV:   2    -0.204010839398E+03   -0.28640E-05   -0.24862E-05  6408   0.969E-03    0.103E-02
DAV:   3    -0.204010839572E+03   -0.17332E-06   -0.42243E-06  5520   0.107E-02    0.109E-02
DAV:   4    -0.204010839348E+03    0.22334E-06   -0.32401E-06  5500   0.910E-03
 391 F= -.20401084E+03 E0= -.20139341E+03  d E =0.351977E-05
       N       E                     dE             d eps       ncg     rms          rms(c)
DAV:   1    -0.204010831366E+03    0.82054E-05   -0.21176E-03  8424   0.381E-02    0.101E-02
DAV:   2    -0.204010835465E+03   -0.40992E-05   -0.34688E-05  6536   0.126E-02    0.130E-02
DAV:   3    -0.204010834716E+03    0.74949E-06   -0.32963E-06  5524   0.123E-02    0.976E-03
DAV:   4    -0.204010835890E+03   -0.11739E-05   -0.48196E-06  5508   0.109E-02
 392 F= -.20401084E+03 E0= -.20139342E+03  d E =0.345846E-05
       N       E                     dE             d eps       ncg     rms          rms(c)
DAV:   1    -0.204010822918E+03    0.11798E-04   -0.28054E-03  9456   0.461E-02    0.118E-02
DAV:   2    -0.204010834003E+03   -0.11084E-04   -0.59147E-05  6736   0.224E-02    0.280E-02
DAV:   3    -0.204010828040E+03    0.59622E-05   -0.16126E-05  6324   0.204E-02    0.138E-02
DAV:   4    -0.204010827306E+03    0.73459E-06   -0.44989E-06  5556   0.118E-02
 393 F= -.20401083E+03 E0= -.20139340E+03  d E =0.858414E-05
       N       E                     dE             d eps       ncg     rms          rms(c)
DAV:   1    -0.204010822371E+03    0.56689E-05   -0.12190E-03  7200   0.310E-02    0.123E-02
DAV:   2    -0.204010829802E+03   -0.74307E-05   -0.42383E-05  6728   0.220E-02    0.237E-02
DAV:   3    -0.204010824703E+03    0.50987E-05   -0.57647E-06  5916   0.177E-02    0.935E-03
DAV:   4    -0.204010824527E+03    0.17669E-06   -0.24140E-06  5476   0.830E-03
 394 F= -.20401082E+03 E0= -.20139340E+03  d E =0.277900E-05
       N       E                     dE             d eps       ncg     rms          rms(c)
DAV:   1    -0.204010827459E+03   -0.27554E-05   -0.37097E-04  6664   0.223E-02    0.143E-02
DAV:   2    -0.204010985786E+03   -0.15833E-03   -0.26368E-04  9112   0.787E-02    0.129E-01
DAV:   3    -0.204010826709E+03    0.15908E-03   -0.21248E-04  7924   0.705E-02    0.529E-03
DAV:   4    -0.204010826832E+03   -0.12323E-06   -0.35504E-06  6132   0.688E-03
 395 F= -.20401083E+03 E0= -.20139340E+03  d E =-.230542E-05
       N       E                     dE             d eps       ncg     rms          rms(c)
DAV:   1    -0.204010823884E+03    0.28247E-05   -0.57768E-04  6904   0.209E-02    0.564E-03
DAV:   2    -0.204010825163E+03   -0.12788E-05   -0.98939E-06  6304   0.885E-03    0.828E-03
DAV:   3    -0.204010824687E+03    0.47600E-06   -0.10719E-06  5472   0.750E-03    0.462E-03
DAV:   4    -0.204010824774E+03   -0.86889E-07   -0.81480E-07  5472   0.506E-03
 396 F= -.20401082E+03 E0= -.20139340E+03  d E =0.205824E-05
