 vasp.6.5.1 10Mar25 (build Apr 25 2025 15:31:43) complex                        
  
 executed on             LinuxIFC date 2025.12.08  14:54:14
 running  384 mpi-ranks, on   16 nodes
 each image running on   48 cores
 distrk:  each k-point on   24 cores,    2 groups
 distr:  one band on NCORE=   6 cores,    4 groups


--------------------------------------------------------------------------------------------------------


 INCAR:
   SYSTEM = PBE-grap
   NWRITE = 0    write-flag
   ISTART = 0    job   : 0-new, 1-cont, 2-samecut
   ICHARG = 2    charge: 0-wave, 1-file, 2-atom, >10-const
   INIWAV = 1    electr: 0-lowe 1-rand  2-diag
   GGA = PE
   PREC = Normal   low | medium | high
   ENCUT = 370
   NELMDL = -5    number of delayed ELM steps
   NELMIN = 4
   NELM = 150    number of ELM steps
   EDIFF = 1E-05    energy stopping-criterion for ELM
   LREAL = AUTO   real-space projection (.FALSE., .TRUE., On, Auto)
   IALGO = 38    algorithm (8\=CG for small, 48\=RMM for big systems)
   LCHARG = .FALSE.
   LVTOT = .FALSE.
   LWAVE = .FALSE.
   NSW = 1000   max number of geometry steps
   EDIFFG = -0.026   force (eV/A) stopping-criterion for geometry steps
   ISIF = 2     (1:force\=y stress\=trace only ions\=y shape\=n volume\=n)
   ISYM = 0     (1-use symmetry, 0-no symmetry)
   ISMEAR = 0    (-1-Fermi, 1-Methfessel/Paxton)
   SIGMA = 0.41   broadening in eV
   IOPT = 3
   TIMESTEP = 0.05
   ICHAIN = 0     turn on NEB
   LCLIMB = .TRUE.
   POTIM = 0
   IBRION = 3
   IMAGES = 8      image number
   SPRING = -5     spring constant between images
   LPLANE = .TRUE.
   NPAR = 4
   KPAR = 2

 POTCAR:    PAW_PBE Pd 04Jan2005                  
 POTCAR:    PAW_PBE C 08Apr2002                   
 POTCAR:    PAW_PBE O 08Apr2002                   
 POTCAR:    PAW_PBE Pd 04Jan2005                  
  local pseudopotential read in
  partial core-charges read in
  partial kinetic energy density read in
  atomic valenz-charges read in
  non local Contribution for L=           2  read in
    real space projection operators read in
  non local Contribution for L=           2  read in
    real space projection operators read in
  non local Contribution for L=           0  read in
    real space projection operators read in
  non local Contribution for L=           0  read in
    real space projection operators read in
  non local Contribution for L=           1  read in
    real space projection operators read in
  non local Contribution for L=           1  read in
    real space projection operators read in
    PAW grid and wavefunctions read in
 
   number of l-projection  operators is LMAX  =           6
   number of lm-projection operators is LMMAX =          18
 
 POTCAR:    PAW_PBE C 08Apr2002                   
  local pseudopotential read in
  partial core-charges read in
  partial kinetic energy density read in
  atomic valenz-charges read in
  non local Contribution for L=           0  read in
    real space projection operators read in
  non local Contribution for L=           0  read in
    real space projection operators read in
  non local Contribution for L=           1  read in
    real space projection operators read in
  non local Contribution for L=           1  read in
    real space projection operators read in
    PAW grid and wavefunctions read in
 
   number of l-projection  operators is LMAX  =           4
   number of lm-projection operators is LMMAX =           8
 
 POTCAR:    PAW_PBE O 08Apr2002                   
  local pseudopotential read in
  partial core-charges read in
  partial kinetic energy density read in
  kinetic energy density of atom read in
  atomic valenz-charges read in
  non local Contribution for L=           0  read in
    real space projection operators read in
  non local Contribution for L=           0  read in
    real space projection operators read in
  non local Contribution for L=           1  read in
    real space projection operators read in
  non local Contribution for L=           1  read in
    real space projection operators read in
    PAW grid and wavefunctions read in
 
   number of l-projection  operators is LMAX  =           4
   number of lm-projection operators is LMMAX =           8
 
 Optimization of the real space projectors (new method)

 maximal supplied QI-value         = 14.36
 optimisation between [QCUT,QGAM] = [  9.77, 19.68] = [ 26.71,108.41] Ry 
 Optimized for a Real-space Cutoff    1.52 Angstroem

   l    n(q)    QCUT    max X(q) W(low)/X(q) W(high)/X(q)  e(spline) 
   2      8     9.766    59.108    0.18E-03    0.12E-03    0.98E-07
   2      8     9.766    58.101    0.18E-03    0.12E-03    0.10E-06
   0      9     9.766   102.235    0.37E-04    0.68E-04    0.73E-07
   0      9     9.766    58.388    0.33E-04    0.64E-04    0.69E-07
   1      8     9.766    22.191    0.23E-03    0.61E-04    0.11E-06
   1      8     9.766    15.590    0.19E-03    0.52E-04    0.93E-07
 Optimization of the real space projectors (new method)

 maximal supplied QI-value         = 25.13
 optimisation between [QCUT,QGAM] = [  9.80, 19.60] = [ 26.90,107.62] Ry 
 Optimized for a Real-space Cutoff    1.35 Angstroem

   l    n(q)    QCUT    max X(q) W(low)/X(q) W(high)/X(q)  e(spline) 
   0      8     9.802   115.676    0.45E-03    0.67E-03    0.24E-06
   0      8     9.802    87.132    0.44E-03    0.67E-03    0.24E-06
   1      7     9.802     4.429    0.38E-03    0.18E-03    0.24E-06
   1      7     9.802     2.733    0.25E-03    0.72E-04    0.26E-06
 Optimization of the real space projectors (new method)

 maximal supplied QI-value         = 24.76
 optimisation between [QCUT,QGAM] = [  9.65, 19.56] = [ 26.10,107.10] Ry 
 Optimized for a Real-space Cutoff    1.44 Angstroem

   l    n(q)    QCUT    max X(q) W(low)/X(q) W(high)/X(q)  e(spline) 
   0      8     9.655    20.381    0.19E-03    0.21E-03    0.36E-06
   0      8     9.655    15.268    0.21E-03    0.24E-03    0.37E-06
   1      8     9.655     5.964    0.43E-03    0.39E-03    0.31E-06
   1      8     9.655     5.382    0.36E-03    0.33E-03    0.28E-06
  PAW_PBE Pd 04Jan2005                  :
 energy of atom  1       EATOM= -809.7530
 kinetic energy error for atom=    0.0177 (will be added to EATOM!!)
  PAW_PBE C 08Apr2002                   :
 energy of atom  2       EATOM= -147.1560
 kinetic energy error for atom=    0.0545 (will be added to EATOM!!)
  PAW_PBE O 08Apr2002                   :
 energy of atom  3       EATOM= -432.3788
 kinetic energy error for atom=    0.2342 (will be added to EATOM!!)
 
 
 POSCAR: Pd  C  O
  positions in direct lattice
  velocities in cartesian coordinates


 exchange-correlation table for PE
   RHO(1)=    0.500       N(1)  =     2000
   RHO(2)=  100.500       N(2)  =     4000

 VTST: version 4.2, (11/09/24)

 CHAIN: initializing optimizer
 
 OPT: Using Quick-Min optimizer
 OPT: QM, Init
 OPT: QM, MAXMOVE       0.200000
 OPT: QM, TIMESTEP      0.050000
 
 CHAIN: Read ICHAIN            0
 CHAIN: Running the NEB
 NEB:          SPRING     -5.000000
 NEB:          LCLIMB      T
 NEB:     LTANGENTOLD      F
 NEB:           LDNEB      F
 NEB:        LDNEBORG      F
 NEB:        LNEBCELL      F
 NEB:          EFIRST      0.000000
 NEB:           ELAST      0.000000
 
 POSCAR: Pd  C  O
  positions in cartesian coordinates
  No initial velocities read in
 
 POSCAR: Pd  C  O
  positions in cartesian coordinates
  No initial velocities read in
 
 POSCAR: Pd  C  O
  positions in cartesian coordinates
  No initial velocities read in
 
 POSCAR: Pd  C  O
  positions in cartesian coordinates
  No initial velocities read in
 


--------------------------------------------------------------------------------------------------------


 ion  position               nearest neighbor table
   1  0.999  1.000  0.438-  19 2.77  25 2.77  13 2.77   4 2.77   7 2.77  10 2.77   3 2.80  27 2.80
                             9 2.80
   2  0.111  0.223  0.160-  31 2.77  32 2.77  28 2.77   5 2.77   8 2.77  26 2.77  20 2.77  14 2.77
                            11 2.77   9 2.79  12 2.79   3 2.79
   3  0.222  0.112  0.299-  15 2.76  12 2.77   9 2.77   6 2.77  27 2.77  21 2.77   2 2.79  20 2.79
                             5 2.79   4 2.80   1 2.80  13 2.82
   4  0.333  0.000  0.438-  22 2.77  13 2.77   7 2.77  16 2.77   1 2.77  19 2.77   3 2.80  21 2.80
                             6 2.80
   5  0.444  0.223  0.160-  32 2.77  29 2.77  33 2.77   2 2.77  20 2.77  23 2.77   8 2.77  17 2.77
                            14 2.77   6 2.78  15 2.79   3 2.79
   6  0.555  0.112  0.298-  21 2.77   3 2.77  24 2.77  18 2.77  15 2.77   9 2.77  23 2.78   5 2.78
                             8 2.79  16 2.79   7 2.79   4 2.80
   7  0.666  0.000  0.437-  10 2.76  22 2.76   4 2.77  25 2.77  16 2.77   1 2.77   9 2.79  24 2.79
                             6 2.79
   8  0.778  0.223  0.160-  33 2.77  31 2.77  30 2.77   2 2.77  26 2.77  23 2.77  11 2.77   5 2.77
                            17 2.77  18 2.78   6 2.79   9 2.79
   9  0.889  0.112  0.299-   3 2.77  27 2.77  12 2.77  18 2.77  24 2.77   6 2.77  26 2.79   2 2.79
                             8 2.79   7 2.79  10 2.80   1 2.80
  10  0.998  0.333  0.438-   7 2.76  16 2.77  19 2.77   1 2.77  13 2.78  22 2.78   9 2.80  12 2.80
                            18 2.80
  11  0.111  0.557  0.160-  34 2.77  35 2.77  31 2.77  14 2.77  17 2.77  23 2.77  20 2.77   8 2.77
                             2 2.77  21 2.79  18 2.79  12 2.79
  12  0.222  0.445  0.299-  15 2.76   3 2.77   9 2.77  24 2.77  18 2.77  21 2.77   2 2.79  14 2.79
                            11 2.79  22 2.79  10 2.80  13 2.82
  13  0.332  0.333  0.440-   4 2.77  16 2.77   1 2.77  25 2.77  22 2.78  10 2.78   3 2.82  12 2.82
                            15 2.82
  14  0.444  0.557  0.160-  35 2.77  36 2.77  32 2.77  11 2.77  23 2.77  26 2.77   2 2.77  17 2.77
                             5 2.77  24 2.78  15 2.79  12 2.79
  15  0.554  0.445  0.299-   3 2.76  12 2.76  24 2.77   6 2.77  18 2.78  27 2.78  25 2.79   5 2.79
                            16 2.79  14 2.79  17 2.79  13 2.82
  16  0.666  0.334  0.437-  10 2.77   4 2.77  25 2.77  13 2.77  19 2.77   7 2.77  15 2.79   6 2.79
                            18 2.79
  17  0.778  0.557  0.160-  36 2.77  34 2.77  33 2.77  11 2.77  26 2.77  20 2.77  14 2.77   8 2.77
                             5 2.77  27 2.78  18 2.78  15 2.79
  18  0.888  0.445  0.298-   9 2.77   6 2.77  12 2.77  21 2.77  27 2.77  15 2.78   8 2.78  17 2.78
                            11 2.79  19 2.79  16 2.79  10 2.80
  19  0.999  0.667  0.437-   1 2.77  25 2.77  10 2.77  16 2.77   4 2.77  22 2.77  18 2.79  21 2.79
                            27 2.79
  20  0.111  0.890  0.160-  29 2.77  28 2.77  34 2.77  23 2.77  26 2.77  11 2.77  17 2.77   5 2.77
                             2 2.77  27 2.78  21 2.79   3 2.79
  21  0.222  0.779  0.298-  24 2.77   6 2.77  27 2.77  18 2.77  12 2.77   3 2.77  11 2.79  20 2.79
                            23 2.79  19 2.79  22 2.80   4 2.80
  22  0.333  0.668  0.437-   7 2.76   4 2.77  25 2.77  19 2.77  13 2.78  10 2.78  12 2.79  24 2.80
                            21 2.80
  23  0.444  0.890  0.160-  29 2.77  35 2.77  30 2.77  20 2.77  11 2.77  14 2.77   5 2.77   8 2.77
                            26 2.77   6 2.78  24 2.78  21 2.79
  24  0.555  0.778  0.298-  21 2.77  12 2.77  15 2.77   6 2.77  27 2.77   9 2.77  14 2.78  23 2.78
                            26 2.79   7 2.79  25 2.79  22 2.80
  25  0.666  0.667  0.437-   1 2.77  19 2.77  22 2.77  16 2.77   7 2.77  13 2.77  15 2.79  27 2.79
                            24 2.79
  26  0.778  0.890  0.160-  28 2.77  30 2.77  36 2.77  20 2.77  17 2.77   8 2.77   2 2.77  14 2.77
                            23 2.77  27 2.78  24 2.79   9 2.79
  27  0.888  0.779  0.298-   9 2.77  24 2.77   3 2.77  21 2.77  18 2.77  15 2.78  26 2.78  17 2.78
                            20 2.78  19 2.79  25 2.79   1 2.80
  28  1.000  0.001  0.023-  26 2.77  20 2.77   2 2.77  30 2.77  29 2.77  31 2.77  32 2.77  36 2.77
                            34 2.77
  29  0.333  0.001  0.023-  20 2.77  23 2.77   5 2.77  28 2.77  32 2.77  34 2.77  35 2.77  33 2.77
                            30 2.77
  30  0.666  0.001  0.023-  26 2.77   8 2.77  23 2.77  28 2.77  31 2.77  33 2.77  36 2.77  35 2.77
                            29 2.77
  31  1.000  0.334  0.023-   2 2.77   8 2.77  11 2.77  33 2.77  32 2.77  28 2.77  30 2.77  35 2.77
                            34 2.77
  32  0.333  0.334  0.023-   5 2.77   2 2.77  14 2.77  31 2.77  29 2.77  28 2.77  33 2.77  35 2.77
                            36 2.77
  33  0.666  0.334  0.023-   8 2.77   5 2.77  17 2.77  31 2.77  30 2.77  29 2.77  34 2.77  32 2.77
                            36 2.77
  34  1.000  0.668  0.023-  11 2.77  17 2.77  20 2.77  36 2.77  35 2.77  28 2.77  29 2.77  33 2.77
                            31 2.77
  35  0.333  0.668  0.023-  14 2.77  11 2.77  23 2.77  34 2.77  29 2.77  30 2.77  31 2.77  36 2.77
                            32 2.77
  36  0.666  0.668  0.023-  17 2.77  26 2.77  14 2.77  34 2.77  28 2.77  30 2.77  35 2.77  32 2.77
                            33 2.77
  37  0.242  0.143  0.683-  39 1.18  38 1.18
  38  0.256  0.289  0.673-  37 1.18
  39  0.226  0.996  0.697-  37 1.18
 

IMPORTANT INFORMATION: All symmetrisations will be switched off!
NOSYMM: (Re-)initialisation of all symmetry stuff for point group C_1.


----------------------------------------------------------------------------------------

                                     Primitive cell                                     

  volume of cell :     988.1533

  direct lattice vectors                    reciprocal lattice vectors
     8.309900284  0.000000000  0.000000000     0.120338387  0.069477400  0.000000000
    -4.154950142  7.196584749  0.000000000     0.000000000  0.138954801  0.000000000
     0.000000000  0.000000000 16.523500443     0.000000000  0.000000000  0.060519864

  length of vectors
     8.309900284  8.309900284 16.523500443     0.138954801  0.138954801  0.060519864

  position of ions in fractional coordinates (direct lattice)
     0.999229798  0.999894850  0.437746534
     0.110930000  0.223300000  0.160240000
     0.221863892  0.112259032  0.298913375
     0.332815619  0.000320339  0.437548142
     0.444260000  0.223300000  0.160240000
     0.554872174  0.111723845  0.298207479
     0.665966301  0.000373018  0.436819063
     0.777600000  0.223300000  0.160240000
     0.888608871  0.111915946  0.298558293
     0.998366146  0.333346141  0.437606122
     0.110930000  0.556640000  0.160240000
     0.221786275  0.444974982  0.298766987
     0.332339586  0.333146745  0.439514224
     0.444260000  0.556640000  0.160240000
     0.554298647  0.444848732  0.298595148
     0.665712784  0.333688155  0.436676350
     0.777600000  0.556640000  0.160240000
     0.888373713  0.445039790  0.298175764
     0.999022042  0.666818352  0.436548939
     0.110930000  0.889970000  0.160240000
     0.221899955  0.778588292  0.298342348
     0.333287640  0.667612514  0.437305024
     0.444260000  0.889970000  0.160240000
     0.554858661  0.778401344  0.298227942
     0.666107703  0.667026238  0.436707988
     0.777600000  0.889970000  0.160240000
     0.888444250  0.778742796  0.298142581
     0.999820000  0.001080000  0.023370000
     0.333150000  0.001080000  0.023370000
     0.666490000  0.001080000  0.023370000
     0.999820000  0.334410000  0.023370000
     0.333150000  0.334410000  0.023370000
     0.666490000  0.334410000  0.023370000
     0.999820000  0.667750000  0.023370000
     0.333150000  0.667750000  0.023370000
     0.666490000  0.667750000  0.023370000
     0.241745680  0.142522938  0.683481112
     0.255958983  0.289087562  0.672689192
     0.226334632  0.996430110  0.697060547

  ion indices of the primitive-cell ions
   primitive index   ion index
                 1           1
                 2           2
                 3           3
                 4           4
                 5           5
                 6           6
                 7           7
                 8           8
                 9           9
                10          10
                11          11
                12          12
                13          13
                14          14
                15          15
                16          16
                17          17
                18          18
                19          19
                20          20
                21          21
                22          22
                23          23
                24          24
                25          25
                26          26
                27          27
                28          28
                29          29
                30          30
                31          31
                32          32
                33          33
                34          34
                35          35
                36          36
                37          37
                38          38
                39          39

----------------------------------------------------------------------------------------

 
 
 KPOINTS: Automatic mesh                          

Automatic generation of k-mesh.
 Grid dimensions read from file:
 generate k-points for:    4    4    1

 Generating k-lattice:

  Cartesian coordinates                     Fractional coordinates (reciprocal lattice)
     0.030084597  0.017369350  0.000000000     0.250000000  0.000000000  0.000000000
     0.000000000  0.034738700  0.000000000     0.000000000  0.250000000  0.000000000
     0.000000000  0.000000000  0.060519864     0.000000000  0.000000000  1.000000000

  Length of vectors
     0.034738700  0.034738700  0.060519864

  Shift w.r.t. Gamma in fractional coordinates (k-lattice)
     0.500000000  0.500000000  0.000000000

 
 Subroutine IBZKPT returns following result:
 ===========================================
 
 Found     24 irreducible k-points:
 
 Following reciprocal coordinates:
            Coordinates               Weight
  0.125000  0.125000  0.000000      2.000000
 -0.125000  0.250000  0.000000      2.000000
 -0.250000  0.125000  0.000000      2.000000
  0.375000  0.125000  0.000000      2.000000
 -0.125000  0.500000  0.000000      2.000000
  0.500000  0.375000  0.000000      2.000000
 -0.375000  0.500000  0.000000      2.000000
  0.125000  0.375000  0.000000      2.000000
  0.500000 -0.125000  0.000000      2.000000
 -0.375000  0.125000  0.000000      2.000000
 -0.125000 -0.250000  0.000000      2.000000
  0.250000 -0.375000  0.000000      2.000000
  0.375000 -0.250000  0.000000      2.000000
  0.125000 -0.375000  0.000000      2.000000
 -0.250000 -0.125000  0.000000      2.000000
 -0.125000  0.125000  0.000000      2.000000
 -0.125000  0.000000  0.000000      2.000000
  0.000000 -0.125000  0.000000      2.000000
  0.375000  0.375000  0.000000      2.000000
 -0.375000 -0.250000  0.000000      2.000000
  0.250000  0.375000  0.000000      2.000000
 -0.375000  0.375000  0.000000      2.000000
 -0.375000  0.000000  0.000000      2.000000
  0.000000 -0.375000  0.000000      2.000000
 
 Following cartesian coordinates:
            Coordinates               Weight
  0.015042  0.026054  0.000000      2.000000
 -0.015042  0.026054  0.000000      2.000000
 -0.030085  0.000000  0.000000      2.000000
  0.045127  0.043423  0.000000      2.000000
 -0.015042  0.060793  0.000000      2.000000
  0.060169  0.086847  0.000000      2.000000
 -0.045127  0.043423  0.000000      2.000000
  0.015042  0.060793  0.000000      2.000000
  0.060169  0.017369  0.000000      2.000000
 -0.045127 -0.008685  0.000000      2.000000
 -0.015042 -0.043423  0.000000      2.000000
  0.030085 -0.034739  0.000000      2.000000
  0.045127 -0.008685  0.000000      2.000000
  0.015042 -0.043423  0.000000      2.000000
 -0.030085 -0.034739  0.000000      2.000000
 -0.015042  0.008685  0.000000      2.000000
 -0.015042 -0.008685  0.000000      2.000000
  0.000000 -0.017369  0.000000      2.000000
  0.045127  0.078162  0.000000      2.000000
 -0.045127 -0.060793  0.000000      2.000000
  0.030085  0.069477  0.000000      2.000000
 -0.045127  0.026054  0.000000      2.000000
 -0.045127 -0.026054  0.000000      2.000000
  0.000000 -0.052108  0.000000      2.000000
 


--------------------------------------------------------------------------------------------------------




 Dimension of arrays:
   k-points           NKPTS =     24   k-points in BZ     NKDIM =     24   number of bands    NBANDS=    228
   number of dos      NEDOS =    301   number of ions     NIONS =     39
   non local maximal  LDIM  =      6   non local SUM 2l+1 LMDIM =     18
   total plane-waves  NPLWV = 128000
   max r-space proj   IRMAX =   1966   max aug-charges    IRDMAX=   6482
   dimension x,y,z NGX =    40 NGY =   40 NGZ =   80
   dimension x,y,z NGXF=    80 NGYF=   80 NGZF=  160
   support grid    NGXF=    80 NGYF=   80 NGZF=  160
   ions per type =              36   1   2
   NGX,Y,Z   is equivalent  to a cutoff of   8.00,  8.00,  8.05 a.u.
   NGXF,Y,Z  is equivalent  to a cutoff of  16.00, 16.00, 16.10 a.u.

 SYSTEM =  PBE-grap                                
 POSCAR =  Pd  C  O                                

 Startparameter for this run:
   NWRITE =      0    write-flag & timer
   PREC   = normal    normal or accurate (medium, high low for compatibility)
   ISTART =      0    job   : 0-new  1-cont  2-samecut
   ICHARG =      2    charge: 1-file 2-atom 10-const
   ISPIN  =      1    spin polarized calculation?
   LNONCOLLINEAR =      F non collinear calculations
   LSORBIT =      F    spin-orbit coupling
   INIWAV =      1    electr: 0-lowe 1-rand  2-diag
   LASPH  =      F    aspherical Exc in radial PAW
 Electronic Relaxation 1
   ENCUT  =  370.0 eV  27.19 Ry    5.21 a.u.  13.03 13.03 25.92*2*pi/ulx,y,z
   ENINI  =  370.0     initial cutoff
   ENAUG  =  644.9 eV  augmentation charge cutoff
   NELM   =    150;   NELMIN=  4; NELMDL= -5     # of ELM steps 
   EDIFF  = 0.1E-04   stopping-criterion for ELM
   LREAL  =      T    real-space projection
   NLSPLINE    = F    spline interpolate recip. space projectors
   LCOMPAT=      F    compatible to vasp.4.4
   GGA_COMPAT  = T    GGA compatible to vasp.4.4-vasp.4.6
   LMAXPAW     = -100 max onsite density
   LMAXMIX     =    2 max onsite mixed and CHGCAR
   VOSKOWN=      0    Vosko Wilk Nusair interpolation
   ROPT   =   -0.00050  -0.00050  -0.00050
 Ionic relaxation
   EDIFFG = -.3E-01   stopping-criterion for IOM
   NSW    =   1000    number of steps for IOM
   NBLOCK =      1;   KBLOCK =   1000    inner block; outer block 
   IBRION =      3    ionic relax: 0-MD 1-quasi-New 2-CG
   NFREE  =      0    steps in history (QN), initial steepest desc. (CG)
   ISIF   =      2    stress and relaxation
   IWAVPR =     11    prediction:  0-non 1-charg 2-wave 3-comb
   ISYM   =      0    0-nonsym 1-usesym 2-fastsym
   LCORR  =      T    Harris-Foulkes like correction to forces

   POTIM  = 0.0000    time-step for ionic-motion
   TEIN   =    0.0    initial temperature
   TEBEG  =    0.0;   TEEND  =   0.0 temperature during run
   SMASS  =  -3.00    Nose mass-parameter (am)
   estimated Nose-frequenzy (Omega)   =  0.10E-29 period in steps = 0.00E+00 mass=  -0.158E-26a.u.
   SCALEE = 1.0000    scale energy and forces
   NPACO  =    256;   APACO  = 10.0  distance and # of slots for P.C.
   PSTRESS=    0.0 pullay stress

  Mass of Ions in am
   POMASS = 106.42 12.01 16.00
  Ionic Valenz
   ZVAL   =  10.00  4.00  6.00
  Atomic Wigner-Seitz radii
   RWIGS  =  -1.00 -1.00 -1.00
  virtual crystal weights 
   VCA    =   1.00  1.00  1.00
   NELECT =     376.0000    total number of electrons
   NUPDOWN=      -1.0000    fix difference up-down

 DOS related values:
   EMIN   =  10.00;   EMAX   =-10.00  energy-range for DOS
   EFERMI =   0.00;   METHOD = LEGACY      
   ISMEAR =     0;   SIGMA  =   0.41  broadening in eV -4-tet -1-fermi 0-gaus
   EFERMI_NEDOS =   21; number of points for ismear=-14 and -15

 Electronic relaxation 2 (details)
   IALGO  =     38    algorithm
   LDIAG  =      T    sub-space diagonalisation (order eigenvalues)
   LSUBROT=      F    optimize rotation matrix (better conditioning)
   LROBUST=      F    robust break criterion during scf (extrapolated energy error)
   ISEARCH=      0    line search for conjugate gradient (0, 1=use gradient)
   TURBO    =      0    0=normal 1=particle mesh
   IRESTART =      0    0=no restart 2=restart with 2 vectors
   NREBOOT  =      0    no. of reboots
   NMIN     =      0    reboot dimension
   EREF     =   0.00    reference energy to select bands
   IMIX   =      4    mixing-type and parameters
     AMIX     =   0.40;   BMIX     =  1.00
     AMIX_MAG =   1.60;   BMIX_MAG =  1.00
     AMIN     =   0.10
     WC   =   100.;   INIMIX=   1;  MIXPRE=   1;  MAXMIX= -45

 Intra band minimization:
   WEIMIN = 0.0010     energy-eigenvalue tresh-hold
   EBREAK =  0.11E-07  absolut break condition
   DEPER  =   0.30     relativ break condition  

   TIME   =   0.40     timestep for ELM

  volume/ion in A,a.u.               =      25.34       170.98
  Fermi-wavevector in a.u.,A,eV,Ry     =   1.186304  2.241790 19.147714  1.407317
  Thomas-Fermi vector in A             =   2.322480
 
 Write flags
   LWAVE        =      F    write WAVECAR
   LDOWNSAMPLE  =      F    k-point downsampling of WAVECAR
   LCHARG       =      F    write CHGCAR
   LVTOT        =      F    write LOCPOT, total local potential
   LVHAR        =      F    write LOCPOT, Hartree potential only
   WRT_POTENTIAL= false  ! write potential to hdf5 file
   LELF         =      F    write electronic localiz. function (ELF)
   LORBIT       =      0    0 simple, 1 ext, 2 COOP (PROOUT), +10 PAW based schemes


 Python interface
   PLUGINS active      =      F    recompile with -DPLUGINS to activate
 
 Dipole corrections
   LMONO      =      F    monopole corrections only (constant potential shift)
   LDIPOL     =      F    correct potential (dipole corrections)
   IDIPOL     =      0    1-x, 2-y, 3-z, 4-all directions 
   EPSILON    =  1.0000000 bulk dielectric constant
   LVACPOTAV  =      F  vacuum potentials using an averaging scheme for the charge density
   VACPOTFLAT =  0.1000000 required flatness to determine vacuum potential
 
Coulomb truncation method
  LTRUNCATE          =      F  Coulomb kernel truncation to be used

 
 Exchange correlation treatment:
   GGA     = PE    functional components
   XC_C    = 1    coefficients multiplying the functional components
   LIBXC   =     F    Libxc                    
   VOSKOWN =     0    Vosko Wilk Nusair interpolation
   LHFCALC =     F    Hartree Fock is set to
   LHFONE  =     F    Hartree Fock one center treatment
   AEXX    =    0.0000 exact exchange contribution

 Parameters of functionals:
   PE:
     No parameter
 
 Van der Waals corrections
   IVDW    =     0    specifies the selected vdW correction

 Linear response parameters
   LEPSILON=     F    determine dielectric tensor
   LRPA    =     F    only Hartree local field effects (RPA)
   LNABLA  =     F    use nabla operator in PAW spheres
   LVEL    =     F    velocity operator in full k-point grid
   CSHIFT  =0.1000    complex shift for real part using Kramers Kronig
   OMEGAMAX=  -1.0    maximum frequency
   DEG_THRESHOLD= 0.2000000E-02 threshold for treating states as degnerate
   RTIME   =   -0.100 relaxation time in fs
  (WPLASMAI=    0.000 imaginary part of plasma frequency in eV, 0.658/RTIME)
   DFIELD  = 0.0000000 0.0000000 0.0000000 field for delta impulse in time
 
  Optional k-point grid parameters
   LKPOINTS_OPT  =     F    use optional k-point grid
   KPOINTS_OPT_MODE=     1    mode for optional k-point grid
 
 Orbital magnetization related:
   ORBITALMAG=     F  switch on orbital magnetization
   LCHIMAG   =     F  perturbation theory with respect to B field
   DQ        =  0.001000  dq finite difference perturbation B field
   LLRAUG    =     F  two centre corrections for induced B field
   LBONE     =     F  B-component reconstruction in AE one-centre
   LVGVCALC  =     T  calculate vGv susceptibility
   LVGVAPPL  =     F  apply vGv susceptibility instead of pGv for G=0

 Random number generation:
   RANDOM_GENERATOR = DEFAULT
   PCG_SEED         = not used


--------------------------------------------------------------------------------------------------------


 quickmin algorithm: (dynamic with friction)
   using selective dynamics as specified on POSCAR
 charge density and potential will be updated during run
 non-spin polarized calculation
 Variant of blocked Davidson
 Davidson routine will perform the subspace rotation
 perform sub-space diagonalisation
    after iterative eigenvector-optimisation
 modified Broyden-mixing scheme, WC =      100.0
 initial mixing is a Kerker type mixing with AMIX =  0.4000 and BMIX =      1.0000
 Hartree-type preconditioning will be used
 using additional bands           40
 real space projection scheme for non local part
 use partial core corrections
 calculate Harris-corrections to forces 
   (improved forces if not selfconsistent)
 use gradient corrections 
 use of overlap-Matrix (Vanderbilt PP)
 Gauss-broadening in eV      SIGMA  =   0.41


--------------------------------------------------------------------------------------------------------


  energy-cutoff  :      370.00
  volume of cell :      988.15
      direct lattice vectors                 reciprocal lattice vectors
     8.309900284  0.000000000  0.000000000     0.120338387  0.069477400  0.000000000
    -4.154950142  7.196584749  0.000000000     0.000000000  0.138954801  0.000000000
     0.000000000  0.000000000 16.523500443     0.000000000  0.000000000  0.060519864

  length of vectors
     8.309900284  8.309900284 16.523500443     0.138954801  0.138954801  0.060519864


 
 k-points in units of 2pi/SCALE and weight: Automatic mesh                          
   0.01504230  0.02605403  0.00000000       0.042
  -0.01504230  0.02605403  0.00000000       0.042
  -0.03008460  0.00000000  0.00000000       0.042
   0.04512690  0.04342338  0.00000000       0.042
  -0.01504230  0.06079273  0.00000000       0.042
   0.06016919  0.08684675  0.00000000       0.042
  -0.04512690  0.04342338  0.00000000       0.042
   0.01504230  0.06079273  0.00000000       0.042
   0.06016919  0.01736935  0.00000000       0.042
  -0.04512690 -0.00868468  0.00000000       0.042
  -0.01504230 -0.04342338  0.00000000       0.042
   0.03008460 -0.03473870  0.00000000       0.042
   0.04512690 -0.00868468  0.00000000       0.042
   0.01504230 -0.04342338  0.00000000       0.042
  -0.03008460 -0.03473870  0.00000000       0.042
  -0.01504230  0.00868468  0.00000000       0.042
  -0.01504230 -0.00868468  0.00000000       0.042
   0.00000000 -0.01736935  0.00000000       0.042
   0.04512690  0.07816208  0.00000000       0.042
  -0.04512690 -0.06079273  0.00000000       0.042
   0.03008460  0.06947740  0.00000000       0.042
  -0.04512690  0.02605403  0.00000000       0.042
  -0.04512690 -0.02605403  0.00000000       0.042
   0.00000000 -0.05210805  0.00000000       0.042
 
 k-points in reciprocal lattice and weights: Automatic mesh                          
   0.12500000  0.12500000  0.00000000       0.042
  -0.12500000  0.25000000  0.00000000       0.042
  -0.25000000  0.12500000  0.00000000       0.042
   0.37500000  0.12500000  0.00000000       0.042
  -0.12500000  0.50000000  0.00000000       0.042
   0.50000000  0.37500000  0.00000000       0.042
  -0.37500000  0.50000000  0.00000000       0.042
   0.12500000  0.37500000  0.00000000       0.042
   0.50000000 -0.12500000  0.00000000       0.042
  -0.37500000  0.12500000  0.00000000       0.042
  -0.12500000 -0.25000000  0.00000000       0.042
   0.25000000 -0.37500000  0.00000000       0.042
   0.37500000 -0.25000000  0.00000000       0.042
   0.12500000 -0.37500000  0.00000000       0.042
  -0.25000000 -0.12500000  0.00000000       0.042
  -0.12500000  0.12500000  0.00000000       0.042
  -0.12500000  0.00000000  0.00000000       0.042
   0.00000000 -0.12500000  0.00000000       0.042
   0.37500000  0.37500000  0.00000000       0.042
  -0.37500000 -0.25000000  0.00000000       0.042
   0.25000000  0.37500000  0.00000000       0.042
  -0.37500000  0.37500000  0.00000000       0.042
  -0.37500000  0.00000000  0.00000000       0.042
   0.00000000 -0.37500000  0.00000000       0.042
 
 position of ions in fractional coordinates (direct lattice) 
   0.99922980  0.99989485  0.43774653
   0.11093000  0.22330000  0.16024000
   0.22186389  0.11225903  0.29891337
   0.33281562  0.00032034  0.43754814
   0.44426000  0.22330000  0.16024000
   0.55487217  0.11172384  0.29820748
   0.66596630  0.00037302  0.43681906
   0.77760000  0.22330000  0.16024000
   0.88860887  0.11191595  0.29855829
   0.99836615  0.33334614  0.43760612
   0.11093000  0.55664000  0.16024000
   0.22178628  0.44497498  0.29876699
   0.33233959  0.33314674  0.43951422
   0.44426000  0.55664000  0.16024000
   0.55429865  0.44484873  0.29859515
   0.66571278  0.33368816  0.43667635
   0.77760000  0.55664000  0.16024000
   0.88837371  0.44503979  0.29817576
   0.99902204  0.66681835  0.43654894
   0.11093000  0.88997000  0.16024000
   0.22189995  0.77858829  0.29834235
   0.33328764  0.66761251  0.43730502
   0.44426000  0.88997000  0.16024000
   0.55485866  0.77840134  0.29822794
   0.66610770  0.66702624  0.43670799
   0.77760000  0.88997000  0.16024000
   0.88844425  0.77874280  0.29814258
   0.99982000  0.00108000  0.02337000
   0.33315000  0.00108000  0.02337000
   0.66649000  0.00108000  0.02337000
   0.99982000  0.33441000  0.02337000
   0.33315000  0.33441000  0.02337000
   0.66649000  0.33441000  0.02337000
   0.99982000  0.66775000  0.02337000
   0.33315000  0.66775000  0.02337000
   0.66649000  0.66775000  0.02337000
   0.24174568  0.14252294  0.68348111
   0.25595898  0.28908756  0.67268919
   0.22633463  0.99643011  0.69706055
 
 position of ions in cartesian coordinates  (Angst):
   4.14898673  7.19582803  7.23310505
  -0.00598313  1.60699737  2.64772571
   1.37723614  0.80788164  4.93909528
   2.76433362  0.00230535  7.22982691
   2.76395593  1.60699737  2.64772571
   4.14672543  0.80403012  4.92743142
   5.53256369  0.00268445  7.21777997
   5.53397809  1.60699737  2.64772571
   6.91924593  0.80541259  4.93322809
   6.91128652  2.39895376  7.23078495
  -1.39099421  4.00590693  2.64772571
  -0.00582703  3.20230017  4.93667644
   1.37750070  2.39751878  7.26231347
   1.37894485  4.00590693  2.64772571
   2.75784219  3.20139160  4.93383705
   4.14554921  2.40141509  7.21542186
   4.14896701  4.00590693  2.64772571
   5.53317883  3.20276657  4.92690737
   5.53117654  4.79881478  7.21331658
  -2.77596374  6.40474453  2.64772571
  -1.39102904  5.60317663  4.92965992
  -0.00430966  4.80453003  7.22580976
  -0.00602468  6.40474453  2.64772571
   1.37660137  5.60183124  4.92776954
   2.76382782  4.80031085  7.21594463
   2.76399748  6.40474453  2.64772571
   4.14724564  5.60428853  4.92635908
   8.30391716  0.00777231  0.38615421
   2.76395593  0.00777231  0.38615421
   5.53397809  0.00777231  0.38615421
   6.91894762  2.40660991  0.38615421
   1.37898640  2.40660991  0.38615421
   4.14900856  2.40660991  0.38615421
   5.53393654  4.80551947  0.38615421
  -0.00602468  4.80551947  0.38615421
   2.76399748  4.80551947  0.38615421
   1.41670679  1.02567841 11.29350045
   0.92584922  2.08044314 11.11518015
  -2.25929921  7.17089373 11.51788025
 


--------------------------------------------------------------------------------------------------------


 k-point     1 :   0.1250 0.1250 0.0000  plane waves:   15951
 k-point     2 :  -0.1250 0.2500 0.0000  plane waves:   15951
 k-point     3 :  -0.2500 0.1250 0.0000  plane waves:   15951
 k-point     4 :   0.3750 0.1250 0.0000  plane waves:   15982
 k-point     5 :  -0.1250 0.5000 0.0000  plane waves:   15982
 k-point     6 :   0.5000 0.3750 0.0000  plane waves:   15982
 k-point     7 :  -0.3750 0.5000 0.0000  plane waves:   15982
 k-point     8 :   0.1250 0.3750 0.0000  plane waves:   15982
 k-point     9 :   0.5000-0.1250 0.0000  plane waves:   15982
 k-point    10 :  -0.3750 0.1250 0.0000  plane waves:   15967
 k-point    11 :  -0.1250-0.2500 0.0000  plane waves:   15967
 k-point    12 :   0.2500-0.3750 0.0000  plane waves:   15967
 k-point    13 :   0.3750-0.2500 0.0000  plane waves:   15967
 k-point    14 :   0.1250-0.3750 0.0000  plane waves:   15967
 k-point    15 :  -0.2500-0.1250 0.0000  plane waves:   15967
 k-point    16 :  -0.1250 0.1250 0.0000  plane waves:   15947
 k-point    17 :  -0.1250 0.0000 0.0000  plane waves:   15947
 k-point    18 :   0.0000-0.1250 0.0000  plane waves:   15947
 k-point    19 :   0.3750 0.3750 0.0000  plane waves:   16001
 k-point    20 :  -0.3750-0.2500 0.0000  plane waves:   16001
 k-point    21 :   0.2500 0.3750 0.0000  plane waves:   16001
 k-point    22 :  -0.3750 0.3750 0.0000  plane waves:   15956
 k-point    23 :  -0.3750 0.0000 0.0000  plane waves:   15956
 k-point    24 :   0.0000-0.3750 0.0000  plane waves:   15956

 maximum and minimum number of plane-waves per node :      2691     2615

 maximum number of plane-waves:     16001
 maximum index in each direction: 
   IXMAX=   13   IYMAX=   13   IZMAX=   25
   IXMIN=  -13   IYMIN=  -13   IZMIN=  -25


 real space projection operators:
  total allocation   :       9690.70 KBytes
  max/ min on nodes  :       1708.27       1431.33


 parallel 3D FFT for wavefunctions:
    minimum data exchange during FFTs selected (reduces bandwidth)
 parallel 3D FFT for charge:
    minimum data exchange during FFTs selected (reduces bandwidth)


 total amount of memory used by VASP MPI-rank0   101486. kBytes
=======================================================================

   base                                    :      30000. kBytes
   nonlr-proj                              :       3359. kBytes
   fftplans                                :       2350. kBytes
   grid                                    :       4208. kBytes
   one-center                              :        108. kBytes
   wavefun                                 :      61461. kBytes
 
     INWAV:  cpu time      0.0001: real time      0.0001
 Broyden mixing: mesh for mixing (old mesh)
   NGX = 27   NGY = 27   NGZ = 51
  (NGX  = 80   NGY  = 80   NGZ  =160)
  gives a total of  37179 points

 initial charge density was supplied:
 charge density of overlapping atoms calculated
 number of electron     376.0000000 magnetization 
 keeping initial charge density in first step


--------------------------------------------------------------------------------------------------------


 Maximum index for non-local projection operator          386
 Maximum index for augmentation-charges          588 (set IRDMAX)


--------------------------------------------------------------------------------------------------------


 First call to EWALD:  gamma=   0.178
 Maximum number of real-space cells   4x   4x   2
 Maximum number of reciprocal cells   2x   2x   4

    FEWALD:  cpu time      1.5960: real time      1.6201


--------------------------------------- Ionic step        1  -------------------------------------------




--------------------------------------- Iteration      1(   1)  ---------------------------------------


    POTLOK:  cpu time      0.0553: real time      0.0627
    SETDIJ:  cpu time      0.1074: real time      0.1120
     EDDAV:  cpu time     14.5739: real time     15.0713
       DOS:  cpu time      0.3129: real time      0.3284
    --------------------------------------------
      LOOP:  cpu time     15.0495: real time     15.5743

 eigenvalue-minimisations  : 10968
 total energy-change (2. order) : 0.2100243E+04  (-0.1521223E+05)
 number of electron     376.0000000 magnetization 
 augmentation part      376.0000000 magnetization 

 Free energy of the ion-electron system (eV)
  ---------------------------------------------------
  alpha Z        PSCENC =       918.22725072
  Ewald energy   TEWEN  =     20287.71132282
  -Hartree energ DENC   =    -52926.97404932
  -exchange      EXHF   =         0.00000000
  -V(xc)+E(xc)   XCENC  =      -993.44944450
  PAW double counting   =     29844.20032359   -27608.36462881
  entropy T*S    EENTRO =        -1.25463077
  eigenvalues    EBANDS =      2418.28364496
  atomic energy  EATOM  =     30161.86332653
  Solvation  Ediel_sol  =         0.00000000
  ---------------------------------------------------
  free energy    TOTEN  =      2100.24311523 eV

  energy without entropy =     2101.49774600  energy(sigma->0) =     2100.87043061


--------------------------------------------------------------------------------------------------------




--------------------------------------- Iteration      1(   2)  ---------------------------------------


     EDDAV:  cpu time     15.5399: real time     15.6521
       DOS:  cpu time      0.2976: real time      0.2984
    --------------------------------------------
      LOOP:  cpu time     15.8375: real time     15.9505

 eigenvalue-minimisations  : 11888
 total energy-change (2. order) :-0.2195540E+04  (-0.2068508E+04)
 number of electron     376.0000000 magnetization 
 augmentation part      376.0000000 magnetization 

 Free energy of the ion-electron system (eV)
  ---------------------------------------------------
  alpha Z        PSCENC =       918.22725072
  Ewald energy   TEWEN  =     20287.71132282
  -Hartree energ DENC   =    -52926.97404932
  -exchange      EXHF   =         0.00000000
  -V(xc)+E(xc)   XCENC  =      -993.44944450
  PAW double counting   =     29844.20032359   -27608.36462881
  entropy T*S    EENTRO =        -3.51723316
  eigenvalues    EBANDS =       225.00616146
  atomic energy  EATOM  =     30161.86332653
  Solvation  Ediel_sol  =         0.00000000
  ---------------------------------------------------
  free energy    TOTEN  =       -95.29697065 eV

  energy without entropy =      -91.77973750  energy(sigma->0) =      -93.53835407


--------------------------------------------------------------------------------------------------------




--------------------------------------- Iteration      1(   3)  ---------------------------------------


     EDDAV:  cpu time     15.9387: real time     16.0402
       DOS:  cpu time      0.3028: real time      0.3037
    --------------------------------------------
      LOOP:  cpu time     16.2415: real time     16.3439

 eigenvalue-minimisations  : 12224
 total energy-change (2. order) :-0.1156450E+03  (-0.1057999E+03)
 number of electron     376.0000000 magnetization 
 augmentation part      376.0000000 magnetization 

 Free energy of the ion-electron system (eV)
  ---------------------------------------------------
  alpha Z        PSCENC =       918.22725072
  Ewald energy   TEWEN  =     20287.71132282
  -Hartree energ DENC   =    -52926.97404932
  -exchange      EXHF   =         0.00000000
  -V(xc)+E(xc)   XCENC  =      -993.44944450
  PAW double counting   =     29844.20032359   -27608.36462881
  entropy T*S    EENTRO =        -5.22699825
  eigenvalues    EBANDS =       111.07090096
  atomic energy  EATOM  =     30161.86332653
  Solvation  Ediel_sol  =         0.00000000
  ---------------------------------------------------
  free energy    TOTEN  =      -210.94199625 eV

  energy without entropy =     -205.71499800  energy(sigma->0) =     -208.32849713


--------------------------------------------------------------------------------------------------------




--------------------------------------- Iteration      1(   4)  ---------------------------------------


     EDDAV:  cpu time     17.1043: real time     17.2083
       DOS:  cpu time      0.2793: real time      0.2801
    --------------------------------------------
      LOOP:  cpu time     17.3836: real time     17.4884

 eigenvalue-minimisations  : 12568
 total energy-change (2. order) :-0.3291719E+01  (-0.3240931E+01)
 number of electron     376.0000000 magnetization 
 augmentation part      376.0000000 magnetization 

 Free energy of the ion-electron system (eV)
  ---------------------------------------------------
  alpha Z        PSCENC =       918.22725072
  Ewald energy   TEWEN  =     20287.71132282
  -Hartree energ DENC   =    -52926.97404932
  -exchange      EXHF   =         0.00000000
  -V(xc)+E(xc)   XCENC  =      -993.44944450
  PAW double counting   =     29844.20032359   -27608.36462881
  entropy T*S    EENTRO =        -5.26623587
  eigenvalues    EBANDS =       107.81841915
  atomic energy  EATOM  =     30161.86332653
  Solvation  Ediel_sol  =         0.00000000
  ---------------------------------------------------
  free energy    TOTEN  =      -214.23371567 eV

  energy without entropy =     -208.96747981  energy(sigma->0) =     -211.60059774


--------------------------------------------------------------------------------------------------------




--------------------------------------- Iteration      1(   5)  ---------------------------------------


     EDDAV:  cpu time     21.5907: real time     21.7357
       DOS:  cpu time      0.2789: real time      0.2797
    CHARGE:  cpu time      0.6220: real time      0.6392
    MIXING:  cpu time      0.8481: real time      0.8574
    --------------------------------------------
      LOOP:  cpu time     23.3397: real time     23.5120

 eigenvalue-minimisations  : 16984
 total energy-change (2. order) :-0.1651518E+00  (-0.1641240E+00)
 number of electron     376.0000019 magnetization 
 augmentation part      146.9740310 magnetization 

 Broyden mixing:
  rms(total) = 0.39593E+01    rms(broyden)= 0.39586E+01
  rms(prec ) = 0.41133E+01
  weight for this iteration     100.00

 Free energy of the ion-electron system (eV)
  ---------------------------------------------------
  alpha Z        PSCENC =       918.22725072
  Ewald energy   TEWEN  =     20287.71132282
  -Hartree energ DENC   =    -52926.97404932
  -exchange      EXHF   =         0.00000000
  -V(xc)+E(xc)   XCENC  =      -993.44944450
  PAW double counting   =     29844.20032359   -27608.36462881
  entropy T*S    EENTRO =        -5.26700648
  eigenvalues    EBANDS =       107.65403800
  atomic energy  EATOM  =     30161.86332653
  Solvation  Ediel_sol  =         0.00000000
  ---------------------------------------------------
  free energy    TOTEN  =      -214.39886744 eV

  energy without entropy =     -209.13186096  energy(sigma->0) =     -211.76536420


--------------------------------------------------------------------------------------------------------




--------------------------------------- Iteration      1(   6)  ---------------------------------------


    POTLOK:  cpu time      0.0551: real time      0.0553
    SETDIJ:  cpu time      0.0542: real time      0.0543
     EDDAV:  cpu time     16.0091: real time     16.1054
       DOS:  cpu time      0.2927: real time      0.2935
    CHARGE:  cpu time      0.6212: real time      0.6233
    MIXING:  cpu time      0.8486: real time      0.8626
    --------------------------------------------
      LOOP:  cpu time     17.8808: real time     17.9944

 eigenvalue-minimisations  : 11636
 total energy-change (2. order) : 0.9552400E+01  (-0.3278847E+01)
 number of electron     376.0000019 magnetization 
 augmentation part      152.5087225 magnetization 

 Broyden mixing:
  rms(total) = 0.19573E+01    rms(broyden)= 0.19572E+01
  rms(prec ) = 0.19906E+01
  weight for this iteration     100.00

 eigenvalues of (default mixing * dielectric matrix)
  average eigenvalue GAMMA=   1.4975
  1.4975

 Free energy of the ion-electron system (eV)
  ---------------------------------------------------
  alpha Z        PSCENC =       918.22725072
  Ewald energy   TEWEN  =     20287.71132282
  -Hartree energ DENC   =    -52774.47251421
  -exchange      EXHF   =         0.00000000
  -V(xc)+E(xc)   XCENC  =      -999.15209014
  PAW double counting   =     32029.58531662   -29837.16042931
  entropy T*S    EENTRO =        -5.19968979
  eigenvalues    EBANDS =        13.75103924
  atomic energy  EATOM  =     30161.86332653
  Solvation  Ediel_sol  =         0.00000000
  ---------------------------------------------------
  free energy    TOTEN  =      -204.84646751 eV

  energy without entropy =     -199.64677772  energy(sigma->0) =     -202.24662261


--------------------------------------------------------------------------------------------------------




--------------------------------------- Iteration      1(   7)  ---------------------------------------


    POTLOK:  cpu time      0.0535: real time      0.0547
    SETDIJ:  cpu time      0.0549: real time      0.0551
     EDDAV:  cpu time     16.2309: real time     16.3647
       DOS:  cpu time      0.3075: real time      0.3085
    CHARGE:  cpu time      0.6169: real time      0.6194
    MIXING:  cpu time      0.8488: real time      0.8594
    --------------------------------------------
      LOOP:  cpu time     18.1125: real time     18.2618

 eigenvalue-minimisations  : 12088
 total energy-change (2. order) :-0.3713559E+01  (-0.7769160E+00)
 number of electron     376.0000031 magnetization 
 augmentation part      152.7527366 magnetization 

 Broyden mixing:
  rms(total) = 0.22967E+01    rms(broyden)= 0.22965E+01
  rms(prec ) = 0.32797E+01
  weight for this iteration     100.00

 eigenvalues of (default mixing * dielectric matrix)
  average eigenvalue GAMMA=   0.9699
  1.6424  0.2975

 Free energy of the ion-electron system (eV)
  ---------------------------------------------------
  alpha Z        PSCENC =       918.22725072
  Ewald energy   TEWEN  =     20287.71132282
  -Hartree energ DENC   =    -52768.97697847
  -exchange      EXHF   =         0.00000000
  -V(xc)+E(xc)   XCENC  =      -999.46656684
  PAW double counting   =     33920.22125004   -31750.31827968
  entropy T*S    EENTRO =        -4.72325697
  eigenvalues    EBANDS =        26.90190509
  atomic energy  EATOM  =     30161.86332653
  Solvation  Ediel_sol  =         0.00000000
  ---------------------------------------------------
  free energy    TOTEN  =      -208.56002675 eV

  energy without entropy =     -203.83676978  energy(sigma->0) =     -206.19839826


--------------------------------------------------------------------------------------------------------




--------------------------------------- Iteration      1(   8)  ---------------------------------------


    POTLOK:  cpu time      0.0539: real time      0.0542
    SETDIJ:  cpu time      0.0522: real time      0.0523
     EDDAV:  cpu time     17.2166: real time     17.3303
       DOS:  cpu time      0.3081: real time      0.3089
    CHARGE:  cpu time      0.6223: real time      0.6243
    MIXING:  cpu time      0.8490: real time      0.8512
    --------------------------------------------
      LOOP:  cpu time     19.1020: real time     19.2212

 eigenvalue-minimisations  : 13032
 total energy-change (2. order) : 0.2347048E+01  (-0.1306121E+01)
 number of electron     376.0000032 magnetization 
 augmentation part      152.6584241 magnetization 

 Broyden mixing:
  rms(total) = 0.14894E+01    rms(broyden)= 0.14891E+01
  rms(prec ) = 0.26127E+01
  weight for this iteration     100.00

 eigenvalues of (default mixing * dielectric matrix)
  average eigenvalue GAMMA=   0.8944
  1.8832  0.6397  0.1603

 Free energy of the ion-electron system (eV)
  ---------------------------------------------------
  alpha Z        PSCENC =       918.22725072
  Ewald energy   TEWEN  =     20287.71132282
  -Hartree energ DENC   =    -52815.81576236
  -exchange      EXHF   =         0.00000000
  -V(xc)+E(xc)   XCENC  =      -999.65037676
  PAW double counting   =     34231.78660990   -32065.40886351
  entropy T*S    EENTRO =        -4.83375706
  eigenvalues    EBANDS =        79.90727099
  atomic energy  EATOM  =     30161.86332653
  Solvation  Ediel_sol  =         0.00000000
  ---------------------------------------------------
  free energy    TOTEN  =      -206.21297872 eV

  energy without entropy =     -201.37922167  energy(sigma->0) =     -203.79610019


--------------------------------------------------------------------------------------------------------




--------------------------------------- Iteration      1(   9)  ---------------------------------------


    POTLOK:  cpu time      0.0533: real time      0.0555
    SETDIJ:  cpu time      0.0541: real time      0.0543
     EDDAV:  cpu time     17.1033: real time     17.2080
       DOS:  cpu time      0.3025: real time      0.3033
    CHARGE:  cpu time      0.6197: real time      0.6218
    MIXING:  cpu time      0.8491: real time      0.8513
    --------------------------------------------
      LOOP:  cpu time     18.9820: real time     19.0941

 eigenvalue-minimisations  : 12936
 total energy-change (2. order) :-0.1731498E+01  (-0.1131179E+01)
 number of electron     376.0000003 magnetization 
 augmentation part      152.4584008 magnetization 

 Broyden mixing:
  rms(total) = 0.16808E+01    rms(broyden)= 0.16806E+01
  rms(prec ) = 0.27989E+01
  weight for this iteration     100.00

 eigenvalues of (default mixing * dielectric matrix)
  average eigenvalue GAMMA=   0.9160
  2.3749  0.9688  0.2104  0.1100

 Free energy of the ion-electron system (eV)
  ---------------------------------------------------
  alpha Z        PSCENC =       918.22725072
  Ewald energy   TEWEN  =     20287.71132282
  -Hartree energ DENC   =    -52838.20653448
  -exchange      EXHF   =         0.00000000
  -V(xc)+E(xc)   XCENC  =      -999.74684202
  PAW double counting   =     34598.59558858   -32436.15691702
  entropy T*S    EENTRO =        -4.68002473
  eigenvalues    EBANDS =       104.44835248
  atomic energy  EATOM  =     30161.86332653
  Solvation  Ediel_sol  =         0.00000000
  ---------------------------------------------------
  free energy    TOTEN  =      -207.94447711 eV

  energy without entropy =     -203.26445238  energy(sigma->0) =     -205.60446475


--------------------------------------------------------------------------------------------------------




--------------------------------------- Iteration      1(  10)  ---------------------------------------


    POTLOK:  cpu time      0.0546: real time      0.0549
    SETDIJ:  cpu time      0.0533: real time      0.0535
     EDDAV:  cpu time     16.8135: real time     16.9172
       DOS:  cpu time      0.3015: real time      0.3023
    CHARGE:  cpu time      0.6176: real time      0.6197
    MIXING:  cpu time      0.8492: real time      0.8514
    --------------------------------------------
      LOOP:  cpu time     18.6897: real time     18.7991

 eigenvalue-minimisations  : 12648
 total energy-change (2. order) : 0.2915147E+01  (-0.4799551E+00)
 number of electron     376.0000020 magnetization 
 augmentation part      152.8838596 magnetization 

 Broyden mixing:
  rms(total) = 0.95275E+00    rms(broyden)= 0.95254E+00
  rms(prec ) = 0.12243E+01
  weight for this iteration     100.00

 eigenvalues of (default mixing * dielectric matrix)
  average eigenvalue GAMMA=   0.7935
  2.4332  0.9950  0.2342  0.1912  0.1140

 Free energy of the ion-electron system (eV)
  ---------------------------------------------------
  alpha Z        PSCENC =       918.22725072
  Ewald energy   TEWEN  =     20287.71132282
  -Hartree energ DENC   =    -52821.72007266
  -exchange      EXHF   =         0.00000000
  -V(xc)+E(xc)   XCENC  =      -999.73508249
  PAW double counting   =     35424.42348072   -33270.75097646
  entropy T*S    EENTRO =        -5.02207017
  eigenvalues    EBANDS =        99.97349101
  atomic energy  EATOM  =     30161.86332653
  Solvation  Ediel_sol  =         0.00000000
  ---------------------------------------------------
  free energy    TOTEN  =      -205.02932998 eV

  energy without entropy =     -200.00725981  energy(sigma->0) =     -202.51829489


--------------------------------------------------------------------------------------------------------




--------------------------------------- Iteration      1(  11)  ---------------------------------------


    POTLOK:  cpu time      0.0535: real time      0.0547
    SETDIJ:  cpu time      0.0550: real time      0.0552
     EDDAV:  cpu time     16.7480: real time     16.8508
       DOS:  cpu time      0.3012: real time      0.3021
    CHARGE:  cpu time      0.6187: real time      0.6208
    MIXING:  cpu time      0.8494: real time      0.8517
    --------------------------------------------
      LOOP:  cpu time     18.6259: real time     18.7352

 eigenvalue-minimisations  : 12456
 total energy-change (2. order) : 0.1011967E+01  (-0.1466203E+00)
 number of electron     376.0000019 magnetization 
 augmentation part      152.9134859 magnetization 

 Broyden mixing:
  rms(total) = 0.15319E+00    rms(broyden)= 0.15276E+00
  rms(prec ) = 0.23950E+00
  weight for this iteration     100.00

 eigenvalues of (default mixing * dielectric matrix)
  average eigenvalue GAMMA=   0.7853
  2.4063  1.0554  0.6965  0.2208  0.2208  0.1119

 Free energy of the ion-electron system (eV)
  ---------------------------------------------------
  alpha Z        PSCENC =       918.22725072
  Ewald energy   TEWEN  =     20287.71132282
  -Hartree energ DENC   =    -52821.24112129
  -exchange      EXHF   =         0.00000000
  -V(xc)+E(xc)   XCENC  =      -999.67385149
  PAW double counting   =     35526.85383102   -33373.92864784
  entropy T*S    EENTRO =        -5.20424756
  eigenvalues    EBANDS =       101.37477394
  atomic energy  EATOM  =     30161.86332653
  Solvation  Ediel_sol  =         0.00000000
  ---------------------------------------------------
  free energy    TOTEN  =      -204.01736316 eV

  energy without entropy =     -198.81311559  energy(sigma->0) =     -201.41523938


--------------------------------------------------------------------------------------------------------




--------------------------------------- Iteration      1(  12)  ---------------------------------------


    POTLOK:  cpu time      0.0542: real time      0.0544
    SETDIJ:  cpu time      0.0559: real time      0.0560
     EDDAV:  cpu time     16.0610: real time     16.1593
       DOS:  cpu time      0.3094: real time      0.3102
    CHARGE:  cpu time      0.6179: real time      0.6200
    MIXING:  cpu time      0.8503: real time      0.8525
    --------------------------------------------
      LOOP:  cpu time     17.9486: real time     18.0524

 eigenvalue-minimisations  : 11816
 total energy-change (2. order) : 0.4408533E-02  (-0.2082577E-01)
 number of electron     376.0000021 magnetization 
 augmentation part      152.7786751 magnetization 

 Broyden mixing:
  rms(total) = 0.93297E-01    rms(broyden)= 0.93219E-01
  rms(prec ) = 0.11570E+00
  weight for this iteration     100.00

 eigenvalues of (default mixing * dielectric matrix)
  average eigenvalue GAMMA=   0.7285
  2.4060  1.0469  0.6359  0.4470  0.2259  0.2259  0.1120

 Free energy of the ion-electron system (eV)
  ---------------------------------------------------
  alpha Z        PSCENC =       918.22725072
  Ewald energy   TEWEN  =     20287.71132282
  -Hartree energ DENC   =    -52830.38932819
  -exchange      EXHF   =         0.00000000
  -V(xc)+E(xc)   XCENC  =      -999.50638932
  PAW double counting   =     35549.04560422   -33395.30497040
  entropy T*S    EENTRO =        -5.22275530
  eigenvalues    EBANDS =       109.56298429
  atomic energy  EATOM  =     30161.86332653
  Solvation  Ediel_sol  =         0.00000000
  ---------------------------------------------------
  free energy    TOTEN  =      -204.01295462 eV

  energy without entropy =     -198.79019932  energy(sigma->0) =     -201.40157697


--------------------------------------------------------------------------------------------------------




--------------------------------------- Iteration      1(  13)  ---------------------------------------


    POTLOK:  cpu time      0.0532: real time      0.0551
    SETDIJ:  cpu time      0.0552: real time      0.0554
     EDDAV:  cpu time     15.6567: real time     15.7507
       DOS:  cpu time      0.3062: real time      0.3070
    CHARGE:  cpu time      0.6216: real time      0.6237
    MIXING:  cpu time      0.8499: real time      0.8522
    --------------------------------------------
      LOOP:  cpu time     17.5429: real time     17.6441

 eigenvalue-minimisations  : 11412
 total energy-change (2. order) : 0.2238532E-02  (-0.3461263E-02)
 number of electron     376.0000021 magnetization 
 augmentation part      152.7755747 magnetization 

 Broyden mixing:
  rms(total) = 0.63886E-01    rms(broyden)= 0.63875E-01
  rms(prec ) = 0.83586E-01
  weight for this iteration     100.00

 eigenvalues of (default mixing * dielectric matrix)
  average eigenvalue GAMMA=   0.7707
  2.3974  1.0271  1.0271  0.8914  0.1120  0.2225  0.2225  0.2656

 Free energy of the ion-electron system (eV)
  ---------------------------------------------------
  alpha Z        PSCENC =       918.22725072
  Ewald energy   TEWEN  =     20287.71132282
  -Hartree energ DENC   =    -52833.08805910
  -exchange      EXHF   =         0.00000000
  -V(xc)+E(xc)   XCENC  =      -999.48633949
  PAW double counting   =     35551.84677050   -33397.96672980
  entropy T*S    EENTRO =        -5.22561624
  eigenvalues    EBANDS =       112.10735796
  atomic energy  EATOM  =     30161.86332653
  Solvation  Ediel_sol  =         0.00000000
  ---------------------------------------------------
  free energy    TOTEN  =      -204.01071609 eV

  energy without entropy =     -198.78509985  energy(sigma->0) =     -201.39790797


--------------------------------------------------------------------------------------------------------




--------------------------------------- Iteration      1(  14)  ---------------------------------------


    POTLOK:  cpu time      0.0547: real time      0.0550
    SETDIJ:  cpu time      0.0541: real time      0.0542
     EDDAV:  cpu time     15.9593: real time     16.0576
       DOS:  cpu time      0.3143: real time      0.3152
    CHARGE:  cpu time      0.6179: real time      0.6200
    MIXING:  cpu time      0.8533: real time      0.8556
    --------------------------------------------
      LOOP:  cpu time     17.8536: real time     17.9576

 eigenvalue-minimisations  : 11756
 total energy-change (2. order) : 0.1877078E-02  (-0.1429359E-02)
 number of electron     376.0000020 magnetization 
 augmentation part      152.7690494 magnetization 

 Broyden mixing:
  rms(total) = 0.60813E-01    rms(broyden)= 0.60807E-01
  rms(prec ) = 0.87074E-01
  weight for this iteration     100.00

 eigenvalues of (default mixing * dielectric matrix)
  average eigenvalue GAMMA=   0.7649
  2.3823  1.2106  1.2106  0.8507  0.4198  0.1120  0.2231  0.2231  0.2517

 Free energy of the ion-electron system (eV)
  ---------------------------------------------------
  alpha Z        PSCENC =       918.22725072
  Ewald energy   TEWEN  =     20287.71132282
  -Hartree energ DENC   =    -52839.69302352
  -exchange      EXHF   =         0.00000000
  -V(xc)+E(xc)   XCENC  =      -999.44272624
  PAW double counting   =     35548.38412105   -33394.19737022
  entropy T*S    EENTRO =        -5.23056117
  eigenvalues    EBANDS =       118.36882101
  atomic energy  EATOM  =     30161.86332653
  Solvation  Ediel_sol  =         0.00000000
  ---------------------------------------------------
  free energy    TOTEN  =      -204.00883901 eV

  energy without entropy =     -198.77827784  energy(sigma->0) =     -201.39355843


--------------------------------------------------------------------------------------------------------




--------------------------------------- Iteration      1(  15)  ---------------------------------------


    POTLOK:  cpu time      0.0532: real time      0.0546
    SETDIJ:  cpu time      0.0556: real time      0.0557
     EDDAV:  cpu time     15.9580: real time     16.0639
       DOS:  cpu time      0.3102: real time      0.3111
    CHARGE:  cpu time      0.6175: real time      0.6196
    MIXING:  cpu time      0.8502: real time      0.8526
    --------------------------------------------
      LOOP:  cpu time     17.8447: real time     17.9575

 eigenvalue-minimisations  : 11696
 total energy-change (2. order) : 0.2456699E-02  (-0.8093878E-03)
 number of electron     376.0000021 magnetization 
 augmentation part      152.7624504 magnetization 

 Broyden mixing:
  rms(total) = 0.46635E-01    rms(broyden)= 0.46630E-01
  rms(prec ) = 0.69160E-01
  weight for this iteration     100.00

 eigenvalues of (default mixing * dielectric matrix)
  average eigenvalue GAMMA=   0.8161
  2.2744  1.9613  1.1479  0.8787  0.8295  0.1120  0.2887  0.2232  0.2232  0.2223

 Free energy of the ion-electron system (eV)
  ---------------------------------------------------
  alpha Z        PSCENC =       918.22725072
  Ewald energy   TEWEN  =     20287.71132282
  -Hartree energ DENC   =    -52843.73967367
  -exchange      EXHF   =         0.00000000
  -V(xc)+E(xc)   XCENC  =      -999.41406694
  PAW double counting   =     35543.61712682   -33389.27075725
  entropy T*S    EENTRO =        -5.23233930
  eigenvalues    EBANDS =       122.23142795
  atomic energy  EATOM  =     30161.86332653
  Solvation  Ediel_sol  =         0.00000000
  ---------------------------------------------------
  free energy    TOTEN  =      -204.00638231 eV

  energy without entropy =     -198.77404302  energy(sigma->0) =     -201.39021267


--------------------------------------------------------------------------------------------------------




--------------------------------------- Iteration      1(  16)  ---------------------------------------


    POTLOK:  cpu time      0.0545: real time      0.0548
    SETDIJ:  cpu time      0.0543: real time      0.0545
     EDDAV:  cpu time     15.9063: real time     16.0095
       DOS:  cpu time      0.3128: real time      0.3137
    CHARGE:  cpu time      0.6189: real time      0.6210
    MIXING:  cpu time      0.8521: real time      0.8545
    --------------------------------------------
      LOOP:  cpu time     17.7989: real time     17.9080

 eigenvalue-minimisations  : 11680
 total energy-change (2. order) : 0.3556959E-02  (-0.5529440E-03)
 number of electron     376.0000021 magnetization 
 augmentation part      152.7508553 magnetization 

 Broyden mixing:
  rms(total) = 0.17185E-01    rms(broyden)= 0.17171E-01
  rms(prec ) = 0.25706E-01
  weight for this iteration     100.00

 eigenvalues of (default mixing * dielectric matrix)
  average eigenvalue GAMMA=   0.7889
  2.2026  2.1789  1.1421  0.8465  0.8465  0.3889  0.1120  0.2950  0.2230  0.2230
  0.2197

 Free energy of the ion-electron system (eV)
  ---------------------------------------------------
  alpha Z        PSCENC =       918.22725072
  Ewald energy   TEWEN  =     20287.71132282
  -Hartree energ DENC   =    -52850.50993031
  -exchange      EXHF   =         0.00000000
  -V(xc)+E(xc)   XCENC  =      -999.36175779
  PAW double counting   =     35534.15453032   -33379.59000539
  entropy T*S    EENTRO =        -5.23515989
  eigenvalues    EBANDS =       128.73759763
  atomic energy  EATOM  =     30161.86332653
  Solvation  Ediel_sol  =         0.00000000
  ---------------------------------------------------
  free energy    TOTEN  =      -204.00282536 eV

  energy without entropy =     -198.76766546  energy(sigma->0) =     -201.38524541


--------------------------------------------------------------------------------------------------------




--------------------------------------- Iteration      1(  17)  ---------------------------------------


    POTLOK:  cpu time      0.0532: real time      0.0556
    SETDIJ:  cpu time      0.0565: real time      0.0567
     EDDAV:  cpu time     15.8376: real time     15.9390
       DOS:  cpu time      0.3316: real time      0.3326
    CHARGE:  cpu time      0.6496: real time      0.6518
    MIXING:  cpu time      0.8511: real time      0.8534
    --------------------------------------------
      LOOP:  cpu time     17.7797: real time     17.8893

 eigenvalue-minimisations  : 11752
 total energy-change (2. order) : 0.4609151E-03  (-0.1780583E-03)
 number of electron     376.0000021 magnetization 
 augmentation part      152.7490109 magnetization 

 Broyden mixing:
  rms(total) = 0.14317E-01    rms(broyden)= 0.14314E-01
  rms(prec ) = 0.21803E-01
  weight for this iteration     100.00

 eigenvalues of (default mixing * dielectric matrix)
  average eigenvalue GAMMA=   0.8421
  2.4661  2.3055  1.1566  1.0391  1.0391  0.7540  0.1120  0.2992  0.2234  0.2234
  0.2665  0.2202

 Free energy of the ion-electron system (eV)
  ---------------------------------------------------
  alpha Z        PSCENC =       918.22725072
  Ewald energy   TEWEN  =     20287.71132282
  -Hartree energ DENC   =    -52852.93197068
  -exchange      EXHF   =         0.00000000
  -V(xc)+E(xc)   XCENC  =      -999.34542821
  PAW double counting   =     35533.34160091   -33378.76155094
  entropy T*S    EENTRO =        -5.23556293
  eigenvalues    EBANDS =       131.12864733
  atomic energy  EATOM  =     30161.86332653
  Solvation  Ediel_sol  =         0.00000000
  ---------------------------------------------------
  free energy    TOTEN  =      -204.00236444 eV

  energy without entropy =     -198.76680151  energy(sigma->0) =     -201.38458298


--------------------------------------------------------------------------------------------------------




--------------------------------------- Iteration      1(  18)  ---------------------------------------


    POTLOK:  cpu time      0.0550: real time      0.0553
    SETDIJ:  cpu time      0.0548: real time      0.0550
     EDDAV:  cpu time     15.7561: real time     15.8600
       DOS:  cpu time      0.3323: real time      0.3332
    CHARGE:  cpu time      0.6216: real time      0.6237
    MIXING:  cpu time      0.8528: real time      0.8552
    --------------------------------------------
      LOOP:  cpu time     17.6726: real time     17.7824

 eigenvalue-minimisations  : 11664
 total energy-change (2. order) : 0.5014778E-03  (-0.1454597E-03)
 number of electron     376.0000021 magnetization 
 augmentation part      152.7482986 magnetization 

 Broyden mixing:
  rms(total) = 0.16301E-01    rms(broyden)= 0.16300E-01
  rms(prec ) = 0.24042E-01
  weight for this iteration     100.00

 eigenvalues of (default mixing * dielectric matrix)
  average eigenvalue GAMMA=   0.8444
  2.6965  2.3430  1.1711  1.1711  1.0845  0.7357  0.4322  0.1120  0.3034  0.2228
  0.2228  0.2633  0.2184

 Free energy of the ion-electron system (eV)
  ---------------------------------------------------
  alpha Z        PSCENC =       918.22725072
  Ewald energy   TEWEN  =     20287.71132282
  -Hartree energ DENC   =    -52858.85653873
  -exchange      EXHF   =         0.00000000
  -V(xc)+E(xc)   XCENC  =      -999.30802984
  PAW double counting   =     35530.59612158   -33376.02226294
  entropy T*S    EENTRO =        -5.23637768
  eigenvalues    EBANDS =       137.02332458
  atomic energy  EATOM  =     30161.86332653
  Solvation  Ediel_sol  =         0.00000000
  ---------------------------------------------------
  free energy    TOTEN  =      -204.00186296 eV

  energy without entropy =     -198.76548528  energy(sigma->0) =     -201.38367412


--------------------------------------------------------------------------------------------------------




--------------------------------------- Iteration      1(  19)  ---------------------------------------


    POTLOK:  cpu time      0.0531: real time      0.0547
    SETDIJ:  cpu time      0.0563: real time      0.0565
     EDDAV:  cpu time     15.8683: real time     15.9686
       DOS:  cpu time      0.3172: real time      0.3181
    CHARGE:  cpu time      0.6192: real time      0.6212
    MIXING:  cpu time      0.8520: real time      0.8543
    --------------------------------------------
      LOOP:  cpu time     17.7661: real time     17.8734

 eigenvalue-minimisations  : 11788
 total energy-change (2. order) : 0.1558438E-03  (-0.8241563E-04)
 number of electron     376.0000021 magnetization 
 augmentation part      152.7470746 magnetization 

 Broyden mixing:
  rms(total) = 0.12306E-01    rms(broyden)= 0.12304E-01
  rms(prec ) = 0.18568E-01
  weight for this iteration     100.00

 eigenvalues of (default mixing * dielectric matrix)
  average eigenvalue GAMMA=   0.8907
  3.0166  2.4561  1.4131  1.4131  0.9129  0.8219  0.8219  0.1120  0.3072  0.2231
  0.2231  0.2821  0.2188  0.2483

 Free energy of the ion-electron system (eV)
  ---------------------------------------------------
  alpha Z        PSCENC =       918.22725072
  Ewald energy   TEWEN  =     20287.71132282
  -Hartree energ DENC   =    -52861.47729914
  -exchange      EXHF   =         0.00000000
  -V(xc)+E(xc)   XCENC  =      -999.29447427
  PAW double counting   =     35527.15679266   -33372.58546761
  entropy T*S    EENTRO =        -5.23609051
  eigenvalues    EBANDS =       139.63293168
  atomic energy  EATOM  =     30161.86332653
  Solvation  Ediel_sol  =         0.00000000
  ---------------------------------------------------
  free energy    TOTEN  =      -204.00170712 eV

  energy without entropy =     -198.76561661  energy(sigma->0) =     -201.38366186


--------------------------------------------------------------------------------------------------------




--------------------------------------- Iteration      1(  20)  ---------------------------------------


    POTLOK:  cpu time      0.0542: real time      0.0545
    SETDIJ:  cpu time      0.0567: real time      0.0568
     EDDAV:  cpu time     16.1795: real time     16.2806
       DOS:  cpu time      0.3040: real time      0.3049
    CHARGE:  cpu time      0.6210: real time      0.6231
    MIXING:  cpu time      0.8523: real time      0.8545
    --------------------------------------------
      LOOP:  cpu time     18.0677: real time     18.1744

 eigenvalue-minimisations  : 11820
 total energy-change (2. order) : 0.6923286E-04  (-0.4763456E-04)
 number of electron     376.0000021 magnetization 
 augmentation part      152.7445674 magnetization 

 Broyden mixing:
  rms(total) = 0.56457E-02    rms(broyden)= 0.56414E-02
  rms(prec ) = 0.76780E-02
  weight for this iteration     100.00

 eigenvalues of (default mixing * dielectric matrix)
  average eigenvalue GAMMA=   0.9044
  3.0358  2.4294  1.9431  1.1953  0.8408  0.8408  0.8760  0.7866  0.1120  0.3139
  0.2823  0.2231  0.2231  0.2188  0.2451

 Free energy of the ion-electron system (eV)
  ---------------------------------------------------
  alpha Z        PSCENC =       918.22725072
  Ewald energy   TEWEN  =     20287.71132282
  -Hartree energ DENC   =    -52864.45983918
  -exchange      EXHF   =         0.00000000
  -V(xc)+E(xc)   XCENC  =      -999.28274830
  PAW double counting   =     35520.64361229   -33366.08290771
  entropy T*S    EENTRO =        -5.23546925
  eigenvalues    EBANDS =       142.61381420
  atomic energy  EATOM  =     30161.86332653
  Solvation  Ediel_sol  =         0.00000000
  ---------------------------------------------------
  free energy    TOTEN  =      -204.00163789 eV

  energy without entropy =     -198.76616863  energy(sigma->0) =     -201.38390326


--------------------------------------------------------------------------------------------------------




--------------------------------------- Iteration      1(  21)  ---------------------------------------


    POTLOK:  cpu time      0.0531: real time      0.0552
    SETDIJ:  cpu time      0.0539: real time      0.0541
     EDDAV:  cpu time     15.9255: real time     16.0259
       DOS:  cpu time      0.3237: real time      0.3246
    CHARGE:  cpu time      0.6202: real time      0.6223
    MIXING:  cpu time      0.8527: real time      0.8549
    --------------------------------------------
      LOOP:  cpu time     17.8291: real time     17.9370

 eigenvalue-minimisations  : 11864
 total energy-change (2. order) :-0.1599477E-03  (-0.2257917E-04)
 number of electron     376.0000021 magnetization 
 augmentation part      152.7448573 magnetization 

 Broyden mixing:
  rms(total) = 0.71837E-02    rms(broyden)= 0.71830E-02
  rms(prec ) = 0.97371E-02
  weight for this iteration     100.00

 eigenvalues of (default mixing * dielectric matrix)
  average eigenvalue GAMMA=   0.9472
  3.3027  2.5400  2.5400  1.1268  1.1268  0.9414  0.8553  0.8553  0.1120  0.3098
  0.2231  0.2231  0.2189  0.2783  0.2580  0.2444

 Free energy of the ion-electron system (eV)
  ---------------------------------------------------
  alpha Z        PSCENC =       918.22725072
  Ewald energy   TEWEN  =     20287.71132282
  -Hartree energ DENC   =    -52865.49396158
  -exchange      EXHF   =         0.00000000
  -V(xc)+E(xc)   XCENC  =      -999.28272749
  PAW double counting   =     35519.04163694   -33364.52861991
  entropy T*S    EENTRO =        -5.23554399
  eigenvalues    EBANDS =       143.69551811
  atomic energy  EATOM  =     30161.86332653
  Solvation  Ediel_sol  =         0.00000000
  ---------------------------------------------------
  free energy    TOTEN  =      -204.00179783 eV

  energy without entropy =     -198.76625385  energy(sigma->0) =     -201.38402584


--------------------------------------------------------------------------------------------------------




--------------------------------------- Iteration      1(  22)  ---------------------------------------


    POTLOK:  cpu time      0.0546: real time      0.0549
    SETDIJ:  cpu time      0.0556: real time      0.0558
     EDDAV:  cpu time     15.5800: real time     15.6764
       DOS:  cpu time      0.3215: real time      0.3223
    CHARGE:  cpu time      0.6199: real time      0.6219
    MIXING:  cpu time      0.8536: real time      0.8560
    --------------------------------------------
      LOOP:  cpu time     17.4852: real time     17.5872

 eigenvalue-minimisations  : 11540
 total energy-change (2. order) :-0.8658755E-04  (-0.1543055E-04)
 number of electron     376.0000021 magnetization 
 augmentation part      152.7448917 magnetization 

 Broyden mixing:
  rms(total) = 0.41746E-02    rms(broyden)= 0.41739E-02
  rms(prec ) = 0.70241E-02
  weight for this iteration     100.00

 eigenvalues of (default mixing * dielectric matrix)
  average eigenvalue GAMMA=   1.0507
  4.9132  2.5933  2.5137  1.3383  1.3383  0.9319  0.8099  0.8099  0.7767  0.1120
  0.3141  0.2831  0.2231  0.2231  0.2457  0.2189  0.2164

 Free energy of the ion-electron system (eV)
  ---------------------------------------------------
  alpha Z        PSCENC =       918.22725072
  Ewald energy   TEWEN  =     20287.71132282
  -Hartree energ DENC   =    -52866.33718857
  -exchange      EXHF   =         0.00000000
  -V(xc)+E(xc)   XCENC  =      -999.28249262
  PAW double counting   =     35517.88955673   -33363.41007706
  entropy T*S    EENTRO =        -5.23569837
  eigenvalues    EBANDS =       144.57211540
  atomic energy  EATOM  =     30161.86332653
  Solvation  Ediel_sol  =         0.00000000
  ---------------------------------------------------
  free energy    TOTEN  =      -204.00188442 eV

  energy without entropy =     -198.76618605  energy(sigma->0) =     -201.38403524


--------------------------------------------------------------------------------------------------------




--------------------------------------- Iteration      1(  23)  ---------------------------------------


    POTLOK:  cpu time      0.0532: real time      0.0544
    SETDIJ:  cpu time      0.0542: real time      0.0544
     EDDAV:  cpu time     14.1349: real time     14.2242
       DOS:  cpu time      0.3187: real time      0.3195
    CHARGE:  cpu time      0.6194: real time      0.6214
    MIXING:  cpu time      0.8537: real time      0.8559
    --------------------------------------------
      LOOP:  cpu time     16.0340: real time     16.1299

 eigenvalue-minimisations  : 10020
 total energy-change (2. order) :-0.1099018E-03  (-0.6716803E-05)
[...]
   1.00000000000000        1.00000000000000        1.00000000000000     
   1.00000000000000        1.00000000000000        1.00000000000000     
  0.000000000000000E+000  0.000000000000000E+000  0.000000000000000E+000
   1.00000000000000        1.00000000000000        1.00000000000000     
   1.00000000000000        1.00000000000000        1.00000000000000     
  0.000000000000000E+000  0.000000000000000E+000  0.000000000000000E+000
   1.00000000000000        1.00000000000000        1.00000000000000     
   1.00000000000000        1.00000000000000        1.00000000000000     
  0.000000000000000E+000  0.000000000000000E+000  0.000000000000000E+000
   1.00000000000000        1.00000000000000        1.00000000000000     
   1.00000000000000        1.00000000000000        1.00000000000000     
  0.000000000000000E+000  0.000000000000000E+000  0.000000000000000E+000
   1.00000000000000        1.00000000000000        1.00000000000000     
   1.00000000000000        1.00000000000000        1.00000000000000     
  0.000000000000000E+000  0.000000000000000E+000  0.000000000000000E+000
   1.00000000000000        1.00000000000000        1.00000000000000     
   1.00000000000000        1.00000000000000        1.00000000000000     
  0.000000000000000E+000  0.000000000000000E+000  0.000000000000000E+000
   1.00000000000000        1.00000000000000        1.00000000000000     
  0.000000000000000E+000  0.000000000000000E+000  0.000000000000000E+000
  0.000000000000000E+000  0.000000000000000E+000  0.000000000000000E+000
  0.000000000000000E+000  0.000000000000000E+000  0.000000000000000E+000
  0.000000000000000E+000  0.000000000000000E+000  0.000000000000000E+000
  0.000000000000000E+000  0.000000000000000E+000  0.000000000000000E+000
  0.000000000000000E+000  0.000000000000000E+000  0.000000000000000E+000
  0.000000000000000E+000  0.000000000000000E+000  0.000000000000000E+000
  0.000000000000000E+000  0.000000000000000E+000  0.000000000000000E+000
  0.000000000000000E+000  0.000000000000000E+000  0.000000000000000E+000
   1.00000000000000        1.00000000000000        1.00000000000000     
   1.00000000000000        1.00000000000000        1.00000000000000     
   1.00000000000000        1.00000000000000        1.00000000000000     
 NEB: the previous image is higher in energy: T
 NEB: the next image is higher in energy    : T
 NEB: image is at an extrema
 NEB: diff energy (min, max):     0.002579    0.035157

 NEB: Tangent
 ----------------------------------------------
      0.00134     -0.00523      0.01433
      0.00000      0.00000      0.00000
     -0.00073     -0.00388      0.00507
     -0.00199     -0.00821      0.00732
      0.00000      0.00000      0.00000
     -0.00017     -0.00445      0.00168
     -0.00050     -0.00913      0.00232
      0.00000      0.00000      0.00000
      0.00089     -0.00460      0.00448
      0.00123     -0.00848      0.00755
      0.00000      0.00000      0.00000
      0.00004     -0.00478      0.00565
     -0.00093     -0.01141      0.01423
      0.00000      0.00000      0.00000
     -0.00061     -0.00459      0.00308
     -0.00191     -0.01018      0.00323
      0.00000      0.00000      0.00000
     -0.00019     -0.00458      0.00295
     -0.00064     -0.00893      0.00346
      0.00000      0.00000      0.00000
      0.00022     -0.00351      0.00345
     -0.00007     -0.01051      0.00687
      0.00000      0.00000      0.00000
     -0.00072     -0.00507      0.00221
     -0.00146     -0.00998      0.00378
      0.00000      0.00000      0.00000
     -0.00037     -0.00279      0.00480
      0.00000      0.00000      0.00000
      0.00000      0.00000      0.00000
      0.00000      0.00000      0.00000
      0.00000      0.00000      0.00000
      0.00000      0.00000      0.00000
      0.00000      0.00000      0.00000
      0.00000      0.00000      0.00000
      0.00000      0.00000      0.00000
      0.00000      0.00000      0.00000
      0.14881     -0.00605      0.55935
      0.14430     -0.00838      0.56599
      0.15339     -0.00756      0.54628

 NEB: forces: par spring, perp REAL, dneb     0.056065    0.007577    0.000000
 NEB: distance to prev, next image, angle between     0.988936    0.977723  168.516711
 NEB: projections on to tangent (spring, REAL)    -0.056065    0.007784

 stress matrix after NEB project (eV)
    -13.21336     -0.20087      0.06575
     -0.20087    -12.89581     -0.07087
      0.06575     -0.07087     -3.45430
 after stress write
 before force*Free
 force:   3.470041711788146E-005  3.310961480124705E-004 -3.031422674946651E-004
  0.000000000000000E+000  0.000000000000000E+000  0.000000000000000E+000
  2.576687586344222E-004  4.215666411020581E-004 -1.716384601247924E-004
  3.769339194294837E-004  3.015357594807171E-004  1.298224547645955E-004
  0.000000000000000E+000  0.000000000000000E+000  0.000000000000000E+000
  2.568438716897850E-004  2.264569696668131E-004 -1.801847902099793E-004
  3.084297999867952E-004  6.846999095887020E-004  5.673507103076629E-005
  0.000000000000000E+000  0.000000000000000E+000  0.000000000000000E+000
  2.782513937865583E-004  3.484899061198163E-004 -1.757106670371293E-004
  7.228871648931044E-005  4.731739313762824E-004 -5.618600892486834E-005
  0.000000000000000E+000  0.000000000000000E+000  0.000000000000000E+000
  1.814150131390150E-004  4.655045225868097E-004 -8.617319270712453E-005
  3.409336587349505E-006  2.993200418262960E-004 -1.685628165874868E-004
  0.000000000000000E+000  0.000000000000000E+000  0.000000000000000E+000
  2.248859512578973E-004  2.903386030576079E-004 -1.557461879410977E-004
  2.143069075626868E-004  3.749013593693865E-004 -1.070989540633602E-004
  0.000000000000000E+000  0.000000000000000E+000  0.000000000000000E+000
  1.195770246743277E-004  1.266723268082183E-004 -2.436649545147156E-004
  2.404577178097344E-004  1.500863963816497E-004 -1.906019795147245E-004
  0.000000000000000E+000  0.000000000000000E+000  0.000000000000000E+000
  1.180863860420624E-006  3.977677080234024E-005  3.709931283171427E-005
  4.763801536044113E-004  8.268852601153810E-004 -1.506811913247426E-005
  0.000000000000000E+000  0.000000000000000E+000  0.000000000000000E+000
  2.913539148722740E-004  2.476421292349290E-004 -2.744384102645099E-004
  4.668366324161810E-004  7.415192286345159E-004  8.742919331799329E-005
  0.000000000000000E+000  0.000000000000000E+000  0.000000000000000E+000
  2.879267747914649E-004  2.417728576691264E-004 -2.563176423665524E-004
  0.000000000000000E+000  0.000000000000000E+000  0.000000000000000E+000
  0.000000000000000E+000  0.000000000000000E+000  0.000000000000000E+000
  0.000000000000000E+000  0.000000000000000E+000  0.000000000000000E+000
  0.000000000000000E+000  0.000000000000000E+000  0.000000000000000E+000
  0.000000000000000E+000  0.000000000000000E+000  0.000000000000000E+000
  0.000000000000000E+000  0.000000000000000E+000  0.000000000000000E+000
  0.000000000000000E+000  0.000000000000000E+000  0.000000000000000E+000
  0.000000000000000E+000  0.000000000000000E+000  0.000000000000000E+000
  0.000000000000000E+000  0.000000000000000E+000  0.000000000000000E+000
 -1.129338153202177E-002  5.919183219675505E-003 -3.180521998363108E-002
 -6.117078361674981E-003  1.348393505859753E-003 -3.022265577433489E-002
 -1.081969035482268E-002 -1.112271613890184E-003 -3.083185397712093E-002
 A:    8.30990028380000       0.000000000000000E+000  0.000000000000000E+000
  -4.15495014190000        7.19658474870000       0.000000000000000E+000
  0.000000000000000E+000  0.000000000000000E+000   16.5235004425000     
 B:   0.120338387447258       6.947740038638753E-002  0.000000000000000E+000
  0.000000000000000E+000  0.138954800772775       0.000000000000000E+000
  0.000000000000000E+000  0.000000000000000E+000  6.051986402517384E-002
 force:   2.717949188156611E-005  4.600739928370608E-005 -1.834612880906001E-005
  0.000000000000000E+000  0.000000000000000E+000  0.000000000000000E+000
  6.029679722299521E-005  5.857870862678445E-005 -1.038753626824266E-005
  6.630954073057381E-005  4.189984138451046E-005  7.856837309767601E-006
  0.000000000000000E+000  0.000000000000000E+000  0.000000000000000E+000
  4.664181889668824E-005  3.146728310365838E-005 -1.090475900291242E-005
  8.468711453410870E-005  9.514233952603518E-005  3.433598784240555E-006
  0.000000000000000E+000  0.000000000000000E+000  0.000000000000000E+000
  5.769649677132737E-005  4.842434547620215E-005 -1.063398567685966E-005
  4.157400225558662E-005  6.574978936526205E-005 -3.400369620250236E-006
  0.000000000000000E+000  0.000000000000000E+000  0.000000000000000E+000
  5.417323423731007E-005  6.468408819487591E-005 -5.215189905250279E-006
  2.120625245682240E-005  4.159195677927165E-005 -1.020139873957502E-005
  0.000000000000000E+000  0.000000000000000E+000  0.000000000000000E+000
  4.723438410617579E-005  4.034394274451572E-005 -9.425738116634403E-006
  5.183651952521004E-005  5.209434370061564E-005 -6.481614137152898E-006
  0.000000000000000E+000  0.000000000000000E+000  0.000000000000000E+000
  2.319057029257944E-005  1.760172793505983E-005 -1.474656991493075E-005
  3.936390666442909E-005  2.085522530791589E-005 -1.153520588316010E-005
  0.000000000000000E+000  0.000000000000000E+000  0.000000000000000E+000
  2.905689883869524E-006  5.527173262223524E-006  2.245245368002735E-006
  1.147766577872702E-004  1.148996765812770E-004 -9.119205210124624E-007
  0.000000000000000E+000  0.000000000000000E+000  0.000000000000000E+000
  5.226659165756768E-005  3.441106273078537E-005 -1.660897527249301E-005
  1.076971958883168E-004  1.030376566840910E-004  5.291202891435592E-006
  0.000000000000000E+000  0.000000000000000E+000  0.000000000000000E+000
  5.144639341613356E-005  3.359549926967796E-005 -1.551230886327689E-005
  0.000000000000000E+000  0.000000000000000E+000  0.000000000000000E+000
  0.000000000000000E+000  0.000000000000000E+000  0.000000000000000E+000
  0.000000000000000E+000  0.000000000000000E+000  0.000000000000000E+000
  0.000000000000000E+000  0.000000000000000E+000  0.000000000000000E+000
  0.000000000000000E+000  0.000000000000000E+000  0.000000000000000E+000
  0.000000000000000E+000  0.000000000000000E+000  0.000000000000000E+000
  0.000000000000000E+000  0.000000000000000E+000  0.000000000000000E+000
  0.000000000000000E+000  0.000000000000000E+000  0.000000000000000E+000
  0.000000000000000E+000  0.000000000000000E+000  0.000000000000000E+000
 -9.477778598763577E-004  8.224989250275630E-004 -1.924847588700094E-003
 -6.424364704474566E-004  1.873657509700457E-004 -1.829071017942383E-003
 -1.379301830234669E-003 -1.545554805133235E-004 -1.865939610339374E-003
 Free:    1.00000000000000        1.00000000000000        1.00000000000000     
  0.000000000000000E+000  0.000000000000000E+000  0.000000000000000E+000
   1.00000000000000        1.00000000000000        1.00000000000000     
   1.00000000000000        1.00000000000000        1.00000000000000     
  0.000000000000000E+000  0.000000000000000E+000  0.000000000000000E+000
   1.00000000000000        1.00000000000000        1.00000000000000     
   1.00000000000000        1.00000000000000        1.00000000000000     
  0.000000000000000E+000  0.000000000000000E+000  0.000000000000000E+000
   1.00000000000000        1.00000000000000        1.00000000000000     
   1.00000000000000        1.00000000000000        1.00000000000000     
  0.000000000000000E+000  0.000000000000000E+000  0.000000000000000E+000
   1.00000000000000        1.00000000000000        1.00000000000000     
   1.00000000000000        1.00000000000000        1.00000000000000     
  0.000000000000000E+000  0.000000000000000E+000  0.000000000000000E+000
   1.00000000000000        1.00000000000000        1.00000000000000     
   1.00000000000000        1.00000000000000        1.00000000000000     
  0.000000000000000E+000  0.000000000000000E+000  0.000000000000000E+000
   1.00000000000000        1.00000000000000        1.00000000000000     
   1.00000000000000        1.00000000000000        1.00000000000000     
  0.000000000000000E+000  0.000000000000000E+000  0.000000000000000E+000
   1.00000000000000        1.00000000000000        1.00000000000000     
   1.00000000000000        1.00000000000000        1.00000000000000     
  0.000000000000000E+000  0.000000000000000E+000  0.000000000000000E+000
   1.00000000000000        1.00000000000000        1.00000000000000     
   1.00000000000000        1.00000000000000        1.00000000000000     
  0.000000000000000E+000  0.000000000000000E+000  0.000000000000000E+000
   1.00000000000000        1.00000000000000        1.00000000000000     
  0.000000000000000E+000  0.000000000000000E+000  0.000000000000000E+000
  0.000000000000000E+000  0.000000000000000E+000  0.000000000000000E+000
  0.000000000000000E+000  0.000000000000000E+000  0.000000000000000E+000
  0.000000000000000E+000  0.000000000000000E+000  0.000000000000000E+000
  0.000000000000000E+000  0.000000000000000E+000  0.000000000000000E+000
  0.000000000000000E+000  0.000000000000000E+000  0.000000000000000E+000
  0.000000000000000E+000  0.000000000000000E+000  0.000000000000000E+000
  0.000000000000000E+000  0.000000000000000E+000  0.000000000000000E+000
  0.000000000000000E+000  0.000000000000000E+000  0.000000000000000E+000
   1.00000000000000        1.00000000000000        1.00000000000000     
   1.00000000000000        1.00000000000000        1.00000000000000     
   1.00000000000000        1.00000000000000        1.00000000000000     
 force:   2.717949188156611E-005  4.600739928370608E-005 -1.834612880906001E-005
  0.000000000000000E+000  0.000000000000000E+000  0.000000000000000E+000
  6.029679722299521E-005  5.857870862678445E-005 -1.038753626824266E-005
  6.630954073057381E-005  4.189984138451046E-005  7.856837309767601E-006
  0.000000000000000E+000  0.000000000000000E+000  0.000000000000000E+000
  4.664181889668824E-005  3.146728310365838E-005 -1.090475900291242E-005
  8.468711453410870E-005  9.514233952603518E-005  3.433598784240555E-006
  0.000000000000000E+000  0.000000000000000E+000  0.000000000000000E+000
  5.769649677132737E-005  4.842434547620215E-005 -1.063398567685966E-005
  4.157400225558662E-005  6.574978936526205E-005 -3.400369620250236E-006
  0.000000000000000E+000  0.000000000000000E+000  0.000000000000000E+000
  5.417323423731007E-005  6.468408819487591E-005 -5.215189905250279E-006
  2.120625245682240E-005  4.159195677927165E-005 -1.020139873957502E-005
  0.000000000000000E+000  0.000000000000000E+000  0.000000000000000E+000
  4.723438410617579E-005  4.034394274451572E-005 -9.425738116634403E-006
  5.183651952521004E-005  5.209434370061564E-005 -6.481614137152898E-006
  0.000000000000000E+000  0.000000000000000E+000  0.000000000000000E+000
  2.319057029257944E-005  1.760172793505983E-005 -1.474656991493075E-005
  3.936390666442909E-005  2.085522530791589E-005 -1.153520588316010E-005
  0.000000000000000E+000  0.000000000000000E+000  0.000000000000000E+000
  2.905689883869524E-006  5.527173262223524E-006  2.245245368002735E-006
  1.147766577872702E-004  1.148996765812770E-004 -9.119205210124624E-007
  0.000000000000000E+000  0.000000000000000E+000  0.000000000000000E+000
  5.226659165756768E-005  3.441106273078537E-005 -1.660897527249301E-005
  1.076971958883168E-004  1.030376566840910E-004  5.291202891435592E-006
  0.000000000000000E+000  0.000000000000000E+000  0.000000000000000E+000
  5.144639341613356E-005  3.359549926967796E-005 -1.551230886327689E-005
  0.000000000000000E+000  0.000000000000000E+000  0.000000000000000E+000
  0.000000000000000E+000  0.000000000000000E+000  0.000000000000000E+000
  0.000000000000000E+000  0.000000000000000E+000  0.000000000000000E+000
  0.000000000000000E+000  0.000000000000000E+000  0.000000000000000E+000
  0.000000000000000E+000  0.000000000000000E+000  0.000000000000000E+000
  0.000000000000000E+000  0.000000000000000E+000  0.000000000000000E+000
  0.000000000000000E+000  0.000000000000000E+000  0.000000000000000E+000
  0.000000000000000E+000  0.000000000000000E+000  0.000000000000000E+000
  0.000000000000000E+000  0.000000000000000E+000  0.000000000000000E+000
 -9.477778598763577E-004  8.224989250275630E-004 -1.924847588700094E-003
 -6.424364704474566E-004  1.873657509700457E-004 -1.829071017942383E-003
 -1.379301830234669E-003 -1.545554805133235E-004 -1.865939610339374E-003
 after force*Free
  3.470041711788147E-005  3.310961480124705E-004 -3.031422674946651E-004
  0.000000000000000E+000  0.000000000000000E+000  0.000000000000000E+000
  2.576687586344222E-004  4.215666411020581E-004 -1.716384601247924E-004
  3.769339194294837E-004  3.015357594807171E-004  1.298224547645955E-004
  0.000000000000000E+000  0.000000000000000E+000  0.000000000000000E+000
  2.568438716897849E-004  2.264569696668131E-004 -1.801847902099793E-004
  3.084297999867952E-004  6.846999095887020E-004  5.673507103076628E-005
  0.000000000000000E+000  0.000000000000000E+000  0.000000000000000E+000
  2.782513937865583E-004  3.484899061198163E-004 -1.757106670371293E-004
  7.228871648931042E-005  4.731739313762823E-004 -5.618600892486834E-005
  0.000000000000000E+000  0.000000000000000E+000  0.000000000000000E+000
  1.814150131390150E-004  4.655045225868098E-004 -8.617319270712451E-005
  3.409336587349498E-006  2.993200418262960E-004 -1.685628165874868E-004
  0.000000000000000E+000  0.000000000000000E+000  0.000000000000000E+000
  2.248859512578973E-004  2.903386030576079E-004 -1.557461879410977E-004
  2.143069075626868E-004  3.749013593693865E-004 -1.070989540633602E-004
  0.000000000000000E+000  0.000000000000000E+000  0.000000000000000E+000
  1.195770246743277E-004  1.266723268082183E-004 -2.436649545147155E-004
  2.404577178097344E-004  1.500863963816497E-004 -1.906019795147245E-004
  0.000000000000000E+000  0.000000000000000E+000  0.000000000000000E+000
  1.180863860420624E-006  3.977677080234024E-005  3.709931283171427E-005
  4.763801536044112E-004  8.268852601153810E-004 -1.506811913247425E-005
  0.000000000000000E+000  0.000000000000000E+000  0.000000000000000E+000
  2.913539148722739E-004  2.476421292349290E-004 -2.744384102645099E-004
  4.668366324161810E-004  7.415192286345158E-004  8.742919331799328E-005
  0.000000000000000E+000  0.000000000000000E+000  0.000000000000000E+000
  2.879267747914649E-004  2.417728576691264E-004 -2.563176423665524E-004
  0.000000000000000E+000  0.000000000000000E+000  0.000000000000000E+000
  0.000000000000000E+000  0.000000000000000E+000  0.000000000000000E+000
  0.000000000000000E+000  0.000000000000000E+000  0.000000000000000E+000
  0.000000000000000E+000  0.000000000000000E+000  0.000000000000000E+000
  0.000000000000000E+000  0.000000000000000E+000  0.000000000000000E+000
  0.000000000000000E+000  0.000000000000000E+000  0.000000000000000E+000
  0.000000000000000E+000  0.000000000000000E+000  0.000000000000000E+000
  0.000000000000000E+000  0.000000000000000E+000  0.000000000000000E+000
  0.000000000000000E+000  0.000000000000000E+000  0.000000000000000E+000
 -1.129338153202177E-002  5.919183219675505E-003 -3.180521998363107E-002
 -6.117078361674981E-003  1.348393505859753E-003 -3.022265577433489E-002
 -1.081969035482268E-002 -1.112271613890184E-003 -3.083185397712093E-002
 before force check
 after force check
 before ML stuff 
  FORCES: max atom, RMS     0.034266    0.009059
  FORCE total and by dimension    0.056574    0.031805
 into some ML stuff
  Stress total and by dimension   18.786335   13.213364
 
 OPT: Flag T
 OPT: QM Step
 another before ML stuff


--------------------------------------------------------------------------------------------------------


      MLFF:  cpu time      0.0635: real time      0.0718
    WAVPRE:  cpu time      0.0238: real time      0.0239
    FEWALD:  cpu time      0.0062: real time      0.0062

 real space projection operators:
  total allocation   :       9689.38 KBytes
  max/ min on nodes  :       1708.77       1431.09

