<?xml version="1.0" encoding="ISO-8859-1"?>
<modeling>
 <generator>
  <i name="program" type="string">vasp </i>
  <i name="version" type="string">6.5.1  </i>
  <i name="subversion" type="string">10Mar25 (build Apr 25 2025 15:31:43) complex                          parallel </i>
  <i name="platform" type="string">LinuxIFC </i>
  <i name="date" type="string">2025 12 08 </i>
  <i name="time" type="string">14:54:14 </i>
 </generator>
 <incar>
  <i type="string" name="SYSTEM">PBE-grap</i>
  <i type="int" name="ISTART">     0</i>
  <i type="string" name="PREC">Normal   low | medium | high</i>
  <i type="int" name="IALGO">    38</i>
  <i type="int" name="ICHARG">     2</i>
  <i type="int" name="INIWAV">     1</i>
  <i type="int" name="NELM">   150</i>
  <i type="int" name="NELMDL">    -5</i>
  <i type="int" name="NELMIN">     4</i>
  <i type="int" name="IBRION">     3</i>
  <i name="EDIFF">      0.00001000</i>
  <i name="EDIFFG">     -0.02600000</i>
  <i type="int" name="NSW">  1000</i>
  <i type="int" name="ISIF">     2</i>
  <i type="int" name="ISYM">     0</i>
  <i name="ENCUT">    370.00000000</i>
  <i name="POTIM">      0.00000000</i>
  <i type="string" name="LREAL">AUTO   real-space projection (.FALSE., .TRUE., On, Auto)</i>
  <i type="logical" name="LPLANE"> T  </i>
  <i type="int" name="ISMEAR">     0</i>
  <i name="SIGMA">      0.41000000</i>
  <i type="int" name="NWRITE">     0</i>
  <i type="logical" name="LWAVE"> F  </i>
  <i type="logical" name="LCHARG"> F  </i>
  <i type="logical" name="LVTOT"> F  </i>
  <i type="string" name="GGA">PE</i>
  <i name="SPRING">     -5.00000000</i>
 </incar>
 <primitive_cell>
  <structure name="primitive_cell" >
   <crystal>
    <varray name="basis" >
     <v>       8.30990028       0.00000000       0.00000000 </v>
     <v>      -4.15495014       7.19658475       0.00000000 </v>
     <v>       0.00000000       0.00000000      16.52350044 </v>
    </varray>
    <i name="volume">    988.15327180 </i>
    <varray name="rec_basis" >
     <v>       0.12033839       0.06947740       0.00000000 </v>
     <v>       0.00000000       0.13895480       0.00000000 </v>
     <v>       0.00000000       0.00000000       0.06051986 </v>
    </varray>
   </crystal>
   <varray name="positions" >
    <v>       0.99922980       0.99989485       0.43774653 </v>
    <v>       0.11093000       0.22330000       0.16024000 </v>
    <v>       0.22186389       0.11225903       0.29891337 </v>
    <v>       0.33281562       0.00032034       0.43754814 </v>
    <v>       0.44426000       0.22330000       0.16024000 </v>
    <v>       0.55487217       0.11172384       0.29820748 </v>
    <v>       0.66596630       0.00037302       0.43681906 </v>
    <v>       0.77760000       0.22330000       0.16024000 </v>
    <v>       0.88860887       0.11191595       0.29855829 </v>
    <v>       0.99836615       0.33334614       0.43760612 </v>
    <v>       0.11093000       0.55664000       0.16024000 </v>
    <v>       0.22178628       0.44497498       0.29876699 </v>
    <v>       0.33233959       0.33314674       0.43951422 </v>
    <v>       0.44426000       0.55664000       0.16024000 </v>
    <v>       0.55429865       0.44484873       0.29859515 </v>
    <v>       0.66571278       0.33368816       0.43667635 </v>
    <v>       0.77760000       0.55664000       0.16024000 </v>
    <v>       0.88837371       0.44503979       0.29817576 </v>
    <v>       0.99902204       0.66681835       0.43654894 </v>
    <v>       0.11093000       0.88997000       0.16024000 </v>
    <v>       0.22189995       0.77858829       0.29834235 </v>
    <v>       0.33328764       0.66761251       0.43730502 </v>
    <v>       0.44426000       0.88997000       0.16024000 </v>
    <v>       0.55485866       0.77840134       0.29822794 </v>
    <v>       0.66610770       0.66702624       0.43670799 </v>
    <v>       0.77760000       0.88997000       0.16024000 </v>
    <v>       0.88844425       0.77874280       0.29814258 </v>
    <v>       0.99982000       0.00108000       0.02337000 </v>
    <v>       0.33315000       0.00108000       0.02337000 </v>
    <v>       0.66649000       0.00108000       0.02337000 </v>
    <v>       0.99982000       0.33441000       0.02337000 </v>
    <v>       0.33315000       0.33441000       0.02337000 </v>
    <v>       0.66649000       0.33441000       0.02337000 </v>
    <v>       0.99982000       0.66775000       0.02337000 </v>
    <v>       0.33315000       0.66775000       0.02337000 </v>
    <v>       0.66649000       0.66775000       0.02337000 </v>
    <v>       0.24174568       0.14252294       0.68348111 </v>
    <v>       0.25595898       0.28908756       0.67268919 </v>
    <v>       0.22633463       0.99643011       0.69706055 </v>
   </varray>
  </structure>
  <varray name="primitive_index" >
   <v type="int" >        1 </v>
   <v type="int" >        2 </v>
   <v type="int" >        3 </v>
   <v type="int" >        4 </v>
   <v type="int" >        5 </v>
   <v type="int" >        6 </v>
   <v type="int" >        7 </v>
   <v type="int" >        8 </v>
   <v type="int" >        9 </v>
   <v type="int" >       10 </v>
   <v type="int" >       11 </v>
   <v type="int" >       12 </v>
   <v type="int" >       13 </v>
   <v type="int" >       14 </v>
   <v type="int" >       15 </v>
   <v type="int" >       16 </v>
   <v type="int" >       17 </v>
   <v type="int" >       18 </v>
   <v type="int" >       19 </v>
   <v type="int" >       20 </v>
   <v type="int" >       21 </v>
   <v type="int" >       22 </v>
   <v type="int" >       23 </v>
   <v type="int" >       24 </v>
   <v type="int" >       25 </v>
   <v type="int" >       26 </v>
   <v type="int" >       27 </v>
   <v type="int" >       28 </v>
   <v type="int" >       29 </v>
   <v type="int" >       30 </v>
   <v type="int" >       31 </v>
   <v type="int" >       32 </v>
   <v type="int" >       33 </v>
   <v type="int" >       34 </v>
   <v type="int" >       35 </v>
   <v type="int" >       36 </v>
   <v type="int" >       37 </v>
   <v type="int" >       38 </v>
   <v type="int" >       39 </v>
  </varray>
 </primitive_cell>
 <kpoints>
  <generation param="Monkhorst-Pack">
   <v type="int" name="divisions">       4        4        1 </v>
   <v name="usershift">      0.00000000       0.00000000       0.00000000 </v>
   <v name="genvec1">      0.25000000       0.00000000       0.00000000 </v>
   <v name="genvec2">      0.00000000       0.25000000       0.00000000 </v>
   <v name="genvec3">      0.00000000       0.00000000       1.00000000 </v>
   <v name="shift">      0.50000000       0.50000000       0.00000000 </v>
  </generation>
  <varray name="kpointlist" >
   <v>       0.12500000       0.12500000       0.00000000 </v>
   <v>      -0.12500000       0.25000000       0.00000000 </v>
   <v>      -0.25000000       0.12500000       0.00000000 </v>
   <v>       0.37500000       0.12500000       0.00000000 </v>
   <v>      -0.12500000       0.50000000       0.00000000 </v>
   <v>       0.50000000       0.37500000       0.00000000 </v>
   <v>      -0.37500000       0.50000000       0.00000000 </v>
   <v>       0.12500000       0.37500000       0.00000000 </v>
   <v>       0.50000000      -0.12500000       0.00000000 </v>
   <v>      -0.37500000       0.12500000       0.00000000 </v>
   <v>      -0.12500000      -0.25000000       0.00000000 </v>
   <v>       0.25000000      -0.37500000       0.00000000 </v>
   <v>       0.37500000      -0.25000000       0.00000000 </v>
   <v>       0.12500000      -0.37500000       0.00000000 </v>
   <v>      -0.25000000      -0.12500000       0.00000000 </v>
   <v>      -0.12500000       0.12500000       0.00000000 </v>
   <v>      -0.12500000       0.00000000       0.00000000 </v>
   <v>       0.00000000      -0.12500000       0.00000000 </v>
   <v>       0.37500000       0.37500000       0.00000000 </v>
   <v>      -0.37500000      -0.25000000       0.00000000 </v>
   <v>       0.25000000       0.37500000       0.00000000 </v>
   <v>      -0.37500000       0.37500000       0.00000000 </v>
   <v>      -0.37500000       0.00000000       0.00000000 </v>
   <v>       0.00000000      -0.37500000       0.00000000 </v>
  </varray>
  <varray name="weights" >
   <v>       0.04166667 </v>
   <v>       0.04166667 </v>
   <v>       0.04166667 </v>
   <v>       0.04166667 </v>
   <v>       0.04166667 </v>
   <v>       0.04166667 </v>
   <v>       0.04166667 </v>
   <v>       0.04166667 </v>
   <v>       0.04166667 </v>
   <v>       0.04166667 </v>
   <v>       0.04166667 </v>
   <v>       0.04166667 </v>
   <v>       0.04166667 </v>
   <v>       0.04166667 </v>
   <v>       0.04166667 </v>
   <v>       0.04166667 </v>
   <v>       0.04166667 </v>
   <v>       0.04166667 </v>
   <v>       0.04166667 </v>
   <v>       0.04166667 </v>
   <v>       0.04166667 </v>
   <v>       0.04166667 </v>
   <v>       0.04166667 </v>
   <v>       0.04166667 </v>
  </varray>
 </kpoints>
 <parameters>
  <separator name="general" >
   <i type="string" name="SYSTEM">PBE-grap</i>
   <i type="logical" name="LCOMPAT"> F  </i>
  </separator>
  <separator name="electronic" >
   <i type="string" name="PREC">normal</i>
   <i name="ENMAX">    370.00000000</i>
   <i name="ENAUG">    644.87300000</i>
   <i name="EDIFF">      0.00001000</i>
   <i type="int" name="IALGO">    38</i>
   <i type="int" name="IWAVPR">    11</i>
   <i type="int" name="NBANDS">   228</i>
   <i type="int" name="NBANDSLOW">    -1</i>
   <i type="int" name="NBANDSHIGH">    -1</i>
   <i name="NELECT">    376.00000000</i>
   <i type="int" name="TURBO">     0</i>
   <i type="int" name="IRESTART">     0</i>
   <i type="int" name="NREBOOT">     0</i>
   <i type="int" name="NMIN">     0</i>
   <i name="EREF">      0.00000000</i>
   <separator name="electronic smearing" >
    <i type="int" name="ISMEAR">     0</i>
    <i name="SIGMA">      0.41000000</i>
    <i name="KSPACING">      0.50000000</i>
    <i type="logical" name="KGAMMA"> T  </i>
    <i type="logical" name="KBLOWUP"> T  </i>
   </separator>
   <separator name="electronic projectors" >
    <i type="logical" name="LREAL"> T  </i>
    <v name="ROPT">     -0.00050000     -0.00050000     -0.00050000</v>
    <i type="int" name="LMAXPAW">  -100</i>
    <i type="int" name="LMAXMIX">     2</i>
    <i type="logical" name="NLSPLINE"> F  </i>
   </separator>
   <separator name="electronic startup" >
    <i type="int" name="ISTART">     0</i>
    <i type="int" name="ICHARG">     2</i>
    <i type="int" name="INIWAV">     1</i>
   </separator>
   <separator name="electronic spin" >
    <i type="int" name="ISPIN">     1</i>
    <i type="logical" name="LNONCOLLINEAR"> F  </i>
    <v name="MAGMOM">      1.00000000      1.00000000      1.00000000      1.00000000      1.00000000      1.00000000      1.00000000      1.00000000      1.00000000      1.00000000      1.00000000      1.00000000      1.00000000      1.00000000      1.00000000      1.00000000      1.00000000      1.00000000      1.00000000      1.00000000
      1.00000000      1.00000000      1.00000000      1.00000000      1.00000000      1.00000000      1.00000000      1.00000000      1.00000000      1.00000000      1.00000000      1.00000000      1.00000000      1.00000000      1.00000000      1.00000000      1.00000000      1.00000000      1.00000000</v>
    <i name="NUPDOWN">     -1.00000000</i>
    <i type="logical" name="LSORBIT"> F  </i>
    <v name="SAXIS">      0.00000000      0.00000000      1.00000000</v>
    <i type="logical" name="LSPIRAL"> F  </i>
    <v name="QSPIRAL">      0.00000000      0.00000000      0.00000000</v>
    <i type="logical" name="LZEROZ"> F  </i>
   </separator>
   <separator name="electronic exchange-correlation" >
    <i type="logical" name="LASPH"> F  </i>
   </separator>
   <separator name="electronic convergence" >
    <i type="int" name="NELM">   150</i>
    <i type="int" name="NELMDL">    -5</i>
    <i type="int" name="NELMIN">     4</i>
    <i name="ENINI">    370.00000000</i>
    <separator name="electronic convergence detail" >
     <i type="logical" name="LDIAG"> T  </i>
     <i type="logical" name="LSUBROT"> F  </i>
     <i type="logical" name="LROBUST"> F  </i>
     <i type="int" name="ISEARCH">     0</i>
     <i name="WEIMIN">      0.00100000</i>
     <i name="EBREAK">      0.00000001</i>
     <i name="DEPER">      0.30000000</i>
     <i type="int" name="NRMM">     4</i>
     <i name="TIME">      0.40000000</i>
    </separator>
   </separator>
   <separator name="electronic mixer" >
    <i name="AMIX">      0.40000000</i>
    <i name="BMIX">      1.00000000</i>
    <i name="AMIN">      0.10000000</i>
    <i name="AMIX_MAG">      1.60000000</i>
    <i name="BMIX_MAG">      1.00000000</i>
    <separator name="electronic mixer details" >
     <i type="int" name="IMIX">     4</i>
     <i type="logical" name="MIXFIRST"> F  </i>
     <i type="int" name="MAXMIX">   -45</i>
     <i name="WC">    100.00000000</i>
     <i type="int" name="INIMIX">     1</i>
     <i type="int" name="MIXPRE">     1</i>
     <i type="int" name="MREMOVE">     5</i>
    </separator>
   </separator>
   <separator name="electronic dipolcorrection" >
    <i type="logical" name="LDIPOL"> F  </i>
    <i type="logical" name="LMONO"> F  </i>
    <i type="int" name="IDIPOL">     0</i>
    <i name="EPSILON">      1.00000000</i>
    <v name="DIPOL">   -100.00000000   -100.00000000   -100.00000000</v>
    <i name="EFIELD">      0.00000000</i>
    <i type="logical" name="LVACPOTAV"> F  </i>
   </separator>
  </separator>
  <separator name="grids" >
   <i type="int" name="NGX">    40</i>
   <i type="int" name="NGY">    40</i>
   <i type="int" name="NGZ">    80</i>
   <i type="int" name="NGXF">    80</i>
   <i type="int" name="NGYF">    80</i>
   <i type="int" name="NGZF">   160</i>
   <i type="logical" name="ADDGRID"> F  </i>
  </separator>
  <separator name="ionic" >
   <i type="int" name="NSW">  1000</i>
   <i type="int" name="IBRION">     3</i>
   <i type="int" name="MDALGO">     0</i>
   <i type="int" name="ISIF">     2</i>
   <i name="PSTRESS">      0.00000000</i>
   <i name="EDIFFG">     -0.02600000</i>
   <i type="int" name="NFREE">     0</i>
   <i name="POTIM">      0.00000000</i>
   <i name="SMASS">     -3.00000000</i>
   <i name="SCALEE">      1.00000000</i>
  </separator>
  <separator name="ionic md" >
   <i name="TEBEG">      0.00010000</i>
   <i name="TEEND">      0.00010000</i>
   <i type="int" name="NBLOCK">     1</i>
   <i type="int" name="KBLOCK">  1000</i>
   <i type="int" name="NPACO">   256</i>
   <i name="APACO">     10.00000000</i>
  </separator>
  <separator name="symmetry" >
   <i type="int" name="ISYM">     0</i>
   <i name="SYMPREC">      0.00001000</i>
  </separator>
  <separator name="dos" >
   <i type="int" name="LORBIT">     0</i>
   <v name="RWIGS">     -1.00000000     -1.00000000     -1.00000000</v>
   <i type="int" name="NEDOS">   301</i>
   <i name="EMIN">     10.00000000</i>
   <i name="EMAX">    -10.00000000</i>
   <i name="EFERMI">      0.00000000</i>
  </separator>
  <separator name="writing" >
   <i type="int" name="NWRITE">     0</i>
   <i type="logical" name="LWAVE"> F  </i>
   <i type="logical" name="LDOWNSAMPLE"> F  </i>
   <i type="logical" name="LCHARG"> F  </i>
   <i type="logical" name="LPARD"> F  </i>
   <i type="logical" name="LVTOT"> F  </i>
   <i type="logical" name="LVHAR"> F  </i>
   <i type="logical" name="LELF"> F  </i>
   <i type="logical" name="LOPTICS"> F  </i>
   <v name="STM">      0.00000000      0.00000000      0.00000000      0.00000000      0.00000000      0.00000000      0.00000000</v>
  </separator>
  <separator name="performance" >
   <i type="int" name="NPAR">     4</i>
   <i type="int" name="NSIM">     4</i>
   <i type="int" name="NBLK">    -1</i>
   <i type="logical" name="LPLANE"> T  </i>
   <i type="logical" name="LSCALAPACK"> T  </i>
   <i type="logical" name="LSCAAWARE"> F  </i>
   <i type="logical" name="LSCALU"> F  </i>
   <i type="logical" name="LASYNC"> F  </i>
   <i type="logical" name="LORBITALREAL"> F  </i>
  </separator>
  <separator name="miscellaneous" >
   <i type="int" name="IDIOT">     3</i>
   <i type="int" name="PHON_NSTRUCT">    -1</i>
   <i type="logical" name="LMUSIC"> F  </i>
   <v name="POMASS">    106.42000000     12.01100000     16.00000000</v>
   <v name="DARWINR">      0.00000000      0.00000000      0.00000000</v>
   <v name="DARWINV">      1.00000000      1.00000000      1.00000000</v>
   <i type="logical" name="LCORR"> T  </i>
  </separator>
  <i type="logical" name="GGA_COMPAT"> T  </i>
  <i type="logical" name="LBERRY"> F  </i>
  <i type="int" name="ICORELEVEL">     0</i>
  <i type="logical" name="LDAU"> F  </i>
  <i type="int" name="I_CONSTRAINED_M">     0</i>
  <separator name="electronic exchange-correlation" >
   <i type="string" name="GGA    ">PE</i>
   <i type="string" name="XC_C">1</i>
   <i type="int" name="VOSKOWN">     0</i>
   <i type="logical" name="LHFCALC"> F  </i>
   <i type="string" name="PRECFOCK"></i>
   <i type="logical" name="LSYMGRAD"> F  </i>
   <i type="logical" name="LHFONE"> F  </i>
   <i type="logical" name="LRHFCALC"> F  </i>
   <i type="logical" name="LTHOMAS"> F  </i>
   <i type="logical" name="LMODELHF"> F  </i>
   <i type="logical" name="LFOCKACE"> F  </i>
   <i name="ENCUT4O">     -1.00000000</i>
   <i type="int" name="EXXOEP">     0</i>
   <i type="int" name="FOURORBIT">     0</i>
   <i name="AEXX">      0.00000000</i>
   <i name="HFALPHA">      0.00000000</i>
   <i name="MCALPHA">      0.00000000</i>
   <i name="ALDAX">      1.00000000</i>
   <i name="AGGAX">      1.00000000</i>
   <i name="AMGGAX">      1.00000000</i>
   <i name="ALDAC">      1.00000000</i>
   <i name="AGGAC">      1.00000000</i>
   <i name="AMGGAC">      1.00000000</i>
   <i type="int" name="NKREDX">     1</i>
   <i type="int" name="NKREDY">     1</i>
   <i type="int" name="NKREDZ">     1</i>
   <i type="logical" name="SHIFTRED"> F  </i>
   <i type="logical" name="ODDONLY"> F  </i>
   <i type="logical" name="EVENONLY"> F  </i>
   <i type="int" name="LMAXFOCK">     0</i>
   <i type="int" name="NMAXFOCKAE">     0</i>
   <i type="logical" name="LFOCKAEDFT"> F  </i>
   <i name="HFSCREEN">      0.00000000</i>
   <i name="HFSCREENC">      0.00000000</i>
   <i type="int" name="NBANDSGWLOW">     0</i>
  </separator>
  <separator name="vdW DFT" >
   <i type="logical" name="LUSE_VDW"> F  </i>
   <i type="int" name="IVDW_NL">    -1</i>
   <i type="logical" name="LSPIN_VDW"> F  </i>
   <i name="ZAB_VDW">     -0.84910000</i>
   <i name="GAMMA_VDW">      1.39626340</i>
   <i name="ALPHA_VDW">      0.00000000</i>
   <i name="PARAM1">      0.12340000</i>
   <i name="PARAM2">      1.00000000</i>
   <i name="BPARAM">      6.30000000</i>
   <i name="CPARAM">      0.00930000</i>
  </separator>
  <separator name="model GW" >
   <i type="int" name="MODEL_GW">     0</i>
   <i name="MODEL_EPS0">     15.20235803</i>
   <i name="MODEL_ALPHA">      1.00000000</i>
  </separator>
  <separator name="linear response parameters" >
   <i type="logical" name="LEPSILON"> F  </i>
   <i type="logical" name="LRPA"> F  </i>
   <i type="logical" name="LNABLA"> F  </i>
   <i type="logical" name="LVEL"> F  </i>
   <i name="CSHIFT">      0.10000000</i>
   <i name="OMEGAMAX">     -1.00000000</i>
   <i name="DEG_THRESHOLD">      0.00200000</i>
   <i name="RTIME">     -0.10000000</i>
   <i name="WPLASMAI">      0.00000000</i>
   <v name="DFIELD">      0.00000000      0.00000000      0.00000000</v>
   <v name="WPLASMA">      0.00000000      0.00000000      0.00000000      0.00000000      0.00000000      0.00000000      0.00000000      0.00000000      0.00000000</v>
  </separator>
  <separator name="orbital magnetization" >
   <i type="logical" name="NUCIND"> F  </i>
   <v name="MAGPOS">      0.00000000      0.00000000      0.00000000</v>
   <i type="logical" name="LNICSALL"> T  </i>
   <i type="logical" name="ORBITALMAG"> F  </i>
   <i type="logical" name="LMAGBLOCH"> F  </i>
   <i type="logical" name="LCHIMAG"> F  </i>
   <i type="logical" name="LGAUGE"> T  </i>
   <i type="int" name="MAGATOM">     0</i>
   <v name="MAGDIPOL">      0.00000000      0.00000000      0.00000000</v>
   <v name="AVECCONST">      0.00000000      0.00000000      0.00000000</v>
  </separator>
  <separator name="response functions" >
   <i type="logical" name="LALL_IN_ONE"> F  </i>
   <i type="int" name="IALL_IN_ONE">    -1</i>
   <i type="int" name="NBANDS_WAVE">    -1</i>
   <i type="logical" name="LFINITE_TEMPERATURE"> F  </i>
   <i type="logical" name="LADDER"> F  </i>
   <i type="logical" name="LRPAFORCE"> F  </i>
   <i type="logical" name="LFXC"> F  </i>
   <i type="logical" name="LHARTREE"> T  </i>
   <i type="int" name="IBSE">     2</i>
   <v type="int" name="KPOINT">    -1     0     0     0</v>
   <i type="logical" name="LTCTC"> F  </i>
   <i type="logical" name="LTCTE"> F  </i>
   <i type="logical" name="LTETE"> F  </i>
   <i type="logical" name="LTRIPLET"> F  </i>
   <i type="logical" name="LFXCEPS"> F  </i>
   <i type="logical" name="LFXHEG"> F  </i>
   <i type="int" name="NATURALO">     2</i>
   <i type="logical" name="LHOLEGF"> F  </i>
   <i type="logical" name="L2ORDER"> F  </i>
   <i type="logical" name="LDMP1"> F  </i>
   <i type="logical" name="LMP2LT"> F  </i>
   <i type="logical" name="LSMP2LT"> F  </i>
   <i type="logical" name="LGWLF"> F  </i>
   <i name="ENCUTGW">     -1.60000002</i>
   <i name="ENCUTGWSOFT">     -1.60000002</i>
   <i name="ENCUTLF">     -1.00000000</i>
   <i type="logical" name="ESF_SPLINES"> F  </i>
   <i name="ESF_CONV">      0.01000000</i>
   <i type="int" name="ESF_NINTER">    15</i>
   <i type="int" name="LMAXMP2">    -1</i>
   <i name="SCISSOR">      0.00000000</i>
   <i type="int" name="NOMEGA">     0</i>
   <i type="int" name="NOMEGAR">     0</i>
   <i type="int" name="NBANDSGW">    -1</i>
   <i type="int" name="NBANDSO">    -1</i>
   <i type="int" name="NBANDSV">    -1</i>
   <i type="int" name="NELMGW">     1</i>
   <i type="int" name="NELMHF">     1</i>
   <i type="int" name="DIM">     3</i>
   <i type="int" name="IESPILON">     4</i>
   <i type="int" name="ANTIRES">     0</i>
   <i name="OMEGAMAX">    -30.00000000</i>
   <i name="OMEGAMIN">    -30.00000000</i>
   <i name="OMEGATL">   -200.00000000</i>
   <i type="int" name="OMEGAGRID">     0</i>
   <i name="CSHIFT">     -0.10000000</i>
   <i type="logical" name="LSELFENERGY"> F  </i>
   <i type="logical" name="LSPECTRAL"> F  </i>
   <i type="logical" name="LSPECTRALGW"> F  </i>
   <i type="logical" name="LSINGLES"> F  </i>
   <i type="logical" name="LFERMIGW"> F  </i>
   <i type="logical" name="ODDONLYGW"> F  </i>
   <i type="logical" name="EVENONLYGW"> F  </i>
   <i type="int" name="NKREDLFX">     1</i>
   <i type="int" name="NKREDLFY">     1</i>
   <i type="int" name="NKREDLFZ">     1</i>
   <i type="int" name="MAXMEM">  2800</i>
   <i type="int" name="TELESCOPE">     0</i>
   <i type="int" name="NTAUPAR">    -1</i>
   <i type="int" name="NOMEGAPAR">    -1</i>
   <i name="DAMP_NEWTON">      0.80000001</i>
   <i name="LAMBDA">      1.00000000</i>
  </separator>
  <separator name="External order field" >
   <i name="OFIELD_KAPPA">      0.00000000</i>
   <v name="OFIELD_K">      0.00000000      0.00000000      0.00000000</v>
   <i name="OFIELD_Q6_NEAR">      0.00000000</i>
   <i name="OFIELD_Q6_FAR">      0.00000000</i>
   <i name="OFIELD_A">      0.00000000</i>
  </separator>
  <separator name="optional k-points parameters" >
   <i type="int" name="KPOINTS_OPT_MODE">     1</i>
   <i type="logical" name="LKPOINTS_OPT"> F  </i>
  </separator>
 </parameters>
 <atominfo>
  <atoms>      39 </atoms>
  <types>       3 </types>
  <array name="atoms" >
   <dimension dim="1">ion</dimension>
   <field type="string">element</field>
   <field type="int">atomtype</field>
   <set>
    <rc><c>Pd</c><c>   1</c></rc>
    <rc><c>Pd</c><c>   1</c></rc>
    <rc><c>Pd</c><c>   1</c></rc>
    <rc><c>Pd</c><c>   1</c></rc>
    <rc><c>Pd</c><c>   1</c></rc>
    <rc><c>Pd</c><c>   1</c></rc>
    <rc><c>Pd</c><c>   1</c></rc>
    <rc><c>Pd</c><c>   1</c></rc>
    <rc><c>Pd</c><c>   1</c></rc>
    <rc><c>Pd</c><c>   1</c></rc>
    <rc><c>Pd</c><c>   1</c></rc>
    <rc><c>Pd</c><c>   1</c></rc>
    <rc><c>Pd</c><c>   1</c></rc>
    <rc><c>Pd</c><c>   1</c></rc>
    <rc><c>Pd</c><c>   1</c></rc>
    <rc><c>Pd</c><c>   1</c></rc>
    <rc><c>Pd</c><c>   1</c></rc>
    <rc><c>Pd</c><c>   1</c></rc>
    <rc><c>Pd</c><c>   1</c></rc>
    <rc><c>Pd</c><c>   1</c></rc>
    <rc><c>Pd</c><c>   1</c></rc>
    <rc><c>Pd</c><c>   1</c></rc>
    <rc><c>Pd</c><c>   1</c></rc>
    <rc><c>Pd</c><c>   1</c></rc>
    <rc><c>Pd</c><c>   1</c></rc>
    <rc><c>Pd</c><c>   1</c></rc>
    <rc><c>Pd</c><c>   1</c></rc>
    <rc><c>Pd</c><c>   1</c></rc>
    <rc><c>Pd</c><c>   1</c></rc>
    <rc><c>Pd</c><c>   1</c></rc>
    <rc><c>Pd</c><c>   1</c></rc>
    <rc><c>Pd</c><c>   1</c></rc>
    <rc><c>Pd</c><c>   1</c></rc>
    <rc><c>Pd</c><c>   1</c></rc>
    <rc><c>Pd</c><c>   1</c></rc>
    <rc><c>Pd</c><c>   1</c></rc>
    <rc><c>C </c><c>   2</c></rc>
    <rc><c>O </c><c>   3</c></rc>
    <rc><c>O </c><c>   3</c></rc>
   </set>
  </array>
  <array name="atomtypes" >
   <dimension dim="1">type</dimension>
   <field type="int">atomspertype</field>
   <field type="string">element</field>
   <field>mass</field>
   <field>valence</field>
   <field type="string">pseudopotential</field>
   <set>
    <rc><c>  36</c><c>Pd</c><c>    106.42000000</c><c>     10.00000000</c><c>  PAW_PBE Pd 04Jan2005                  </c></rc>
    <rc><c>   1</c><c>C </c><c>     12.01100000</c><c>      4.00000000</c><c>  PAW_PBE C 08Apr2002                   </c></rc>
    <rc><c>   2</c><c>O </c><c>     16.00000000</c><c>      6.00000000</c><c>  PAW_PBE O 08Apr2002                   </c></rc>
   </set>
  </array>
 </atominfo>
 <structure name="initialpos" >
  <crystal>
   <varray name="basis" >
    <v>       8.30990028       0.00000000       0.00000000 </v>
    <v>      -4.15495014       7.19658475       0.00000000 </v>
    <v>       0.00000000       0.00000000      16.52350044 </v>
   </varray>
   <i name="volume">    988.15327180 </i>
   <varray name="rec_basis" >
    <v>       0.12033839       0.06947740       0.00000000 </v>
    <v>       0.00000000       0.13895480       0.00000000 </v>
    <v>       0.00000000       0.00000000       0.06051986 </v>
   </varray>
  </crystal>
  <varray name="positions" >
   <v>       0.99922980       0.99989485       0.43774653 </v>
   <v>       0.11093000       0.22330000       0.16024000 </v>
   <v>       0.22186389       0.11225903       0.29891337 </v>
   <v>       0.33281562       0.00032034       0.43754814 </v>
   <v>       0.44426000       0.22330000       0.16024000 </v>
   <v>       0.55487217       0.11172384       0.29820748 </v>
   <v>       0.66596630       0.00037302       0.43681906 </v>
   <v>       0.77760000       0.22330000       0.16024000 </v>
   <v>       0.88860887       0.11191595       0.29855829 </v>
   <v>       0.99836615       0.33334614       0.43760612 </v>
   <v>       0.11093000       0.55664000       0.16024000 </v>
   <v>       0.22178628       0.44497498       0.29876699 </v>
   <v>       0.33233959       0.33314674       0.43951422 </v>
   <v>       0.44426000       0.55664000       0.16024000 </v>
   <v>       0.55429865       0.44484873       0.29859515 </v>
   <v>       0.66571278       0.33368816       0.43667635 </v>
   <v>       0.77760000       0.55664000       0.16024000 </v>
   <v>       0.88837371       0.44503979       0.29817576 </v>
   <v>       0.99902204       0.66681835       0.43654894 </v>
   <v>       0.11093000       0.88997000       0.16024000 </v>
   <v>       0.22189995       0.77858829       0.29834235 </v>
   <v>       0.33328764       0.66761251       0.43730502 </v>
   <v>       0.44426000       0.88997000       0.16024000 </v>
   <v>       0.55485866       0.77840134       0.29822794 </v>
   <v>       0.66610770       0.66702624       0.43670799 </v>
   <v>       0.77760000       0.88997000       0.16024000 </v>
   <v>       0.88844425       0.77874280       0.29814258 </v>
   <v>       0.99982000       0.00108000       0.02337000 </v>
   <v>       0.33315000       0.00108000       0.02337000 </v>
   <v>       0.66649000       0.00108000       0.02337000 </v>
   <v>       0.99982000       0.33441000       0.02337000 </v>
   <v>       0.33315000       0.33441000       0.02337000 </v>
   <v>       0.66649000       0.33441000       0.02337000 </v>
   <v>       0.99982000       0.66775000       0.02337000 </v>
   <v>       0.33315000       0.66775000       0.02337000 </v>
   <v>       0.66649000       0.66775000       0.02337000 </v>
   <v>       0.24174568       0.14252294       0.68348111 </v>
   <v>       0.25595898       0.28908756       0.67268919 </v>
   <v>       0.22633463       0.99643011       0.69706055 </v>
  </varray>
  <varray name="selective"  type="logical" >
   <v type="logical" >  T  T  T </v>
   <v type="logical" >  F  F  F </v>
   <v type="logical" >  T  T  T </v>
   <v type="logical" >  T  T  T </v>
   <v type="logical" >  F  F  F </v>
   <v type="logical" >  T  T  T </v>
   <v type="logical" >  T  T  T </v>
   <v type="logical" >  F  F  F </v>
   <v type="logical" >  T  T  T </v>
   <v type="logical" >  T  T  T </v>
   <v type="logical" >  F  F  F </v>
   <v type="logical" >  T  T  T </v>
   <v type="logical" >  T  T  T </v>
   <v type="logical" >  F  F  F </v>
   <v type="logical" >  T  T  T </v>
   <v type="logical" >  T  T  T </v>
   <v type="logical" >  F  F  F </v>
   <v type="logical" >  T  T  T </v>
   <v type="logical" >  T  T  T </v>
   <v type="logical" >  F  F  F </v>
   <v type="logical" >  T  T  T </v>
   <v type="logical" >  T  T  T </v>
   <v type="logical" >  F  F  F </v>
   <v type="logical" >  T  T  T </v>
   <v type="logical" >  T  T  T </v>
   <v type="logical" >  F  F  F </v>
   <v type="logical" >  T  T  T </v>
   <v type="logical" >  F  F  F </v>
   <v type="logical" >  F  F  F </v>
   <v type="logical" >  F  F  F </v>
   <v type="logical" >  F  F  F </v>
   <v type="logical" >  F  F  F </v>
   <v type="logical" >  F  F  F </v>
   <v type="logical" >  F  F  F </v>
   <v type="logical" >  F  F  F </v>
   <v type="logical" >  F  F  F </v>
   <v type="logical" >  T  T  T </v>
   <v type="logical" >  T  T  T </v>
   <v type="logical" >  T  T  T </v>
  </varray>
  <nose>
   <v>      -3.00000000       0.00000000       0.00010000       0.00010000 </v>
  </nose>
 </structure>
 <calculation>
  <scstep>
   <time name="dav">   14.57   15.07</time>
   <time name="total">   15.05   15.57</time>
   <energy>
    <i name="alphaZ">    918.22725072 </i>
    <i name="ewald">  20287.71132282 </i>
    <i name="hartreedc"> -52926.97404932 </i>
    <i name="XCdc">   -993.44944450 </i>
    <i name="pawpsdc">  29844.20032359 </i>
    <i name="pawaedc"> -27608.36462881 </i>
    <i name="eentropy">     -1.25463077 </i>
    <i name="bandstr">   2418.28364496 </i>
    <i name="atom">  30161.86332653 </i>
    <i name="e_fr_energy">   2100.24311523 </i>
    <i name="e_wo_entrp">   2101.49774600 </i>
    <i name="e_0_energy">   2100.87043061 </i>
   </energy>
  </scstep>
  <scstep>
   <time name="dav">   15.54   15.65</time>
   <time name="total">   15.84   15.95</time>
   <energy>
    <i name="e_fr_energy">    -95.29697065 </i>
    <i name="e_wo_entrp">    -91.77973750 </i>
    <i name="e_0_energy">    -93.53835407 </i>
   </energy>
  </scstep>
  <scstep>
   <time name="dav">   15.94   16.04</time>
   <time name="total">   16.24   16.34</time>
   <energy>
    <i name="e_fr_energy">   -210.94199625 </i>
    <i name="e_wo_entrp">   -205.71499800 </i>
    <i name="e_0_energy">   -208.32849713 </i>
   </energy>
  </scstep>
  <scstep>
   <time name="dav">   17.10   17.21</time>
   <time name="total">   17.38   17.49</time>
   <energy>
    <i name="e_fr_energy">   -214.23371567 </i>
    <i name="e_wo_entrp">   -208.96747981 </i>
    <i name="e_0_energy">   -211.60059774 </i>
   </energy>
  </scstep>
  <scstep>
   <time name="dav">   21.59   21.74</time>
   <time name="total">   23.34   23.51</time>
   <energy>
    <i name="e_fr_energy">   -214.39886744 </i>
    <i name="e_wo_entrp">   -209.13186096 </i>
    <i name="e_0_energy">   -211.76536420 </i>
   </energy>
  </scstep>
  <scstep>
   <time name="dav">   16.01   16.11</time>
   <time name="total">   17.88   17.99</time>
   <energy>
    <i name="e_fr_energy">   -204.84646751 </i>
    <i name="e_wo_entrp">   -199.64677772 </i>
    <i name="e_0_energy">   -202.24662261 </i>
   </energy>
  </scstep>
  <scstep>
   <time name="dav">   16.23   16.36</time>
   <time name="total">   18.11   18.26</time>
   <energy>
    <i name="e_fr_energy">   -208.56002675 </i>
    <i name="e_wo_entrp">   -203.83676978 </i>
    <i name="e_0_energy">   -206.19839826 </i>
   </energy>
  </scstep>
  <scstep>
   <time name="dav">   17.22   17.33</time>
   <time name="total">   19.10   19.22</time>
   <energy>
    <i name="e_fr_energy">   -206.21297872 </i>
    <i name="e_wo_entrp">   -201.37922167 </i>
    <i name="e_0_energy">   -203.79610019 </i>
   </energy>
  </scstep>
  <scstep>
   <time name="dav">   17.10   17.21</time>
   <time name="total">   18.98   19.09</time>
   <energy>
    <i name="e_fr_energy">   -207.94447711 </i>
    <i name="e_wo_entrp">   -203.26445238 </i>
    <i name="e_0_energy">   -205.60446475 </i>
   </energy>
  </scstep>
  <scstep>
   <time name="dav">   16.81   16.92</time>
   <time name="total">   18.69   18.80</time>
   <energy>
    <i name="e_fr_energy">   -205.02932998 </i>
    <i name="e_wo_entrp">   -200.00725981 </i>
    <i name="e_0_energy">   -202.51829489 </i>
   </energy>
  </scstep>
  <scstep>
   <time name="dav">   16.75   16.85</time>
   <time name="total">   18.63   18.74</time>
   <energy>
    <i name="e_fr_energy">   -204.01736316 </i>
    <i name="e_wo_entrp">   -198.81311559 </i>
    <i name="e_0_energy">   -201.41523938 </i>
   </energy>
  </scstep>
  <scstep>
   <time name="dav">   16.06   16.16</time>
   <time name="total">   17.95   18.05</time>
   <energy>
    <i name="e_fr_energy">   -204.01295462 </i>
    <i name="e_wo_entrp">   -198.79019932 </i>
    <i name="e_0_energy">   -201.40157697 </i>
   </energy>
  </scstep>
  <scstep>
   <time name="dav">   15.66   15.75</time>
   <time name="total">   17.54   17.64</time>
   <energy>
    <i name="e_fr_energy">   -204.01071609 </i>
    <i name="e_wo_entrp">   -198.78509985 </i>
    <i name="e_0_energy">   -201.39790797 </i>
   </energy>
  </scstep>
  <scstep>
   <time name="dav">   15.96   16.06</time>
   <time name="total">   17.85   17.96</time>
   <energy>
    <i name="e_fr_energy">   -204.00883901 </i>
    <i name="e_wo_entrp">   -198.77827784 </i>
    <i name="e_0_energy">   -201.39355843 </i>
   </energy>
  </scstep>
  <scstep>
   <time name="dav">   15.96   16.06</time>
   <time name="total">   17.84   17.96</time>
   <energy>
    <i name="e_fr_energy">   -204.00638231 </i>
    <i name="e_wo_entrp">   -198.77404302 </i>
    <i name="e_0_energy">   -201.39021267 </i>
   </energy>
  </scstep>
  <scstep>
   <time name="dav">   15.91   16.01</time>
   <time name="total">   17.80   17.91</time>
   <energy>
    <i name="e_fr_energy">   -204.00282536 </i>
    <i name="e_wo_entrp">   -198.76766546 </i>
    <i name="e_0_energy">   -201.38524541 </i>
   </energy>
  </scstep>
  <scstep>
   <time name="dav">   15.84   15.94</time>
   <time name="total">   17.78   17.89</time>
   <energy>
    <i name="e_fr_energy">   -204.00236444 </i>
    <i name="e_wo_entrp">   -198.76680151 </i>
    <i name="e_0_energy">   -201.38458298 </i>
   </energy>
  </scstep>
  <scstep>
   <time name="dav">   15.76   15.86</time>
   <time name="total">   17.67   17.78</time>
   <energy>
    <i name="e_fr_energy">   -204.00186296 </i>
    <i name="e_wo_entrp">   -198.76548528 </i>
    <i name="e_0_energy">   -201.38367412 </i>
   </energy>
  </scstep>
  <scstep>
   <time name="dav">   15.87   15.97</time>
   <time name="total">   17.77   17.87</time>
   <energy>
    <i name="e_fr_energy">   -204.00170712 </i>
    <i name="e_wo_entrp">   -198.76561661 </i>
    <i name="e_0_energy">   -201.38366186 </i>
   </energy>
  </scstep>
  <scstep>
   <time name="dav">   16.18   16.28</time>
   <time name="total">   18.07   18.17</time>
   <energy>
    <i name="e_fr_energy">   -204.00163789 </i>
    <i name="e_wo_entrp">   -198.76616863 </i>
    <i name="e_0_energy">   -201.38390326 </i>
   </energy>
  </scstep>
  <scstep>
   <time name="dav">   15.93   16.03</time>
   <time name="total">   17.83   17.94</time>
   <energy>
    <i name="e_fr_energy">   -204.00179783 </i>
    <i name="e_wo_entrp">   -198.76625385 </i>
    <i name="e_0_energy">   -201.38402584 </i>
   </energy>
  </scstep>
  <scstep>
   <time name="dav">   15.58   15.68</time>
   <time name="total">   17.49   17.59</time>
   <energy>
    <i name="e_fr_energy">   -204.00188442 </i>
    <i name="e_wo_entrp">   -198.76618605 </i>
    <i name="e_0_energy">   -201.38403524 </i>
   </energy>
  </scstep>
  <scstep>
   <time name="dav">   14.13   14.22</time>
   <time name="total">   16.03   16.13</time>
   <energy>
    <i name="e_fr_energy">   -204.00199432 </i>
    <i name="e_wo_entrp">   -198.76580787 </i>
    <i name="e_0_energy">   -201.38390110 </i>
   </energy>
  </scstep>
  <scstep>
   <time name="dav">   11.52   11.59</time>
   <time name="total">   13.44   13.52</time>
   <energy>
    <i name="e_fr_energy">   -204.00201657 </i>
    <i name="e_wo_entrp">   -198.76576996 </i>
    <i name="e_0_energy">   -201.38389326 </i>
   </energy>
  </scstep>
  <scstep>
   <time name="dav">   11.50   11.57</time>
   <time name="total">   13.43   13.51</time>
   <energy>
    <i name="e_fr_energy">   -204.00205700 </i>
    <i name="e_wo_entrp">   -198.76579925 </i>
    <i name="e_0_energy">   -201.38392813 </i>
   </energy>
  </scstep>
  <scstep>
   <time name="dav">   11.09   11.15</time>
   <time name="total">   12.98   13.06</time>
   <energy>
    <i name="e_fr_energy">   -204.00207281 </i>
    <i name="e_wo_entrp">   -198.76582538 </i>
    <i name="e_0_energy">   -201.38394909 </i>
   </energy>
  </scstep>
  <scstep>
   <time name="dav">   11.38   11.45</time>
   <time name="total">   13.31   13.39</time>
   <energy>
    <i name="e_fr_energy">   -204.00208914 </i>
    <i name="e_wo_entrp">   -198.76586101 </i>
    <i name="e_0_energy">   -201.38397508 </i>
   </energy>
  </scstep>
  <scstep>
   <time name="dav">   10.83   10.90</time>
   <time name="total">   11.24   11.31</time>
   <energy>
    <i name="alphaZ">    918.22725072 </i>
    <i name="ewald">  20287.71132282 </i>
    <i name="hartreedc"> -52867.26474603 </i>
    <i name="XCdc">   -999.28119352 </i>
    <i name="pawpsdc">  35517.01039396 </i>
    <i name="pawaedc"> -33362.51545606 </i>
    <i name="eentropy">     -5.23622893 </i>
    <i name="bandstr">    145.48323958 </i>
    <i name="atom">  30161.86332653 </i>
    <i name="e_fr_energy">   -204.00209093 </i>
    <i name="e_wo_entrp">   -198.76586199 </i>
    <i name="e_0_energy">   -201.38397646 </i>
   </energy>
  </scstep>
  <structure>
   <crystal>
    <varray name="basis" >
     <v>       8.30990028       0.00000000       0.00000000 </v>
     <v>      -4.15495014       7.19658475       0.00000000 </v>
     <v>       0.00000000       0.00000000      16.52350044 </v>
    </varray>
    <i name="volume">    988.15327180 </i>
    <varray name="rec_basis" >
     <v>       0.12033839       0.06947740       0.00000000 </v>
     <v>       0.00000000       0.13895480       0.00000000 </v>
     <v>       0.00000000       0.00000000       0.06051986 </v>
    </varray>
   </crystal>
   <varray name="positions" >
    <v>       0.99922980       0.99989485       0.43774653 </v>
    <v>       0.11093000       0.22330000       0.16024000 </v>
    <v>       0.22186389       0.11225903       0.29891337 </v>
    <v>       0.33281562       0.00032034       0.43754814 </v>
    <v>       0.44426000       0.22330000       0.16024000 </v>
    <v>       0.55487217       0.11172384       0.29820748 </v>
    <v>       0.66596630       0.00037302       0.43681906 </v>
    <v>       0.77760000       0.22330000       0.16024000 </v>
    <v>       0.88860887       0.11191595       0.29855829 </v>
    <v>       0.99836615       0.33334614       0.43760612 </v>
    <v>       0.11093000       0.55664000       0.16024000 </v>
    <v>       0.22178628       0.44497498       0.29876699 </v>
    <v>       0.33233959       0.33314674       0.43951422 </v>
    <v>       0.44426000       0.55664000       0.16024000 </v>
    <v>       0.55429865       0.44484873       0.29859515 </v>
    <v>       0.66571278       0.33368816       0.43667635 </v>
    <v>       0.77760000       0.55664000       0.16024000 </v>
    <v>       0.88837371       0.44503979       0.29817576 </v>
    <v>       0.99902204       0.66681835       0.43654894 </v>
    <v>       0.11093000       0.88997000       0.16024000 </v>
    <v>       0.22189995       0.77858829       0.29834235 </v>
    <v>       0.33328764       0.66761251       0.43730502 </v>
    <v>       0.44426000       0.88997000       0.16024000 </v>
    <v>       0.55485866       0.77840134       0.29822794 </v>
    <v>       0.66610770       0.66702624       0.43670799 </v>
    <v>       0.77760000       0.88997000       0.16024000 </v>
    <v>       0.88844425       0.77874280       0.29814258 </v>
    <v>       0.99982000       0.00108000       0.02337000 </v>
    <v>       0.33315000       0.00108000       0.02337000 </v>
    <v>       0.66649000       0.00108000       0.02337000 </v>
    <v>       0.99982000       0.33441000       0.02337000 </v>
    <v>       0.33315000       0.33441000       0.02337000 </v>
    <v>       0.66649000       0.33441000       0.02337000 </v>
    <v>       0.99982000       0.66775000       0.02337000 </v>
    <v>       0.33315000       0.66775000       0.02337000 </v>
    <v>       0.66649000       0.66775000       0.02337000 </v>
    <v>       0.24174568       0.14252294       0.68348111 </v>
    <v>       0.25595898       0.28908756       0.67268919 </v>
    <v>       0.22633463       0.99643011       0.69706055 </v>
   </varray>
  </structure>
  <varray name="forces" >
   <v>       0.00225452       0.02385160      -0.04877170 </v>
   <v>       0.00440675      -0.00316593       0.18304841 </v>
   <v>       0.00129464      -0.00318595       0.00917143 </v>
   <v>      -0.01394965       0.00030205      -0.02898754 </v>
   <v>      -0.00980215      -0.00072459       0.16473158 </v>
   <v>       0.00174181       0.00112102       0.00604930 </v>
   <v>       0.00089946      -0.00164768       0.00533521 </v>
   <v>       0.00139845      -0.00485393       0.15520558 </v>
   <v>       0.00231023      -0.00089941      -0.00912852 </v>
   <v>       0.04591431       0.01676054      -0.03874408 </v>
   <v>       0.00916717      -0.00360781       0.15972652 </v>
   <v>       0.00259869       0.00112156       0.02427464 </v>
   <v>      -0.02311463       0.02247627      -0.13875011 </v>
   <v>      -0.00519746      -0.01249751       0.16863611 </v>
   <v>       0.00616752       0.00178360      -0.00005337 </v>
   <v>      -0.00014095      -0.00513689       0.01760843 </v>
   <v>      -0.00808526      -0.01131653       0.15285728 </v>
   <v>      -0.00014883       0.00235518       0.00398667 </v>
   <v>       0.01683824       0.01117237       0.01699925 </v>
   <v>       0.00197473       0.01136801       0.16996524 </v>
   <v>      -0.00110087      -0.00009584      -0.00094394 </v>
   <v>      -0.01861435      -0.03634146      -0.01845649 </v>
   <v>      -0.00401387      -0.00249074       0.14935674 </v>
   <v>       0.00395940       0.00044440      -0.00578895 </v>
   <v>      -0.01431784      -0.00682841       0.01305250 </v>
   <v>      -0.00265891       0.00530174       0.16139006 </v>
   <v>       0.00152616      -0.00273658       0.00878430 </v>
   <v>       0.00278330      -0.00681498      -0.13399384 </v>
   <v>      -0.00288873       0.00112139      -0.14297456 </v>
   <v>       0.00215353       0.00071164      -0.14029788 </v>
   <v>      -0.00100863       0.00041063      -0.13818787 </v>
   <v>       0.00005546       0.00011955      -0.14006301 </v>
   <v>      -0.00042989       0.00121662      -0.14168951 </v>
   <v>      -0.00105877       0.00148445      -0.14527519 </v>
   <v>      -0.00173177      -0.00072884      -0.14383773 </v>
   <v>       0.00086215      -0.00058544      -0.14274976 </v>
   <v>      -0.06459587      -0.00448826       0.28314444 </v>
   <v>       0.02812928       0.00739843      -0.15092746 </v>
   <v>       0.03642260      -0.00237428      -0.14370222 </v>
  </varray>
  <varray name="stress" >
   <v>     -22.26871753      -0.34106539       0.11483550 </v>
   <v>      -0.34106540     -21.65916667      -0.00640111 </v>
   <v>       0.11483573      -0.00640100      -7.48677651 </v>
  </varray>
  <energy>
   <i name="e_fr_energy">   -204.00209093 </i>
   <i name="e_wo_entrp">   -198.76586199 </i>
   <i name="e_0_energy">   -201.38397646 </i>
  </energy>
  <time name="totalsc">  600.48  604.35</time>
 </calculation>
 <calculation>
  <scstep>
   <time name="dav">   14.94   15.04</time>
   <time name="total">   16.80   16.91</time>
   <energy>
    <i name="alphaZ">    918.22725072 </i>
    <i name="ewald">  20288.85727453 </i>
    <i name="hartreedc"> -52868.41595100 </i>
    <i name="XCdc">   -999.28033509 </i>
    <i name="pawpsdc">  35517.00308577 </i>
    <i name="pawaedc"> -33362.50728306 </i>
    <i name="eentropy">     -5.23627442 </i>
    <i name="bandstr">    145.48642657 </i>
    <i name="atom">  30161.86332653 </i>
    <i name="e_fr_energy">   -204.00247945 </i>
    <i name="e_wo_entrp">   -198.76620502 </i>
    <i name="e_0_energy">   -201.38434224 </i>
   </energy>
  </scstep>
  <scstep>
   <time name="dav">   11.43   11.51</time>
   <time name="total">   13.33   13.41</time>
   <energy>
    <i name="e_fr_energy">   -204.00248722 </i>
    <i name="e_wo_entrp">   -198.76621671 </i>
    <i name="e_0_energy">   -201.38435197 </i>
   </energy>
  </scstep>
  <scstep>
   <time name="dav">   10.41   10.48</time>
   <time name="total">   12.28   12.35</time>
   <energy>
    <i name="e_fr_energy">   -204.00248789 </i>
    <i name="e_wo_entrp">   -198.76622535 </i>
    <i name="e_0_energy">   -201.38435662 </i>
   </energy>
  </scstep>
  <scstep>
   <time name="dav">   10.27   10.33</time>
   <time name="total">   10.68   10.75</time>
   <energy>
    <i name="alphaZ">    918.22725072 </i>
    <i name="ewald">  20288.85727453 </i>
    <i name="hartreedc"> -52868.42812995 </i>
    <i name="XCdc">   -999.28040784 </i>
    <i name="pawpsdc">  35516.98377729 </i>
    <i name="pawaedc"> -33362.48857177 </i>
    <i name="eentropy">     -5.23626271 </i>
    <i name="bandstr">    145.49925579 </i>
    <i name="atom">  30161.86332653 </i>
    <i name="e_fr_energy">   -204.00248741 </i>
    <i name="e_wo_entrp">   -198.76622469 </i>
    <i name="e_0_energy">   -201.38435605 </i>
   </energy>
  </scstep>
  <structure>
   <crystal>
    <varray name="basis" >
     <v>       8.30990028       0.00000000       0.00000000 </v>
     <v>      -4.15495014       7.19658475       0.00000000 </v>
     <v>       0.00000000       0.00000000      16.52350044 </v>
    </varray>
    <i name="volume">    988.15327180 </i>
    <varray name="rec_basis" >
     <v>       0.12033839       0.06947740       0.00000000 </v>
     <v>       0.00000000       0.13895480       0.00000000 </v>
     <v>       0.00000000       0.00000000       0.06051986 </v>
    </varray>
   </crystal>
   <varray name="positions" >
    <v>       0.99923436       0.99990269       0.43773946 </v>
    <v>       0.11093000       0.22330000       0.16024000 </v>
    <v>       0.22186367       0.11225795       0.29891502 </v>
    <v>       0.33281135       0.00032012       0.43754403 </v>
    <v>       0.44426000       0.22330000       0.16024000 </v>
    <v>       0.55487270       0.11172406       0.29820837 </v>
    <v>       0.66596608       0.00037217       0.43681981 </v>
    <v>       0.77760000       0.22330000       0.16024000 </v>
    <v>       0.88860936       0.11191553       0.29855702 </v>
    <v>       0.99838227       0.33335156       0.43760051 </v>
    <v>       0.11093000       0.55664000       0.16024000 </v>
    <v>       0.22178714       0.44497514       0.29877084 </v>
    <v>       0.33233621       0.33315406       0.43949439 </v>
    <v>       0.44426000       0.55664000       0.16024000 </v>
    <v>       0.55430037       0.44484907       0.29859529 </v>
    <v>       0.66571155       0.33368608       0.43667890 </v>
    <v>       0.77760000       0.55664000       0.16024000 </v>
    <v>       0.88837394       0.44504040       0.29817633 </v>
    <v>       0.99902873       0.66682186       0.43655134 </v>
    <v>       0.11093000       0.88997000       0.16024000 </v>
    <v>       0.22189955       0.77858816       0.29834225 </v>
    <v>       0.33327578       0.66759984       0.43730233 </v>
    <v>       0.44426000       0.88997000       0.16024000 </v>
    <v>       0.55485976       0.77840134       0.29822704 </v>
    <v>       0.66610208       0.66702361       0.43670986 </v>
    <v>       0.77760000       0.88997000       0.16024000 </v>
    <v>       0.88844413       0.77874180       0.29814386 </v>
    <v>       0.99982000       0.00108000       0.02337000 </v>
    <v>       0.33315000       0.00108000       0.02337000 </v>
    <v>       0.66649000       0.00108000       0.02337000 </v>
    <v>       0.99982000       0.33441000       0.02337000 </v>
    <v>       0.33315000       0.33441000       0.02337000 </v>
    <v>       0.66649000       0.33441000       0.02337000 </v>
    <v>       0.99982000       0.66775000       0.02337000 </v>
    <v>       0.33315000       0.66775000       0.02337000 </v>
    <v>       0.66649000       0.66775000       0.02337000 </v>
    <v>       0.24172110       0.14252858       0.68350495 </v>
    <v>       0.25596248       0.28909558       0.67264500 </v>
    <v>       0.22634216       0.99643937       0.69702483 </v>
   </varray>
  </structure>
  <varray name="forces" >
   <v>       0.00212906       0.02261900      -0.04612004 </v>
   <v>       0.00443998      -0.00309500       0.18293262 </v>
   <v>       0.00133269      -0.00321816       0.00764253 </v>
   <v>      -0.01332349       0.00036920      -0.02791872 </v>
   <v>      -0.00981897      -0.00077123       0.16458513 </v>
   <v>       0.00175172       0.00111927       0.00549872 </v>
   <v>       0.00080423      -0.00155471       0.00541427 </v>
   <v>       0.00134071      -0.00483672       0.15503611 </v>
   <v>       0.00202531      -0.00085093      -0.00928867 </v>
   <v>       0.04377514       0.01602448      -0.03726715 </v>
   <v>       0.00918938      -0.00363330       0.15968180 </v>
   <v>       0.00309135       0.00152454       0.02126565 </v>
   <v>      -0.02201430       0.02173089      -0.13500976 </v>
   <v>      -0.00527954      -0.01255056       0.16849766 </v>
   <v>       0.00623565       0.00183369      -0.00068920 </v>
   <v>       0.00003805      -0.00484940       0.01732670 </v>
   <v>      -0.00806221      -0.01130256       0.15273414 </v>
   <v>      -0.00019917       0.00229010       0.00362742 </v>
   <v>       0.01591775       0.01074227       0.01671510 </v>
   <v>       0.00196284       0.01137801       0.16983498 </v>
   <v>      -0.00105686      -0.00010274      -0.00139747 </v>
   <v>      -0.01793204      -0.03445607      -0.01750507 </v>
   <v>      -0.00406544      -0.00244846       0.14916058 </v>
   <v>       0.00377044       0.00049460      -0.00573357 </v>
   <v>      -0.01361935      -0.00639343       0.01299456 </v>
   <v>      -0.00263896       0.00529355       0.16114695 </v>
   <v>       0.00147242      -0.00273905       0.00819185 </v>
   <v>       0.00279303      -0.00682279      -0.13398616 </v>
   <v>      -0.00290932       0.00111225      -0.14282011 </v>
   <v>       0.00210381       0.00073616      -0.14020441 </v>
   <v>      -0.00104629       0.00043069      -0.13808626 </v>
   <v>       0.00003584       0.00009613      -0.14005979 </v>
   <v>      -0.00043393       0.00120315      -0.14163572 </v>
   <v>      -0.00106343       0.00150073      -0.14514218 </v>
   <v>      -0.00179733      -0.00070725      -0.14380391 </v>
   <v>       0.00087170      -0.00057536      -0.14286782 </v>
   <v>      -0.06806813       0.00940911       0.26763738 </v>
   <v>       0.03012626       0.00024826      -0.14396977 </v>
   <v>       0.03812143      -0.00924839      -0.13641837 </v>
  </varray>
  <varray name="stress" >
   <v>     -22.26695944      -0.34119554       0.11610125 </v>
   <v>      -0.34119558     -21.65660414      -0.00645747 </v>
   <v>       0.11610110      -0.00645758      -7.47481973 </v>
  </varray>
  <energy>
   <i name="e_fr_energy">   -204.00248741 </i>
   <i name="e_wo_entrp">   -198.76622469 </i>
   <i name="e_0_energy">   -201.38435605 </i>
  </energy>
  <time name="totalsc">  177.91  178.72</time>
 </calculation>
 <calculation>
  <scstep>
   <time name="dav">   14.85   14.94</time>
   <time name="total">   16.71   16.81</time>
   <energy>
    <i name="alphaZ">    918.22725072 </i>
    <i name="ewald">  20291.12093597 </i>
    <i name="hartreedc"> -52870.67448936 </i>
    <i name="XCdc">   -999.27874470 </i>
    <i name="pawpsdc">  35516.97300315 </i>
    <i name="pawaedc"> -33362.47790436 </i>
    <i name="eentropy">     -5.23634462 </i>
    <i name="bandstr">    145.47978302 </i>
    <i name="atom">  30161.86332653 </i>
    <i name="e_fr_energy">   -204.00318366 </i>
    <i name="e_wo_entrp">   -198.76683904 </i>
    <i name="e_0_energy">   -201.38501135 </i>
   </energy>
  </scstep>
  <scstep>
   <time name="dav">   15.26   15.35</time>
   <time name="total">   17.12   17.22</time>
   <energy>
    <i name="e_fr_energy">   -204.00321503 </i>
    <i name="e_wo_entrp">   -198.76697024 </i>
    <i name="e_0_energy">   -201.38509264 </i>
   </energy>
  </scstep>
  <scstep>
   <time name="dav">   11.13   11.20</time>
   <time name="total">   13.00   13.08</time>
   <energy>
    <i name="e_fr_energy">   -204.00321287 </i>
    <i name="e_wo_entrp">   -198.76687411 </i>
    <i name="e_0_energy">   -201.38504349 </i>
   </energy>
  </scstep>
  <scstep>
   <time name="dav">   10.68   10.74</time>
   <time name="total">   11.09   11.16</time>
   <energy>
    <i name="alphaZ">    918.22725072 </i>
    <i name="ewald">  20291.12093597 </i>
    <i name="hartreedc"> -52870.67655426 </i>
    <i name="XCdc">   -999.27885612 </i>
    <i name="pawpsdc">  35517.09089034 </i>
    <i name="pawaedc"> -33362.59765329 </i>
    <i name="eentropy">     -5.23634196 </i>
    <i name="bandstr">    145.48379057 </i>
    <i name="atom">  30161.86332653 </i>
    <i name="e_fr_energy">   -204.00321150 </i>
    <i name="e_wo_entrp">   -198.76686954 </i>
    <i name="e_0_energy">   -201.38504052 </i>
   </energy>
  </scstep>
  <structure>
   <crystal>
    <varray name="basis" >
     <v>       8.30990028       0.00000000       0.00000000 </v>
     <v>      -4.15495014       7.19658475       0.00000000 </v>
     <v>       0.00000000       0.00000000      16.52350044 </v>
    </varray>
    <i name="volume">    988.15327180 </i>
    <varray name="rec_basis" >
     <v>       0.12033839       0.06947740       0.00000000 </v>
     <v>       0.00000000       0.13895480       0.00000000 </v>
     <v>       0.00000000       0.00000000       0.06051986 </v>
    </varray>
   </crystal>
   <varray name="positions" >
    <v>       0.99924314       0.99991778       0.43772587 </v>
    <v>       0.11093000       0.22330000       0.16024000 </v>
    <v>       0.22186325       0.11225573       0.29891788 </v>
    <v>       0.33280308       0.00031971       0.43753599 </v>
    <v>       0.44426000       0.22330000       0.16024000 </v>
    <v>       0.55487378       0.11172449       0.29821001 </v>
    <v>       0.66596560       0.00037050       0.43682135 </v>
    <v>       0.77760000       0.22330000       0.16024000 </v>
    <v>       0.88861021       0.11191473       0.29855437 </v>
    <v>       0.99841353       0.33336208       0.43758953 </v>
    <v>       0.11093000       0.55664000       0.16024000 </v>
    <v>       0.22178934       0.44497574       0.29877777 </v>
    <v>       0.33232975       0.33316845       0.43945516 </v>
    <v>       0.44426000       0.55664000       0.16024000 </v>
    <v>       0.55430393       0.44484979       0.29859539 </v>
    <v>       0.66570926       0.33368206       0.43668402 </v>
    <v>       0.77760000       0.55664000       0.16024000 </v>
    <v>       0.88837434       0.44504161       0.29817736 </v>
    <v>       0.99904164       0.66682872       0.43655616 </v>
    <v>       0.11093000       0.88997000       0.16024000 </v>
    <v>       0.22189874       0.77858788       0.29834190 </v>
    <v>       0.33325273       0.66757536       0.43729713 </v>
    <v>       0.44426000       0.88997000       0.16024000 </v>
    <v>       0.55486189       0.77840138       0.29822524 </v>
    <v>       0.66609122       0.66701858       0.43671365 </v>
    <v>       0.77760000       0.88997000       0.16024000 </v>
    <v>       0.88844386       0.77873976       0.29814627 </v>
    <v>       0.99982000       0.00108000       0.02337000 </v>
    <v>       0.33315000       0.00108000       0.02337000 </v>
    <v>       0.66649000       0.00108000       0.02337000 </v>
    <v>       0.99982000       0.33441000       0.02337000 </v>
    <v>       0.33315000       0.33441000       0.02337000 </v>
    <v>       0.66649000       0.33441000       0.02337000 </v>
    <v>       0.99982000       0.66775000       0.02337000 </v>
    <v>       0.33315000       0.66775000       0.02337000 </v>
    <v>       0.66649000       0.66775000       0.02337000 </v>
    <v>       0.24167392       0.14254965       0.68354910 </v>
    <v>       0.25596840       0.28910681       0.67255753 </v>
    <v>       0.22635616       0.99645323       0.69695459 </v>
   </varray>
  </structure>
  <varray name="forces" >
   <v>       0.00239850       0.02085086      -0.04441056 </v>
   <v>       0.00447956      -0.00292699       0.18270502 </v>
   <v>       0.00142403      -0.00343727       0.00595084 </v>
   <v>      -0.01275579       0.00052031      -0.02712536 </v>
   <v>      -0.00984363      -0.00068343       0.16434596 </v>
   <v>       0.00200428       0.00116723       0.00542631 </v>
   <v>       0.00075232      -0.00158355       0.00515681 </v>
   <v>       0.00129740      -0.00483586       0.15474743 </v>
   <v>       0.00156369      -0.00095304      -0.00955524 </v>
   <v>       0.04145743       0.01574405      -0.03568651 </v>
   <v>       0.00933337      -0.00376162       0.15955852 </v>
   <v>       0.00278300       0.00183463       0.01875617 </v>
   <v>      -0.02079836       0.02123909      -0.13312452 </v>
   <v>      -0.00532556      -0.01256739       0.16827431 </v>
   <v>       0.00671245       0.00215753      -0.00134255 </v>
   <v>       0.00031063      -0.00463209       0.01727622 </v>
   <v>      -0.00817547      -0.01123583       0.15252152 </v>
   <v>      -0.00038097       0.00222489       0.00370345 </v>
   <v>       0.01497250       0.01045076       0.01696252 </v>
   <v>       0.00180471       0.01138378       0.16959614 </v>
   <v>      -0.00093942      -0.00017892      -0.00164415 </v>
   <v>      -0.01734894      -0.03269763      -0.01697271 </v>
   <v>      -0.00394258      -0.00245215       0.14885509 </v>
   <v>       0.00379062       0.00058572      -0.00547082 </v>
   <v>      -0.01316069      -0.00594244       0.01283490 </v>
   <v>      -0.00263219       0.00516624       0.16076973 </v>
   <v>       0.00123900      -0.00295974       0.00808051 </v>
   <v>       0.00265784      -0.00684178      -0.13375085 </v>
   <v>      -0.00288815       0.00114613      -0.14277455 </v>
   <v>       0.00215442       0.00067535      -0.13990704 </v>
   <v>      -0.00103524       0.00041048      -0.13797504 </v>
   <v>       0.00000017       0.00021659      -0.13970446 </v>
   <v>      -0.00047133       0.00125943      -0.14143497 </v>
   <v>      -0.00116435       0.00146923      -0.14514432 </v>
   <v>      -0.00167680      -0.00074176      -0.14349127 </v>
   <v>       0.00079232      -0.00054626      -0.14230413 </v>
   <v>      -0.06718536       0.02087987       0.24088520 </v>
   <v>       0.03005640      -0.00558405      -0.13124708 </v>
   <v>       0.03774021      -0.01482036      -0.12334050 </v>
  </varray>
  <varray name="stress" >
   <v>     -22.24414708      -0.34239175       0.11648380 </v>
   <v>      -0.34239194     -21.63723937      -0.00588790 </v>
   <v>       0.11648391      -0.00588787      -7.42060101 </v>
  </varray>
  <energy>
   <i name="e_fr_energy">   -204.00321150 </i>
   <i name="e_wo_entrp">   -198.76686954 </i>
   <i name="e_0_energy">   -201.38504052 </i>
  </energy>
  <time name="totalsc">  179.05  179.97</time>
 </calculation>
 <calculation>
  <scstep>
   <time name="dav">   14.91   15.00</time>
   <time name="total">   16.76   16.86</time>
   <energy>
    <i name="alphaZ">    918.22725072 </i>
    <i name="ewald">  20294.54724521 </i>
    <i name="hartreedc"> -52874.12604714 </i>
    <i name="XCdc">   -999.27657254 </i>
    <i name="pawpsdc">  35517.11870869 </i>
    <i name="pawaedc"> -33362.62583851 </i>
    <i name="eentropy">     -5.23639120 </i>
    <i name="bandstr">    145.50422864 </i>
    <i name="atom">  30161.86332653 </i>
    <i name="e_fr_energy">   -204.00408960 </i>
    <i name="e_wo_entrp">   -198.76769840 </i>
    <i name="e_0_energy">   -201.38589400 </i>
   </energy>
  </scstep>
  <scstep>
   <time name="dav">   15.57   15.67</time>
   <time name="total">   17.44   17.55</time>
   <energy>
    <i name="e_fr_energy">   -204.00415832 </i>
    <i name="e_wo_entrp">   -198.76773387 </i>
    <i name="e_0_energy">   -201.38594610 </i>
   </energy>
  </scstep>
  <scstep>
   <time name="dav">   12.93   13.01</time>
   <time name="total">   14.81   14.89</time>
   <energy>
    <i name="e_fr_energy">   -204.00415202 </i>
    <i name="e_wo_entrp">   -198.76781306 </i>
    <i name="e_0_energy">   -201.38598254 </i>
   </energy>
  </scstep>
  <scstep>
   <time name="dav">   10.85   10.92</time>
   <time name="total">   11.27   11.34</time>
   <energy>
    <i name="alphaZ">    918.22725072 </i>
    <i name="ewald">  20294.54724521 </i>
    <i name="hartreedc"> -52874.16214284 </i>
    <i name="XCdc">   -999.27696940 </i>
    <i name="pawpsdc">  35517.36827550 </i>
    <i name="pawaedc"> -33362.87858373 </i>
    <i name="eentropy">     -5.23633360 </i>
    <i name="bandstr">    145.54378473 </i>
    <i name="atom">  30161.86332653 </i>
    <i name="e_fr_energy">   -204.00414688 </i>
    <i name="e_wo_entrp">   -198.76781328 </i>
    <i name="e_0_energy">   -201.38598008 </i>
   </energy>
  </scstep>
  <structure>
   <crystal>
    <varray name="basis" >
     <v>       8.30990028       0.00000000       0.00000000 </v>
     <v>      -4.15495014       7.19658475       0.00000000 </v>
     <v>       0.00000000       0.00000000      16.52350044 </v>
    </varray>
    <i name="volume">    988.15327180 </i>
    <varray name="rec_basis" >
     <v>       0.12033839       0.06947740       0.00000000 </v>
     <v>       0.00000000       0.13895480       0.00000000 </v>
     <v>       0.00000000       0.00000000       0.06051986 </v>
    </varray>
   </crystal>
   <varray name="positions" >
    <v>       0.99925604       0.99993929       0.43770558 </v>
    <v>       0.11093000       0.22330000       0.16024000 </v>
    <v>       0.22186255       0.11225205       0.29892153 </v>
    <v>       0.33279086       0.00031926       0.43752388 </v>
    <v>       0.44426000       0.22330000       0.16024000 </v>
    <v>       0.55487573       0.11172522       0.29821254 </v>
    <v>       0.66596480       0.00036790       0.43682362 </v>
    <v>       0.77760000       0.22330000       0.16024000 </v>
    <v>       0.88861102       0.11191337       0.29855013 </v>
    <v>       0.99845974       0.33337813       0.43757324 </v>
    <v>       0.11093000       0.55664000       0.16024000 </v>
    <v>       0.22179264       0.44497701       0.29878731 </v>
    <v>       0.33232062       0.33319027       0.43939510 </v>
    <v>       0.44426000       0.55664000       0.16024000 </v>
    <v>       0.55431011       0.44485128       0.29859523 </v>
    <v>       0.66570609       0.33367606       0.43669194 </v>
    <v>       0.77760000       0.55664000       0.16024000 </v>
    <v>       0.88837477       0.44504341       0.29817900 </v>
    <v>       0.99906064       0.66683905       0.43656376 </v>
    <v>       0.11093000       0.88997000       0.16024000 </v>
    <v>       0.22189757       0.77858737       0.29834124 </v>
    <v>       0.33321846       0.66753930       0.43728931 </v>
    <v>       0.44426000       0.88997000       0.16024000 </v>
    <v>       0.55486529       0.77840155       0.29822255 </v>
    <v>       0.66607505       0.66701128       0.43671946 </v>
    <v>       0.77760000       0.88997000       0.16024000 </v>
    <v>       0.88844310       0.77873635       0.29814996 </v>
    <v>       0.99982000       0.00108000       0.02337000 </v>
    <v>       0.33315000       0.00108000       0.02337000 </v>
    <v>       0.66649000       0.00108000       0.02337000 </v>
    <v>       0.99982000       0.33441000       0.02337000 </v>
    <v>       0.33315000       0.33441000       0.02337000 </v>
    <v>       0.66649000       0.33441000       0.02337000 </v>
    <v>       0.99982000       0.66775000       0.02337000 </v>
    <v>       0.33315000       0.66775000       0.02337000 </v>
    <v>       0.66649000       0.66775000       0.02337000 </v>
    <v>       0.24160795       0.14259460       0.68360572 </v>
    <v>       0.25597460       0.28911772       0.67242852 </v>
    <v>       0.22637459       0.99646825       0.69685224 </v>
   </varray>
  </structure>
  <varray name="forces" >
   <v>       0.00266494       0.01804641      -0.04182927 </v>
   <v>       0.00451972      -0.00271621       0.18296248 </v>
   <v>       0.00154498      -0.00375700       0.00272345 </v>
   <v>      -0.01201930       0.00069573      -0.02618916 </v>
   <v>      -0.00994002      -0.00078217       0.16458113 </v>
   <v>       0.00201209       0.00125675       0.00447817 </v>
   <v>       0.00049042      -0.00145131       0.00525352 </v>
   <v>       0.00108008      -0.00469591       0.15492233 </v>
   <v>       0.00098661      -0.00086974      -0.01049467 </v>
   <v>       0.03840994       0.01493282      -0.03333036 </v>
   <v>       0.00930591      -0.00380814       0.15999974 </v>
   <v>       0.00216057       0.00219038       0.01435598 </v>
   <v>      -0.01640317       0.02038024      -0.12764955 </v>
   <v>      -0.00559539      -0.01269226       0.16848010 </v>
   <v>       0.00724903       0.00234015      -0.00292268 </v>
   <v>       0.00066644      -0.00427209       0.01716881 </v>
   <v>      -0.00813039      -0.01116130       0.15278911 </v>
   <v>      -0.00059738       0.00222999       0.00305489 </v>
   <v>       0.01358494       0.01002637       0.01703741 </v>
   <v>       0.00169581       0.01141175       0.16985096 </v>
   <v>      -0.00101074      -0.00016928      -0.00279434 </v>
   <v>      -0.01629209      -0.03033672      -0.01458966 </v>
   <v>      -0.00418553      -0.00232726       0.14898270 </v>
   <v>       0.00349531       0.00075519      -0.00569712 </v>
   <v>      -0.01232411      -0.00526983       0.01297919 </v>
   <v>      -0.00256102       0.00514466       0.16074225 </v>
   <v>       0.00140058      -0.00309352       0.00616458 </v>
   <v>       0.00261939      -0.00681045      -0.13374938 </v>
   <v>      -0.00301343       0.00116884      -0.14264195 </v>
   <v>       0.00199083       0.00075380      -0.13993033 </v>
   <v>      -0.00115417       0.00048455      -0.13791177 </v>
   <v>      -0.00012404       0.00019391      -0.13973615 </v>
   <v>      -0.00055318       0.00125890      -0.14141289 </v>
   <v>      -0.00123675       0.00152999      -0.14511190 </v>
   <v>      -0.00186852      -0.00069571      -0.14347662 </v>
   <v>       0.00073069      -0.00050196      -0.14246710 </v>
   <v>      -0.05530258       0.01351861       0.20641372 </v>
   <v>       0.02437524      -0.00264501      -0.11428659 </v>
   <v>       0.03132827      -0.01026321      -0.10671900 </v>
  </varray>
  <varray name="stress" >
   <v>     -22.24998869      -0.34582972       0.11951356 </v>
   <v>      -0.34582960     -21.64876891      -0.00487917 </v>
   <v>       0.11951328      -0.00487934      -7.43880200 </v>
  </varray>
  <energy>
   <i name="e_fr_energy">   -204.00414688 </i>
   <i name="e_wo_entrp">   -198.76781328 </i>
   <i name="e_0_energy">   -201.38598008 </i>
  </energy>
  <time name="totalsc">  183.00  183.81</time>
 </calculation>
 <calculation>
  <scstep>
   <time name="dav">   14.88   14.97</time>
   <time name="total">   16.77   16.87</time>
   <energy>
    <i name="alphaZ">    918.22725072 </i>
    <i name="ewald">  20299.17569470 </i>
    <i name="hartreedc"> -52878.72686616 </i>
    <i name="XCdc">   -999.27376469 </i>
    <i name="pawpsdc">  35517.39297465 </i>
    <i name="pawaedc"> -33362.90393628 </i>
    <i name="eentropy">     -5.23654221 </i>
    <i name="bandstr">    145.47680990 </i>
    <i name="atom">  30161.86332653 </i>
    <i name="e_fr_energy">   -204.00505286 </i>
    <i name="e_wo_entrp">   -198.76851065 </i>
    <i name="e_0_energy">   -201.38678175 </i>
   </energy>
  </scstep>
  <scstep>
   <time name="dav">   15.60   15.70</time>
   <time name="total">   17.47   17.58</time>
   <energy>
    <i name="e_fr_energy">   -204.00522698 </i>
    <i name="e_wo_entrp">   -198.76909347 </i>
    <i name="e_0_energy">   -201.38716023 </i>
   </energy>
  </scstep>
  <scstep>
   <time name="dav">   16.12   16.22</time>
   <time name="total">   18.01   18.11</time>
   <energy>
    <i name="e_fr_energy">   -204.00515329 </i>
    <i name="e_wo_entrp">   -198.76865487 </i>
    <i name="e_0_energy">   -201.38690408 </i>
   </energy>
  </scstep>
  <scstep>
   <time name="dav">   11.54   11.61</time>
   <time name="total">   11.95   12.02</time>
   <energy>
    <i name="alphaZ">    918.22725072 </i>
    <i name="ewald">  20299.17569470 </i>
    <i name="hartreedc"> -52878.75939380 </i>
    <i name="XCdc">   -999.27415197 </i>
    <i name="pawpsdc">  35517.72681885 </i>
    <i name="pawaedc"> -33363.24190973 </i>
    <i name="eentropy">     -5.23648568 </i>
    <i name="bandstr">    145.51369493 </i>
    <i name="atom">  30161.86332653 </i>
    <i name="e_fr_energy">   -204.00515545 </i>
    <i name="e_wo_entrp">   -198.76866977 </i>
    <i name="e_0_energy">   -201.38691261 </i>
   </energy>
  </scstep>
  <structure>
   <crystal>
    <varray name="basis" >
     <v>       8.30990028       0.00000000       0.00000000 </v>
     <v>      -4.15495014       7.19658475       0.00000000 </v>
     <v>       0.00000000       0.00000000      16.52350044 </v>
    </varray>
    <i name="volume">    988.15327180 </i>
    <varray name="rec_basis" >
     <v>       0.12033839       0.06947740       0.00000000 </v>
     <v>       0.00000000       0.13895480       0.00000000 </v>
     <v>       0.00000000       0.00000000       0.06051986 </v>
    </varray>
   </crystal>
   <varray name="positions" >
    <v>       0.99927245       0.99996537       0.43767858 </v>
    <v>       0.11093000       0.22330000       0.16024000 </v>
    <v>       0.22186150       0.11224636       0.29892450 </v>
    <v>       0.33277472       0.00031891       0.43750735 </v>
    <v>       0.44426000       0.22330000       0.16024000 </v>
    <v>       0.55487858       0.11172641       0.29821547 </v>
    <v>       0.66596345       0.00036446       0.43682691 </v>
    <v>       0.77760000       0.22330000       0.16024000 </v>
    <v>       0.88861147       0.11191159       0.29854350 </v>
    <v>       0.99852043       0.33339960       0.43755176 </v>
    <v>       0.11093000       0.55664000       0.16024000 </v>
    <v>       0.22179674       0.44497938       0.29879785 </v>
    <v>       0.33231300       0.33321986       0.43931375 </v>
    <v>       0.44426000       0.55664000       0.16024000 </v>
    <v>       0.55431974       0.44485369       0.29859393 </v>
    <v>       0.66570238       0.33366816       0.43670309 </v>
    <v>       0.77760000       0.55664000       0.16024000 </v>
    <v>       0.88837511       0.44504599       0.29818088 </v>
    <v>       0.99908534       0.66685302       0.43657457 </v>
    <v>       0.11093000       0.88997000       0.16024000 </v>
    <v>       0.22189581       0.77858667       0.29833953 </v>
    <v>       0.33317324       0.66749197       0.43727985 </v>
    <v>       0.44426000       0.88997000       0.16024000 </v>
    <v>       0.55486983       0.77840206       0.29821861 </v>
    <v>       0.66605385       0.66700202       0.43672779 </v>
    <v>       0.77760000       0.88997000       0.16024000 </v>
    <v>       0.88844214       0.77873134       0.29815390 </v>
    <v>       0.99982000       0.00108000       0.02337000 </v>
    <v>       0.33315000       0.00108000       0.02337000 </v>
    <v>       0.66649000       0.00108000       0.02337000 </v>
    <v>       0.99982000       0.33441000       0.02337000 </v>
    <v>       0.33315000       0.33441000       0.02337000 </v>
    <v>       0.66649000       0.33441000       0.02337000 </v>
    <v>       0.99982000       0.66775000       0.02337000 </v>
    <v>       0.33315000       0.66775000       0.02337000 </v>
    <v>       0.66649000       0.66775000       0.02337000 </v>
    <v>       0.24152524       0.14264653       0.68366425 </v>
    <v>       0.25597853       0.28913717       0.67225909 </v>
    <v>       0.22639579       0.99649552       0.69671970 </v>
   </varray>
  </structure>
  <varray name="forces" >
   <v>       0.00169559       0.01518324      -0.03941870 </v>
   <v>       0.00465346      -0.00250886       0.18231951 </v>
   <v>       0.00176456      -0.00428502      -0.00039323 </v>
   <v>      -0.00901788      -0.00024188      -0.02496887 </v>
   <v>      -0.00990957      -0.00087703       0.16393231 </v>
   <v>       0.00228524       0.00134642       0.00453164 </v>
   <v>       0.00031478      -0.00139094       0.00481199 </v>
   <v>       0.00093897      -0.00460567       0.15420693 </v>
   <v>       0.00033238      -0.00090528      -0.01051708 </v>
   <v>       0.03391383       0.01308142      -0.03126520 </v>
   <v>       0.00940295      -0.00394364       0.15957705 </v>
   <v>       0.00146607       0.00270333       0.00990005 </v>
   <v>      -0.01408670       0.01954346      -0.12076542 </v>
   <v>      -0.00574099      -0.01282194       0.16782940 </v>
   <v>       0.00731173       0.00324258      -0.00385685 </v>
   <v>       0.00140861      -0.00375698       0.01641661 </v>
   <v>      -0.00802873      -0.01109763       0.15213996 </v>
   <v>       0.00007704       0.00176795       0.00367165 </v>
   <v>       0.01183368       0.00929442       0.01649676 </v>
   <v>       0.00160845       0.01137153       0.16917665 </v>
   <v>      -0.00095093      -0.00032141      -0.00292187 </v>
   <v>      -0.01556755      -0.02583749      -0.01401919 </v>
   <v>      -0.00423903      -0.00224339       0.14825808 </v>
   <v>       0.00336917       0.00088387      -0.00473928 </v>
   <v>      -0.01090204      -0.00334209       0.01150582 </v>
   <v>      -0.00240016       0.00501110       0.15979552 </v>
   <v>       0.00132476      -0.00344412       0.00630364 </v>
   <v>       0.00261900      -0.00684229      -0.13314980 </v>
   <v>      -0.00302575       0.00115695      -0.14200896 </v>
   <v>       0.00195839       0.00075555      -0.13933214 </v>
   <v>      -0.00116863       0.00050089      -0.13731073 </v>
   <v>      -0.00016250       0.00017914      -0.13914348 </v>
   <v>      -0.00054294       0.00124318      -0.14081626 </v>
   <v>      -0.00126000       0.00153202      -0.14453934 </v>
   <v>      -0.00190055      -0.00070749      -0.14286692 </v>
   <v>       0.00074266      -0.00048313      -0.14191554 </v>
   <v>      -0.04628491       0.01537538       0.16271238 </v>
   <v>       0.02010763      -0.00510062      -0.09343130 </v>
   <v>       0.02605991      -0.00941556      -0.08620575 </v>
  </varray>
  <varray name="stress" >
   <v>     -22.20873702      -0.34507854       0.11978931 </v>
   <v>      -0.34507847     -21.61140244      -0.00255376 </v>
   <v>       0.11978911      -0.00255350      -7.31850250 </v>
  </varray>
  <energy>
   <i name="e_fr_energy">   -204.00515545 </i>
   <i name="e_wo_entrp">   -198.76866977 </i>
   <i name="e_0_energy">   -201.38691261 </i>
  </energy>
  <time name="totalsc">  195.47  196.32</time>
 </calculation>
 <calculation>
  <scstep>
   <time name="dav">   14.84   14.93</time>
   <time name="total">   16.70   16.79</time>
   <energy>
    <i name="alphaZ">    918.22725072 </i>
    <i name="ewald">  20305.13910464 </i>
    <i name="hartreedc"> -52884.77147975 </i>
    <i name="XCdc">   -999.27043776 </i>
    <i name="pawpsdc">  35517.79707344 </i>
    <i name="pawaedc"> -33363.31318432 </i>
    <i name="eentropy">     -5.23655925 </i>
    <i name="bandstr">    145.55896858 </i>
    <i name="atom">  30161.86332653 </i>
    <i name="e_fr_energy">   -204.00593717 </i>
    <i name="e_wo_entrp">   -198.76937791 </i>
    <i name="e_0_energy">   -201.38765754 </i>
   </energy>
  </scstep>
  <scstep>
   <time name="dav">   15.48   15.58</time>
   <time name="total">   17.58   17.68</time>
   <energy>
    <i name="e_fr_energy">   -204.00616526 </i>
    <i name="e_wo_entrp">   -198.76958005 </i>
    <i name="e_0_energy">   -201.38787266 </i>
   </energy>
  </scstep>
  <scstep>
   <time name="dav">   15.75   15.84</time>
   <time name="total">   17.63   17.73</time>
   <energy>
    <i name="e_fr_energy">   -204.00611122 </i>
    <i name="e_wo_entrp">   -198.76962966 </i>
    <i name="e_0_energy">   -201.38787044 </i>
   </energy>
  </scstep>
  <scstep>
   <time name="dav">   15.03   15.12</time>
   <time name="total">   16.92   17.01</time>
   <energy>
    <i name="e_fr_energy">   -204.00607310 </i>
    <i name="e_wo_entrp">   -198.76960213 </i>
    <i name="e_0_energy">   -201.38783762 </i>
   </energy>
  </scstep>
  <scstep>
   <time name="dav">   12.08   12.18</time>
   <time name="total">   12.49   12.60</time>
   <energy>
    <i name="alphaZ">    918.22725072 </i>
    <i name="ewald">  20305.13910464 </i>
    <i name="hartreedc"> -52884.73631167 </i>
    <i name="XCdc">   -999.27079943 </i>
    <i name="pawpsdc">  35518.30808764 </i>
    <i name="pawaedc"> -33363.83122129 </i>
    <i name="eentropy">     -5.23661135 </i>
    <i name="bandstr">    145.53110923 </i>
    <i name="atom">  30161.86332653 </i>
    <i name="e_fr_energy">   -204.00606498 </i>
    <i name="e_wo_entrp">   -198.76945363 </i>
    <i name="e_0_energy">   -201.38775930 </i>
   </energy>
  </scstep>
  <structure>
   <crystal>
    <varray name="basis" >
     <v>       8.30990028       0.00000000       0.00000000 </v>
     <v>      -4.15495014       7.19658475       0.00000000 </v>
     <v>       0.00000000       0.00000000      16.52350044 </v>
    </varray>
    <i name="volume">    988.15327180 </i>
    <varray name="rec_basis" >
     <v>       0.12033839       0.06947740       0.00000000 </v>
     <v>       0.00000000       0.13895480       0.00000000 </v>
     <v>       0.00000000       0.00000000       0.06051986 </v>
    </varray>
   </crystal>
   <varray name="positions" >
    <v>       0.99928978       0.99999458       0.43764437 </v>
[...]
    <v>       0.44426000       0.88997000       0.16024000 </v>
    <v>       0.55523259       0.77865898       0.29812459 </v>
    <v>       0.66639362       0.66750289       0.43671923 </v>
    <v>       0.77760000       0.88997000       0.16024000 </v>
    <v>       0.88860666       0.77869890       0.29810556 </v>
    <v>       0.99982000       0.00108000       0.02337000 </v>
    <v>       0.33315000       0.00108000       0.02337000 </v>
    <v>       0.66649000       0.00108000       0.02337000 </v>
    <v>       0.99982000       0.33441000       0.02337000 </v>
    <v>       0.33315000       0.33441000       0.02337000 </v>
    <v>       0.66649000       0.33441000       0.02337000 </v>
    <v>       0.99982000       0.66775000       0.02337000 </v>
    <v>       0.33315000       0.66775000       0.02337000 </v>
    <v>       0.66649000       0.66775000       0.02337000 </v>
    <v>       0.23552687       0.14959492       0.66425666 </v>
    <v>       0.24943656       0.29452610       0.64929363 </v>
    <v>       0.22164736       1.00478560       0.67935730 </v>
   </varray>
  </structure>
  <varray name="forces" >
   <v>       0.00026458      -0.00003449       0.00068257 </v>
   <v>       0.00084532      -0.00173058       0.14225348 </v>
   <v>       0.00018139       0.00012837       0.00004630 </v>
   <v>      -0.00003360      -0.00011704       0.00062634 </v>
   <v>       0.00281545       0.00164682       0.13576287 </v>
   <v>       0.00020150      -0.00009679      -0.00019913 </v>
   <v>       0.00024402       0.00005258       0.00021426 </v>
   <v>      -0.00309300       0.00198109       0.14022443 </v>
   <v>       0.00029587       0.00002323      -0.00001650 </v>
   <v>       0.00012766      -0.00010864       0.00031672 </v>
   <v>      -0.00162372       0.00088853       0.13572123 </v>
   <v>       0.00015867       0.00008596       0.00015030 </v>
   <v>      -0.00009454      -0.00050253       0.00036551 </v>
   <v>       0.00079900      -0.00281455       0.14153135 </v>
   <v>       0.00015149      -0.00003914      -0.00008225 </v>
   <v>       0.00006224      -0.00031013       0.00005091 </v>
   <v>       0.00157804      -0.00525879       0.13661068 </v>
   <v>       0.00008045      -0.00020669      -0.00018331 </v>
   <v>       0.00032866      -0.00038537       0.00025701 </v>
   <v>      -0.00083787       0.00031944       0.14356574 </v>
   <v>       0.00018448       0.00005966      -0.00002779 </v>
   <v>       0.00041829       0.00006792       0.00041617 </v>
   <v>      -0.00039979       0.00192243       0.13951659 </v>
   <v>       0.00020627      -0.00011930      -0.00025692 </v>
   <v>       0.00032275       0.00003994       0.00027576 </v>
   <v>       0.00008635       0.00009094       0.14560702 </v>
   <v>       0.00020649       0.00001960      -0.00008769 </v>
   <v>       0.00232068      -0.00632304      -0.13525225 </v>
   <v>      -0.00254632       0.00156270      -0.14383601 </v>
   <v>       0.00139755       0.00045303      -0.14088826 </v>
   <v>      -0.00083052       0.00061523      -0.13937691 </v>
   <v>      -0.00077638       0.00044028      -0.14215909 </v>
   <v>      -0.00073880       0.00061749      -0.14213887 </v>
   <v>      -0.00097675       0.00190436      -0.14626050 </v>
   <v>      -0.00139076      -0.00021998      -0.14472629 </v>
   <v>      -0.00043303       0.00030740      -0.14349630 </v>
   <v>       0.01485523      -0.03000333       0.01258532 </v>
   <v>      -0.00514298       0.01864634       0.00224079 </v>
   <v>      -0.00921439       0.01639704      -0.00003328 </v>
  </varray>
  <varray name="stress" >
   <v>     -21.42263422      -0.32565467       0.10656597 </v>
   <v>      -0.32565469     -20.90782971      -0.11501257 </v>
   <v>       0.10656581      -0.11501275      -5.59660422 </v>
  </varray>
  <energy>
   <i name="e_fr_energy">   -204.01082453 </i>
   <i name="e_wo_entrp">   -198.77597424 </i>
   <i name="e_0_energy">   -201.39339938 </i>
  </energy>
  <time name="totalsc">  161.22  161.95</time>
 </calculation>
 <calculation>
  <scstep>
   <time name="dav">   10.45   10.51</time>
   <time name="total">   12.29   12.37</time>
   <energy>
    <i name="alphaZ">    918.22725072 </i>
    <i name="ewald">  20806.76383478 </i>
    <i name="hartreedc"> -53387.17725679 </i>
    <i name="XCdc">   -999.12216808 </i>
    <i name="pawpsdc">  35538.40202078 </i>
    <i name="pawaedc"> -33384.20482994 </i>
    <i name="eentropy">     -5.23484203 </i>
    <i name="bandstr">    146.47183657 </i>
    <i name="atom">  30161.86332653 </i>
    <i name="e_fr_energy">   -204.01082746 </i>
    <i name="e_wo_entrp">   -198.77598543 </i>
    <i name="e_0_energy">   -201.39340644 </i>
   </energy>
  </scstep>
  <scstep>
   <time name="dav">   12.82   12.90</time>
   <time name="total">   14.71   14.80</time>
   <energy>
    <i name="e_fr_energy">   -204.01098579 </i>
    <i name="e_wo_entrp">   -198.77623347 </i>
    <i name="e_0_energy">   -201.39360963 </i>
   </energy>
  </scstep>
  <scstep>
   <time name="dav">   11.69   11.76</time>
   <time name="total">   13.58   13.66</time>
   <energy>
    <i name="e_fr_energy">   -204.01082671 </i>
    <i name="e_wo_entrp">   -198.77599810 </i>
    <i name="e_0_energy">   -201.39341240 </i>
   </energy>
  </scstep>
  <scstep>
   <time name="dav">    9.87    9.93</time>
   <time name="total">   10.29   10.35</time>
   <energy>
    <i name="alphaZ">    918.22725072 </i>
    <i name="ewald">  20806.76383478 </i>
    <i name="hartreedc"> -53387.17133671 </i>
    <i name="XCdc">   -999.12214353 </i>
    <i name="pawpsdc">  35538.40867159 </i>
    <i name="pawaedc"> -33384.21146174 </i>
    <i name="eentropy">     -5.23485469 </i>
    <i name="bandstr">    146.46588622 </i>
    <i name="atom">  30161.86332653 </i>
    <i name="e_fr_energy">   -204.01082683 </i>
    <i name="e_wo_entrp">   -198.77597214 </i>
    <i name="e_0_energy">   -201.39339949 </i>
   </energy>
  </scstep>
  <structure>
   <crystal>
    <varray name="basis" >
     <v>       8.30990028       0.00000000       0.00000000 </v>
     <v>      -4.15495014       7.19658475       0.00000000 </v>
     <v>       0.00000000       0.00000000      16.52350044 </v>
    </varray>
    <i name="volume">    988.15327180 </i>
    <varray name="rec_basis" >
     <v>       0.12033839       0.06947740       0.00000000 </v>
     <v>       0.00000000       0.13895480       0.00000000 </v>
     <v>       0.00000000       0.00000000       0.06051986 </v>
    </varray>
   </crystal>
   <varray name="positions" >
    <v>       0.99964969       1.00065472       0.43668424 </v>
    <v>       0.11093000       0.22330000       0.16024000 </v>
    <v>       0.22204421       0.11217320       0.29815079 </v>
    <v>       0.33299776       0.00079830       0.43673559 </v>
    <v>       0.44426000       0.22330000       0.16024000 </v>
    <v>       0.55535340       0.11209054       0.29814192 </v>
    <v>       0.66638196       0.00082434       0.43670372 </v>
    <v>       0.77760000       0.22330000       0.16024000 </v>
    <v>       0.88871111       0.11208256       0.29811177 </v>
    <v>       0.99963228       0.33407981       0.43669400 </v>
    <v>       0.11093000       0.55664000       0.16024000 </v>
    <v>       0.22198262       0.44551380       0.29811316 </v>
    <v>       0.33304482       0.33427904       0.43678805 </v>
    <v>       0.44426000       0.55664000       0.16024000 </v>
    <v>       0.55523817       0.44538230       0.29816044 </v>
    <v>       0.66627248       0.33405280       0.43676258 </v>
    <v>       0.77760000       0.55664000       0.16024000 </v>
    <v>       0.88859393       0.44538953       0.29815622 </v>
    <v>       0.99964959       0.66748063       0.43674194 </v>
    <v>       0.11093000       0.88997000       0.16024000 </v>
    <v>       0.22197870       0.77875371       0.29809307 </v>
    <v>       0.33301683       0.66761768       0.43673072 </v>
    <v>       0.44426000       0.88997000       0.16024000 </v>
    <v>       0.55523275       0.77865908       0.29812449 </v>
    <v>       0.66639398       0.66750323       0.43671924 </v>
    <v>       0.77760000       0.88997000       0.16024000 </v>
    <v>       0.88860681       0.77869900       0.29810547 </v>
    <v>       0.99982000       0.00108000       0.02337000 </v>
    <v>       0.33315000       0.00108000       0.02337000 </v>
    <v>       0.66649000       0.00108000       0.02337000 </v>
    <v>       0.99982000       0.33441000       0.02337000 </v>
    <v>       0.33315000       0.33441000       0.02337000 </v>
    <v>       0.66649000       0.33441000       0.02337000 </v>
    <v>       0.99982000       0.66775000       0.02337000 </v>
    <v>       0.33315000       0.66775000       0.02337000 </v>
    <v>       0.66649000       0.66775000       0.02337000 </v>
    <v>       0.23552175       0.14957888       0.66425191 </v>
    <v>       0.24943538       0.29453647       0.64928633 </v>
    <v>       0.22164343       1.00479476       0.67934976 </v>
   </varray>
  </structure>
  <varray name="forces" >
   <v>       0.00007095      -0.00004062       0.00032001 </v>
   <v>       0.00087565      -0.00168374       0.14237479 </v>
   <v>       0.00020978       0.00013893       0.00048693 </v>
   <v>       0.00031530      -0.00029028       0.00009327 </v>
   <v>       0.00279596       0.00167483       0.13584884 </v>
   <v>       0.00023346      -0.00007655       0.00030158 </v>
   <v>       0.00025167       0.00004292      -0.00019890 </v>
   <v>      -0.00308638       0.00200890       0.14036168 </v>
   <v>       0.00031437       0.00005045       0.00047197 </v>
   <v>       0.00013932      -0.00010269       0.00003862 </v>
   <v>      -0.00162403       0.00088563       0.13585942 </v>
   <v>       0.00015229       0.00012862       0.00058363 </v>
   <v>      -0.00002151      -0.00042389       0.00055807 </v>
   <v>       0.00081100      -0.00284714       0.14165598 </v>
   <v>       0.00017752       0.00002981       0.00037280 </v>
   <v>       0.00010199      -0.00028931      -0.00015674 </v>
   <v>       0.00158347      -0.00525791       0.13671860 </v>
   <v>       0.00014878      -0.00012344       0.00032506 </v>
   <v>       0.00013057      -0.00041996      -0.00041644 </v>
   <v>      -0.00081580       0.00032288       0.14369340 </v>
   <v>      -0.00006762      -0.00027759       0.00067671 </v>
   <v>       0.00042358       0.00012023       0.00014831 </v>
   <v>      -0.00040680       0.00193465       0.13967952 </v>
   <v>       0.00025735      -0.00008455       0.00023387 </v>
   <v>       0.00035194       0.00006626      -0.00011650 </v>
   <v>       0.00008839       0.00008707       0.14577249 </v>
   <v>       0.00025111       0.00003600       0.00044074 </v>
   <v>       0.00235862      -0.00628598      -0.13546321 </v>
   <v>      -0.00255995       0.00161315      -0.14394923 </v>
   <v>       0.00139313       0.00048577      -0.14114383 </v>
   <v>      -0.00080933       0.00063516      -0.13948907 </v>
   <v>      -0.00075468       0.00044304      -0.14207782 </v>
   <v>      -0.00076635       0.00063619      -0.14223168 </v>
   <v>      -0.00097940       0.00189714      -0.14637794 </v>
   <v>      -0.00138534      -0.00024966      -0.14496022 </v>
   <v>      -0.00041837       0.00026329      -0.14363985 </v>
   <v>       0.00197048      -0.00251794       0.00565770 </v>
   <v>       0.00118254       0.00495232       0.00483552 </v>
   <v>      -0.00289368       0.00251800       0.00271192 </v>
  </varray>
  <varray name="stress" >
   <v>     -21.42062305      -0.32577424       0.10653343 </v>
   <v>      -0.32577458     -20.90563190      -0.11473775 </v>
   <v>       0.10653329      -0.11473781      -5.59036895 </v>
  </varray>
  <energy>
   <i name="e_fr_energy">   -204.01082683 </i>
   <i name="e_wo_entrp">   -198.77597214 </i>
   <i name="e_0_energy">   -201.39339949 </i>
  </energy>
  <time name="totalsc">  165.58  166.53</time>
 </calculation>
 <calculation>
  <scstep>
   <time name="dav">   10.73   10.80</time>
   <time name="total">   12.58   12.66</time>
   <energy>
    <i name="alphaZ">    918.22725072 </i>
    <i name="ewald">  20807.01425365 </i>
    <i name="hartreedc"> -53387.43496274 </i>
    <i name="XCdc">   -999.12211296 </i>
    <i name="pawpsdc">  35538.41212946 </i>
    <i name="pawaedc"> -33384.21492944 </i>
    <i name="eentropy">     -5.23483359 </i>
    <i name="bandstr">    146.47905449 </i>
    <i name="atom">  30161.86332653 </i>
    <i name="e_fr_energy">   -204.01082388 </i>
    <i name="e_wo_entrp">   -198.77599030 </i>
    <i name="e_0_energy">   -201.39340709 </i>
   </energy>
  </scstep>
  <scstep>
   <time name="dav">   10.13   10.20</time>
   <time name="total">   12.00   12.07</time>
   <energy>
    <i name="e_fr_energy">   -204.01082516 </i>
    <i name="e_wo_entrp">   -198.77596392 </i>
    <i name="e_0_energy">   -201.39339454 </i>
   </energy>
  </scstep>
  <scstep>
   <time name="dav">    9.56    9.62</time>
   <time name="total">   11.46   11.52</time>
   <energy>
    <i name="e_fr_energy">   -204.01082469 </i>
    <i name="e_wo_entrp">   -198.77599934 </i>
    <i name="e_0_energy">   -201.39341201 </i>
   </energy>
  </scstep>
  <scstep>
   <time name="dav">    9.28    9.34</time>
   <time name="total">    9.68    9.74</time>
   <energy>
    <i name="alphaZ">    918.22725072 </i>
    <i name="ewald">  20807.01425365 </i>
    <i name="hartreedc"> -53387.43122844 </i>
    <i name="XCdc">   -999.12213938 </i>
    <i name="pawpsdc">  35538.41065269 </i>
    <i name="pawaedc"> -33384.21351843 </i>
    <i name="eentropy">     -5.23484259 </i>
    <i name="bandstr">    146.47542048 </i>
    <i name="atom">  30161.86332653 </i>
    <i name="e_fr_energy">   -204.01082477 </i>
    <i name="e_wo_entrp">   -198.77598218 </i>
    <i name="e_0_energy">   -201.39340348 </i>
   </energy>
  </scstep>
  <structure>
   <crystal>
    <varray name="basis" >
     <v>       8.30990028       0.00000000       0.00000000 </v>
     <v>      -4.15495014       7.19658475       0.00000000 </v>
     <v>       0.00000000       0.00000000      16.52350044 </v>
    </varray>
    <i name="volume">    988.15327180 </i>
    <varray name="rec_basis" >
     <v>       0.12033839       0.06947740       0.00000000 </v>
     <v>       0.00000000       0.13895480       0.00000000 </v>
     <v>       0.00000000       0.00000000       0.06051986 </v>
    </varray>
   </crystal>
   <varray name="positions" >
    <v>       0.99964980       1.00065497       0.43668403 </v>
    <v>       0.11093000       0.22330000       0.16024000 </v>
    <v>       0.22204457       0.11217353       0.29815086 </v>
    <v>       0.33299820       0.00079849       0.43673546 </v>
    <v>       0.44426000       0.22330000       0.16024000 </v>
    <v>       0.55535367       0.11209072       0.29814200 </v>
    <v>       0.66638245       0.00082487       0.43670359 </v>
    <v>       0.77760000       0.22330000       0.16024000 </v>
    <v>       0.88871146       0.11208286       0.29811185 </v>
    <v>       0.99963252       0.33408018       0.43669384 </v>
    <v>       0.11093000       0.55664000       0.16024000 </v>
    <v>       0.22198292       0.44551417       0.29811325 </v>
    <v>       0.33304497       0.33427929       0.43678793 </v>
    <v>       0.44426000       0.55664000       0.16024000 </v>
    <v>       0.55523847       0.44538258       0.29816051 </v>
    <v>       0.66627280       0.33405309       0.43676244 </v>
    <v>       0.77760000       0.55664000       0.16024000 </v>
    <v>       0.88859412       0.44538967       0.29815627 </v>
    <v>       0.99964978       0.66748075       0.43674170 </v>
    <v>       0.11093000       0.88997000       0.16024000 </v>
    <v>       0.22197861       0.77875365       0.29809325 </v>
    <v>       0.33301750       0.66761837       0.43673061 </v>
    <v>       0.44426000       0.88997000       0.16024000 </v>
    <v>       0.55523309       0.77865928       0.29812453 </v>
    <v>       0.66639462       0.66750383       0.43671910 </v>
    <v>       0.77760000       0.88997000       0.16024000 </v>
    <v>       0.88860712       0.77869919       0.29810553 </v>
    <v>       0.99982000       0.00108000       0.02337000 </v>
    <v>       0.33315000       0.00108000       0.02337000 </v>
    <v>       0.66649000       0.00108000       0.02337000 </v>
    <v>       0.99982000       0.33441000       0.02337000 </v>
    <v>       0.33315000       0.33441000       0.02337000 </v>
    <v>       0.66649000       0.33441000       0.02337000 </v>
    <v>       0.99982000       0.66775000       0.02337000 </v>
    <v>       0.33315000       0.66775000       0.02337000 </v>
    <v>       0.66649000       0.66775000       0.02337000 </v>
    <v>       0.23551528       0.14957700       0.66424077 </v>
    <v>       0.24943189       0.29454135       0.64927470 </v>
    <v>       0.22163528       1.00479745       0.67933781 </v>
   </varray>
  </structure>
  <varray name="forces" >
   <v>       0.00012054      -0.00000295       0.00061158 </v>
   <v>       0.00086107      -0.00171038       0.14219796 </v>
   <v>       0.00021133       0.00017385       0.00015227 </v>
   <v>       0.00025014      -0.00022240       0.00059712 </v>
   <v>       0.00279519       0.00166562       0.13569057 </v>
   <v>       0.00024590      -0.00005772      -0.00007306 </v>
   <v>       0.00027635       0.00010180       0.00020481 </v>
   <v>      -0.00310802       0.00200470       0.14019812 </v>
   <v>       0.00033495       0.00005505       0.00011008 </v>
   <v>       0.00015059      -0.00006818       0.00042602 </v>
   <v>      -0.00162744       0.00087691       0.13568390 </v>
   <v>       0.00018414       0.00016024       0.00027450 </v>
   <v>      -0.00005574      -0.00042919       0.00073973 </v>
   <v>       0.00079439      -0.00285051       0.14147690 </v>
   <v>       0.00018603      -0.00000271       0.00004096 </v>
   <v>       0.00009257      -0.00027531       0.00009921 </v>
   <v>       0.00156432      -0.00527942       0.13655592 </v>
   <v>       0.00010737      -0.00016577      -0.00005531 </v>
   <v>       0.00019981      -0.00042005       0.00003047 </v>
   <v>      -0.00083911       0.00032437       0.14353579 </v>
   <v>       0.00001549      -0.00018457       0.00025748 </v>
   <v>       0.00047210       0.00015572       0.00042334 </v>
   <v>      -0.00042773       0.00191281       0.13952506 </v>
   <v>       0.00024506      -0.00007616      -0.00013319 </v>
   <v>       0.00037365       0.00010456       0.00032850 </v>
   <v>       0.00009326       0.00007936       0.14560530 </v>
   <v>       0.00026404       0.00006335       0.00005001 </v>
   <v>       0.00234149      -0.00629924      -0.13530311 </v>
   <v>      -0.00257720       0.00159549      -0.14387376 </v>
   <v>       0.00138198       0.00046709      -0.14109019 </v>
   <v>      -0.00081862       0.00062301      -0.13939542 </v>
   <v>      -0.00077527       0.00043574      -0.14202708 </v>
   <v>      -0.00078203       0.00062591      -0.14208267 </v>
   <v>      -0.00099286       0.00188458      -0.14632252 </v>
   <v>      -0.00139664      -0.00026677      -0.14478399 </v>
   <v>      -0.00043894       0.00025008      -0.14354555 </v>
   <v>      -0.00179185       0.00553265       0.00390851 </v>
   <v>       0.00309601       0.00081328       0.00591476 </v>
   <v>      -0.00102632      -0.00159481       0.00404696 </v>
  </varray>
  <varray name="stress" >
   <v>     -21.42395530      -0.32569537       0.10660603 </v>
   <v>      -0.32569527     -20.90907246      -0.11490343 </v>
   <v>       0.10660591      -0.11490323      -5.60075542 </v>
  </varray>
  <energy>
   <i name="e_fr_energy">   -204.01082477 </i>
   <i name="e_wo_entrp">   -198.77598218 </i>
   <i name="e_0_energy">   -201.39340348 </i>
  </energy>
