PBE-grap                                
           1
     8.309900    0.000000    0.000000
    -4.154950    7.196585    0.000000
     0.000000    0.000000   16.523500
   Pd   C    O 
    36     1     2
Direct configuration=     1
   0.99923436  0.99990269  0.43773946
   0.11093000  0.22330000  0.16024000
   0.22186367  0.11225795  0.29891502
   0.33281135  0.00032012  0.43754403
   0.44426000  0.22330000  0.16024000
   0.55487270  0.11172406  0.29820837
   0.66596608  0.00037217  0.43681981
   0.77760000  0.22330000  0.16024000
   0.88860936  0.11191553  0.29855702
   0.99838227  0.33335156  0.43760051
   0.11093000  0.55664000  0.16024000
   0.22178714  0.44497514  0.29877084
   0.33233621  0.33315406  0.43949439
   0.44426000  0.55664000  0.16024000
   0.55430037  0.44484907  0.29859529
   0.66571155  0.33368608  0.43667890
   0.77760000  0.55664000  0.16024000
   0.88837394  0.44504040  0.29817633
   0.99902873  0.66682186  0.43655134
   0.11093000  0.88997000  0.16024000
   0.22189955  0.77858816  0.29834225
   0.33327578  0.66759984  0.43730233
   0.44426000  0.88997000  0.16024000
   0.55485976  0.77840134  0.29822704
   0.66610208  0.66702361  0.43670986
   0.77760000  0.88997000  0.16024000
   0.88844413  0.77874180  0.29814386
   0.99982000  0.00108000  0.02337000
   0.33315000  0.00108000  0.02337000
   0.66649000  0.00108000  0.02337000
   0.99982000  0.33441000  0.02337000
   0.33315000  0.33441000  0.02337000
   0.66649000  0.33441000  0.02337000
   0.99982000  0.66775000  0.02337000
   0.33315000  0.66775000  0.02337000
   0.66649000  0.66775000  0.02337000
   0.24172110  0.14252858  0.68350495
   0.25596248  0.28909558  0.67264500
   0.22634216  0.99643937  0.69702483
Direct configuration=     2
   0.99924314  0.99991778  0.43772587
   0.11093000  0.22330000  0.16024000
   0.22186325  0.11225573  0.29891788
   0.33280308  0.00031971  0.43753599
   0.44426000  0.22330000  0.16024000
   0.55487378  0.11172449  0.29821001
   0.66596560  0.00037050  0.43682135
   0.77760000  0.22330000  0.16024000
   0.88861021  0.11191473  0.29855437
   0.99841353  0.33336208  0.43758953
   0.11093000  0.55664000  0.16024000
   0.22178934  0.44497574  0.29877777
   0.33232975  0.33316845  0.43945516
   0.44426000  0.55664000  0.16024000
   0.55430393  0.44484979  0.29859539
   0.66570926  0.33368206  0.43668402
   0.77760000  0.55664000  0.16024000
   0.88837434  0.44504161  0.29817736
   0.99904164  0.66682872  0.43655616
   0.11093000  0.88997000  0.16024000
   0.22189874  0.77858788  0.29834190
   0.33325273  0.66757536  0.43729713
   0.44426000  0.88997000  0.16024000
   0.55486189  0.77840138  0.29822524
   0.66609122  0.66701858  0.43671365
   0.77760000  0.88997000  0.16024000
   0.88844386  0.77873976  0.29814627
   0.99982000  0.00108000  0.02337000
   0.33315000  0.00108000  0.02337000
   0.66649000  0.00108000  0.02337000
   0.99982000  0.33441000  0.02337000
   0.33315000  0.33441000  0.02337000
   0.66649000  0.33441000  0.02337000
   0.99982000  0.66775000  0.02337000
   0.33315000  0.66775000  0.02337000
   0.66649000  0.66775000  0.02337000
   0.24167392  0.14254965  0.68354910
   0.25596840  0.28910681  0.67255753
   0.22635616  0.99645323  0.69695459
Direct configuration=     3
   0.99925604  0.99993929  0.43770558
   0.11093000  0.22330000  0.16024000
   0.22186255  0.11225205  0.29892153
   0.33279086  0.00031926  0.43752388
   0.44426000  0.22330000  0.16024000
   0.55487573  0.11172522  0.29821254
   0.66596480  0.00036790  0.43682362
   0.77760000  0.22330000  0.16024000
   0.88861102  0.11191337  0.29855013
   0.99845974  0.33337813  0.43757324
   0.11093000  0.55664000  0.16024000
   0.22179264  0.44497701  0.29878731
   0.33232062  0.33319027  0.43939510
   0.44426000  0.55664000  0.16024000
   0.55431011  0.44485128  0.29859523
   0.66570609  0.33367606  0.43669194
   0.77760000  0.55664000  0.16024000
   0.88837477  0.44504341  0.29817900
   0.99906064  0.66683905  0.43656376
   0.11093000  0.88997000  0.16024000
   0.22189757  0.77858737  0.29834124
   0.33321846  0.66753930  0.43728931
   0.44426000  0.88997000  0.16024000
   0.55486529  0.77840155  0.29822255
   0.66607505  0.66701128  0.43671946
   0.77760000  0.88997000  0.16024000
   0.88844310  0.77873635  0.29814996
   0.99982000  0.00108000  0.02337000
   0.33315000  0.00108000  0.02337000
   0.66649000  0.00108000  0.02337000
   0.99982000  0.33441000  0.02337000
   0.33315000  0.33441000  0.02337000
   0.66649000  0.33441000  0.02337000
   0.99982000  0.66775000  0.02337000
   0.33315000  0.66775000  0.02337000
   0.66649000  0.66775000  0.02337000
   0.24160795  0.14259460  0.68360572
   0.25597460  0.28911772  0.67242852
   0.22637459  0.99646825  0.69685224
Direct configuration=     4
   0.99927245  0.99996537  0.43767858
   0.11093000  0.22330000  0.16024000
   0.22186150  0.11224636  0.29892450
   0.33277472  0.00031891  0.43750735
   0.44426000  0.22330000  0.16024000
   0.55487858  0.11172641  0.29821547
   0.66596345  0.00036446  0.43682691
   0.77760000  0.22330000  0.16024000
   0.88861147  0.11191159  0.29854350
   0.99852043  0.33339960  0.43755176
   0.11093000  0.55664000  0.16024000
   0.22179674  0.44497938  0.29879785
   0.33231300  0.33321986  0.43931375
   0.44426000  0.55664000  0.16024000
   0.55431974  0.44485369  0.29859393
   0.66570238  0.33366816  0.43670309
   0.77760000  0.55664000  0.16024000
   0.88837511  0.44504599  0.29818088
   0.99908534  0.66685302  0.43657457
   0.11093000  0.88997000  0.16024000
   0.22189581  0.77858667  0.29833953
   0.33317324  0.66749197  0.43727985
   0.44426000  0.88997000  0.16024000
   0.55486983  0.77840206  0.29821861
   0.66605385  0.66700202  0.43672779
   0.77760000  0.88997000  0.16024000
   0.88844214  0.77873134  0.29815390
   0.99982000  0.00108000  0.02337000
   0.33315000  0.00108000  0.02337000
   0.66649000  0.00108000  0.02337000
   0.99982000  0.33441000  0.02337000
   0.33315000  0.33441000  0.02337000
   0.66649000  0.33441000  0.02337000
   0.99982000  0.66775000  0.02337000
   0.33315000  0.66775000  0.02337000
   0.66649000  0.66775000  0.02337000
   0.24152524  0.14264653  0.68366425
   0.25597853  0.28913717  0.67225909
   0.22639579  0.99649552  0.69671970
Direct configuration=     5
   0.99928978  0.99999458  0.43764437
   0.11093000  0.22330000  0.16024000
   0.22185994  0.11223761  0.29892565
   0.33275746  0.00031652  0.43748615
   0.44426000  0.22330000  0.16024000
   0.55488302  0.11172823  0.29821947
   0.66596141  0.00035999  0.43683097
   0.77760000  0.22330000  0.16024000
   0.88861087  0.11190912  0.29853455
   0.99859219  0.33342472  0.43752470
   0.11093000  0.55664000  0.16024000
   0.22180156  0.44498366  0.29880798
   0.33230609  0.33325804  0.43921029
   0.44426000  0.55664000  0.16024000
   0.55433382  0.44485886  0.29859132
   0.66569930  0.33365865  0.43671743
   0.77760000  0.55664000  0.16024000
   0.88837631  0.44504853  0.29818399
   0.99911472  0.66687035  0.43658867
   0.11093000  0.88997000  0.16024000
   0.22189339  0.77858543  0.29833712
   0.33311835  0.66743764  0.43726762
   0.44426000  0.88997000  0.16024000
   0.55487588  0.77840303  0.29821419
   0.66602991  0.66699363  0.43673769
   0.77760000  0.88997000  0.16024000
   0.88844037  0.77872387  0.29815934
   0.99982000  0.00108000  0.02337000
   0.33315000  0.00108000  0.02337000
   0.66649000  0.00108000  0.02337000
   0.99982000  0.33441000  0.02337000
   0.33315000  0.33441000  0.02337000
   0.66649000  0.33441000  0.02337000
   0.99982000  0.66775000  0.02337000
   0.33315000  0.66775000  0.02337000
   0.66649000  0.66775000  0.02337000
   0.24143276  0.14271930  0.68370685
   0.25597460  0.28915749  0.67205310
   0.22641618  0.99653218  0.69656190
Direct configuration=     6
   0.99930577  1.00002594  0.43760241
   0.11093000  0.22330000  0.16024000
   0.22185774  0.11222449  0.29892346
   0.33273778  0.00031316  0.43745823
   0.44426000  0.22330000  0.16024000
   0.55488991  0.11173105  0.29822548
   0.66596083  0.00035663  0.43683438
   0.77760000  0.22330000  0.16024000
   0.88860826  0.11190563  0.29852325
   0.99867227  0.33345287  0.43749042
   0.11093000  0.55664000  0.16024000
   0.22180546  0.44499037  0.29881490
   0.33230325  0.33330597  0.43907976
   0.44426000  0.55664000  0.16024000
   0.55435594  0.44486675  0.29858717
   0.66569986  0.33365022  0.43673396
   0.77760000  0.55664000  0.16024000
   0.88837710  0.44505213  0.29818945
   0.99914588  0.66688892  0.43660391
   0.11093000  0.88997000  0.16024000
   0.22189010  0.77858330  0.29833438
   0.33305514  0.66737713  0.43725317
   0.44426000  0.88997000  0.16024000
   0.55488386  0.77840481  0.29821026
   0.66600326  0.66698530  0.43674904
   0.77760000  0.88997000  0.16024000
   0.88843732  0.77871280  0.29816733
   0.99982000  0.00108000  0.02337000
   0.33315000  0.00108000  0.02337000
   0.66649000  0.00108000  0.02337000
   0.99982000  0.33441000  0.02337000
   0.33315000  0.33441000  0.02337000
   0.66649000  0.33441000  0.02337000
   0.99982000  0.66775000  0.02337000
   0.33315000  0.66775000  0.02337000
   0.66649000  0.66775000  0.02337000
   0.24133524  0.14277920  0.68371174
   0.25595818  0.28919518  0.67181750
   0.22643197  0.99659923  0.69638719
Direct configuration=     7
   0.99932077  1.00006003  0.43755397
   0.11093000  0.22330000  0.16024000
   0.22185458  0.11220656  0.29891419
   0.33271705  0.00030975  0.43742492
   0.44426000  0.22330000  0.16024000
   0.55489925  0.11173516  0.29823165
   0.66595952  0.00035242  0.43683990
   0.77760000  0.22330000  0.16024000
   0.88860416  0.11190136  0.29850770
   0.99875776  0.33348266  0.43744967
   0.11093000  0.55664000  0.16024000
   0.22180944  0.44500019  0.29881473
   0.33230803  0.33336096  0.43892829
   0.44426000  0.55664000  0.16024000
   0.55438374  0.44487772  0.29857887
   0.66570333  0.33364125  0.43675390
   0.77760000  0.55664000  0.16024000
   0.88837750  0.44505611  0.29819537
   0.99917703  0.66690710  0.43662408
   0.11093000  0.88997000  0.16024000
   0.22188625  0.77858002  0.29832923
   0.33298584  0.66731465  0.43723628
   0.44426000  0.88997000  0.16024000
   0.55489126  0.77840744  0.29820819
   0.66597634  0.66697677  0.43676235
   0.77760000  0.88997000  0.16024000
   0.88843531  0.77870170  0.29817601
   0.99982000  0.00108000  0.02337000
   0.33315000  0.00108000  0.02337000
   0.66649000  0.00108000  0.02337000
   0.99982000  0.33441000  0.02337000
   0.33315000  0.33441000  0.02337000
   0.66649000  0.33441000  0.02337000
   0.99982000  0.66775000  0.02337000
   0.33315000  0.66775000  0.02337000
   0.66649000  0.66775000  0.02337000
   0.24125568  0.14293677  0.68365458
   0.25592244  0.28919929  0.67157181
   0.22643337  0.99663776  0.69621353
Direct configuration=     8
   0.99932967  1.00008116  0.43751854
   0.11093000  0.22330000  0.16024000
   0.22185172  0.11219090  0.29890058
   0.33270423  0.00030746  0.43740032
   0.44426000  0.22330000  0.16024000
   0.55490792  0.11173946  0.29823625
   0.66595837  0.00034985  0.43684120
   0.77760000  0.22330000  0.16024000
   0.88859916  0.11189807  0.29849471
   0.99881243  0.33350207  0.43741948
   0.11093000  0.55664000  0.16024000
   0.22181147  0.44501006  0.29880640
   0.33231691  0.33339875  0.43882007
   0.44426000  0.55664000  0.16024000
   0.55440922  0.44488658  0.29857058
   0.66570940  0.33363661  0.43676691
   0.77760000  0.55664000  0.16024000
   0.88837731  0.44506026  0.29820043
   0.99919594  0.66692017  0.43663645
   0.11093000  0.88997000  0.16024000
   0.22188237  0.77857672  0.29832464
   0.33294250  0.66727627  0.43722450
   0.44426000  0.88997000  0.16024000
   0.55489740  0.77841003  0.29820758
   0.66596031  0.66697320  0.43677055
   0.77760000  0.88997000  0.16024000
   0.88843152  0.77869045  0.29818163
   0.99982000  0.00108000  0.02337000
   0.33315000  0.00108000  0.02337000
   0.66649000  0.00108000  0.02337000
   0.99982000  0.33441000  0.02337000
   0.33315000  0.33441000  0.02337000
   0.66649000  0.33441000  0.02337000
   0.99982000  0.66775000  0.02337000
   0.33315000  0.66775000  0.02337000
   0.66649000  0.66775000  0.02337000
   0.24117987  0.14268022  0.68362462
   0.25591080  0.28937995  0.67140548
   0.22644880  0.99684908  0.69609510
Direct configuration=     9
   0.99933049  1.00008332  0.43751426
   0.11093000  0.22330000  0.16024000
   0.22185151  0.11218918  0.29889863
   0.33270283  0.00030734  0.43739723
   0.44426000  0.22330000  0.16024000
   0.55490906  0.11174009  0.29823673
   0.66595828  0.00034963  0.43684150
   0.77760000  0.22330000  0.16024000
   0.88859856  0.11189774  0.29849299
   0.99881820  0.33350410  0.43741606
   0.11093000  0.55664000  0.16024000
   0.22181173  0.44501138  0.29880484
   0.33231827  0.33340322  0.43880696
   0.44426000  0.55664000  0.16024000
   0.55441233  0.44488755  0.29856942
   0.66571034  0.33363619  0.43676868
   0.77760000  0.55664000  0.16024000
   0.88837731  0.44506080  0.29820100
   0.99919804  0.66692180  0.43663824
   0.11093000  0.88997000  0.16024000
   0.22188195  0.77857634  0.29832397
   0.33293759  0.66727222  0.43722314
   0.44426000  0.88997000  0.16024000
   0.55489815  0.77841036  0.29820750
   0.66595884  0.66697319  0.43677163
   0.77760000  0.88997000  0.16024000
   0.88843105  0.77868910  0.29818225
   0.99982000  0.00108000  0.02337000
   0.33315000  0.00108000  0.02337000
   0.66649000  0.00108000  0.02337000
   0.99982000  0.33441000  0.02337000
   0.33315000  0.33441000  0.02337000
   0.66649000  0.33441000  0.02337000
   0.99982000  0.66775000  0.02337000
   0.33315000  0.66775000  0.02337000
   0.66649000  0.66775000  0.02337000
   0.24119224  0.14285122  0.68360277
   0.25589913  0.28930110  0.67139595
   0.22644000  0.99677114  0.69609145
Direct configuration=    10
   0.99933268  1.00008936  0.43750109
   0.11093000  0.22330000  0.16024000
   0.22185085  0.11218375  0.29889289
   0.33269877  0.00030682  0.43738768
   0.44426000  0.22330000  0.16024000
   0.55491256  0.11174180  0.29823838
   0.66595795  0.00034889  0.43684171
   0.77760000  0.22330000  0.16024000
   0.88859645  0.11189655  0.29848808
   0.99883479  0.33350997  0.43740532
   0.11093000  0.55664000  0.16024000
   0.22181242  0.44501553  0.29880024
   0.33232252  0.33341636  0.43876755
   0.44426000  0.55664000  0.16024000
   0.55442197  0.44489060  0.29856616
   0.66571327  0.33363494  0.43677319
   0.77760000  0.55664000  0.16024000
   0.88837724  0.44506241  0.29820296
   0.99920405  0.66692649  0.43664284
   0.11093000  0.88997000  0.16024000
   0.22188065  0.77857509  0.29832221
   0.33292332  0.66726061  0.43721849
   0.44426000  0.88997000  0.16024000
   0.55490047  0.77841143  0.29820747
   0.66595470  0.66697320  0.43677412
   0.77760000  0.88997000  0.16024000
   0.88842957  0.77868484  0.29818432
   0.99982000  0.00108000  0.02337000
   0.33315000  0.00108000  0.02337000
   0.66649000  0.00108000  0.02337000
   0.99982000  0.33441000  0.02337000
   0.33315000  0.33441000  0.02337000
   0.66649000  0.33441000  0.02337000
   0.99982000  0.66775000  0.02337000
   0.33315000  0.66775000  0.02337000
   0.66649000  0.66775000  0.02337000
   0.24119738  0.14305471  0.68356032
   0.25587824  0.28921858  0.67135080
   0.22642923  0.99669874  0.69606442
Direct configuration=    11
   0.99933313  1.00009118  0.43749695
   0.11093000  0.22330000  0.16024000
   0.22185061  0.11218200  0.29889072
   0.33269745  0.00030675  0.43738478
   0.44426000  0.22330000  0.16024000
   0.55491370  0.11174241  0.29823880
   0.66595789  0.00034869  0.43684210
   0.77760000  0.22330000  0.16024000
   0.88859585  0.11189620  0.29848634
   0.99884006  0.33351179  0.43740198
   0.11093000  0.55664000  0.16024000
   0.22181262  0.44501684  0.29879842
   0.33232396  0.33342052  0.43875463
   0.44426000  0.55664000  0.16024000
   0.55442516  0.44489160  0.29856491
   0.66571426  0.33363460  0.43677497
   0.77760000  0.55664000  0.16024000
   0.88837724  0.44506295  0.29820352
   0.99920591  0.66692799  0.43664476
   0.11093000  0.88997000  0.16024000
   0.22188018  0.77857466  0.29832153
   0.33291876  0.66725692  0.43721721
   0.44426000  0.88997000  0.16024000
   0.55490120  0.77841172  0.29820738
   0.66595340  0.66697318  0.43677525
   0.77760000  0.88997000  0.16024000
   0.88842911  0.77868345  0.29818489
   0.99982000  0.00108000  0.02337000
   0.33315000  0.00108000  0.02337000
   0.66649000  0.00108000  0.02337000
   0.99982000  0.33441000  0.02337000
   0.33315000  0.33441000  0.02337000
   0.66649000  0.33441000  0.02337000
   0.99982000  0.66775000  0.02337000
   0.33315000  0.66775000  0.02337000
   0.66649000  0.66775000  0.02337000
   0.24118657  0.14299458  0.68355660
   0.25587765  0.28925491  0.67133098
   0.22643199  0.99673864  0.69605034
Direct configuration=    12
   0.99933397  1.00009513  0.43748793
   0.11093000  0.22330000  0.16024000
   0.22185010  0.11217810  0.29888588
   0.33269497  0.00030716  0.43737852
   0.44426000  0.22330000  0.16024000
   0.55491620  0.11174372  0.29823963
   0.66595768  0.00034819  0.43684267
   0.77760000  0.22330000  0.16024000
   0.88859447  0.11189544  0.29848242
   0.99885154  0.33351577  0.43739469
   0.11093000  0.55664000  0.16024000
   0.22181308  0.44501981  0.29879431
   0.33232725  0.33342984  0.43872655
   0.44426000  0.55664000  0.16024000
   0.55443176  0.44489403  0.29856219
   0.66571648  0.33363381  0.43677867
   0.77760000  0.55664000  0.16024000
   0.88837723  0.44506411  0.29820458
   0.99920994  0.66693127  0.43664853
   0.11093000  0.88997000  0.16024000
   0.22187924  0.77857376  0.29831986
   0.33290881  0.66724901  0.43721431
   0.44426000  0.88997000  0.16024000
   0.55490281  0.77841239  0.29820708
   0.66595056  0.66697324  0.43677748
   0.77760000  0.88997000  0.16024000
   0.88842808  0.77868042  0.29818598
   0.99982000  0.00108000  0.02337000
   0.33315000  0.00108000  0.02337000
   0.66649000  0.00108000  0.02337000
   0.99982000  0.33441000  0.02337000
   0.33315000  0.33441000  0.02337000
   0.66649000  0.33441000  0.02337000
   0.99982000  0.66775000  0.02337000
   0.33315000  0.66775000  0.02337000
   0.66649000  0.66775000  0.02337000
   0.24117031  0.14294730  0.68353746
   0.25587078  0.28929316  0.67128608
   0.22643324  0.99678606  0.69601971
Direct configuration=    13
   0.99933502  1.00009986  0.43747701
   0.11093000  0.22330000  0.16024000
   0.22184942  0.11217341  0.29887969
   0.33269198  0.00030770  0.43737094
   0.44426000  0.22330000  0.16024000
   0.55491914  0.11174531  0.29824047
   0.66595741  0.00034759  0.43684340
   0.77760000  0.22330000  0.16024000
   0.88859291  0.11189456  0.29847754
   0.99886487  0.33352025  0.43738592
   0.11093000  0.55664000  0.16024000
   0.22181407  0.44502347  0.29878926
   0.33233116  0.33344053  0.43869351
   0.44426000  0.55664000  0.16024000
   0.55443969  0.44489684  0.29855868
   0.66571909  0.33363287  0.43678314
   0.77760000  0.55664000  0.16024000
   0.88837722  0.44506547  0.29820575
   0.99921455  0.66693511  0.43665315
   0.11093000  0.88997000  0.16024000
   0.22187804  0.77857261  0.29831774
   0.33289713  0.66723983  0.43721081
   0.44426000  0.88997000  0.16024000
   0.55490465  0.77841306  0.29820662
   0.66594724  0.66697327  0.43678021
   0.77760000  0.88997000  0.16024000
   0.88842686  0.77867677  0.29818715
   0.99982000  0.00108000  0.02337000
   0.33315000  0.00108000  0.02337000
   0.66649000  0.00108000  0.02337000
   0.99982000  0.33441000  0.02337000
   0.33315000  0.33441000  0.02337000
   0.66649000  0.33441000  0.02337000
   0.99982000  0.66775000  0.02337000
   0.33315000  0.66775000  0.02337000
   0.66649000  0.66775000  0.02337000
   0.24116166  0.14300253  0.68350157
   0.25585596  0.28928502  0.67123365
   0.22642856  0.99678927  0.69598579
Direct configuration=    14
   0.99933637  1.00010578  0.43746321
   0.11093000  0.22330000  0.16024000
   0.22184963  0.11216864  0.29887195
   0.33268824  0.00030846  0.43736144
   0.44426000  0.22330000  0.16024000
   0.55492285  0.11174730  0.29824182
   0.66595707  0.00034681  0.43684430
   0.77760000  0.22330000  0.16024000
   0.88859096  0.11189344  0.29847168
   0.99888109  0.33352551  0.43737488
   0.11093000  0.55664000  0.16024000
   0.22181519  0.44502801  0.29878274
   0.33233547  0.33345356  0.43865219
   0.44426000  0.55664000  0.16024000
   0.55444983  0.44490037  0.29855444
   0.66572235  0.33363169  0.43678872
   0.77760000  0.55664000  0.16024000
   0.88837719  0.44506712  0.29820754
   0.99922007  0.66693986  0.43665901
   0.11093000  0.88997000  0.16024000
   0.22187648  0.77857109  0.29831536
   0.33288280  0.66722869  0.43720638
   0.44426000  0.88997000  0.16024000
   0.55490692  0.77841381  0.29820640
   0.66594316  0.66697328  0.43678362
   0.77760000  0.88997000  0.16024000
   0.88842528  0.77867209  0.29818889
   0.99982000  0.00108000  0.02337000
   0.33315000  0.00108000  0.02337000
   0.66649000  0.00108000  0.02337000
   0.99982000  0.33441000  0.02337000
   0.33315000  0.33441000  0.02337000
   0.66649000  0.33441000  0.02337000
   0.99982000  0.66775000  0.02337000
   0.33315000  0.66775000  0.02337000
   0.66649000  0.66775000  0.02337000
   0.24114323  0.14300325  0.68345758
   0.25583932  0.28931163  0.67116060
   0.22642541  0.99683025  0.69593765
Direct configuration=    15
   0.99933966  1.00011264  0.43744659
   0.11093000  0.22330000  0.16024000
   0.22184943  0.11216330  0.29886182
   0.33268380  0.00030948  0.43734986
   0.44426000  0.22330000  0.16024000
   0.55492748  0.11174958  0.29824294
   0.66595658  0.00034580  0.43684553
   0.77760000  0.22330000  0.16024000
   0.88858822  0.11189188  0.29846394
   0.99890012  0.33353148  0.43736146
   0.11093000  0.55664000  0.16024000
   0.22181638  0.44503373  0.29877362
   0.33234156  0.33347053  0.43860219
   0.44426000  0.55664000  0.16024000
   0.55446279  0.44490488  0.29854855
   0.66572650  0.33363030  0.43679579
   0.77760000  0.55664000  0.16024000
   0.88837707  0.44506909  0.29820926
   0.99922641  0.66694553  0.43666643
   0.11093000  0.88997000  0.16024000
   0.22187452  0.77856909  0.29831191
   0.33286577  0.66721584  0.43720114
   0.44426000  0.88997000  0.16024000
   0.55490970  0.77841474  0.29820572
   0.66593841  0.66697338  0.43678799
   0.77760000  0.88997000  0.16024000
   0.88842322  0.77866613  0.29819048
   0.99982000  0.00108000  0.02337000
   0.33315000  0.00108000  0.02337000
   0.66649000  0.00108000  0.02337000
   0.99982000  0.33441000  0.02337000
   0.33315000  0.33441000  0.02337000
   0.66649000  0.33441000  0.02337000
   0.99982000  0.66775000  0.02337000
   0.33315000  0.66775000  0.02337000
   0.66649000  0.66775000  0.02337000
   0.24112785  0.14306651  0.68339550
   0.25581487  0.28931415  0.67107268
   0.22641807  0.99685125  0.69588080
Direct configuration=    16
   0.99934384  1.00012174  0.43742691
   0.11093000  0.22330000  0.16024000
   0.22184909  0.11215658  0.29884943
   0.33267897  0.00031085  0.43733565
   0.44426000  0.22330000  0.16024000
   0.55493325  0.11175241  0.29824468
   0.66595603  0.00034483  0.43684642
   0.77760000  0.22330000  0.16024000
   0.88858454  0.11189000  0.29845517
   0.99891956  0.33353752  0.43734487
   0.11093000  0.55664000  0.16024000
   0.22181509  0.44503875  0.29876273
   0.33235048  0.33348966  0.43854380
   0.44426000  0.55664000  0.16024000
   0.55447910  0.44491080  0.29854168
   0.66573199  0.33362915  0.43680385
   0.77760000  0.55664000  0.16024000
   0.88837691  0.44507170  0.29821179
   0.99923331  0.66695221  0.43667476
   0.11093000  0.88997000  0.16024000
   0.22187218  0.77856682  0.29830827
   0.33284661  0.66720235  0.43719462
   0.44426000  0.88997000  0.16024000
   0.55491313  0.77841619  0.29820551
   0.66593419  0.66697315  0.43679261
   0.77760000  0.88997000  0.16024000
   0.88842071  0.77865900  0.29819275
   0.99982000  0.00108000  0.02337000
   0.33315000  0.00108000  0.02337000
   0.66649000  0.00108000  0.02337000
   0.99982000  0.33441000  0.02337000
   0.33315000  0.33441000  0.02337000
   0.66649000  0.33441000  0.02337000
   0.99982000  0.66775000  0.02337000
   0.33315000  0.66775000  0.02337000
   0.66649000  0.66775000  0.02337000
   0.24110114  0.14303746  0.68333172
   0.25579206  0.28936737  0.67097108
   0.22641488  0.99692451  0.69581404
Direct configuration=    17
   0.99934706  1.00012967  0.43741078
   0.11093000  0.22330000  0.16024000
   0.22184899  0.11214973  0.29883807
   0.33267595  0.00031155  0.43732464
   0.44426000  0.22330000  0.16024000
   0.55493841  0.11175499  0.29824577
   0.66595549  0.00034401  0.43684681
   0.77760000  0.22330000  0.16024000
   0.88858099  0.11188824  0.29844722
   0.99893461  0.33354237  0.43733103
   0.11093000  0.55664000  0.16024000
   0.22181474  0.44504307  0.29875227
   0.33235861  0.33350549  0.43849560
   0.44426000  0.55664000  0.16024000
   0.55449400  0.44491631  0.29853503
   0.66573728  0.33362864  0.43681034
   0.77760000  0.55664000  0.16024000
   0.88837665  0.44507415  0.29821371
   0.99923846  0.66695763  0.43668135
   0.11093000  0.88997000  0.16024000
   0.22186991  0.77856469  0.29830483
   0.33283136  0.66719252  0.43718899
   0.44426000  0.88997000  0.16024000
   0.55491603  0.77841739  0.29820516
   0.66593135  0.66697354  0.43679624
   0.77760000  0.88997000  0.16024000
   0.88841852  0.77865264  0.29819433
   0.99982000  0.00108000  0.02337000
   0.33315000  0.00108000  0.02337000
   0.66649000  0.00108000  0.02337000
   0.99982000  0.33441000  0.02337000
   0.33315000  0.33441000  0.02337000
   0.66649000  0.33441000  0.02337000
   0.99982000  0.66775000  0.02337000
   0.33315000  0.66775000  0.02337000
   0.66649000  0.66775000  0.02337000
   0.24109860  0.14319330  0.68326290
   0.25576414  0.28932167  0.67089579
   0.22640326  0.99689633  0.69576732
Direct configuration=    18
   0.99934805  1.00013226  0.43740458
   0.11093000  0.22330000  0.16024000
   0.22184863  0.11214694  0.29883431
   0.33267484  0.00031195  0.43732036
   0.44426000  0.22330000  0.16024000
   0.55494030  0.11175601  0.29824632
   0.66595535  0.00034379  0.43684702
   0.77760000  0.22330000  0.16024000
   0.88857979  0.11188766  0.29844440
   0.99894000  0.33354413  0.43732561
   0.11093000  0.55664000  0.16024000
   0.22181461  0.44504474  0.29874829
   0.33236202  0.33351099  0.43847706
   0.44426000  0.55664000  0.16024000
   0.55449957  0.44491839  0.29853264
   0.66573929  0.33362858  0.43681279
   0.77760000  0.55664000  0.16024000
   0.88837659  0.44507508  0.29821460
   0.99924028  0.66695969  0.43668400
   0.11093000  0.88997000  0.16024000
   0.22186912  0.77856396  0.29830372
   0.33282590  0.66718915  0.43718675
   0.44426000  0.88997000  0.16024000
   0.55491706  0.77841780  0.29820522
   0.66593042  0.66697378  0.43679762
   0.77760000  0.88997000  0.16024000
   0.88841776  0.77865043  0.29819507
   0.99982000  0.00108000  0.02337000
   0.33315000  0.00108000  0.02337000
   0.66649000  0.00108000  0.02337000
   0.99982000  0.33441000  0.02337000
   0.33315000  0.33441000  0.02337000
   0.66649000  0.33441000  0.02337000
   0.99982000  0.66775000  0.02337000
   0.33315000  0.66775000  0.02337000
   0.66649000  0.66775000  0.02337000
   0.24108361  0.14311293  0.68324850
   0.25576065  0.28937390  0.67086224
   0.22640585  0.99695475  0.69574426
Direct configuration=    19
   0.99934937  1.00013603  0.43739578
   0.11093000  0.22330000  0.16024000
   0.22184808  0.11214270  0.29882847
   0.33267329  0.00031249  0.43731427
   0.44426000  0.22330000  0.16024000
   0.55494320  0.11175755  0.29824708
   0.66595508  0.00034342  0.43684740
   0.77760000  0.22330000  0.16024000
   0.88857785  0.11188673  0.29844008
   0.99894780  0.33354669  0.43731796
   0.11093000  0.55664000  0.16024000
   0.22181438  0.44504734  0.29874214
   0.33236714  0.33351914  0.43845090
   0.44426000  0.55664000  0.16024000
   0.55450811  0.44492112  0.29852928
   0.66574240  0.33362851  0.43681639
   0.77760000  0.55664000  0.16024000
   0.88837647  0.44507652  0.29821581
   0.99924289  0.66696273  0.43668790
   0.11093000  0.88997000  0.16024000
   0.22186788  0.77856281  0.29830195
   0.33281784  0.66718433  0.43718360
   0.44426000  0.88997000  0.16024000
   0.55491863  0.77841845  0.29820526
   0.66592910  0.66697421  0.43679967
   0.77760000  0.88997000  0.16024000
   0.88841657  0.77864700  0.29819605
   0.99982000  0.00108000  0.02337000
   0.33315000  0.00108000  0.02337000
   0.66649000  0.00108000  0.02337000
   0.99982000  0.33441000  0.02337000
   0.33315000  0.33441000  0.02337000
   0.66649000  0.33441000  0.02337000
   0.99982000  0.66775000  0.02337000
   0.33315000  0.66775000  0.02337000
   0.66649000  0.66775000  0.02337000
   0.24107494  0.14313361  0.68321300
   0.25574759  0.28938183  0.67081550
   0.22640234  0.99697300  0.69571401
Direct configuration=    20
   0.99935108  1.00014076  0.43738445
   0.11093000  0.22330000  0.16024000
   0.22184803  0.11213697  0.29882118
   0.33267206  0.00031320  0.43730648
   0.44426000  0.22330000  0.16024000
   0.55494686  0.11175948  0.29824808
   0.66595465  0.00034293  0.43684745
   0.77760000  0.22330000  0.16024000
   0.88857521  0.11188550  0.29843463
   0.99895733  0.33354981  0.43730783
   0.11093000  0.55664000  0.16024000
   0.22181403  0.44505082  0.29873414
   0.33237379  0.33352949  0.43841703
   0.44426000  0.55664000  0.16024000
   0.55451912  0.44492473  0.29852498
   0.66574636  0.33362845  0.43682055
   0.77760000  0.55664000  0.16024000
   0.88837746  0.44507850  0.29821732
   0.99924599  0.66696656  0.43669243
   0.11093000  0.88997000  0.16024000
   0.22186625  0.77856134  0.29829976
   0.33280780  0.66717856  0.43717918
   0.44426000  0.88997000  0.16024000
   0.55492056  0.77841928  0.29820539
   0.66592748  0.66697487  0.43680187
   0.77760000  0.88997000  0.16024000
   0.88841498  0.77864262  0.29819733
   0.99982000  0.00108000  0.02337000