  65  65   0   0
  0.2920240E+02  0.9294800E-09  0.9294800E-09  0.2197110E-08  0.0000000E+00
  1.000000000000000E-004
  CAR 
 PBE-grap                                
      8.94948082    -63.70182895  301      1.24065418      1.00000000
    -63.702  0.0000E+00  0.0000E+00
    -63.460  0.0000E+00  0.0000E+00
    -63.217  0.0000E+00  0.0000E+00
    -62.975  0.0000E+00  0.0000E+00
    -62.733  0.0000E+00  0.0000E+00
    -62.491  0.0000E+00  0.0000E+00
    -62.249  0.0000E+00  0.0000E+00
    -62.007  0.0000E+00  0.0000E+00
    -61.764  0.0000E+00  0.0000E+00
    -61.522  0.0000E+00  0.0000E+00
    -61.280  0.0000E+00  0.0000E+00
    -61.038  0.0000E+00  0.0000E+00
    -60.796  0.0000E+00  0.0000E+00
    -60.554  0.1642E-05  0.3976E-06
    -60.311  0.6589E+00  0.1596E+00
    -60.069  0.2003E+01  0.6447E+00
    -59.827  0.2611E+01  0.1277E+01
    -59.585  0.1254E-01  0.1280E+01
    -59.343  0.0000E+00  0.1280E+01
    -59.101  0.0000E+00  0.1280E+01
    -58.858  0.0000E+00  0.1280E+01
    -58.616  0.0000E+00  0.1280E+01
    -58.374  0.0000E+00  0.1280E+01
    -58.132  0.0000E+00  0.1280E+01
    -57.890  0.0000E+00  0.1280E+01
    -57.648  0.0000E+00  0.1280E+01
    -57.405  0.0000E+00  0.1280E+01
    -57.163  0.0000E+00  0.1280E+01
    -56.921  0.0000E+00  0.1280E+01
    -56.679  0.0000E+00  0.1280E+01
    -56.437  0.0000E+00  0.1280E+01
    -56.195  0.0000E+00  0.1280E+01
    -55.952  0.0000E+00  0.1280E+01
    -55.710  0.0000E+00  0.1280E+01
    -55.468  0.0000E+00  0.1280E+01
    -55.226  0.0000E+00  0.1280E+01
    -54.984  0.0000E+00  0.1280E+01
    -54.742  0.0000E+00  0.1280E+01
    -54.499  0.0000E+00  0.1280E+01
    -54.257  0.0000E+00  0.1280E+01
    -54.015  0.0000E+00  0.1280E+01
    -53.773  0.0000E+00  0.1280E+01
    -53.531  0.0000E+00  0.1280E+01
    -53.288  0.0000E+00  0.1280E+01
    -53.046  0.0000E+00  0.1280E+01
    -52.804  0.0000E+00  0.1280E+01
    -52.562  0.0000E+00  0.1280E+01
    -52.320  0.0000E+00  0.1280E+01
    -52.078  0.0000E+00  0.1280E+01
    -51.835  0.0000E+00  0.1280E+01
    -51.593  0.0000E+00  0.1280E+01
    -51.351  0.0000E+00  0.1280E+01
    -51.109  0.0000E+00  0.1280E+01
    -50.867  0.0000E+00  0.1280E+01
    -50.625  0.0000E+00  0.1280E+01
    -50.382  0.0000E+00  0.1280E+01
    -50.140  0.0000E+00  0.1280E+01
    -49.898  0.0000E+00  0.1280E+01
    -49.656  0.0000E+00  0.1280E+01
    -49.414  0.0000E+00  0.1280E+01
    -49.172  0.0000E+00  0.1280E+01
    -48.929  0.0000E+00  0.1280E+01
    -48.687  0.0000E+00  0.1280E+01
    -48.445  0.0000E+00  0.1280E+01
    -48.203  0.0000E+00  0.1280E+01
    -47.961  0.0000E+00  0.1280E+01
    -47.719  0.0000E+00  0.1280E+01
    -47.476  0.0000E+00  0.1280E+01
    -47.234  0.0000E+00  0.1280E+01
    -46.992  0.0000E+00  0.1280E+01
    -46.750  0.0000E+00  0.1280E+01
    -46.508  0.0000E+00  0.1280E+01
    -46.266  0.0000E+00  0.1280E+01
    -46.023  0.0000E+00  0.1280E+01
    -45.781  0.0000E+00  0.1280E+01
    -45.539  0.0000E+00  0.1280E+01
    -45.297  0.0000E+00  0.1280E+01
    -45.055  0.0000E+00  0.1280E+01
    -44.812  0.0000E+00  0.1280E+01
    -44.570  0.0000E+00  0.1280E+01
    -44.328  0.0000E+00  0.1280E+01
    -44.086  0.0000E+00  0.1280E+01
    -43.844  0.0000E+00  0.1280E+01
    -43.602  0.0000E+00  0.1280E+01
    -43.359  0.0000E+00  0.1280E+01
    -43.117  0.0000E+00  0.1280E+01
    -42.875  0.0000E+00  0.1280E+01
    -42.633  0.0000E+00  0.1280E+01
    -42.391  0.0000E+00  0.1280E+01
    -42.149  0.0000E+00  0.1280E+01
    -41.906  0.0000E+00  0.1280E+01
    -41.664  0.0000E+00  0.1280E+01
    -41.422  0.0000E+00  0.1280E+01
    -41.180  0.0000E+00  0.1280E+01
    -40.938  0.0000E+00  0.1280E+01
    -40.696  0.0000E+00  0.1280E+01
    -40.453  0.0000E+00  0.1280E+01
    -40.211  0.0000E+00  0.1280E+01
    -39.969  0.0000E+00  0.1280E+01
    -39.727  0.0000E+00  0.1280E+01
    -39.485  0.0000E+00  0.1280E+01
    -39.243  0.0000E+00  0.1280E+01
    -39.000  0.0000E+00  0.1280E+01
    -38.758  0.0000E+00  0.1280E+01
    -38.516  0.0000E+00  0.1280E+01
    -38.274  0.0000E+00  0.1280E+01
    -38.032  0.0000E+00  0.1280E+01
    -37.790  0.0000E+00  0.1280E+01
    -37.547  0.0000E+00  0.1280E+01
    -37.305  0.0000E+00  0.1280E+01
    -37.063  0.0000E+00  0.1280E+01
    -36.821  0.0000E+00  0.1280E+01
    -36.579  0.0000E+00  0.1280E+01
    -36.337  0.0000E+00  0.1280E+01
    -36.094  0.0000E+00  0.1280E+01
    -35.852  0.0000E+00  0.1280E+01
    -35.610  0.0000E+00  0.1280E+01
    -35.368  0.0000E+00  0.1280E+01
    -35.126  0.0000E+00  0.1280E+01
    -34.883  0.0000E+00  0.1280E+01
    -34.641  0.0000E+00  0.1280E+01
    -34.399  0.0000E+00  0.1280E+01
    -34.157  0.0000E+00  0.1280E+01
    -33.915  0.0000E+00  0.1280E+01
    -33.673  0.0000E+00  0.1280E+01
    -33.430  0.0000E+00  0.1280E+01
    -33.188  0.0000E+00  0.1280E+01
    -32.946  0.0000E+00  0.1280E+01
    -32.704  0.0000E+00  0.1280E+01
    -32.462  0.0000E+00  0.1280E+01
    -32.220  0.0000E+00  0.1280E+01
    -31.977  0.0000E+00  0.1280E+01
    -31.735  0.0000E+00  0.1280E+01
    -31.493  0.0000E+00  0.1280E+01
    -31.251  0.0000E+00  0.1280E+01
    -31.009  0.0000E+00  0.1280E+01
    -30.767  0.0000E+00  0.1280E+01
    -30.524  0.0000E+00  0.1280E+01
    -30.282  0.0000E+00  0.1280E+01
    -30.040  0.0000E+00  0.1280E+01
    -29.798  0.0000E+00  0.1280E+01
    -29.556  0.3334E-12  0.1280E+01
    -29.314  0.2096E+00  0.1331E+01
    -29.071  0.2449E+01  0.1924E+01
    -28.829  0.4081E+01  0.2912E+01
    -28.587  0.5145E+01  0.4158E+01
    -28.345  0.3970E+01  0.5120E+01
    -28.103  0.1502E-02  0.5120E+01
    -27.861  0.0000E+00  0.5120E+01
    -27.618  0.0000E+00  0.5120E+01
    -27.376  0.0000E+00  0.5120E+01
    -27.134  0.0000E+00  0.5120E+01
    -26.892  0.0000E+00  0.5120E+01
    -26.650  0.0000E+00  0.5120E+01
    -26.407  0.0000E+00  0.5120E+01
    -26.165  0.0000E+00  0.5120E+01
    -25.923  0.0000E+00  0.5120E+01
    -25.681  0.0000E+00  0.5120E+01
    -25.439  0.0000E+00  0.5120E+01
    -25.197  0.0000E+00  0.5120E+01
    -24.954  0.0000E+00  0.5120E+01
    -24.712  0.0000E+00  0.5120E+01
    -24.470  0.0000E+00  0.5120E+01
    -24.228  0.4513E-02  0.5121E+01
    -23.986  0.1607E+00  0.5160E+01
    -23.744  0.0000E+00  0.5160E+01
    -23.501  0.0000E+00  0.5160E+01
    -23.259  0.0000E+00  0.5160E+01
    -23.017  0.0000E+00  0.5160E+01
    -22.775  0.0000E+00  0.5160E+01
    -22.533  0.0000E+00  0.5160E+01
    -22.291  0.0000E+00  0.5160E+01
    -22.048  0.0000E+00  0.5160E+01
    -21.806  0.0000E+00  0.5160E+01
    -21.564  0.0000E+00  0.5160E+01
    -21.322  0.0000E+00  0.5160E+01
    -21.080  0.0000E+00  0.5160E+01
    -20.838  0.0000E+00  0.5160E+01
    -20.595  0.0000E+00  0.5160E+01
    -20.353  0.0000E+00  0.5160E+01
    -20.111  0.0000E+00  0.5160E+01
    -19.869  0.0000E+00  0.5160E+01
    -19.627  0.0000E+00  0.5160E+01
    -19.385  0.0000E+00  0.5160E+01
    -19.142  0.0000E+00  0.5160E+01
    -18.900  0.0000E+00  0.5160E+01
    -18.658  0.0000E+00  0.5160E+01
    -18.416  0.0000E+00  0.5160E+01
    -18.174  0.0000E+00  0.5160E+01
    -17.932  0.0000E+00  0.5160E+01
    -17.689  0.0000E+00  0.5160E+01
    -17.447  0.0000E+00  0.5160E+01
    -17.205  0.0000E+00  0.5160E+01
    -16.963  0.0000E+00  0.5160E+01
    -16.721  0.0000E+00  0.5160E+01
    -16.478  0.0000E+00  0.5160E+01
    -16.236  0.0000E+00  0.5160E+01
    -15.994  0.0000E+00  0.5160E+01
    -15.752  0.0000E+00  0.5160E+01
    -15.510  0.0000E+00  0.5160E+01
    -15.268  0.0000E+00  0.5160E+01
    -15.025  0.0000E+00  0.5160E+01
    -14.783  0.0000E+00  0.5160E+01
    -14.541  0.0000E+00  0.5160E+01
    -14.299  0.0000E+00  0.5160E+01
    -14.057  0.0000E+00  0.5160E+01
    -13.815  0.0000E+00  0.5160E+01
    -13.572  0.0000E+00  0.5160E+01
    -13.330  0.0000E+00  0.5160E+01
    -13.088  0.0000E+00  0.5160E+01
    -12.846  0.0000E+00  0.5160E+01
    -12.604  0.0000E+00  0.5160E+01
    -12.362  0.0000E+00  0.5160E+01
    -12.119  0.0000E+00  0.5160E+01
    -11.877  0.0000E+00  0.5160E+01
    -11.635  0.0000E+00  0.5160E+01
    -11.393  0.0000E+00  0.5160E+01
    -11.151  0.0000E+00  0.5160E+01
    -10.909  0.9012E-11  0.5160E+01
    -10.666  0.1412E-01  0.5163E+01
    -10.424  0.7090E-01  0.5181E+01
    -10.182  0.7866E-01  0.5200E+01
     -9.940  0.7754E-02  0.5202E+01
     -9.698  0.1328E+00  0.5234E+01
     -9.456  0.1677E+00  0.5274E+01
     -9.213  0.1493E+00  0.5310E+01
     -8.971  0.4707E+00  0.5424E+01
     -8.729  0.6429E+00  0.5580E+01
     -8.487  0.5502E+00  0.5713E+01
     -8.245  0.7327E+00  0.5891E+01
     -8.002  0.6167E+00  0.6040E+01
     -7.760  0.7673E+00  0.6226E+01
     -7.518  0.4555E+00  0.6336E+01
     -7.276  0.2997E+00  0.6409E+01
     -7.034  0.1272E+00  0.6440E+01
     -6.792  0.2710E-01  0.6446E+01
     -6.549  0.3047E+00  0.6520E+01
     -6.307  0.0000E+00  0.6520E+01
     -6.065  0.0000E+00  0.6520E+01
     -5.823  0.0000E+00  0.6520E+01
     -5.581  0.0000E+00  0.6520E+01
     -5.339  0.0000E+00  0.6520E+01
     -5.096  0.0000E+00  0.6520E+01
     -4.854  0.0000E+00  0.6520E+01
     -4.612  0.7717E-05  0.6520E+01
     -4.370  0.1089E+00  0.6546E+01
     -4.128  0.1918E+00  0.6593E+01
     -3.886  0.3015E+00  0.6666E+01
     -3.643  0.1006E+00  0.6690E+01
     -3.401  0.3288E+00  0.6770E+01
     -3.159  0.4992E+00  0.6891E+01
     -2.917  0.5850E+00  0.7032E+01
     -2.675  0.4260E+00  0.7136E+01
     -2.433  0.5300E+00  0.7264E+01
     -2.190  0.6274E+00  0.7416E+01
     -1.948  0.4393E+00  0.7522E+01
     -1.706  0.4029E+00  0.7620E+01
     -1.464  0.1072E+01  0.7879E+01
     -1.222  0.1812E+01  0.8318E+01
     -0.980  0.1267E+01  0.8625E+01
     -0.737  0.1760E+01  0.9051E+01
     -0.495  0.1515E+01  0.9418E+01
     -0.253  0.7985E+00  0.9611E+01
     -0.011  0.9377E+00  0.9838E+01
      0.231  0.8568E+00  0.1005E+02
      0.473  0.4219E+00  0.1015E+02
      0.716  0.1920E+00  0.1019E+02
      0.958  0.3258E+00  0.1027E+02
      1.200  0.3224E+00  0.1035E+02
      1.442  0.1775E+00  0.1039E+02
      1.684  0.2285E+00  0.1045E+02
      1.927  0.3491E+00  0.1053E+02
      2.169  0.2014E+00  0.1058E+02
      2.411  0.4525E+00  0.1069E+02
      2.653  0.2856E+00  0.1076E+02
      2.895  0.4073E+00  0.1086E+02
      3.137  0.5044E+00  0.1098E+02
      3.380  0.8616E+00  0.1119E+02
      3.622  0.8538E+00  0.1140E+02
      3.864  0.6808E+00  0.1156E+02
      4.106  0.4120E+00  0.1166E+02
      4.348  0.4620E+00  0.1177E+02
      4.590  0.6487E+00  0.1193E+02
      4.833  0.6374E+00  0.1209E+02
      5.075  0.9816E+00  0.1232E+02
      5.317  0.1065E+01  0.1258E+02
      5.559  0.8170E+00  0.1278E+02
      5.801  0.8431E-01  0.1280E+02
      6.043  0.1200E-06  0.1280E+02
      6.286  0.0000E+00  0.1280E+02
      6.528  0.0000E+00  0.1280E+02
      6.770  0.0000E+00  0.1280E+02
      7.012  0.0000E+00  0.1280E+02
      7.254  0.0000E+00  0.1280E+02
      7.496  0.0000E+00  0.1280E+02
      7.739  0.0000E+00  0.1280E+02
      7.981  0.0000E+00  0.1280E+02
      8.223  0.0000E+00  0.1280E+02
      8.465  0.0000E+00  0.1280E+02
      8.707  0.0000E+00  0.1280E+02
      8.949  0.0000E+00  0.1280E+02
