       N       E                     dE             d eps       ncg     rms          rms(c)
DAV:   1     0.476703938196E+04    0.47670E+04   -0.29367E+05  3792   0.144E+03
DAV:   2    -0.532822468938E+03   -0.52999E+04   -0.51548E+04  3888   0.443E+02
DAV:   3    -0.899994001566E+03   -0.36717E+03   -0.36144E+03  3744   0.106E+02
DAV:   4    -0.913529533219E+03   -0.13536E+02   -0.13483E+02  4064   0.179E+01
DAV:   5    -0.913872255243E+03   -0.34272E+00   -0.34242E+00  3968   0.247E+00    0.598E+01
DAV:   6    -0.758935005717E+03    0.15494E+03   -0.91898E+02  3648   0.370E+01    0.246E+01
DAV:   7    -0.758177767943E+03    0.75724E+00   -0.10698E+02  4368   0.196E+01    0.168E+01
DAV:   8    -0.749287389456E+03    0.88904E+01   -0.35984E+01  4176   0.109E+01    0.100E+01
DAV:   9    -0.748681038899E+03    0.60635E+00   -0.14060E+01  3856   0.533E+00    0.758E+00
DAV:  10    -0.748118606094E+03    0.56243E+00   -0.74699E+00  4224   0.358E+00    0.460E+00
DAV:  11    -0.747632928510E+03    0.48568E+00   -0.12300E+00  3856   0.207E+00    0.168E+00
DAV:  12    -0.747611072468E+03    0.21856E-01   -0.46442E-01  3968   0.918E-01    0.963E-01
DAV:  13    -0.747595978788E+03    0.15094E-01   -0.69912E-02  3648   0.520E-01    0.472E-01
DAV:  14    -0.747588682449E+03    0.72963E-02   -0.53600E-02  3776   0.310E-01    0.405E-01
DAV:  15    -0.747590310270E+03   -0.16278E-02   -0.39588E-02  4080   0.193E-01    0.209E-01
DAV:  16    -0.747593839303E+03   -0.35290E-02   -0.90173E-03  3792   0.124E-01    0.181E-01
DAV:  17    -0.747596519413E+03   -0.26801E-02   -0.58315E-03  3888   0.868E-02    0.792E-02
DAV:  18    -0.747598323956E+03   -0.18045E-02   -0.11735E-03  3408   0.540E-02    0.569E-02
DAV:  19    -0.747599696431E+03   -0.13725E-02   -0.10443E-03  3232   0.331E-02    0.359E-02
DAV:  20    -0.747600596570E+03   -0.90014E-03   -0.54382E-04  3056   0.235E-02    0.191E-02
DAV:  21    -0.747602152628E+03   -0.15561E-02   -0.19552E-04  3104   0.159E-02    0.178E-02
DAV:  22    -0.747603640900E+03   -0.14883E-02   -0.14492E-04  3008   0.109E-02    0.679E-03
DAV:  23    -0.747604523570E+03   -0.88267E-03   -0.85683E-05  3040   0.753E-03    0.528E-03
DAV:  24    -0.747604840854E+03   -0.31728E-03   -0.24998E-05  2832   0.389E-03    0.283E-03
DAV:  25    -0.747604994519E+03   -0.15367E-03   -0.14870E-05  2688   0.287E-03    0.141E-03
DAV:  26    -0.747605032261E+03   -0.37741E-04   -0.27642E-06  2496   0.142E-03    0.819E-04
DAV:  27    -0.747605049562E+03   -0.17301E-04   -0.16320E-06  2432   0.890E-04    0.454E-04
DAV:  28    -0.747605056287E+03   -0.67250E-05   -0.78378E-07  2416   0.636E-04
   1 F= -.74760506E+03 E0= -.74759626E+03  d E =-.747605E+03
       N       E                     dE             d eps       ncg     rms          rms(c)
DAV:   1    -0.747612150247E+03   -0.71007E-02   -0.22054E-02  3472   0.169E-01    0.489E-02
DAV:   2    -0.747612395842E+03   -0.24560E-03   -0.33022E-03  3760   0.523E-02    0.117E-01
DAV:   3    -0.747612146306E+03    0.24954E-03   -0.18154E-03  3232   0.413E-02    0.189E-02
DAV:   4    -0.747612151445E+03   -0.51388E-05   -0.55668E-05  2880   0.114E-02
   2 F= -.74761215E+03 E0= -.74760334E+03  d E =-.709516E-02
       N       E                     dE             d eps       ncg     rms          rms(c)
DAV:   1    -0.747626344901E+03   -0.14199E-01   -0.88149E-02  3440   0.338E-01    0.996E-02
DAV:   2    -0.747627345423E+03   -0.10005E-02   -0.13634E-02  3904   0.107E-01    0.238E-01
DAV:   3    -0.747626325163E+03    0.10203E-02   -0.75665E-03  3408   0.835E-02    0.393E-02
DAV:   4    -0.747626341428E+03   -0.16265E-04   -0.23044E-04  3008   0.226E-02    0.240E-02
DAV:   5    -0.747626345410E+03   -0.39815E-05   -0.38636E-05  3024   0.129E-02
   3 F= -.74762635E+03 E0= -.74761751E+03  d E =-.141940E-01
       N       E                     dE             d eps       ncg     rms          rms(c)
DAV:   1    -0.747647721172E+03   -0.21380E-01   -0.19761E-01  3408   0.504E-01    0.146E-01
DAV:   2    -0.747649868678E+03   -0.21475E-02   -0.29397E-02  4128   0.151E-01    0.350E-01
DAV:   3    -0.747647694958E+03    0.21737E-02   -0.16348E-02  3632   0.121E-01    0.562E-02
DAV:   4    -0.747647727394E+03   -0.32437E-04   -0.50454E-04  2976   0.344E-02    0.344E-02
DAV:   5    -0.747647730649E+03   -0.32543E-05   -0.78833E-05  3104   0.179E-02
   4 F= -.74764773E+03 E0= -.74763884E+03  d E =-.213852E-01
       N       E                     dE             d eps       ncg     rms          rms(c)
DAV:   1    -0.747676336181E+03   -0.28609E-01   -0.35056E-01  3408   0.665E-01    0.194E-01
DAV:   2    -0.747680128070E+03   -0.37919E-02   -0.52040E-02  4224   0.199E-01    0.466E-01
DAV:   3    -0.747676286548E+03    0.38415E-02   -0.28845E-02  3840   0.158E-01    0.747E-02
DAV:   4    -0.747676341135E+03   -0.54588E-04   -0.88058E-04  3040   0.452E-02    0.459E-02
DAV:   5    -0.747676339723E+03    0.14123E-05   -0.14154E-04  3152   0.240E-02    0.171E-02
DAV:   6    -0.747676348026E+03   -0.83032E-05   -0.44079E-05  2928   0.138E-02
   5 F= -.74767635E+03 E0= -.74766737E+03  d E =-.286174E-01
       N       E                     dE             d eps       ncg     rms          rms(c)
DAV:   1    -0.747712229928E+03   -0.35890E-01   -0.54775E-01  3424   0.822E-01    0.243E-01
DAV:   2    -0.747718303151E+03   -0.60732E-02   -0.82566E-02  4432   0.252E-01    0.588E-01
DAV:   3    -0.747712144599E+03    0.61586E-02   -0.45050E-02  4208   0.199E-01    0.928E-02
DAV:   4    -0.747712232574E+03   -0.87975E-04   -0.13499E-03  3104   0.551E-02    0.571E-02
DAV:   5    -0.747712226124E+03    0.64496E-05   -0.22921E-04  3168   0.304E-02    0.212E-02
DAV:   6    -0.747712237160E+03   -0.11036E-04   -0.69184E-05  2976   0.178E-02    0.813E-03
DAV:   7    -0.747712238100E+03   -0.94012E-06   -0.95382E-06  2544   0.730E-03
   6 F= -.74771224E+03 E0= -.74770312E+03  d E =-.358901E-01
       N       E                     dE             d eps       ncg     rms          rms(c)
DAV:   1    -0.747755406834E+03   -0.43170E-01   -0.78705E-01  3392   0.970E-01    0.294E-01
DAV:   2    -0.747764548463E+03   -0.91416E-02   -0.12263E-01  4432   0.302E-01    0.721E-01
DAV:   3    -0.747755205460E+03    0.93430E-02   -0.64016E-02  4288   0.239E-01    0.113E-01
DAV:   4    -0.747755339513E+03   -0.13405E-03   -0.19737E-03  3168   0.662E-02    0.689E-02
DAV:   5    -0.747755324171E+03    0.15342E-04   -0.35364E-04  3280   0.373E-02    0.251E-02
DAV:   6    -0.747755337404E+03   -0.13234E-04   -0.10025E-04  2992   0.210E-02    0.100E-02
DAV:   7    -0.747755338391E+03   -0.98624E-06   -0.13481E-05  2624   0.858E-03
   7 F= -.74775534E+03 E0= -.74774599E+03  d E =-.431003E-01
       N       E                     dE             d eps       ncg     rms          rms(c)
DAV:   1    -0.747805805628E+03   -0.50468E-01   -0.10674E+00  3440   0.111E+00    0.353E-01
DAV:   2    -0.747819471659E+03   -0.13666E-01   -0.17850E-01  4400   0.360E-01    0.879E-01
DAV:   3    -0.747805422569E+03    0.14049E-01   -0.89729E-02  4256   0.287E-01    0.133E-01
DAV:   4    -0.747805616837E+03   -0.19427E-03   -0.26839E-03  3184   0.781E-02    0.813E-02
DAV:   5    -0.747805590372E+03    0.26465E-04   -0.54079E-04  3344   0.457E-02    0.301E-02
DAV:   6    -0.747805605357E+03   -0.14986E-04   -0.14638E-04  3024   0.251E-02    0.121E-02
DAV:   7    -0.747805606586E+03   -0.12280E-05   -0.19427E-05  2752   0.101E-02
   8 F= -.74780561E+03 E0= -.74779589E+03  d E =-.502682E-01
       N       E                     dE             d eps       ncg     rms          rms(c)
DAV:   1    -0.747863018337E+03   -0.57413E-01   -0.13887E+00  3520   0.125E+00    0.420E-01
DAV:   2    -0.747883345573E+03   -0.20327E-01   -0.25564E-01  4416   0.426E-01    0.107E+00
DAV:   3    -0.747862273671E+03    0.21072E-01   -0.12691E-01  4240   0.346E-01    0.157E-01
DAV:   4    -0.747862586070E+03   -0.31240E-03   -0.39376E-03  3392   0.923E-02    0.944E-02
DAV:   5    -0.747862551279E+03    0.34790E-04   -0.84873E-04  3536   0.555E-02    0.370E-02
DAV:   6    -0.747862566538E+03   -0.15259E-04   -0.21305E-04  2992   0.302E-02    0.149E-02
DAV:   7    -0.747862568625E+03   -0.20867E-05   -0.27865E-05  2832   0.118E-02
   9 F= -.74786257E+03 E0= -.74785233E+03  d E =-.569620E-01
       N       E                     dE             d eps       ncg     rms          rms(c)
DAV:   1    -0.747926683551E+03   -0.64117E-01   -0.17506E+00  3520   0.138E+00    0.493E-01
DAV:   2    -0.747956205288E+03   -0.29522E-01   -0.35522E-01  4448   0.503E-01    0.128E+00
DAV:   3    -0.747925334195E+03    0.30871E-01   -0.17490E-01  4240   0.408E-01    0.183E-01
DAV:   4    -0.747925797870E+03   -0.46368E-03   -0.55878E-03  3536   0.107E-01    0.107E-01
DAV:   5    -0.747925758616E+03    0.39254E-04   -0.12420E-03  3616   0.662E-02    0.448E-02
DAV:   6    -0.747925771403E+03   -0.12786E-04   -0.30232E-04  2992   0.363E-02    0.178E-02
DAV:   7    -0.747925774896E+03   -0.34931E-05   -0.38310E-05  2976   0.134E-02
  10 F= -.74792577E+03 E0= -.74791482E+03  d E =-.632063E-01
       N       E                     dE             d eps       ncg     rms          rms(c)
DAV:   1    -0.747995706897E+03   -0.69935E-01   -0.21508E+00  3520   0.152E+00    0.575E-01
DAV:   2    -0.748037561003E+03   -0.41854E-01   -0.47964E-01  4496   0.585E-01    0.151E+00
DAV:   3    -0.747993748586E+03    0.43812E-01   -0.23228E-01  4272   0.475E-01    0.209E-01
DAV:   4    -0.747994337838E+03   -0.58925E-03   -0.70235E-03  3616   0.119E-01    0.122E-01
DAV:   5    -0.747994291790E+03    0.46048E-04   -0.16970E-03  3680   0.758E-02    0.525E-02
DAV:   6    -0.747994298980E+03   -0.71903E-05   -0.42850E-04  3120   0.434E-02    0.201E-02
DAV:   7    -0.747994302783E+03   -0.38029E-05   -0.52034E-05  3008   0.158E-02
  11 F= -.74799430E+03 E0= -.74798248E+03  d E =-.685279E-01
       N       E                     dE             d eps       ncg     rms          rms(c)
DAV:   1    -0.748069003757E+03   -0.74705E-01   -0.25916E+00  3520   0.163E+00    0.648E-01
DAV:   2    -0.748123798994E+03   -0.54795E-01   -0.59993E-01  4544   0.652E-01    0.171E+00
DAV:   3    -0.748066270216E+03    0.57529E-01   -0.28661E-01  4336   0.529E-01    0.229E-01
DAV:   4    -0.748066927721E+03   -0.65750E-03   -0.76617E-03  3872   0.128E-01    0.135E-01
DAV:   5    -0.748066872620E+03    0.55101E-04   -0.20366E-03  3728   0.833E-02    0.591E-02
DAV:   6    -0.748066869765E+03    0.28548E-05   -0.56118E-04  3200   0.487E-02    0.218E-02
DAV:   7    -0.748066872655E+03   -0.28902E-05   -0.64471E-05  2992   0.180E-02
  12 F= -.74806687E+03 E0= -.74805412E+03  d E =-.725699E-01
       N       E                     dE             d eps       ncg     rms          rms(c)
DAV:   1    -0.748143958838E+03   -0.77089E-01   -0.30714E+00  3520   0.175E+00    0.707E-01
DAV:   2    -0.748209917656E+03   -0.65959E-01   -0.69410E-01  4528   0.698E-01    0.187E+00
DAV:   3    -0.748140649690E+03    0.69268E-01   -0.32822E-01  4464   0.575E-01    0.247E-01
DAV:   4    -0.748141351186E+03   -0.70150E-03   -0.82073E-03  3840   0.133E-01    0.147E-01
DAV:   5    -0.748141294874E+03    0.56312E-04   -0.23719E-03  3776   0.910E-02    0.635E-02
DAV:   6    -0.748141281003E+03    0.13871E-04   -0.69637E-04  3200   0.551E-02    0.236E-02
DAV:   7    -0.748141283177E+03   -0.21740E-05   -0.79200E-05  2992   0.204E-02
  13 F= -.74814128E+03 E0= -.74812766E+03  d E =-.744105E-01
       N       E                     dE             d eps       ncg     rms          rms(c)
DAV:   1    -0.748217581498E+03   -0.76300E-01   -0.35963E+00  3360   0.183E+00    0.743E-01
DAV:   2    -0.748288942004E+03   -0.71361E-01   -0.73006E-01  4480   0.715E-01    0.195E+00
DAV:   3    -0.748213764196E+03    0.75178E-01   -0.34464E-01  4448   0.597E-01    0.262E-01
DAV:   4    -0.748214461816E+03   -0.69762E-03   -0.88186E-03  3728   0.140E-01    0.156E-01
DAV:   5    -0.748214384412E+03    0.77404E-04   -0.26691E-03  3856   0.977E-02    0.632E-02
DAV:   6    -0.748214368070E+03    0.16341E-04   -0.76917E-04  3232   0.588E-02    0.255E-02
DAV:   7    -0.748214371488E+03   -0.34177E-05   -0.92656E-05  2992   0.220E-02
  14 F= -.74821437E+03 E0= -.74820009E+03  d E =-.730883E-01
       N       E                     dE             d eps       ncg     rms          rms(c)
DAV:   1    -0.748286604997E+03   -0.72237E-01   -0.41585E+00  3360   0.192E+00    0.754E-01
DAV:   2    -0.748355938941E+03   -0.69334E-01   -0.70214E-01  4448   0.717E-01    0.193E+00
DAV:   3    -0.748283250298E+03    0.72689E-01   -0.33294E-01  4416   0.599E-01    0.281E-01
DAV:   4    -0.748283701865E+03   -0.45157E-03   -0.90765E-03  3712   0.143E-01    0.166E-01
DAV:   5    -0.748283581478E+03    0.12039E-03   -0.26531E-03  3872   0.101E-01    0.573E-02
DAV:   6    -0.748283575353E+03    0.61251E-05   -0.76293E-04  3264   0.609E-02    0.268E-02
DAV:   7    -0.748283578681E+03   -0.33280E-05   -0.97076E-05  3008   0.233E-02
  15 F= -.74828358E+03 E0= -.74826898E+03  d E =-.692072E-01
       N       E                     dE             d eps       ncg     rms          rms(c)
DAV:   1    -0.748346663656E+03   -0.63088E-01   -0.47665E+00  3360   0.202E+00    0.743E-01
DAV:   2    -0.748406296779E+03   -0.59633E-01   -0.61440E-01  4320   0.700E-01    0.180E+00
DAV:   3    -0.748344782998E+03    0.61514E-01   -0.29300E-01  4352   0.578E-01    0.311E-01
DAV:   4    -0.748344741193E+03    0.41805E-04   -0.90635E-03  3648   0.145E-01    0.178E-01
DAV:   5    -0.748344610221E+03    0.13097E-03   -0.25856E-03  3888   0.102E-01    0.526E-02
DAV:   6    -0.748344606896E+03    0.33248E-05   -0.77301E-04  3312   0.643E-02    0.276E-02
DAV:   7    -0.748344610280E+03   -0.33839E-05   -0.99247E-05  3072   0.242E-02
  16 F= -.74834461E+03 E0= -.74833012E+03  d E =-.610316E-01
       N       E                     dE             d eps       ncg     rms          rms(c)
DAV:   1    -0.748395194736E+03   -0.50588E-01   -0.54304E+00  3360   0.211E+00    0.713E-01
DAV:   2    -0.748440104261E+03   -0.44910E-01   -0.48880E-01  4176   0.643E-01    0.156E+00
DAV:   3    -0.748395431714E+03    0.44673E-01   -0.23277E-01  4272   0.535E-01    0.334E-01
DAV:   4    -0.748394850047E+03    0.58167E-03   -0.91267E-03  3664   0.150E-01    0.186E-01
DAV:   5    -0.748394705158E+03    0.14489E-03   -0.24309E-03  3952   0.105E-01    0.507E-02
DAV:   6    -0.748394705722E+03   -0.56428E-06   -0.74569E-04  3264   0.645E-02    0.270E-02
DAV:   7    -0.748394711755E+03   -0.60321E-05   -0.90085E-05  3024   0.232E-02
  17 F= -.74839471E+03 E0= -.74838074E+03  d E =-.501015E-01
       N       E                     dE             d eps       ncg     rms          rms(c)
DAV:   1    -0.748430594618E+03   -0.35889E-01   -0.61462E+00  3360   0.220E+00    0.684E-01
DAV:   2    -0.748461044211E+03   -0.30450E-01   -0.36281E-01  4144   0.578E-01    0.125E+00
DAV:   3    -0.748433295826E+03    0.27748E-01   -0.16843E-01  4144   0.477E-01    0.349E-01
DAV:   4    -0.748432276108E+03    0.10197E-02   -0.90214E-03  3696   0.160E-01    0.192E-01
DAV:   5    -0.748432133707E+03    0.14240E-03   -0.22648E-03  3984   0.105E-01    0.492E-02
DAV:   6    -0.748432142258E+03   -0.85510E-05   -0.68431E-04  3248   0.615E-02    0.259E-02
DAV:   7    -0.748432150159E+03   -0.79012E-05   -0.84087E-05  3040   0.217E-02
  18 F= -.74843215E+03 E0= -.74841902E+03  d E =-.374384E-01
       N       E                     dE             d eps       ncg     rms          rms(c)
DAV:   1    -0.748451920028E+03   -0.19778E-01   -0.69272E+00  3360   0.228E+00    0.664E-01
DAV:   2    -0.748472222344E+03   -0.20302E-01   -0.26900E-01  4048   0.511E-01    0.933E-01
DAV:   3    -0.748457251032E+03    0.14971E-01   -0.11147E-01  4096   0.413E-01    0.353E-01
DAV:   4    -0.748456114280E+03    0.11368E-02   -0.90568E-03  3664   0.174E-01    0.195E-01
DAV:   5    -0.748455953862E+03    0.16042E-03   -0.20788E-03  3888   0.109E-01    0.465E-02
DAV:   6    -0.748455976575E+03   -0.22713E-04   -0.59776E-04  3200   0.560E-02    0.244E-02
DAV:   7    -0.748455985786E+03   -0.92106E-05   -0.78577E-05  3056   0.197E-02
  19 F= -.74845599E+03 E0= -.74844386E+03  d E =-.238356E-01
       N       E                     dE             d eps       ncg     rms          rms(c)
DAV:   1    -0.748461730386E+03   -0.57538E-02   -0.77682E+00  3360   0.238E+00    0.657E-01
DAV:   2    -0.748476877227E+03   -0.15147E-01   -0.21495E-01  3840   0.457E-01    0.701E-01
DAV:   3    -0.748469427289E+03    0.74499E-02   -0.74127E-02  4000   0.356E-01    0.350E-01
DAV:   4    -0.748468383727E+03    0.10436E-02   -0.87210E-03  3760   0.189E-01    0.189E-01
DAV:   5    -0.748468170210E+03    0.21352E-03   -0.19783E-03  3760   0.113E-01    0.426E-02
DAV:   6    -0.748468203105E+03   -0.32895E-04   -0.50994E-04  3184   0.497E-02    0.228E-02
DAV:   7    -0.748468212362E+03   -0.92569E-05   -0.75941E-05  3120   0.177E-02
  20 F= -.74846821E+03 E0= -.74845699E+03  d E =-.122266E-01
       N       E                     dE             d eps       ncg     rms          rms(c)
DAV:   1    -0.748463331633E+03    0.48715E-02   -0.86619E+00  3360   0.248E+00    0.668E-01
DAV:   2    -0.748477084599E+03   -0.13753E-01   -0.18801E-01  3792   0.423E-01    0.584E-01
DAV:   3    -0.748473257701E+03    0.38269E-02   -0.48815E-02  3968   0.312E-01    0.346E-01
DAV:   4    -0.748472356027E+03    0.90167E-03   -0.88316E-03  3808   0.205E-01    0.184E-01
DAV:   5    -0.748472071439E+03    0.28459E-03   -0.20149E-03  3552   0.121E-01    0.406E-02
DAV:   6    -0.748472100642E+03   -0.29203E-04   -0.43315E-04  3168   0.463E-02    0.215E-02
DAV:   7    -0.748472109125E+03   -0.84833E-05   -0.75411E-05  3168   0.165E-02
  21 F= -.74847211E+03 E0= -.74846156E+03  d E =-.389676E-02
       N       E                     dE             d eps       ncg     rms          rms(c)
DAV:   1    -0.748460311210E+03    0.11789E-01   -0.95777E+00  3360   0.258E+00    0.692E-01
DAV:   2    -0.748474772674E+03   -0.14461E-01   -0.18105E-01  3760   0.406E-01    0.540E-01
DAV:   3    -0.748472551163E+03    0.22215E-02   -0.29447E-02  3968   0.281E-01    0.345E-01
DAV:   4    -0.748471821328E+03    0.72984E-03   -0.89940E-03  3856   0.218E-01    0.182E-01
DAV:   5    -0.748471429490E+03    0.39184E-03   -0.21936E-03  3440   0.133E-01    0.404E-02
DAV:   6    -0.748471443025E+03   -0.13535E-04   -0.37971E-04  3136   0.463E-02    0.205E-02
DAV:   7    -0.748471450386E+03   -0.73610E-05   -0.74463E-05  3152   0.160E-02
  22 F= -.74847145E+03 E0= -.74846138E+03  d E =0.658739E-03
       N       E                     dE             d eps       ncg     rms          rms(c)
DAV:   1    -0.748456114387E+03    0.15329E-01   -0.10504E+01  3360   0.264E+00    0.720E-01
DAV:   2    -0.748470985282E+03   -0.14871E-01   -0.17898E-01  3744   0.390E-01    0.523E-01
DAV:   3    -0.748469577355E+03    0.14079E-02   -0.19764E-02  3984   0.256E-01    0.345E-01
DAV:   4    -0.748469053104E+03    0.52425E-03   -0.93176E-03  3904   0.227E-01    0.179E-01
DAV:   5    -0.748468551459E+03    0.50165E-03   -0.24466E-03  3360   0.144E-01    0.410E-02
DAV:   6    -0.748468551530E+03   -0.71450E-07   -0.34967E-04  3136   0.473E-02    0.196E-02
DAV:   7    -0.748468558242E+03   -0.67120E-05   -0.73224E-05  3136   0.156E-02
  23 F= -.74846856E+03 E0= -.74845889E+03  d E =0.289214E-02
       N       E                     dE             d eps       ncg     rms          rms(c)
DAV:   1    -0.748450837118E+03    0.17714E-01   -0.11422E+01  3360   0.267E+00    0.750E-01
DAV:   2    -0.748466707473E+03   -0.15870E-01   -0.18776E-01  3648   0.379E-01    0.519E-01
DAV:   3    -0.748465677721E+03    0.10298E-02   -0.15892E-02  4000   0.234E-01    0.342E-01
DAV:   4    -0.748465448029E+03    0.22969E-03   -0.94494E-03  3984   0.231E-01    0.175E-01
DAV:   5    -0.748464809306E+03    0.63872E-03   -0.28542E-03  3280   0.156E-01    0.418E-02
DAV:   6    -0.748464790714E+03    0.18591E-04   -0.33099E-04  3152   0.487E-02    0.193E-02
DAV:   7    -0.748464796851E+03   -0.61372E-05   -0.74236E-05  3200   0.153E-02
  24 F= -.74846480E+03 E0= -.74845551E+03  d E =0.376139E-02
       N       E                     dE             d eps       ncg     rms          rms(c)
DAV:   1    -0.748446006675E+03    0.18784E-01   -0.12294E+01  3360   0.270E+00    0.783E-01
DAV:   2    -0.748462317666E+03   -0.16311E-01   -0.19235E-01  3568   0.369E-01    0.525E-01
DAV:   3    -0.748461370852E+03    0.94681E-03   -0.13094E-02  4032   0.210E-01    0.338E-01
DAV:   4    -0.748461432110E+03   -0.61259E-04   -0.90871E-03  4064   0.228E-01    0.168E-01
DAV:   5    -0.748460715256E+03    0.71685E-03   -0.32482E-03  3376   0.166E-01    0.439E-02
DAV:   6    -0.748460676986E+03    0.38271E-04   -0.33231E-04  3136   0.511E-02    0.190E-02
DAV:   7    -0.748460682911E+03   -0.59256E-05   -0.74053E-05  3168   0.149E-02
  25 F= -.74846068E+03 E0= -.74845180E+03  d E =0.411394E-02
       N       E                     dE             d eps       ncg     rms          rms(c)
DAV:   1    -0.748441265698E+03    0.19411E-01   -0.13123E+01  3360   0.273E+00    0.815E-01
DAV:   2    -0.748458603314E+03   -0.17338E-01   -0.20280E-01  3552   0.365E-01    0.535E-01
DAV:   3    -0.748457629155E+03    0.97416E-03   -0.10732E-02  4048   0.185E-01    0.335E-01
DAV:   4    -0.748457945236E+03   -0.31608E-03   -0.80936E-03  4080   0.218E-01    0.157E-01
DAV:   5    -0.748457201816E+03    0.74342E-03   -0.35087E-03  3424   0.173E-01    0.450E-02
DAV:   6    -0.748457137942E+03    0.63874E-04   -0.34035E-04  3024   0.541E-02    0.192E-02
DAV:   7    -0.748457143989E+03   -0.60474E-05   -0.74478E-05  3152   0.144E-02
  26 F= -.74845714E+03 E0= -.74844870E+03  d E =0.353892E-02
       N       E                     dE             d eps       ncg     rms          rms(c)
DAV:   1    -0.748437021294E+03    0.20117E-01   -0.13943E+01  3360   0.274E+00    0.843E-01
DAV:   2    -0.748455193908E+03   -0.18173E-01   -0.21159E-01  3536   0.358E-01    0.547E-01
DAV:   3    -0.748454134545E+03    0.10594E-02   -0.87637E-03  3776   0.157E-01    0.333E-01
DAV:   4    -0.748454556174E+03   -0.42163E-03   -0.65192E-03  4032   0.193E-01    0.138E-01
DAV:   5    -0.748453965533E+03    0.59064E-03   -0.34527E-03  3552   0.172E-01    0.466E-02
DAV:   6    -0.748453865324E+03    0.10021E-03   -0.35876E-04  3088   0.584E-02    0.192E-02
DAV:   7    -0.748453870921E+03   -0.55972E-05   -0.65743E-05  3200   0.132E-02
  27 F= -.74845387E+03 E0= -.74844590E+03  d E =0.327307E-02
       N       E                     dE             d eps       ncg     rms          rms(c)
DAV:   1    -0.748433138957E+03    0.20726E-01   -0.14737E+01  3520   0.275E+00    0.872E-01
DAV:   2    -0.748452152534E+03   -0.19014E-01   -0.22025E-01  3536   0.351E-01    0.560E-01
DAV:   3    -0.748451014774E+03    0.11378E-02   -0.71809E-03  3536   0.125E-01    0.333E-01
DAV:   4    -0.748451318546E+03   -0.30377E-03   -0.44613E-03  3696   0.153E-01    0.113E-01
DAV:   5    -0.748451044532E+03    0.27401E-03   -0.28043E-03  3440   0.155E-01    0.467E-02
DAV:   6    -0.748450909912E+03    0.13462E-03   -0.39191E-04  3024   0.629E-02    0.194E-02
DAV:   7    -0.748450915057E+03   -0.51442E-05   -0.57595E-05  3248   0.120E-02
  28 F= -.74845092E+03 E0= -.74844347E+03  d E =0.295586E-02
       N       E                     dE             d eps       ncg     rms          rms(c)
DAV:   1    -0.748429778569E+03    0.21131E-01   -0.15502E+01  3520   0.275E+00    0.903E-01
DAV:   2    -0.748449474159E+03   -0.19696E-01   -0.22720E-01  3536   0.345E-01    0.573E-01
DAV:   3    -0.748448278266E+03    0.11959E-02   -0.61010E-03  3408   0.960E-02    0.333E-01
DAV:   4    -0.748448412906E+03   -0.13464E-03   -0.26360E-03  3328   0.101E-01    0.894E-02
DAV:   5    -0.748448398661E+03    0.14245E-04   -0.16058E-03  3152   0.115E-01    0.418E-02
DAV:   6    -0.748448285323E+03    0.11334E-03   -0.33113E-04  2960   0.585E-02    0.191E-02
DAV:   7    -0.748448288970E+03   -0.36469E-05   -0.37481E-05  3088   0.102E-02
  29 F= -.74844829E+03 E0= -.74844140E+03  d E =0.262609E-02
       N       E                     dE             d eps       ncg     rms          rms(c)
DAV:   1    -0.748426663404E+03    0.21622E-01   -0.16254E+01  3520   0.275E+00    0.928E-01
DAV:   2    -0.748447105894E+03   -0.20442E-01   -0.23482E-01  3520   0.340E-01    0.588E-01
DAV:   3    -0.748445904847E+03    0.12010E-02   -0.56245E-03  3520   0.740E-02    0.336E-01
DAV:   4    -0.748445947366E+03   -0.42519E-04   -0.16233E-03  3280   0.547E-02    0.751E-02
DAV:   5    -0.748445989207E+03   -0.41840E-04   -0.55135E-04  3168   0.602E-02    0.307E-02
DAV:   6    -0.748445958023E+03    0.31184E-04   -0.13678E-04  3008   0.369E-02    0.183E-02
DAV:   7    -0.748445959057E+03   -0.10339E-05   -0.18115E-05  2592   0.979E-03
  30 F= -.74844596E+03 E0= -.74843962E+03  d E =0.232991E-02
       N       E                     dE             d eps       ncg     rms          rms(c)
DAV:   1    -0.748424411779E+03    0.21546E-01   -0.17012E+01  3520   0.271E+00    0.956E-01
DAV:   2    -0.748445583644E+03   -0.21172E-01   -0.24240E-01  3504   0.335E-01    0.603E-01
DAV:   3    -0.748444374691E+03    0.12090E-02   -0.54962E-03  3456   0.696E-02    0.341E-01
DAV:   4    -0.748444390342E+03   -0.15651E-04   -0.13259E-03  3184   0.350E-02    0.722E-02
DAV:   5    -0.748444442010E+03   -0.51668E-04   -0.17488E-04  2912   0.165E-02    0.255E-02
DAV:   6    -0.748444441019E+03    0.99179E-06   -0.29914E-05  2688   0.121E-02
  31 F= -.74844444E+03 E0= -.74843857E+03  d E =0.151804E-02
       N       E                     dE             d eps       ncg     rms          rms(c)
DAV:   1    -0.748422172285E+03    0.22270E-01   -0.17740E+01  3520   0.270E+00    0.985E-01
DAV:   2    -0.748444151819E+03   -0.21980E-01   -0.25116E-01  3488   0.333E-01    0.619E-01
DAV:   3    -0.748442944758E+03    0.12071E-02   -0.55905E-03  3392   0.768E-02    0.347E-01
DAV:   4    -0.748442960988E+03   -0.16230E-04   -0.13279E-03  3168   0.426E-02    0.731E-02
DAV:   5    -0.748443027187E+03   -0.66199E-04   -0.17740E-04  2992   0.221E-02    0.258E-02
DAV:   6    -0.748443021300E+03    0.58867E-05   -0.27494E-05  2672   0.158E-02
  32 F= -.74844302E+03 E0= -.74843757E+03  d E =0.141972E-02
       N       E                     dE             d eps       ncg     rms          rms(c)
DAV:   1    -0.748420124467E+03    0.22903E-01   -0.18428E+01  3520   0.268E+00    0.101E+00
DAV:   2    -0.748442825284E+03   -0.22701E-01   -0.25911E-01  3456   0.336E-01    0.634E-01
DAV:   3    -0.748441616449E+03    0.12088E-02   -0.58855E-03  3440   0.896E-02    0.352E-01
DAV:   4    -0.748441636601E+03   -0.20153E-04   -0.13477E-03  3152   0.532E-02    0.742E-02
DAV:   5    -0.748441691735E+03   -0.55134E-04   -0.21760E-04  3040   0.320E-02    0.265E-02
DAV:   6    -0.748441682160E+03    0.95752E-05   -0.39287E-05  2752   0.209E-02
  33 F= -.74844168E+03 E0= -.74843646E+03  d E =0.133914E-02
       N       E                     dE             d eps       ncg     rms          rms(c)
DAV:   1    -0.748418330136E+03    0.23362E-01   -0.19170E+01  3520   0.267E+00    0.104E+00
DAV:   2    -0.748441990528E+03   -0.23660E-01   -0.27009E-01  3424   0.339E-01    0.649E-01
DAV:   3    -0.748440768065E+03    0.12225E-02   -0.60887E-03  3504   0.934E-02    0.359E-01
DAV:   4    -0.748440815493E+03   -0.47428E-04   -0.13780E-03  3104   0.553E-02    0.756E-02
DAV:   5    -0.748440871079E+03   -0.55586E-04   -0.22736E-04  3056   0.335E-02    0.270E-02
DAV:   6    -0.748440860850E+03    0.10230E-04   -0.39735E-05  2784   0.211E-02    0.148E-02
DAV:   7    -0.748440866272E+03   -0.54217E-05   -0.18235E-05  2528   0.106E-02
  34 F= -.74844087E+03 E0= -.74843576E+03  d E =0.815889E-03
       N       E                     dE             d eps       ncg     rms          rms(c)
DAV:   1    -0.748417117185E+03    0.23744E-01   -0.19834E+01  3520   0.266E+00    0.106E+00
DAV:   2    -0.748441596641E+03   -0.24479E-01   -0.27902E-01  3376   0.334E-01    0.663E-01
DAV:   3    -0.748440368737E+03    0.12279E-02   -0.62493E-03  3504   0.951E-02    0.364E-01
DAV:   4    -0.748440400864E+03   -0.32127E-04   -0.13888E-03  3056   0.567E-02    0.768E-02
DAV:   5    -0.748440466213E+03   -0.65349E-04   -0.23776E-04  3040   0.341E-02    0.273E-02
DAV:   6    -0.748440455183E+03    0.11030E-04   -0.39674E-05  2768   0.213E-02    0.149E-02
DAV:   7    -0.748440459538E+03   -0.43542E-05   -0.18039E-05  2528   0.105E-02
  35 F= -.74844046E+03 E0= -.74843541E+03  d E =0.406734E-03
       N       E                     dE             d eps       ncg     rms          rms(c)
DAV:   1    -0.748416080876E+03    0.24374E-01   -0.20447E+01  3520   0.261E+00    0.108E+00
DAV:   2    -0.748440880004E+03   -0.24799E-01   -0.28322E-01  3376   0.328E-01    0.676E-01
DAV:   3    -0.748439651719E+03    0.12283E-02   -0.64246E-03  3488   0.957E-02    0.369E-01
DAV:   4    -0.748439695181E+03   -0.43462E-04   -0.13973E-03  2992   0.577E-02    0.780E-02
DAV:   5    -0.748439752890E+03   -0.57709E-04   -0.24785E-04  3088   0.347E-02    0.276E-02
DAV:   6    -0.748439741500E+03    0.11390E-04   -0.39795E-05  2784   0.217E-02    0.150E-02
DAV:   7    -0.748439745499E+03   -0.39991E-05   -0.17859E-05  2544   0.105E-02
  36 F= -.74843975E+03 E0= -.74843471E+03  d E =0.714038E-03
       N       E                     dE             d eps       ncg     rms          rms(c)
DAV:   1    -0.748415208261E+03    0.24533E-01   -0.21118E+01  3520   0.257E+00    0.111E+00
DAV:   2    -0.748440657121E+03   -0.25449E-01   -0.29086E-01  3376   0.322E-01    0.689E-01
DAV:   3    -0.748439424950E+03    0.12322E-02   -0.65603E-03  3472   0.949E-02    0.375E-01
DAV:   4    -0.748439489594E+03   -0.64644E-04   -0.14388E-03  2992   0.577E-02    0.794E-02
DAV:   5    -0.748439542816E+03   -0.53222E-04   -0.24148E-04  3056   0.347E-02    0.279E-02
DAV:   6    -0.748439531500E+03    0.11316E-04   -0.40641E-05  2784   0.221E-02    0.149E-02
DAV:   7    -0.748439535024E+03   -0.35232E-05   -0.17525E-05  2480   0.107E-02
  37 F= -.74843954E+03 E0= -.74843451E+03  d E =0.210476E-03
       N       E                     dE             d eps       ncg     rms          rms(c)
DAV:   1    -0.748414720660E+03    0.24811E-01   -0.21705E+01  3520   0.253E+00    0.113E+00
DAV:   2    -0.748440778212E+03   -0.26058E-01   -0.29781E-01  3392   0.317E-01    0.702E-01
DAV:   3    -0.748439521331E+03    0.12569E-02   -0.67506E-03  3472   0.938E-02    0.381E-01
DAV:   4    -0.748439575040E+03   -0.53708E-04   -0.14415E-03  2992   0.574E-02    0.803E-02
DAV:   5    -0.748439634295E+03   -0.59255E-04   -0.24279E-04  3088   0.346E-02    0.281E-02
DAV:   6    -0.748439622893E+03    0.11402E-04   -0.40590E-05  2784   0.224E-02    0.149E-02
DAV:   7    -0.748439626151E+03   -0.32584E-05   -0.17412E-05  2480   0.108E-02
  38 F= -.74843963E+03 E0= -.74843460E+03  d E =-.911276E-04
       N       E                     dE             d eps       ncg     rms          rms(c)
DAV:   1    -0.748413885151E+03    0.25738E-01   -0.22267E+01  3520   0.250E+00    0.115E+00
DAV:   2    -0.748440503228E+03   -0.26618E-01   -0.30460E-01  3376   0.312E-01    0.714E-01
DAV:   3    -0.748439235317E+03    0.12679E-02   -0.69049E-03  3360   0.925E-02    0.385E-01
DAV:   4    -0.748439299953E+03   -0.64636E-04   -0.14655E-03  2960   0.567E-02    0.816E-02
DAV:   5    -0.748439356394E+03   -0.56441E-04   -0.24562E-04  3024   0.346E-02    0.285E-02
DAV:   6    -0.748439345174E+03    0.11220E-04   -0.41378E-05  2800   0.225E-02    0.149E-02
DAV:   7    -0.748439348290E+03   -0.31159E-05   -0.17266E-05  2448   0.110E-02
  39 F= -.74843935E+03 E0= -.74843432E+03  d E =0.277861E-03
       N       E                     dE             d eps       ncg     rms          rms(c)
DAV:   1    -0.748413617581E+03    0.25728E-01   -0.22801E+01  3520   0.247E+00    0.117E+00
DAV:   2    -0.748440797409E+03   -0.27180E-01   -0.31099E-01  3344   0.307E-01    0.725E-01
DAV:   3    -0.748439522930E+03    0.12745E-02   -0.70823E-03  3344   0.903E-02    0.390E-01
DAV:   4    -0.748439592896E+03   -0.69966E-04   -0.14679E-03  2864   0.557E-02    0.826E-02
DAV:   5    -0.748439646771E+03   -0.53875E-04   -0.24690E-04  3024   0.346E-02    0.288E-02
DAV:   6    -0.748439635690E+03    0.11081E-04   -0.40734E-05  2736   0.228E-02    0.149E-02
DAV:   7    -0.748439638763E+03   -0.30726E-05   -0.17578E-05  2480   0.112E-02
  40 F= -.74843964E+03 E0= -.74843459E+03  d E =-.290473E-03
       N       E                     dE             d eps       ncg     rms          rms(c)
DAV:   1    -0.748413330270E+03    0.26305E-01   -0.23327E+01  3520   0.244E+00    0.119E+00
DAV:   2    -0.748441108649E+03   -0.27778E-01   -0.31779E-01  3312   0.302E-01    0.735E-01
DAV:   3    -0.748439799291E+03    0.13094E-02   -0.72129E-03  3216   0.875E-02    0.394E-01
DAV:   4    -0.748439864961E+03   -0.65670E-04   -0.14829E-03  2848   0.550E-02    0.835E-02
DAV:   5    -0.748439928521E+03   -0.63560E-04   -0.24657E-04  3040   0.342E-02    0.291E-02
DAV:   6    -0.748439917681E+03    0.10840E-04   -0.40780E-05  2688   0.231E-02    0.148E-02
DAV:   7    -0.748439920572E+03   -0.28909E-05   -0.17464E-05  2480   0.114E-02
  41 F= -.74843992E+03 E0= -.74843485E+03  d E =-.281810E-03
       N       E                     dE             d eps       ncg     rms          rms(c)
DAV:   1    -0.748412562433E+03    0.27355E-01   -0.23756E+01  3520   0.240E+00    0.120E+00
DAV:   2    -0.748440773564E+03   -0.28211E-01   -0.32303E-01  3312   0.296E-01    0.746E-01
DAV:   3    -0.748439449889E+03    0.13237E-02   -0.73721E-03  3200   0.851E-02    0.399E-01
DAV:   4    -0.748439529497E+03   -0.79608E-04   -0.14886E-03  2848   0.541E-02    0.842E-02
DAV:   5    -0.748439589195E+03   -0.59698E-04   -0.24823E-04  3056   0.339E-02    0.295E-02
DAV:   6    -0.748439578627E+03    0.10568E-04   -0.41174E-05  2640   0.234E-02    0.148E-02
DAV:   7    -0.748439581507E+03   -0.28800E-05   -0.17471E-05  2480   0.115E-02
  42 F= -.74843958E+03 E0= -.74843448E+03  d E =0.339066E-03
       N       E                     dE             d eps       ncg     rms          rms(c)
DAV:   1    -0.748412419896E+03    0.27159E-01   -0.24221E+01  3520   0.236E+00    0.122E+00
DAV:   2    -0.748441180638E+03   -0.28761E-01   -0.32928E-01  3328   0.290E-01    0.754E-01
DAV:   3    -0.748439843482E+03    0.13372E-02   -0.74935E-03  3120   0.827E-02    0.402E-01
DAV:   4    -0.748439934660E+03   -0.91178E-04   -0.15065E-03  2800   0.532E-02    0.853E-02
DAV:   5    -0.748439995171E+03   -0.60510E-04   -0.24943E-04  3040   0.340E-02    0.298E-02
DAV:   6    -0.748439984857E+03    0.10313E-04   -0.41696E-05  2640   0.236E-02    0.149E-02
DAV:   7    -0.748439987640E+03   -0.27827E-05   -0.17511E-05  2464   0.117E-02
  43 F= -.74843999E+03 E0= -.74843483E+03  d E =-.406133E-03
       N       E                     dE             d eps       ncg     rms          rms(c)
DAV:   1    -0.748412086111E+03    0.27899E-01   -0.24646E+01  3520   0.233E+00    0.123E+00
DAV:   2    -0.748441399270E+03   -0.29313E-01   -0.33567E-01  3328   0.286E-01    0.762E-01
DAV:   3    -0.748440018368E+03    0.13809E-02   -0.75909E-03  3040   0.809E-02    0.406E-01
DAV:   4    -0.748440121267E+03   -0.10290E-03   -0.15255E-03  2800   0.528E-02    0.862E-02
DAV:   5    -0.748440191350E+03   -0.70084E-04   -0.25206E-04  3056   0.343E-02    0.301E-02
DAV:   6    -0.748440181136E+03    0.10215E-04   -0.42786E-05  2656   0.240E-02    0.150E-02
DAV:   7    -0.748440183791E+03   -0.26552E-05   -0.17691E-05  2448   0.120E-02
  44 F= -.74844018E+03 E0= -.74843495E+03  d E =-.196151E-03
       N       E                     dE             d eps       ncg     rms          rms(c)
DAV:   1    -0.748411288013E+03    0.28893E-01   -0.24923E+01  3520   0.231E+00    0.124E+00
DAV:   2    -0.748440936642E+03   -0.29649E-01   -0.33972E-01  3344   0.282E-01    0.770E-01
DAV:   3    -0.748439557268E+03    0.13794E-02   -0.77692E-03  2944   0.793E-02    0.409E-01
DAV:   4    -0.748439665270E+03   -0.10800E-03   -0.15251E-03  2800   0.527E-02    0.869E-02
DAV:   5    -0.748439728639E+03   -0.63369E-04   -0.25660E-04  3008   0.349E-02    0.304E-02
DAV:   6    -0.748439718400E+03    0.10239E-04   -0.44152E-05  2656   0.246E-02    0.153E-02
DAV:   7    -0.748439721011E+03   -0.26114E-05   -0.18025E-05  2448   0.122E-02
  45 F= -.74843972E+03 E0= -.74843438E+03  d E =0.462780E-03
       N       E                     dE             d eps       ncg     rms          rms(c)
DAV:   1    -0.748411171633E+03    0.28547E-01   -0.25306E+01  3520   0.227E+00    0.125E+00
DAV:   2    -0.748441335130E+03   -0.30163E-01   -0.34583E-01  3328   0.277E-01    0.776E-01
DAV:   3    -0.748439956908E+03    0.13782E-02   -0.78124E-03  2928   0.772E-02    0.412E-01
DAV:   4    -0.748440067282E+03   -0.11037E-03   -0.15441E-03  2816   0.524E-02    0.878E-02
DAV:   5    -0.748440134681E+03   -0.67399E-04   -0.26210E-04  3008   0.354E-02    0.307E-02
DAV:   6    -0.748440124482E+03    0.10199E-04   -0.45709E-05  2624   0.252E-02    0.156E-02
DAV:   7    -0.748440127032E+03   -0.25496E-05   -0.18297E-05  2464   0.124E-02
  46 F= -.74844013E+03 E0= -.74843466E+03  d E =-.406021E-03
       N       E                     dE             d eps       ncg     rms          rms(c)
DAV:   1    -0.748410711668E+03    0.29413E-01   -0.25487E+01  3520   0.224E+00    0.126E+00
DAV:   2    -0.748441111139E+03   -0.30399E-01   -0.34846E-01  3344   0.274E-01    0.783E-01
DAV:   3    -0.748439718630E+03    0.13925E-02   -0.79699E-03  2928   0.765E-02    0.415E-01
DAV:   4    -0.748439825115E+03   -0.10648E-03   -0.15416E-03  2816   0.528E-02    0.878E-02
DAV:   5    -0.748439904985E+03   -0.79870E-04   -0.26871E-04  2992   0.369E-02    0.310E-02
DAV:   6    -0.748439894253E+03    0.10732E-04   -0.47821E-05  2608   0.261E-02    0.161E-02
DAV:   7    -0.748439896664E+03   -0.24108E-05   -0.18809E-05  2448   0.125E-02
  47 F= -.74843990E+03 E0= -.74843429E+03  d E =0.230368E-03
       N       E                     dE             d eps       ncg     rms          rms(c)
DAV:   1    -0.748409584347E+03    0.30310E-01   -0.25899E+01  3520   0.223E+00    0.128E+00
DAV:   2    -0.748440686022E+03   -0.31102E-01   -0.35699E-01  3328   0.272E-01    0.784E-01
DAV:   3    -0.748439292207E+03    0.13938E-02   -0.79592E-03  2928   0.742E-02    0.416E-01
DAV:   4    -0.748439398633E+03   -0.10643E-03   -0.15759E-03  2784   0.525E-02    0.899E-02
DAV:   5    -0.748439469549E+03   -0.70916E-04   -0.27022E-04  3008   0.375E-02    0.312E-02
DAV:   6    -0.748439459338E+03    0.10211E-04   -0.49624E-05  2656   0.267E-02    0.164E-02
DAV:   7    -0.748439461704E+03   -0.23659E-05   -0.19055E-05  2432   0.128E-02
  48 F= -.74843946E+03 E0= -.74843368E+03  d E =0.434960E-03
       N       E                     dE             d eps       ncg     rms          rms(c)
DAV:   1    -0.748409718309E+03    0.29741E-01   -0.25454E+01  3520   0.218E+00    0.127E+00
DAV:   2    -0.748439881374E+03   -0.30163E-01   -0.34613E-01  3360   0.264E-01    0.799E-01
DAV:   3    -0.748438499632E+03    0.13817E-02   -0.84944E-03  2928   0.746E-02    0.420E-01
DAV:   4    -0.748438607180E+03   -0.10755E-03   -0.15067E-03  2768   0.530E-02    0.868E-02
DAV:   5    -0.748438669975E+03   -0.62795E-04   -0.28909E-04  2992   0.387E-02    0.318E-02
DAV:   6    -0.748438657714E+03    0.12262E-04   -0.52696E-05  2624   0.276E-02    0.169E-02
DAV:   7    -0.748438660455E+03   -0.27411E-05   -0.20124E-05  2480   0.127E-02
  49 F= -.74843866E+03 E0= -.74843273E+03  d E =0.801249E-03
       N       E                     dE             d eps       ncg     rms          rms(c)
DAV:   1    -0.748396795713E+03    0.41862E-01   -0.28234E+01  3520   0.223E+00    0.135E+00
DAV:   2    -0.748430793504E+03   -0.33998E-01   -0.41318E-01  3280   0.277E-01    0.752E-01
DAV:   3    -0.748429066458E+03    0.17270E-02   -0.72096E-03  2992   0.645E-02    0.405E-01
DAV:   4    -0.748429059002E+03    0.74560E-05   -0.21916E-03  2944   0.492E-02    0.105E-01
DAV:   5    -0.748429145649E+03   -0.86647E-04   -0.26035E-04  3104   0.359E-02    0.322E-02
DAV:   6    -0.748429147163E+03   -0.15144E-05   -0.66325E-05  2720   0.280E-02
  50 F= -.74842915E+03 E0= -.74842293E+03  d E =0.951329E-02
