 vasp.5.4.4.18Apr17-6-g9f103f2a35 (build Aug 09 2024 17:42:55) complex          
  
 executed on             LinuxIFC date 2025.12.26  00:41:42
 running on   64 total cores
 each image running on   16 cores
 distrk:  each k-point on   16 cores,    1 groups
 distr:  one band on NCORES_PER_BAND=   1 cores,   16 groups


--------------------------------------------------------------------------------------------------------


 INCAR:
 POTCAR:    PAW_PBE Hf_sv 10Jan2008 GW suitable   
 POTCAR:    PAW_PBE C 08Apr2002                   
 POTCAR:    PAW_PBE O 08Apr2002                   

 ----------------------------------------------------------------------------- 
|                                                                             |
|           W    W    AA    RRRRR   N    N  II  N    N   GGGG   !!!           |
|           W    W   A  A   R    R  NN   N  II  NN   N  G    G  !!!           |
|           W    W  A    A  R    R  N N  N  II  N N  N  G       !!!           |
|           W WW W  AAAAAA  RRRRR   N  N N  II  N  N N  G  GGG   !            |
|           WW  WW  A    A  R   R   N   NN  II  N   NN  G    G                |
|           W    W  A    A  R    R  N    N  II  N    N   GGGG   !!!           |
|                                                                             |
|      For optimal performance we recommend to set                            |
|        NCORE= 4 - approx SQRT( number of cores)                             |
|      NCORE specifies how many cores store one orbital (NPAR=cpu/NCORE).     |
|      This setting can  greatly improve the performance of VASP for DFT.     |
|      The default,   NCORE=1            might be grossly inefficient         |
|      on modern multi-core architectures or massively parallel machines.     |
|      Do your own testing !!!!                                               |
|      Unfortunately you need to use the default for GW and RPA calculations. |
|      (for HF NCORE is supported but not extensively tested yet)             |
|                                                                             |
 ----------------------------------------------------------------------------- 

 POTCAR:    PAW_PBE Hf_sv 10Jan2008 GW suitable   
  local pseudopotential read in
  partial core-charges read in
  partial kinetic energy density read in
  atomic valenz-charges read in
  non local Contribution for L=           0  read in
    real space projection operators read in
  non local Contribution for L=           0  read in
    real space projection operators read in
  non local Contribution for L=           1  read in
    real space projection operators read in
  non local Contribution for L=           1  read in
    real space projection operators read in
  non local Contribution for L=           2  read in
    real space projection operators read in
  non local Contribution for L=           2  read in
    real space projection operators read in
    PAW grid and wavefunctions read in
 
   number of l-projection  operators is LMAX  =           6
   number of lm-projection operators is LMMAX =          18
 
 POTCAR:    PAW_PBE C 08Apr2002                   
  local pseudopotential read in
  partial core-charges read in
  partial kinetic energy density read in
  atomic valenz-charges read in
  non local Contribution for L=           0  read in
    real space projection operators read in
  non local Contribution for L=           0  read in
    real space projection operators read in
  non local Contribution for L=           1  read in
    real space projection operators read in
  non local Contribution for L=           1  read in
    real space projection operators read in
    PAW grid and wavefunctions read in
 
   number of l-projection  operators is LMAX  =           4
   number of lm-projection operators is LMMAX =           8
 
 POTCAR:    PAW_PBE O 08Apr2002                   
  local pseudopotential read in
  partial core-charges read in
  partial kinetic energy density read in
  kinetic energy density of atom read in
  atomic valenz-charges read in
  non local Contribution for L=           0  read in
    real space projection operators read in
  non local Contribution for L=           0  read in
    real space projection operators read in
  non local Contribution for L=           1  read in
    real space projection operators read in
  non local Contribution for L=           1  read in
    real space projection operators read in
    PAW grid and wavefunctions read in
 
   number of l-projection  operators is LMAX  =           4
   number of lm-projection operators is LMMAX =           8
 
 Optimization of the real space projectors (new method)

 maximal supplied QI-value         = 15.68
 optimisation between [QCUT,QGAM] = [ 11.61, 23.21] = [ 37.72,150.90] Ry 
 Optimized for a Real-space Cutoff    1.36 Angstroem

   l    n(q)    QCUT    max X(q) W(low)/X(q) W(high)/X(q)  e(spline) 
   0      9    11.607     5.470    0.13E-04    0.45E-05    0.57E-08
   0      9    11.607     5.281    0.11E-03    0.46E-04    0.81E-07
   1      9    11.607     3.359    0.52E-04    0.11E-03    0.11E-06
   1      9    11.607     5.307    0.35E-03    0.51E-03    0.48E-06
   2      8    11.607     9.057    0.26E-03    0.45E-04    0.27E-06
   2      8    11.607     6.147    0.23E-03    0.33E-04    0.24E-06
 Optimization of the real space projectors (new method)

 maximal supplied QI-value         = 25.13
 optimisation between [QCUT,QGAM] = [ 11.56, 23.12] = [ 37.43,149.72] Ry 
 Optimized for a Real-space Cutoff    1.04 Angstroem

   l    n(q)    QCUT    max X(q) W(low)/X(q) W(high)/X(q)  e(spline) 
   0      7    11.561   115.676    0.20E-03    0.60E-03    0.21E-06
   0      7    11.561    87.132    0.20E-03    0.59E-03    0.21E-06
   1      7    11.561     4.429    0.23E-03    0.35E-03    0.15E-06
   1      7    11.561     2.733    0.18E-03    0.25E-03    0.12E-06
 Optimization of the real space projectors (new method)

 maximal supplied QI-value         = 24.76
 optimisation between [QCUT,QGAM] = [ 11.64, 23.27] = [ 37.91,151.63] Ry 
 Optimized for a Real-space Cutoff    1.04 Angstroem

   l    n(q)    QCUT    max X(q) W(low)/X(q) W(high)/X(q)  e(spline) 
   0      7    11.635    20.381    0.14E-03    0.49E-03    0.18E-06
   0      7    11.635    15.268    0.16E-03    0.52E-03    0.19E-06
   1      7    11.635     5.964    0.30E-03    0.44E-03    0.22E-06
   1      7    11.635     5.382    0.27E-03    0.34E-03    0.19E-06
  PAW_PBE Hf_sv 10Jan2008 GW suitable   :
 energy of atom  1       EATOM=-1349.7602
 kinetic energy error for atom=    0.0057 (will be added to EATOM!!)
  PAW_PBE C 08Apr2002                   :
 energy of atom  2       EATOM= -147.1560
 kinetic energy error for atom=    0.0071 (will be added to EATOM!!)
  PAW_PBE O 08Apr2002                   :
 energy of atom  3       EATOM= -432.3788
 kinetic energy error for atom=    0.0208 (will be added to EATOM!!)
 
 
 POSCAR: 00                                      
  positions in direct lattice
  No initial velocities read in
 exchange correlation table for  LEXCH =        8
   RHO(1)=    0.500       N(1)  =     2000
   RHO(2)=  100.500       N(2)  =     4000

 VTST: version 3.2, (02/03/18)

 CHAIN: initializing optimizer
 
 OPT: Using Quick-Min optimizer
 OPT: QM, Init
 OPT: QM, MAXMOVE       0.200000
 OPT: QM, TIMESTEP      0.010000
 
 CHAIN: Read ICHAIN            0
 CHAIN: Running the NEB
 NEB:          SPRING     -5.000000
 NEB:          LCLIMB      F
 NEB:     LTANGENTOLD      F
 NEB:           LDNEB      F
 NEB:        LDNEBORG      F
 NEB:        LNEBCELL      F
 NEB:          EFIRST      0.000000
 NEB:           ELAST      0.000000
 
 POSCAR: Hf   C    O                             
  positions in direct lattice
  No initial velocities read in
 
 POSCAR: Hf   C    O                             
  positions in direct lattice
  No initial velocities read in
 


--------------------------------------------------------------------------------------------------------


 ion  position               nearest neighbor table
   1  0.001  0.999  0.313-  38 2.22  35 2.31  52 2.31  36 2.33  43 2.33  23 3.23   8 3.23  10 3.24
                             7 3.24  16 3.25  18 3.27  26 3.28   2 3.28
   2  0.251  0.249  0.313-  37 2.22  35 2.31  44 2.31  36 2.33  51 2.33  15 3.23   8 3.23   7 3.24
                            17 3.24  24 3.25   9 3.27  25 3.28   1 3.28
   3  0.000  0.250  0.000-  40 2.32  34 2.32  33 2.32  41 2.32  50 2.32   6 3.29  14 3.29  21 3.29
                             5 3.29  20 3.29  12 3.29  28 3.29   4 3.29
   4  0.250  0.000  0.000-  39 2.32  34 2.32  33 2.32  42 2.32  49 2.32   6 3.29  13 3.29  22 3.29
                             5 3.29  19 3.29  11 3.29  27 3.29   3 3.29
   5  0.000  0.000  0.106-  38 2.32  34 2.32  39 2.32  40 2.32  47 2.32  56 2.32   8 3.26  16 3.26
                             7 3.26  23 3.26  19 3.29   4 3.29  12 3.29   3 3.29   6 3.29  30 3.29
   6  0.250  0.250  0.106-  37 2.32  33 2.32  39 2.32  40 2.32  48 2.32  55 2.32   8 3.25  24 3.26
                             7 3.26  15 3.26  20 3.29   4 3.29  11 3.29   3 3.29   5 3.29  29 3.29
   7  0.000  0.250  0.210-  40 2.29  45 2.32  54 2.32  37 2.32  38 2.33  36 2.34  10 3.23  17 3.23
                             2 3.24   1 3.24   6 3.26   5 3.26  21 3.26  14 3.27   8 3.28  24 3.30
   8  0.250  0.000  0.210-  39 2.28  37 2.32  38 2.32  46 2.33  53 2.33  35 2.35   9 3.23  18 3.23
                             1 3.23   2 3.23   6 3.25   5 3.26  13 3.26  22 3.26   7 3.28  15 3.28
   9  0.499  1.000  0.312-  46 2.23  60 2.26  35 2.32  44 2.33  43 2.34  31 3.23   8 3.23  15 3.23
                            16 3.25  10 3.25   2 3.27  18 3.27  26 3.28
  10  0.751  0.242  0.312-  45 2.20  43 2.26  36 2.32  44 2.34  59 2.88  16 3.19   7 3.23  15 3.24
                             1 3.24   9 3.25  32 3.28  25 3.36  17 3.38
  11  0.500  0.250  0.000-  48 2.32  41 2.32  42 2.32  33 2.32  58 2.32  13 3.29  14 3.29  29 3.29
                             6 3.29  20 3.29  28 3.29   4 3.29  12 3.29
  12  0.750  0.000  0.000-  47 2.32  41 2.32  42 2.32  34 2.32  57 2.32  13 3.29  14 3.29  30 3.29
                             5 3.29  19 3.29  27 3.29   3 3.29  11 3.29
  13  0.500  0.000  0.106-  46 2.31  42 2.32  39 2.32  47 2.32  48 2.32  64 2.32   8 3.26  16 3.26
                            15 3.26  31 3.27  27 3.29  12 3.29   4 3.29  11 3.29  30 3.29  14 3.29
  14  0.750  0.250  0.106-  41 2.32  40 2.32  47 2.32  48 2.32  63 2.32  45 2.34  15 3.26   7 3.27
                            16 3.27  11 3.29  28 3.29  12 3.29   3 3.29   5 3.29  29 3.29  13 3.29
  15  0.500  0.250  0.210-  48 2.29  46 2.32  37 2.32  62 2.32  45 2.33  44 2.34   2 3.23   9 3.23
                            10 3.24  14 3.26  13 3.26  29 3.26   6 3.26  25 3.27  24 3.28   8 3.28
  16  0.750  0.999  0.210-  47 2.28  61 2.31  46 2.32  38 2.32  45 2.34  43 2.36  10 3.19   9 3.25
                            30 3.25   1 3.25  26 3.25   5 3.26  13 3.26  14 3.27  31 3.28  23 3.28
  17  0.008  0.499  0.312-  54 2.20  51 2.26  36 2.32  52 2.34  59 2.87  24 3.19   7 3.23  23 3.24
                             2 3.24  18 3.25  32 3.28  26 3.36  10 3.38
  18  0.250  0.751  0.312-  53 2.23  60 2.26  35 2.32  52 2.33  51 2.34  31 3.23  23 3.23   8 3.23
                            24 3.25  17 3.25   1 3.27   9 3.27  25 3.28
  19  0.000  0.750  0.000-  56 2.32  49 2.32  50 2.32  34 2.32  57 2.32  21 3.29  22 3.29  30 3.29
                             5 3.29  12 3.29  28 3.29  20 3.29   4 3.29
  20  0.250  0.500  0.000-  55 2.32  49 2.32  50 2.32  33 2.32  58 2.32  21 3.29  22 3.29  29 3.29
                             6 3.29  11 3.29  27 3.29  19 3.29   3 3.29
  21  0.000  0.500  0.106-  50 2.32  40 2.32  55 2.32  56 2.32  63 2.32  54 2.34  23 3.26   7 3.26
                            24 3.27  19 3.29  28 3.29  20 3.29   3 3.29  22 3.29  30 3.29   6 3.29
  22  0.250  0.750  0.106-  53 2.31  49 2.32  39 2.32  55 2.32  56 2.32  64 2.32  24 3.26   8 3.26
                            23 3.26  31 3.27  27 3.29  20 3.29   4 3.29  19 3.29  29 3.29   5 3.29
  23  0.000  0.750  0.210-  56 2.29  53 2.32  38 2.32  61 2.32  54 2.33  52 2.34   1 3.23  18 3.23
                            17 3.24  22 3.26   5 3.26  21 3.26  30 3.27  26 3.27  16 3.28   8 3.29
  24  0.252  0.500  0.210-  55 2.28  62 2.31  53 2.32  37 2.32  54 2.34  51 2.36  17 3.19  18 3.25
                            29 3.25   2 3.25  25 3.25   6 3.26  22 3.26  21 3.27  31 3.28  15 3.28
  25  0.499  0.500  0.314-  62 2.27  51 2.30  44 2.32  60 2.38  59 2.79  32 3.25  24 3.25  31 3.26
                            15 3.27   2 3.28  18 3.28  26 3.31  10 3.36
  26  0.750  0.751  0.315-  61 2.27  43 2.30  52 2.32  60 2.39  59 2.77  32 3.25  16 3.25  31 3.26
                            23 3.27   1 3.28   9 3.28  25 3.31  17 3.36
  27  0.500  0.750  0.000-  64 2.32  49 2.32  57 2.32  58 2.32  42 2.32  22 3.29  29 3.29  30 3.29
                            13 3.29  28 3.29   4 3.29  20 3.29  12 3.29
  28  0.750  0.500  0.000-  63 2.32  50 2.32  57 2.32  58 2.32  41 2.32  21 3.29  29 3.29  30 3.29
                            14 3.29  27 3.29   3 3.29  19 3.29  11 3.29
  29  0.500  0.500  0.106-  62 2.31  58 2.32  48 2.32  55 2.32  63 2.32  64 2.32  24 3.25  15 3.26
                            31 3.27  32 3.27  20 3.29  11 3.29  27 3.29  28 3.29   6 3.29  14 3.29
  30  0.750  0.750  0.106-  61 2.32  57 2.32  47 2.32  56 2.32  63 2.32  64 2.32  16 3.25  23 3.27
                            31 3.27  32 3.27  19 3.29  12 3.29  27 3.29  28 3.29   5 3.29  13 3.29
  31  0.501  0.750  0.210-  60 2.28  64 2.30  62 2.32  61 2.32  46 2.33  53 2.33   9 3.23  18 3.23
                            25 3.26  26 3.26  32 3.26  30 3.27  29 3.27  13 3.27  22 3.27  16 3.28
  32  0.748  0.502  0.211-  62 2.31  61 2.31  63 2.32  54 2.34  45 2.34  25 3.25  26 3.25  31 3.26
                            30 3.27  29 3.27  17 3.28  10 3.28  15 3.29  23 3.29  21 3.29  14 3.29
  33  0.250  0.250  0.000-   6 2.32   4 2.32   3 2.32  11 2.32  20 2.32
  34  0.000  0.000  0.000-   5 2.32   4 2.32   3 2.32  12 2.32  19 2.32
  35  0.250  0.001  0.316-   1 2.31   2 2.31   9 2.32  18 2.32   8 2.35
  36  0.001  0.250  0.317-  10 2.32  17 2.32   2 2.33   1 2.33   7 2.34
  37  0.251  0.250  0.211-   2 2.22  15 2.32   6 2.32   8 2.32  24 2.32   7 2.32
  38  0.000  1.000  0.211-   1 2.22  23 2.32   5 2.32   8 2.32  16 2.32   7 2.33
  39  0.250  0.000  0.106-   8 2.28   4 2.32   6 2.32   5 2.32  13 2.32  22 2.32
  40  0.000  0.250  0.106-   7 2.29   3 2.32   6 2.32   5 2.32  14 2.32  21 2.32
  41  0.750  0.250  0.000-  14 2.32  11 2.32  12 2.32   3 2.32  28 2.32
  42  0.500  0.000  0.000-  13 2.32  11 2.32  12 2.32   4 2.32  27 2.32
  43  0.751  0.999  0.317-  10 2.26  26 2.30   1 2.33   9 2.34  16 2.36
  44  0.499  0.251  0.317-   2 2.31  25 2.32   9 2.33  10 2.34  15 2.34
  45  0.750  0.250  0.212-  10 2.20   7 2.32  15 2.33  14 2.34  32 2.34  16 2.34
  46  0.500  0.000  0.211-   9 2.23  13 2.31  15 2.32  16 2.32   8 2.33  31 2.33
  47  0.750  0.000  0.106-  16 2.28  12 2.32  13 2.32  14 2.32   5 2.32  30 2.32
  48  0.500  0.250  0.106-  15 2.29  11 2.32  13 2.32  14 2.32   6 2.32  29 2.32
  49  0.250  0.750  0.000-  22 2.32  19 2.32  20 2.32   4 2.32  27 2.32
  50  0.000  0.500  0.000-  21 2.32  19 2.32  20 2.32   3 2.32  28 2.32
  51  0.252  0.500  0.317-  17 2.26  25 2.30   2 2.33  18 2.34  24 2.36
  52  0.999  0.751  0.317-   1 2.31  26 2.32  18 2.33  17 2.34  23 2.34
  53  0.250  0.750  0.211-  18 2.23  22 2.31  23 2.32  24 2.32   8 2.33  31 2.33
  54  1.000  0.500  0.212-  17 2.20   7 2.32  23 2.33  21 2.34  32 2.34  24 2.34
  55  0.250  0.500  0.106-  24 2.28  20 2.32  21 2.32  22 2.32   6 2.32  29 2.32
  56  0.000  0.750  0.106-  23 2.29  19 2.32  21 2.32  22 2.32   5 2.32  30 2.32
  57  0.750  0.750  0.000-  30 2.32  19 2.32  27 2.32  28 2.32  12 2.32
  58  0.500  0.500  0.000-  29 2.32  20 2.32  27 2.32  28 2.32  11 2.32
  59  0.750  0.502  0.383-  65 1.43  26 2.77  25 2.79  17 2.87  10 2.88
  60  0.494  0.756  0.314-  18 2.26   9 2.26  31 2.28  25 2.38  26 2.39
  61  0.751  0.750  0.211-  26 2.27  16 2.31  32 2.31  30 2.32  23 2.32  31 2.32
  62  0.500  0.500  0.211-  25 2.27  24 2.31  32 2.31  29 2.31  15 2.32  31 2.32
  63  0.750  0.500  0.106-  32 2.32  28 2.32  14 2.32  29 2.32  30 2.32  21 2.32
  64  0.500  0.750  0.106-  31 2.30  27 2.32  13 2.32  29 2.32  30 2.32  22 2.32
  65  0.682  0.570  0.434-  59 1.43
 

IMPORTANT INFORMATION: All symmetrisations will be switched off!
NOSYMM: (Re-)initialisation of all symmetry stuff for point group C_1.

 
 
 KPOINTS: Automatic mesh                          

Automatic generation of k-mesh.
Space group operators:
 irot       det(A)        alpha          n_x          n_y          n_z        tau_x        tau_y        tau_z
    1     1.000000     0.000000     1.000000     0.000000     0.000000     0.000000     0.000000     0.000000
 
 Subroutine IBZKPT returns following result:
 ===========================================
 
 Found      5 irreducible k-points:
 
 Following reciprocal coordinates:
            Coordinates               Weight
  0.000000  0.000000  0.000000      1.000000
  0.333333  0.000000  0.000000      2.000000
  0.000000  0.333333  0.000000      2.000000
  0.333333  0.333333  0.000000      2.000000
 -0.333333  0.333333  0.000000      2.000000
 
 Following cartesian coordinates:
            Coordinates               Weight
  0.000000  0.000000  0.000000      1.000000
  0.035862  0.000000  0.000000      2.000000
  0.000000  0.035862  0.000000      2.000000
  0.035862  0.035862  0.000000      2.000000
 -0.035862  0.035862  0.000000      2.000000
 


--------------------------------------------------------------------------------------------------------




 Dimension of arrays:
   k-points           NKPTS =      5   k-points in BZ     NKDIM =      5   number of bands    NBANDS=    320
   number of dos      NEDOS =    301   number of ions     NIONS =     65
   non local maximal  LDIM  =      6   non local SUM 2l+1 LMDIM =     18
   total plane-waves  NPLWV = 367416
   max r-space proj   IRMAX =   2102   max aug-charges    IRDMAX=   7505
   dimension x,y,z NGX =    54 NGY =   54 NGZ =  126
   dimension x,y,z NGXF=   108 NGYF=  108 NGZF=  252
   support grid    NGXF=   108 NGYF=  108 NGZF=  252
   ions per type =              32  32   1
   NGX,Y,Z   is equivalent  to a cutoff of   9.66,  9.66,  9.53 a.u.
   NGXF,Y,Z  is equivalent  to a cutoff of  19.32, 19.32, 19.07 a.u.

 SYSTEM =  PBE-grap                                
 POSCAR =  00                                      

 Startparameter for this run:
   NWRITE =      0    write-flag & timer
   PREC   = normal    normal or accurate (medium, high low for compatibility)
   ISTART =      0    job   : 0-new  1-cont  2-samecut
   ICHARG =      2    charge: 1-file 2-atom 10-const
   ISPIN  =      1    spin polarized calculation?
   LNONCOLLINEAR =      F non collinear calculations
   LSORBIT =      F    spin-orbit coupling
   INIWAV =      1    electr: 0-lowe 1-rand  2-diag
   LASPH  =      F    aspherical Exc in radial PAW
   METAGGA=      F    non-selfconsistent MetaGGA calc.

 Electronic Relaxation 1
   ENCUT  =  520.0 eV  38.22 Ry    6.18 a.u.  17.28 17.28 40.85*2*pi/ulx,y,z
   ENINI  =  520.0     initial cutoff
   ENAUG  =  644.9 eV  augmentation charge cutoff
   NELM   =    150;   NELMIN=  4; NELMDL= -5     # of ELM steps 
   EDIFF  = 0.1E-04   stopping-criterion for ELM
   LREAL  =      T    real-space projection
   NLSPLINE    = F    spline interpolate recip. space projectors
   LCOMPAT=      F    compatible to vasp.4.4
   GGA_COMPAT  = T    GGA compatible to vasp.4.4-vasp.4.6
   LMAXPAW     = -100 max onsite density
   LMAXMIX     =    2 max onsite mixed and CHGCAR
   VOSKOWN=      0    Vosko Wilk Nusair interpolation
   ROPT   =   -0.00050  -0.00050  -0.00050
 Ionic relaxation
   EDIFFG = -.1E-01   stopping-criterion for IOM
   NSW    =     50    number of steps for IOM
   NBLOCK =      1;   KBLOCK =     50    inner block; outer block 
   IBRION =      3    ionic relax: 0-MD 1-quasi-New 2-CG
   NFREE  =      0    steps in history (QN), initial steepest desc. (CG)
   ISIF   =      2    stress and relaxation
   IWAVPR =     11    prediction:  0-non 1-charg 2-wave 3-comb
   ISYM   =      0    0-nonsym 1-usesym 2-fastsym
   LCORR  =      T    Harris-Foulkes like correction to forces

   POTIM  = 0.0000    time-step for ionic-motion
   TEIN   =    0.0    initial temperature
   TEBEG  =    0.0;   TEEND  =   0.0 temperature during run
   SMASS  =  -3.00    Nose mass-parameter (am)
   estimated Nose-frequenzy (Omega)   =  0.10E-29 period in steps =  0.00 mass=  -0.197E-26a.u.
   SCALEE = 1.0000    scale energy and forces
   NPACO  =    256;   APACO  = 16.0  distance and # of slots for P.C.
   PSTRESS=    0.0 pullay stress

  Mass of Ions in am
   POMASS = 178.49 12.01 16.00
  Ionic Valenz
   ZVAL   =  12.00  4.00  6.00
  Atomic Wigner-Seitz radii
   RWIGS  =  -1.00 -1.00 -1.00
  virtual crystal weights 
   VCA    =   1.00  1.00  1.00
   NELECT =     518.0000    total number of electrons
   NUPDOWN=      -1.0000    fix difference up-down

 DOS related values:
   EMIN   =  10.00;   EMAX   =-10.00  energy-range for DOS
   EFERMI =   0.00
   ISMEAR =     0;   SIGMA  =   0.05  broadening in eV -4-tet -1-fermi 0-gaus

 Electronic relaxation 2 (details)
   IALGO  =     38    algorithm
   LDIAG  =      T    sub-space diagonalisation (order eigenvalues)
   LSUBROT=      F    optimize rotation matrix (better conditioning)
   TURBO    =      0    0=normal 1=particle mesh
   IRESTART =      0    0=no restart 2=restart with 2 vectors
   NREBOOT  =      0    no. of reboots
   NMIN     =      0    reboot dimension
   EREF     =   0.00    reference energy to select bands
   IMIX   =      4    mixing-type and parameters
     AMIX     =   0.40;   BMIX     =  1.00
     AMIX_MAG =   1.60;   BMIX_MAG =  1.00
     AMIN     =   0.10
     WC   =   100.;   INIMIX=   1;  MIXPRE=   1;  MAXMIX= -45

 Intra band minimization:
   WEIMIN = 0.0010     energy-eigenvalue tresh-hold
   EBREAK =  0.78E-08  absolut break condition
   DEPER  =   0.30     relativ break condition  

   TIME   =   0.40     timestep for ELM

  volume/ion in A,a.u.               =      29.20       197.07
  Fermi-wavevector in a.u.,A,eV,Ry     =   1.061877  2.006656 15.341689  1.127582
  Thomas-Fermi vector in A             =   2.197308
 
 Write flags
   LWAVE        =      F    write WAVECAR
   LDOWNSAMPLE  =      F    k-point downsampling of WAVECAR
   LCHARG       =      F    write CHGCAR
   LVTOT        =      F    write LOCPOT, total local potential
   LVHAR        =      F    write LOCPOT, Hartree potential only
   LELF         =      F    write electronic localiz. function (ELF)
   LORBIT       =      0    0 simple, 1 ext, 2 COOP (PROOUT), +10 PAW based schemes


 Dipole corrections
   LMONO  =      F    monopole corrections only (constant potential shift)
   LDIPOL =      F    correct potential (dipole corrections)
   IDIPOL =      0    1-x, 2-y, 3-z, 4-all directions 
   EPSILON=  1.0000000 bulk dielectric constant

 Exchange correlation treatment:
   GGA     =    PE    GGA type
   LEXCH   =     8    internal setting for exchange type
   VOSKOWN=      0    Vosko Wilk Nusair interpolation
   LHFCALC =     F    Hartree Fock is set to
   LHFONE  =     F    Hartree Fock one center treatment
   AEXX    =    0.0000 exact exchange contribution

 Linear response parameters
   LEPSILON=     F    determine dielectric tensor
   LRPA    =     F    only Hartree local field effects (RPA)
   LNABLA  =     F    use nabla operator in PAW spheres
   LVEL    =     F    velocity operator in full k-point grid
   LINTERFAST=   F  fast interpolation
   KINTER  =     0    interpolate to denser k-point grid
   CSHIFT  =0.1000    complex shift for real part using Kramers Kronig
   OMEGAMAX=  -1.0    maximum frequency
   DEG_THRESHOLD= 0.2000000E-02 threshold for treating states as degnerate
   RTIME   =   -0.100 relaxation time in fs
  (WPLASMAI=    0.000 imaginary part of plasma frequency in eV, 0.658/RTIME)
   DFIELD  = 0.0000000 0.0000000 0.0000000 field for delta impulse in time
 
 Orbital magnetization related:
   ORBITALMAG=     F  switch on orbital magnetization
   LCHIMAG   =     F  perturbation theory with respect to B field
   DQ        =  0.001000  dq finite difference perturbation B field
   LLRAUG    =     F  two centre corrections for induced B field



--------------------------------------------------------------------------------------------------------


 quickmin algorithm: (dynamic with friction)
   using selective dynamics as specified on POSCAR
 charge density and potential will be updated during run
 non-spin polarized calculation
 Variant of blocked Davidson
 Davidson routine will perform the subspace rotation
 perform sub-space diagonalisation
    after iterative eigenvector-optimisation
 modified Broyden-mixing scheme, WC =      100.0
 initial mixing is a Kerker type mixing with AMIX =  0.4000 and BMIX =      1.0000
 Hartree-type preconditioning will be used
 using additional bands           61
 real space projection scheme for non local part
 use partial core corrections
 calculate Harris-corrections to forces 
   (improved forces if not selfconsistent)
 use gradient corrections 
 use of overlap-Matrix (Vanderbilt PP)
 Gauss-broadening in eV      SIGMA  =   0.05


--------------------------------------------------------------------------------------------------------


  energy-cutoff  :      520.00
  volume of cell :     1898.16
      direct lattice vectors                 reciprocal lattice vectors
     9.294799805  0.000000000  0.000000000     0.107587040  0.000000000  0.000000000
     0.000000000  9.294799805  0.000000000     0.000000000  0.107587040  0.000000000
     0.000000000  0.000000000 21.971099854     0.000000000  0.000000000  0.045514335

  length of vectors
     9.294799805  9.294799805 21.971099854     0.107587040  0.107587040  0.045514335


 
 k-points in units of 2pi/SCALE and weight: Automatic mesh                          
   0.00000000  0.00000000  0.00000000       0.111
   0.03586235  0.00000000  0.00000000       0.222
   0.00000000  0.03586235  0.00000000       0.222
   0.03586235  0.03586235  0.00000000       0.222
  -0.03586235  0.03586235  0.00000000       0.222
 
 k-points in reciprocal lattice and weights: Automatic mesh                          
   0.00000000  0.00000000  0.00000000       0.111
   0.33333333  0.00000000  0.00000000       0.222
   0.00000000  0.33333333  0.00000000       0.222
   0.33333333  0.33333333  0.00000000       0.222
  -0.33333333  0.33333333  0.00000000       0.222
 
 position of ions in fractional coordinates (direct lattice) 
   0.00136000  0.99913000  0.31262000
   0.25099000  0.24891000  0.31260000
   0.00000000  0.25000000  0.00000000
   0.25000000  0.00000000  0.00000000
   0.00000000  0.00000000  0.10576000
   0.25000000  0.25000000  0.10576000
   0.00048000  0.24969000  0.21001000
   0.24992000  0.00029000  0.20961000
   0.49883000  0.99980000  0.31222000
   0.75100000  0.24176000  0.31226000
   0.50000000  0.25000000  0.00000000
   0.75000000  0.00000000  0.00000000
   0.50000000  0.00000000  0.10576000
   0.75000000  0.25000000  0.10576000
   0.50015000  0.24987000  0.21005000
   0.75009000  0.99866000  0.20967000
   0.00826000  0.49921000  0.31225000
   0.25031000  0.75123000  0.31222000
   0.00000000  0.75000000  0.00000000
   0.25000000  0.50000000  0.00000000
   0.00000000  0.50000000  0.10576000
   0.25000000  0.75000000  0.10576000
   0.00030000  0.75007000  0.21006000
   0.25154000  0.50000000  0.20965000
   0.49852000  0.50005000  0.31445000
   0.75012000  0.75147000  0.31453000
   0.50000000  0.75000000  0.00000000
   0.75000000  0.50000000  0.00000000
   0.50000000  0.50000000  0.10576000
   0.75000000  0.75000000  0.10576000
   0.50056000  0.74959000  0.21046000
   0.74850000  0.50165000  0.21118000
   0.25000000  0.25000000  0.00000000
   0.00000000  0.00000000  0.00000000
   0.24954000  0.00059000  0.31645000
   0.00062000  0.24952000  0.31653000
   0.25059000  0.24994000  0.21136000
   0.00017000  0.99955000  0.21137000
   0.25000000  0.00000000  0.10576000
   0.00000000  0.25000000  0.10576000
   0.75000000  0.25000000  0.00000000
   0.50000000  0.00000000  0.00000000
   0.75052000  0.99862000  0.31701000
   0.49948000  0.25078000  0.31665000
   0.75042000  0.25019000  0.21206000
   0.50013000  0.00038000  0.21091000
   0.75000000  0.00000000  0.10576000
   0.50000000  0.25000000  0.10576000
   0.25000000  0.75000000  0.00000000
   0.00000000  0.50000000  0.00000000
   0.25151000  0.49967000  0.31697000
   0.99940000  0.75067000  0.31666000
   0.24969000  0.74999000  0.21093000
   0.99995000  0.49977000  0.21206000
   0.25000000  0.50000000  0.10576000
   0.00000000  0.75000000  0.10576000
   0.75000000  0.75000000  0.00000000
   0.50000000  0.50000000  0.00000000
   0.74994000  0.50210000  0.38344000
   0.49354000  0.75647000  0.31398000
   0.75058000  0.75039000  0.21117000
   0.49977000  0.49959000  0.21109000
   0.75000000  0.50000000  0.10576000
   0.50000000  0.75000000  0.10576000
   0.68206000  0.57000000  0.43441000
 
 position of ions in cartesian coordinates  (Angst):
   0.01264093  9.28671333  6.86860524
   2.33290180  2.31356862  6.86816581
   0.00000000  2.32369995  0.00000000
   2.32369995  0.00000000  0.00000000
   0.00000000  0.00000000  2.32366352
   2.32369995  2.32369995  2.32366352
   0.00446150  2.32081856  4.61415068
   2.32295637  0.00269549  4.60536224
   4.63652499  9.29294084  6.85981680
   6.98039465  2.24711080  6.86069564
   4.64739990  2.32369995  0.00000000
   6.97109985  0.00000000  0.00000000
   4.64739990  0.00000000  2.32366352
   6.97109985  2.32369995  2.32366352
   4.64879412  2.32249163  4.61502952
   6.97193639  9.28234477  4.60668051
   0.07677505  4.64005701  6.86047593
   2.32658134  6.98253246  6.85981680
   0.00000000  6.97109985  0.00000000
   2.32369995  4.64739990  0.00000000
   0.00000000  4.64739990  2.32366352
   2.32369995  6.97109985  2.32366352
   0.00278844  6.97175049  4.61524924
   2.33801394  4.64739990  4.60624108
   4.63364360  4.64786464  6.90881235
   6.97221523  6.98476321  6.91057004
   4.64739990  6.97109985  0.00000000
   6.97109985  4.64739990  0.00000000
   4.64739990  4.64739990  2.32366352
   6.97109985  6.97109985  2.32366352
   4.65260499  6.96728899  4.62403768
   6.95715765  4.66273632  4.63985687
   2.32369995  2.32369995  0.00000000
   0.00000000  0.00000000  0.00000000
   2.31942434  0.00548393  6.95275455
   0.00576278  2.31923845  6.95451224
   2.32918388  2.32314226  4.64381167
   0.00158012  9.29061714  4.64403138
   2.32369995  0.00000000  2.32366352
   0.00000000  2.32369995  2.32366352
   6.97109985  2.32369995  0.00000000
   4.64739990  0.00000000  0.00000000
   6.97593315  9.28197298  6.96505836
   4.64256661  2.33094990  6.95714877
   6.97500367  2.32546596  4.65919143
   4.64860823  0.00353202  4.63392467
   6.97109985  0.00000000  2.32366352
   4.64739990  2.32369995  2.32366352
   2.32369995  6.97109985  0.00000000
   0.00000000  4.64739990  0.00000000
   2.33773510  4.64433262  6.96417952
   9.28922292  6.97732737  6.95736848
   2.32081856  6.97100691  4.63436409
   9.29433506  4.64526210  4.65919143
   2.32369995  4.64739990  2.32366352
   0.00000000  6.97109985  2.32366352
   6.97109985  6.97109985  0.00000000
   4.64739990  4.64739990  0.00000000
   6.97054217  4.66691898  8.42459853
   4.58735550  7.03123721  6.89848593
   6.97649084  6.97472483  4.63963716
   4.64526210  4.64358903  4.63787947
   6.97109985  4.64739990  2.32366352
   4.64739990  6.97109985  2.32366352
   6.33961115  5.29803589  9.54446549
 


--------------------------------------------------------------------------------------------------------


 k-point  1 :   0.0000 0.0000 0.0000  plane waves:   51165
 k-point  2 :   0.3333 0.0000 0.0000  plane waves:   51094
 k-point  3 :   0.0000 0.3333 0.0000  plane waves:   51094
 k-point  4 :   0.3333 0.3333 0.0000  plane waves:   51048
 k-point  5 :  -0.3333 0.3333 0.0000  plane waves:   51048

 maximum and minimum number of plane-waves per node :     51165    51048

 maximum number of plane-waves:     51165
 maximum index in each direction: 
   IXMAX=   17   IYMAX=   17   IZMAX=   40
   IXMIN=  -17   IYMIN=  -17   IZMIN=  -40


 serial   3D FFT for wavefunctions
 parallel 3D FFT for charge:
    minimum data exchange during FFTs selected (reduces bandwidth)


 total amount of memory used by VASP MPI-rank0   163583. kBytes
=======================================================================

   base      :      30000. kBytes
   nonlr-proj:      14445. kBytes
   fftplans  :       7895. kBytes
   grid      :      27008. kBytes
   one-center:       1010. kBytes
   wavefun   :      83225. kBytes
 
     INWAV:  cpu time    0.0002: real time    0.0002
 Broyden mixing: mesh for mixing (old mesh)
   NGX = 35   NGY = 35   NGZ = 81
  (NGX  =108   NGY  =108   NGZ  =252)
  gives a total of  99225 points

 initial charge density was supplied:
 charge density of overlapping atoms calculated
 number of electron     518.0000000 magnetization 
 keeping initial charge density in first step


--------------------------------------------------------------------------------------------------------


 Maximum index for non-local projection operator         2005
 Maximum index for augmentation-charges          474 (set IRDMAX)


--------------------------------------------------------------------------------------------------------


 First call to EWALD:  gamma=   0.143
 Maximum number of real-space cells 3x 3x 2
 Maximum number of reciprocal cells 2x 2x 4

    FEWALD:  cpu time    0.0132: real time    0.0131


--------------------------------------- Iteration      1(   1)  ---------------------------------------


    POTLOK:  cpu time    0.5333: real time    1.9356
    SETDIJ:  cpu time    0.0542: real time    0.0543
     EDDAV:  cpu time   30.8222: real time   30.8935
       DOS:  cpu time    0.0143: real time    0.0143
    --------------------------------------------
      LOOP:  cpu time   31.4241: real time   32.8978

 eigenvalue-minimisations  :  3792
 total energy-change (2. order) : 0.4767039E+04  (-0.2936680E+05)
 number of electron     518.0000000 magnetization 
 augmentation part      518.0000000 magnetization 

 Free energy of the ion-electron system (eV)
  ---------------------------------------------------
  alpha Z        PSCENC =      1649.05367391
  Ewald energy   TEWEN  =    133170.31598636
  -Hartree energ DENC   =   -174913.68730069
  -exchange      EXHF   =         0.00000000
  -V(xc)+E(xc)   XCENC  =      1405.97838751
  PAW double counting   =     36999.11784765   -36263.23664038
  entropy T*S    EENTRO =        -0.03348830
  eigenvalues    EBANDS =     -5613.73665986
  atomic energy  EATOM  =     48333.26757577
  Solvation  Ediel_sol  =         0.00000000
  ---------------------------------------------------
  free energy    TOTEN  =      4767.03938196 eV

  energy without entropy =     4767.07287025  energy(sigma->0) =     4767.05612610


--------------------------------------------------------------------------------------------------------




--------------------------------------- Iteration      1(   2)  ---------------------------------------


     EDDAV:  cpu time   32.3949: real time   32.3984
       DOS:  cpu time    0.0037: real time    0.0037
    --------------------------------------------
      LOOP:  cpu time   32.3985: real time   32.4021

 eigenvalue-minimisations  :  3888
 total energy-change (2. order) :-0.5299862E+04  (-0.5154842E+04)
 number of electron     518.0000000 magnetization 
 augmentation part      518.0000000 magnetization 

 Free energy of the ion-electron system (eV)
  ---------------------------------------------------
  alpha Z        PSCENC =      1649.05367391
  Ewald energy   TEWEN  =    133170.31598636
  -Hartree energ DENC   =   -174913.68730069
  -exchange      EXHF   =         0.00000000
  -V(xc)+E(xc)   XCENC  =      1405.97838751
  PAW double counting   =     36999.11784765   -36263.23664038
  entropy T*S    EENTRO =        -0.01244916
  eigenvalues    EBANDS =    -10913.61954990
  atomic energy  EATOM  =     48333.26757577
  Solvation  Ediel_sol  =         0.00000000
  ---------------------------------------------------
  free energy    TOTEN  =      -532.82246894 eV

  energy without entropy =     -532.81001978  energy(sigma->0) =     -532.81624436


--------------------------------------------------------------------------------------------------------




--------------------------------------- Iteration      1(   3)  ---------------------------------------


     EDDAV:  cpu time   32.3313: real time   32.3330
       DOS:  cpu time    0.0032: real time    0.0032
    --------------------------------------------
      LOOP:  cpu time   32.3348: real time   32.3365

 eigenvalue-minimisations  :  3744
 total energy-change (2. order) :-0.3671715E+03  (-0.3614373E+03)
 number of electron     518.0000000 magnetization 
 augmentation part      518.0000000 magnetization 

 Free energy of the ion-electron system (eV)
  ---------------------------------------------------
  alpha Z        PSCENC =      1649.05367391
  Ewald energy   TEWEN  =    133170.31598636
  -Hartree energ DENC   =   -174913.68730069
  -exchange      EXHF   =         0.00000000
  -V(xc)+E(xc)   XCENC  =      1405.97838751
  PAW double counting   =     36999.11784765   -36263.23664038
  entropy T*S    EENTRO =        -0.02019473
  eigenvalues    EBANDS =    -11280.78333695
  atomic energy  EATOM  =     48333.26757577
  Solvation  Ediel_sol  =         0.00000000
  ---------------------------------------------------
  free energy    TOTEN  =      -899.99400157 eV

  energy without entropy =     -899.97380684  energy(sigma->0) =     -899.98390420


--------------------------------------------------------------------------------------------------------




--------------------------------------- Iteration      1(   4)  ---------------------------------------


     EDDAV:  cpu time   35.0646: real time   35.0706
       DOS:  cpu time    0.0032: real time    0.0032
    --------------------------------------------
      LOOP:  cpu time   35.0675: real time   35.0735

 eigenvalue-minimisations  :  4064
 total energy-change (2. order) :-0.1353553E+02  (-0.1348295E+02)
 number of electron     518.0000000 magnetization 
 augmentation part      518.0000000 magnetization 

 Free energy of the ion-electron system (eV)
  ---------------------------------------------------
  alpha Z        PSCENC =      1649.05367391
  Ewald energy   TEWEN  =    133170.31598636
  -Hartree energ DENC   =   -174913.68730069
  -exchange      EXHF   =         0.00000000
  -V(xc)+E(xc)   XCENC  =      1405.97838751
  PAW double counting   =     36999.11784765   -36263.23664038
  entropy T*S    EENTRO =        -0.02048551
  eigenvalues    EBANDS =    -11294.31857782
  atomic energy  EATOM  =     48333.26757577
  Solvation  Ediel_sol  =         0.00000000
  ---------------------------------------------------
  free energy    TOTEN  =      -913.52953322 eV

  energy without entropy =     -913.50904771  energy(sigma->0) =     -913.51929046


--------------------------------------------------------------------------------------------------------




--------------------------------------- Iteration      1(   5)  ---------------------------------------


     EDDAV:  cpu time   34.1494: real time   34.1519
       DOS:  cpu time    0.0040: real time    0.0040
    CHARGE:  cpu time    1.6481: real time    1.6482
    MIXING:  cpu time    0.0160: real time    0.0162
    --------------------------------------------
      LOOP:  cpu time   35.8175: real time   35.8202

 eigenvalue-minimisations  :  3968
 total energy-change (2. order) :-0.3427220E+00  (-0.3424158E+00)
 number of electron     518.0000092 magnetization 
 augmentation part       15.0396078 magnetization 

 Broyden mixing:
  rms(total) = 0.59821E+01    rms(broyden)= 0.59814E+01
  rms(prec ) = 0.68525E+01
  weight for this iteration     100.00

 Free energy of the ion-electron system (eV)
  ---------------------------------------------------
  alpha Z        PSCENC =      1649.05367391
  Ewald energy   TEWEN  =    133170.31598636
  -Hartree energ DENC   =   -174913.68730069
  -exchange      EXHF   =         0.00000000
  -V(xc)+E(xc)   XCENC  =      1405.97838751
  PAW double counting   =     36999.11784765   -36263.23664038
  entropy T*S    EENTRO =        -0.02048538
  eigenvalues    EBANDS =    -11294.66129998
  atomic energy  EATOM  =     48333.26757577
  Solvation  Ediel_sol  =         0.00000000
  ---------------------------------------------------
  free energy    TOTEN  =      -913.87225524 eV

  energy without entropy =     -913.85176986  energy(sigma->0) =     -913.86201255


--------------------------------------------------------------------------------------------------------




--------------------------------------- Iteration      1(   6)  ---------------------------------------


    POTLOK:  cpu time    0.4284: real time    0.4285
    SETDIJ:  cpu time    0.0668: real time    0.0668
     EDDAV:  cpu time   32.2165: real time   32.2202
       DOS:  cpu time    0.0024: real time    0.0024
    CHARGE:  cpu time    1.6047: real time    1.6048
    MIXING:  cpu time    0.0174: real time    0.0174
    --------------------------------------------
      LOOP:  cpu time   34.3363: real time   34.3401

 eigenvalue-minimisations  :  3648
 total energy-change (2. order) : 0.1549372E+03  (-0.9189839E+02)
 number of electron     517.9999972 magnetization 
 augmentation part       16.2817922 magnetization 

 Broyden mixing:
  rms(total) = 0.24585E+01    rms(broyden)= 0.24575E+01
  rms(prec ) = 0.30332E+01
  weight for this iteration     100.00

 eigenvalues of (default mixing * dielectric matrix)
  average eigenvalue GAMMA=   0.7953
  0.7953

 Free energy of the ion-electron system (eV)
  ---------------------------------------------------
  alpha Z        PSCENC =      1649.05367391
  Ewald energy   TEWEN  =    133170.31598636
  -Hartree energ DENC   =   -175090.04555215
  -exchange      EXHF   =         0.00000000
  -V(xc)+E(xc)   XCENC  =      1411.30110962
  PAW double counting   =     36842.09984028   -36146.73839377
  entropy T*S    EENTRO =        -0.02886694
  eigenvalues    EBANDS =    -10928.16037879
  atomic energy  EATOM  =     48333.26757577
  Solvation  Ediel_sol  =         0.00000000
  ---------------------------------------------------
  free energy    TOTEN  =      -758.93500572 eV

  energy without entropy =     -758.90613878  energy(sigma->0) =     -758.92057225


--------------------------------------------------------------------------------------------------------




--------------------------------------- Iteration      1(   7)  ---------------------------------------


    POTLOK:  cpu time    0.4307: real time    0.4307
    SETDIJ:  cpu time    0.0674: real time    0.0674
     EDDAV:  cpu time   37.1317: real time   37.1362
       DOS:  cpu time    0.0023: real time    0.0023
    CHARGE:  cpu time    1.6137: real time    1.6140
    MIXING:  cpu time    0.0177: real time    0.0177
    --------------------------------------------
      LOOP:  cpu time   39.2635: real time   39.2683

 eigenvalue-minimisations  :  4368
 total energy-change (2. order) : 0.7572378E+00  (-0.1069809E+02)
 number of electron     518.0000000 magnetization 
 augmentation part       16.3923126 magnetization 

 Broyden mixing:
  rms(total) = 0.16764E+01    rms(broyden)= 0.16761E+01
  rms(prec ) = 0.24298E+01
  weight for this iteration     100.00

 eigenvalues of (default mixing * dielectric matrix)
  average eigenvalue GAMMA=   0.7383
  0.7383  0.7383

 Free energy of the ion-electron system (eV)
  ---------------------------------------------------
  alpha Z        PSCENC =      1649.05367391
  Ewald energy   TEWEN  =    133170.31598636
  -Hartree energ DENC   =   -175119.61562093
  -exchange      EXHF   =         0.00000000
  -V(xc)+E(xc)   XCENC  =      1405.70498790
  PAW double counting   =     37946.32155220   -37247.61257203
  entropy T*S    EENTRO =        -0.02248057
  eigenvalues    EBANDS =    -10895.59087054
  atomic energy  EATOM  =     48333.26757577
  Solvation  Ediel_sol  =         0.00000000
  ---------------------------------------------------
  free energy    TOTEN  =      -758.17776794 eV

  energy without entropy =     -758.15528737  energy(sigma->0) =     -758.16652766


--------------------------------------------------------------------------------------------------------




--------------------------------------- Iteration      1(   8)  ---------------------------------------


    POTLOK:  cpu time    0.4342: real time    0.4342
    SETDIJ:  cpu time    0.0673: real time    0.0673
     EDDAV:  cpu time   35.8200: real time   35.8238
       DOS:  cpu time    0.0023: real time    0.0023
    CHARGE:  cpu time    1.6045: real time    1.6048
    MIXING:  cpu time    0.0183: real time    0.0183
    --------------------------------------------
      LOOP:  cpu time   37.9465: real time   37.9506

 eigenvalue-minimisations  :  4176
 total energy-change (2. order) : 0.8890378E+01  (-0.3598357E+01)
 number of electron     517.9999991 magnetization 
 augmentation part       16.6998988 magnetization 

 Broyden mixing:
  rms(total) = 0.10021E+01    rms(broyden)= 0.10019E+01
  rms(prec ) = 0.10948E+01
  weight for this iteration     100.00

 eigenvalues of (default mixing * dielectric matrix)
  average eigenvalue GAMMA=   0.9188
  1.3156  0.9800  0.4609

 Free energy of the ion-electron system (eV)
  ---------------------------------------------------
  alpha Z        PSCENC =      1649.05367391
  Ewald energy   TEWEN  =    133170.31598636
  -Hartree energ DENC   =   -175187.29052927
  -exchange      EXHF   =         0.00000000
  -V(xc)+E(xc)   XCENC  =      1403.38173674
  PAW double counting   =     38443.95571264   -37742.64969660
  entropy T*S    EENTRO =        -0.01937994
  eigenvalues    EBANDS =    -10819.30246906
  atomic energy  EATOM  =     48333.26757577
  Solvation  Ediel_sol  =         0.00000000
  ---------------------------------------------------
  free energy    TOTEN  =      -749.28738946 eV

  energy without entropy =     -749.26800952  energy(sigma->0) =     -749.27769949


--------------------------------------------------------------------------------------------------------




--------------------------------------- Iteration      1(   9)  ---------------------------------------


    POTLOK:  cpu time    0.4297: real time    0.4297
    SETDIJ:  cpu time    0.0664: real time    0.0664
     EDDAV:  cpu time   33.7404: real time   33.7443
       DOS:  cpu time    0.0024: real time    0.0024
    CHARGE:  cpu time    1.5986: real time    1.5988
    MIXING:  cpu time    0.0197: real time    0.0215
    --------------------------------------------
      LOOP:  cpu time   35.8572: real time   35.8630

 eigenvalue-minimisations  :  3856
 total energy-change (2. order) : 0.6063506E+00  (-0.1405990E+01)
 number of electron     517.9999989 magnetization 
 augmentation part       16.9054623 magnetization 

 Broyden mixing:
  rms(total) = 0.75844E+00    rms(broyden)= 0.75817E+00
  rms(prec ) = 0.90200E+00
  weight for this iteration     100.00

 eigenvalues of (default mixing * dielectric matrix)
  average eigenvalue GAMMA=   1.0062
  2.1016  0.9170  0.5031  0.5031

 Free energy of the ion-electron system (eV)
  ---------------------------------------------------
  alpha Z        PSCENC =      1649.05367391
  Ewald energy   TEWEN  =    133170.31598636
  -Hartree energ DENC   =   -175291.08906217
  -exchange      EXHF   =         0.00000000
  -V(xc)+E(xc)   XCENC  =      1401.46331880
  PAW double counting   =     39312.75122307   -38607.05914696
  entropy T*S    EENTRO =        -0.01266900
  eigenvalues    EBANDS =    -10717.37193868
  atomic energy  EATOM  =     48333.26757577
  Solvation  Ediel_sol  =         0.00000000
  ---------------------------------------------------
  free energy    TOTEN  =      -748.68103890 eV

  energy without entropy =     -748.66836990  energy(sigma->0) =     -748.67470440


--------------------------------------------------------------------------------------------------------




--------------------------------------- Iteration      1(  10)  ---------------------------------------


    POTLOK:  cpu time    0.4323: real time    0.4323
    SETDIJ:  cpu time    0.0685: real time    0.0685
     EDDAV:  cpu time   36.2051: real time   36.3821
       DOS:  cpu time    0.0024: real time    0.0025
    CHARGE:  cpu time    1.6019: real time    1.7968
    MIXING:  cpu time    0.0201: real time    0.0201
    --------------------------------------------
      LOOP:  cpu time   38.3304: real time   38.7023

 eigenvalue-minimisations  :  4224
 total energy-change (2. order) : 0.5624328E+00  (-0.7469888E+00)
 number of electron     517.9999999 magnetization 
 augmentation part       16.7982107 magnetization 

 Broyden mixing:
  rms(total) = 0.46019E+00    rms(broyden)= 0.45967E+00
  rms(prec ) = 0.56837E+00
  weight for this iteration     100.00

 eigenvalues of (default mixing * dielectric matrix)
  average eigenvalue GAMMA=   0.9201
  2.2107  0.8531  0.6835  0.4265  0.4265

 Free energy of the ion-electron system (eV)
  ---------------------------------------------------
  alpha Z        PSCENC =      1649.05367391
  Ewald energy   TEWEN  =    133170.31598636
  -Hartree energ DENC   =   -175357.67534876
  -exchange      EXHF   =         0.00000000
  -V(xc)+E(xc)   XCENC  =      1401.30972914
  PAW double counting   =     39802.01342997   -39093.59545458
  entropy T*S    EENTRO =        -0.01582101
  eigenvalues    EBANDS =    -10652.79237689
  atomic energy  EATOM  =     48333.26757577
  Solvation  Ediel_sol  =         0.00000000
  ---------------------------------------------------
  free energy    TOTEN  =      -748.11860609 eV

  energy without entropy =     -748.10278509  energy(sigma->0) =     -748.11069559


--------------------------------------------------------------------------------------------------------




--------------------------------------- Iteration      1(  11)  ---------------------------------------


    POTLOK:  cpu time    0.4364: real time    0.4364
    SETDIJ:  cpu time    0.0673: real time    0.0673
     EDDAV:  cpu time   33.6281: real time   33.6303
       DOS:  cpu time    0.0026: real time    0.0026
    CHARGE:  cpu time    1.6297: real time    1.6297
    MIXING:  cpu time    0.0209: real time    0.0209
    --------------------------------------------
      LOOP:  cpu time   35.7849: real time   35.7871

 eigenvalue-minimisations  :  3856
 total energy-change (2. order) : 0.4856776E+00  (-0.1229964E+00)
 number of electron     517.9999994 magnetization 
 augmentation part       16.8805048 magnetization 

 Broyden mixing:
  rms(total) = 0.16825E+00    rms(broyden)= 0.16814E+00
  rms(prec ) = 0.19995E+00
  weight for this iteration     100.00

 eigenvalues of (default mixing * dielectric matrix)
  average eigenvalue GAMMA=   0.9324
  2.1513  0.8934  0.8565  0.8565  0.4185  0.4185

 Free energy of the ion-electron system (eV)
  ---------------------------------------------------
  alpha Z        PSCENC =      1649.05367391
  Ewald energy   TEWEN  =    133170.31598636
  -Hartree energ DENC   =   -175429.17599882
  -exchange      EXHF   =         0.00000000
  -V(xc)+E(xc)   XCENC  =      1401.20898338
  PAW double counting   =     39874.95021158   -39165.41441130
  entropy T*S    EENTRO =        -0.01705245
  eigenvalues    EBANDS =    -10581.82189693
  atomic energy  EATOM  =     48333.26757577
  Solvation  Ediel_sol  =         0.00000000
  ---------------------------------------------------
  free energy    TOTEN  =      -747.63292851 eV

  energy without entropy =     -747.61587606  energy(sigma->0) =     -747.62440228


--------------------------------------------------------------------------------------------------------




--------------------------------------- Iteration      1(  12)  ---------------------------------------


    POTLOK:  cpu time    0.4350: real time    0.4350
    SETDIJ:  cpu time    0.0673: real time    0.0672
     EDDAV:  cpu time   34.4396: real time   34.5860
       DOS:  cpu time    0.0025: real time    0.0025
    CHARGE:  cpu time    1.6009: real time    1.6009
    MIXING:  cpu time    0.0224: real time    0.0224
    --------------------------------------------
      LOOP:  cpu time   36.5676: real time   36.7140

 eigenvalue-minimisations  :  3968
 total energy-change (2. order) : 0.2185604E-01  (-0.4644156E-01)
 number of electron     517.9999994 magnetization 
 augmentation part       16.8796438 magnetization 

 Broyden mixing:
  rms(total) = 0.96275E-01    rms(broyden)= 0.96249E-01
  rms(prec ) = 0.11999E+00
  weight for this iteration     100.00

 eigenvalues of (default mixing * dielectric matrix)
  average eigenvalue GAMMA=   1.0244
  2.0666  2.0666  0.8220  0.6837  0.6837  0.4242  0.4242

 Free energy of the ion-electron system (eV)
  ---------------------------------------------------
  alpha Z        PSCENC =      1649.05367391
  Ewald energy   TEWEN  =    133170.31598636
  -Hartree energ DENC   =   -175474.65243096
  -exchange      EXHF   =         0.00000000
  -V(xc)+E(xc)   XCENC  =      1401.65563591
  PAW double counting   =     39767.84771865   -39057.79902032
  entropy T*S    EENTRO =        -0.01770531
  eigenvalues    EBANDS =    -10537.28250647
  atomic energy  EATOM  =     48333.26757577
  Solvation  Ediel_sol  =         0.00000000
  ---------------------------------------------------
  free energy    TOTEN  =      -747.61107247 eV

  energy without entropy =     -747.59336716  energy(sigma->0) =     -747.60221981


--------------------------------------------------------------------------------------------------------




--------------------------------------- Iteration      1(  13)  ---------------------------------------


    POTLOK:  cpu time    0.4376: real time    0.4378
    SETDIJ:  cpu time    0.0669: real time    0.0669
     EDDAV:  cpu time   32.3085: real time   32.3103
       DOS:  cpu time    0.0025: real time    0.0025
    CHARGE:  cpu time    1.7143: real time    1.7143
    MIXING:  cpu time    0.0229: real time    0.0229
    --------------------------------------------
      LOOP:  cpu time   34.5527: real time   34.5546

 eigenvalue-minimisations  :  3648
 total energy-change (2. order) : 0.1509368E-01  (-0.6991247E-02)
 number of electron     517.9999994 magnetization 
 augmentation part       16.8600143 magnetization 

 Broyden mixing:
  rms(total) = 0.47158E-01    rms(broyden)= 0.47155E-01
  rms(prec ) = 0.71972E-01
  weight for this iteration     100.00

 eigenvalues of (default mixing * dielectric matrix)
  average eigenvalue GAMMA=   1.0923
  2.3452  2.3452  0.8128  0.8128  0.7856  0.7856  0.4255  0.4255

 Free energy of the ion-electron system (eV)
  ---------------------------------------------------
  alpha Z        PSCENC =      1649.05367391
  Ewald energy   TEWEN  =    133170.31598636
  -Hartree energ DENC   =   -175528.94834935
  -exchange      EXHF   =         0.00000000
  -V(xc)+E(xc)   XCENC  =      1402.18887787
  PAW double counting   =     39627.56034111   -38916.82649278
  entropy T*S    EENTRO =        -0.01708649
  eigenvalues    EBANDS =    -10484.19050519
  atomic energy  EATOM  =     48333.26757577
  Solvation  Ediel_sol  =         0.00000000
  ---------------------------------------------------
  free energy    TOTEN  =      -747.59597879 eV

  energy without entropy =     -747.57889230  energy(sigma->0) =     -747.58743554


--------------------------------------------------------------------------------------------------------




--------------------------------------- Iteration      1(  14)  ---------------------------------------


    POTLOK:  cpu time    0.5412: real time    0.5412
    SETDIJ:  cpu time    0.1716: real time    0.1716
     EDDAV:  cpu time   33.3572: real time   33.3595
       DOS:  cpu time    0.0024: real time    0.0025
    CHARGE:  cpu time    1.6049: real time    1.6050
    MIXING:  cpu time    0.0240: real time    0.0240
    --------------------------------------------
      LOOP:  cpu time   35.7013: real time   35.7037

 eigenvalue-minimisations  :  3776
 total energy-change (2. order) : 0.7296339E-02  (-0.5359959E-02)
 number of electron     517.9999993 magnetization 
 augmentation part       16.8537907 magnetization 

 Broyden mixing:
  rms(total) = 0.40467E-01    rms(broyden)= 0.40452E-01
  rms(prec ) = 0.57247E-01
  weight for this iteration     100.00

 eigenvalues of (default mixing * dielectric matrix)
  average eigenvalue GAMMA=   1.0904
  2.3464  2.3464  1.0587  1.0587  0.7476  0.7476  0.6573  0.4252  0.4252

 Free energy of the ion-electron system (eV)
  ---------------------------------------------------
  alpha Z        PSCENC =      1649.05367391
  Ewald energy   TEWEN  =    133170.31598636
  -Hartree energ DENC   =   -175581.68944258
  -exchange      EXHF   =         0.00000000
  -V(xc)+E(xc)   XCENC  =      1402.44695470
  PAW double counting   =     39572.58180805   -38861.48104681
  entropy T*S    EENTRO =        -0.01821234
  eigenvalues    EBANDS =    -10432.06597950
  atomic energy  EATOM  =     48333.26757577
  Solvation  Ediel_sol  =         0.00000000
  ---------------------------------------------------
  free energy    TOTEN  =      -747.58868245 eV

  energy without entropy =     -747.57047011  energy(sigma->0) =     -747.57957628


--------------------------------------------------------------------------------------------------------




--------------------------------------- Iteration      1(  15)  ---------------------------------------


    POTLOK:  cpu time    0.4421: real time    0.4421
    SETDIJ:  cpu time    0.0679: real time    0.0679
     EDDAV:  cpu time   35.3047: real time   35.3072
       DOS:  cpu time    0.0023: real time    0.0023
    CHARGE:  cpu time    1.6023: real time    1.6023
    MIXING:  cpu time    0.0255: real time    0.0255
    --------------------------------------------
      LOOP:  cpu time   37.4448: real time   37.4473

 eigenvalue-minimisations  :  4080
 total energy-change (2. order) :-0.1627820E-02  (-0.3958770E-02)
 number of electron     517.9999994 magnetization 
 augmentation part       16.8478558 magnetization 

 Broyden mixing:
  rms(total) = 0.20875E-01    rms(broyden)= 0.20854E-01
  rms(prec ) = 0.35078E-01
  weight for this iteration     100.00

 eigenvalues of (default mixing * dielectric matrix)
  average eigenvalue GAMMA=   1.1576
  2.8090  2.3143  1.6988  0.9016  0.9016  0.7612  0.7612  0.4251  0.4251  0.5786

 Free energy of the ion-electron system (eV)
  ---------------------------------------------------
  alpha Z        PSCENC =      1649.05367391
  Ewald energy   TEWEN  =    133170.31598636
  -Hartree energ DENC   =   -175603.65633442
  -exchange      EXHF   =         0.00000000
  -V(xc)+E(xc)   XCENC  =      1402.46680332
  PAW double counting   =     39563.34000159   -38852.36077220
  entropy T*S    EENTRO =        -0.01718747
  eigenvalues    EBANDS =    -10410.00005712
  atomic energy  EATOM  =     48333.26757577
  Solvation  Ediel_sol  =         0.00000000
  ---------------------------------------------------
  free energy    TOTEN  =      -747.59031027 eV

  energy without entropy =     -747.57312280  energy(sigma->0) =     -747.58171653


--------------------------------------------------------------------------------------------------------




--------------------------------------- Iteration      1(  16)  ---------------------------------------


    POTLOK:  cpu time    0.4534: real time    0.4534
    SETDIJ:  cpu time    0.0541: real time    0.0541
     EDDAV:  cpu time   33.3019: real time   33.3047
       DOS:  cpu time    0.0024: real time    0.0024
    CHARGE:  cpu time    1.6273: real time    1.6273
    MIXING:  cpu time    0.0250: real time    0.0250
    --------------------------------------------
      LOOP:  cpu time   35.4641: real time   35.4670

 eigenvalue-minimisations  :  3792
 total energy-change (2. order) :-0.3529033E-02  (-0.9017283E-03)
 number of electron     517.9999994 magnetization 
 augmentation part       16.8453502 magnetization 

 Broyden mixing:
  rms(total) = 0.18149E-01    rms(broyden)= 0.18147E-01
  rms(prec ) = 0.25507E-01
  weight for this iteration     100.00

 eigenvalues of (default mixing * dielectric matrix)
  average eigenvalue GAMMA=   1.2132
  3.2364  2.4174  1.7923  1.0712  1.0712  0.8593  0.7319  0.7319  0.4253  0.4253
  0.5829

 Free energy of the ion-electron system (eV)
  ---------------------------------------------------
  alpha Z        PSCENC =      1649.05367391
  Ewald energy   TEWEN  =    133170.31598636
  -Hartree energ DENC   =   -175634.13048920
  -exchange      EXHF   =         0.00000000
  -V(xc)+E(xc)   XCENC  =      1402.54507148
  PAW double counting   =     39538.43158544   -38827.60245941
  entropy T*S    EENTRO =        -0.01738223
  eigenvalues    EBANDS =    -10379.45740143
  atomic energy  EATOM  =     48333.26757577
  Solvation  Ediel_sol  =         0.00000000
  ---------------------------------------------------
  free energy    TOTEN  =      -747.59383930 eV

  energy without entropy =     -747.57645708  energy(sigma->0) =     -747.58514819


--------------------------------------------------------------------------------------------------------




--------------------------------------- Iteration      1(  17)  ---------------------------------------


    POTLOK:  cpu time    0.4572: real time    0.4572
    SETDIJ:  cpu time    0.0539: real time    0.0539
     EDDAV:  cpu time   33.9716: real time   33.9746
       DOS:  cpu time    0.0023: real time    0.0023
    CHARGE:  cpu time    1.5986: real time    1.5986
    MIXING:  cpu time    0.0261: real time    0.0261
    --------------------------------------------
      LOOP:  cpu time   36.1098: real time   36.1128

 eigenvalue-minimisations  :  3888
 total energy-change (2. order) :-0.2680110E-02  (-0.5831544E-03)
 number of electron     517.9999994 magnetization 
 augmentation part       16.8480421 magnetization 

 Broyden mixing:
  rms(total) = 0.79198E-02    rms(broyden)= 0.79113E-02
  rms(prec ) = 0.13228E-01
  weight for this iteration     100.00

 eigenvalues of (default mixing * dielectric matrix)
  average eigenvalue GAMMA=   1.2870
  3.9190  2.3858  2.2098  1.1278  1.1278  0.4253  0.4253  0.7340  0.7340  0.9309
  0.8434  0.5806

 Free energy of the ion-electron system (eV)
  ---------------------------------------------------
  alpha Z        PSCENC =      1649.05367391
  Ewald energy   TEWEN  =    133170.31598636
  -Hartree energ DENC   =   -175651.47176348
  -exchange      EXHF   =         0.00000000
  -V(xc)+E(xc)   XCENC  =      1402.57141917
  PAW double counting   =     39531.06221477   -38820.31703886
  entropy T*S    EENTRO =        -0.01768758
  eigenvalues    EBANDS =    -10362.06089947
  atomic energy  EATOM  =     48333.26757577
  Solvation  Ediel_sol  =         0.00000000
  ---------------------------------------------------
  free energy    TOTEN  =      -747.59651941 eV

  energy without entropy =     -747.57883184  energy(sigma->0) =     -747.58767563


--------------------------------------------------------------------------------------------------------




--------------------------------------- Iteration      1(  18)  ---------------------------------------


    POTLOK:  cpu time    0.4577: real time    0.4577
    SETDIJ:  cpu time    0.0539: real time    0.0539
     EDDAV:  cpu time   30.7341: real time   30.7363
       DOS:  cpu time    0.0022: real time    0.0023
    CHARGE:  cpu time    1.5999: real time    1.6000
    MIXING:  cpu time    0.0275: real time    0.0275
    --------------------------------------------
      LOOP:  cpu time   32.8755: real time   32.8777

 eigenvalue-minimisations  :  3408
 total energy-change (2. order) :-0.1804543E-02  (-0.1173465E-03)
 number of electron     517.9999994 magnetization 
 augmentation part       16.8493980 magnetization 

 Broyden mixing:
  rms(total) = 0.56908E-02    rms(broyden)= 0.56889E-02
  rms(prec ) = 0.92142E-02
  weight for this iteration     100.00

 eigenvalues of (default mixing * dielectric matrix)
  average eigenvalue GAMMA=   1.3536
  4.2706  2.7245  2.2254  1.4896  1.0952  1.0952  0.4253  0.4253  0.9004  0.9004
  0.7311  0.7311  0.5821

 Free energy of the ion-electron system (eV)
  ---------------------------------------------------
  alpha Z        PSCENC =      1649.05367391
  Ewald energy   TEWEN  =    133170.31598636
  -Hartree energ DENC   =   -175663.25257433
  -exchange      EXHF   =         0.00000000
  -V(xc)+E(xc)   XCENC  =      1402.57847265
  PAW double counting   =     39532.18071470   -38821.46179394
  entropy T*S    EENTRO =        -0.01768700
  eigenvalues    EBANDS =    -10350.26269207
  atomic energy  EATOM  =     48333.26757577
  Solvation  Ediel_sol  =         0.00000000
  ---------------------------------------------------
  free energy    TOTEN  =      -747.59832396 eV

  energy without entropy =     -747.58063696  energy(sigma->0) =     -747.58948046


--------------------------------------------------------------------------------------------------------




--------------------------------------- Iteration      1(  19)  ---------------------------------------


    POTLOK:  cpu time    0.4573: real time    0.4573
    SETDIJ:  cpu time    0.0541: real time    0.0542
     EDDAV:  cpu time   29.5964: real time   29.6018
       DOS:  cpu time    0.0020: real time    0.0020
    CHARGE:  cpu time    1.6104: real time    1.6105
    MIXING:  cpu time    0.0292: real time    0.0292
    --------------------------------------------
      LOOP:  cpu time   31.7495: real time   31.7550

 eigenvalue-minimisations  :  3232
 total energy-change (2. order) :-0.1372475E-02  (-0.1044273E-03)
 number of electron     517.9999994 magnetization 
 augmentation part       16.8481478 magnetization 

 Broyden mixing:
  rms(total) = 0.35851E-02    rms(broyden)= 0.35828E-02
  rms(prec ) = 0.60619E-02
  weight for this iteration     100.00

 eigenvalues of (default mixing * dielectric matrix)
  average eigenvalue GAMMA=   1.4417
  5.1889  2.9480  2.2131  1.9621  1.0747  1.0747  0.4253  0.4253  0.9882  0.9882
  0.7371  0.7371  0.8415  0.5798

 Free energy of the ion-electron system (eV)
  ---------------------------------------------------
  alpha Z        PSCENC =      1649.05367391
  Ewald energy   TEWEN  =    133170.31598636
  -Hartree energ DENC   =   -175670.71547257
  -exchange      EXHF   =         0.00000000
  -V(xc)+E(xc)   XCENC  =      1402.58921199
  PAW double counting   =     39535.48856138   -38824.74964521
  entropy T*S    EENTRO =        -0.01754762
  eigenvalues    EBANDS =    -10342.83204044
  atomic energy  EATOM  =     48333.26757577
  Solvation  Ediel_sol  =         0.00000000
  ---------------------------------------------------
  free energy    TOTEN  =      -747.59969643 eV

  energy without entropy =     -747.58214881  energy(sigma->0) =     -747.59092262


--------------------------------------------------------------------------------------------------------




--------------------------------------- Iteration      1(  20)  ---------------------------------------


    POTLOK:  cpu time    0.4509: real time    0.4509
    SETDIJ:  cpu time    0.0541: real time    0.0541
     EDDAV:  cpu time   28.4026: real time   28.4044
       DOS:  cpu time    0.0021: real time    0.0021
    CHARGE:  cpu time    1.5981: real time    1.5982
    MIXING:  cpu time    0.0305: real time    0.0305
    --------------------------------------------
      LOOP:  cpu time   30.5383: real time   30.5401

 eigenvalue-minimisations  :  3056
 total energy-change (2. order) :-0.9001391E-03  (-0.5438226E-04)
 number of electron     517.9999994 magnetization 
 augmentation part       16.8474291 magnetization 

 Broyden mixing:
  rms(total) = 0.19143E-02    rms(broyden)= 0.19136E-02
  rms(prec ) = 0.35198E-02
  weight for this iteration     100.00

 eigenvalues of (default mixing * dielectric matrix)
  average eigenvalue GAMMA=   1.5045
  5.5840  3.1981  2.2478  2.2478  1.3000  1.0833  1.0833  1.0381  1.0381  0.4253
  0.4253  0.7368  0.7368  0.8430  0.5798

 Free energy of the ion-electron system (eV)
  ---------------------------------------------------
  alpha Z        PSCENC =      1649.05367391
  Ewald energy   TEWEN  =    133170.31598636
  -Hartree energ DENC   =   -175676.13085464
  -exchange      EXHF   =         0.00000000
  -V(xc)+E(xc)   XCENC  =      1402.59927369
  PAW double counting   =     39536.66315792   -38825.89947497
  entropy T*S    EENTRO =        -0.01761637
  eigenvalues    EBANDS =    -10337.45231824
  atomic energy  EATOM  =     48333.26757577
  Solvation  Ediel_sol  =         0.00000000
  ---------------------------------------------------
  free energy    TOTEN  =      -747.60059657 eV

  energy without entropy =     -747.58298020  energy(sigma->0) =     -747.59178838


--------------------------------------------------------------------------------------------------------




--------------------------------------- Iteration      1(  21)  ---------------------------------------


    POTLOK:  cpu time    0.4480: real time    0.4480
    SETDIJ:  cpu time    0.0537: real time    0.0537
     EDDAV:  cpu time   28.7262: real time   28.7293
       DOS:  cpu time    0.0024: real time    0.0024
    CHARGE:  cpu time    1.5942: real time    1.5943
    MIXING:  cpu time    0.0317: real time    0.0317
    --------------------------------------------
      LOOP:  cpu time   30.8562: real time   30.8593

 eigenvalue-minimisations  :  3104
 total energy-change (2. order) :-0.1556058E-02  (-0.1955182E-04)
 number of electron     517.9999994 magnetization 
 augmentation part       16.8474814 magnetization 

 Broyden mixing:
  rms(total) = 0.17762E-02    rms(broyden)= 0.17760E-02
  rms(prec ) = 0.26663E-02
  weight for this iteration     100.00

 eigenvalues of (default mixing * dielectric matrix)
  average eigenvalue GAMMA=   1.5916
  6.1910  3.7059  2.5376  2.2718  1.8379  1.0902  1.0902  0.4253  0.4253  0.9922
  0.9922  1.0054  0.7364  0.7364  0.8485  0.5800

 Free energy of the ion-electron system (eV)
  ---------------------------------------------------
  alpha Z        PSCENC =      1649.05367391
  Ewald energy   TEWEN  =    133170.31598636
  -Hartree energ DENC   =   -175679.45653609
  -exchange      EXHF   =         0.00000000
  -V(xc)+E(xc)   XCENC  =      1402.59983294
  PAW double counting   =     39536.60381962   -38825.83721835
  entropy T*S    EENTRO =        -0.01763111
  eigenvalues    EBANDS =    -10334.13165566
  atomic energy  EATOM  =     48333.26757577
  Solvation  Ediel_sol  =         0.00000000
  ---------------------------------------------------
  free energy    TOTEN  =      -747.60215263 eV

  energy without entropy =     -747.58452151  energy(sigma->0) =     -747.59333707


--------------------------------------------------------------------------------------------------------




--------------------------------------- Iteration      1(  22)  ---------------------------------------


    POTLOK:  cpu time    0.4445: real time    0.4451
    SETDIJ:  cpu time    0.0541: real time    0.0541
     EDDAV:  cpu time   28.1898: real time   28.1915
       DOS:  cpu time    0.0021: real time    0.0021
    CHARGE:  cpu time    1.5974: real time    1.5974
    MIXING:  cpu time    0.0335: real time    0.0335
    --------------------------------------------
      LOOP:  cpu time   30.3213: real time   30.3237

 eigenvalue-minimisations  :  3008
 total energy-change (2. order) :-0.1488273E-02  (-0.1449240E-04)
 number of electron     517.9999994 magnetization 
 augmentation part       16.8475379 magnetization 

 Broyden mixing:
  rms(total) = 0.67943E-03    rms(broyden)= 0.67871E-03
  rms(prec ) = 0.10236E-02
  weight for this iteration     100.00

 eigenvalues of (default mixing * dielectric matrix)
  average eigenvalue GAMMA=   1.7068
  6.9491  4.7763  2.7377  2.3672  1.8952  1.4025  0.4253  0.4253  1.0822  1.0822
  0.9995  0.9995  0.7365  0.7365  0.9651  0.8556  0.5800

 Free energy of the ion-electron system (eV)
  ---------------------------------------------------
  alpha Z        PSCENC =      1649.05367391
  Ewald energy   TEWEN  =    133170.31598636
  -Hartree energ DENC   =   -175680.80764880
  -exchange      EXHF   =         0.00000000
  -V(xc)+E(xc)   XCENC  =      1402.59574046
  PAW double counting   =     39536.60300520   -38825.84147431
  entropy T*S    EENTRO =        -0.01759639
  eigenvalues    EBANDS =    -10332.77290309
  atomic energy  EATOM  =     48333.26757577
  Solvation  Ediel_sol  =         0.00000000
  ---------------------------------------------------
  free energy    TOTEN  =      -747.60364090 eV

  energy without entropy =     -747.58604451  energy(sigma->0) =     -747.59484271


--------------------------------------------------------------------------------------------------------




--------------------------------------- Iteration      1(  23)  ---------------------------------------


    POTLOK:  cpu time    0.4435: real time    0.4435
    SETDIJ:  cpu time    0.0540: real time    0.0540
     EDDAV:  cpu time   28.3966: real time   28.3984
       DOS:  cpu time    0.0021: real time    0.0021
    CHARGE:  cpu time    1.5997: real time    1.5997
    MIXING:  cpu time    0.0352: real time    0.0352
    --------------------------------------------
      LOOP:  cpu time   30.5310: real time   30.5330

 eigenvalue-minimisations  :  3040
 total energy-change (2. order) :-0.8826693E-03  (-0.8568300E-05)
 number of electron     517.9999994 magnetization 
 augmentation part       16.8475529 magnetization 

 Broyden mixing:
  rms(total) = 0.52784E-03    rms(broyden)= 0.52775E-03
  rms(prec ) = 0.65194E-03
  weight for this iteration     100.00

 eigenvalues of (default mixing * dielectric matrix)
  average eigenvalue GAMMA=   1.7557
  7.6628  5.1658  2.7601  2.4751  1.9708  1.7396  1.0919  1.0919  0.4253  0.4253
  1.0026  1.0026  0.7364  0.7364  0.9491  0.9491  0.8384  0.5800

 Free energy of the ion-electron system (eV)
  ---------------------------------------------------
  alpha Z        PSCENC =      1649.05367391
  Ewald energy   TEWEN  =    133170.31598636
  -Hartree energ DENC   =   -175681.37636466
  -exchange      EXHF   =         0.00000000
  -V(xc)+E(xc)   XCENC  =      1402.59401356
  PAW double counting   =     39536.10055227   -38825.34162234
  entropy T*S    EENTRO =        -0.01759483
  eigenvalues    EBANDS =    -10332.20074360
  atomic energy  EATOM  =     48333.26757577
  Solvation  Ediel_sol  =         0.00000000
  ---------------------------------------------------
  free energy    TOTEN  =      -747.60452357 eV

  energy without entropy =     -747.58692874  energy(sigma->0) =     -747.59572615


--------------------------------------------------------------------------------------------------------




--------------------------------------- Iteration      1(  24)  ---------------------------------------


    POTLOK:  cpu time    0.4448: real time    0.4449
    SETDIJ:  cpu time    0.0538: real time    0.0538
     EDDAV:  cpu time   27.0426: real time   27.0444
       DOS:  cpu time    0.0023: real time    0.0023
    CHARGE:  cpu time    1.6002: real time    1.6002
    MIXING:  cpu time    0.0362: real time    0.0362
    --------------------------------------------
      LOOP:  cpu time   29.1799: real time   29.1818

 eigenvalue-minimisations  :  2832
 total energy-change (2. order) :-0.3172845E-03  (-0.2499813E-05)
 number of electron     517.9999994 magnetization 
 augmentation part       16.8476096 magnetization 

 Broyden mixing:
  rms(total) = 0.28327E-03    rms(broyden)= 0.28326E-03
  rms(prec ) = 0.36266E-03
  weight for this iteration     100.00

 eigenvalues of (default mixing * dielectric matrix)
  average eigenvalue GAMMA=   1.8120
  8.4613  5.3811  2.9623  2.5240  2.2063  1.8646  1.1204  1.1204  1.2043  0.4253
  0.4253  0.9627  0.9627  0.7365  0.7365  0.9951  0.8878  0.8718  0.5800

 Free energy of the ion-electron system (eV)
  ---------------------------------------------------
  alpha Z        PSCENC =      1649.05367391
  Ewald energy   TEWEN  =    133170.31598636
  -Hartree energ DENC   =   -175681.44273976
  -exchange      EXHF   =         0.00000000
  -V(xc)+E(xc)   XCENC  =      1402.59323379
  PAW double counting   =     39535.87562816   -38825.11777435
  entropy T*S    EENTRO =        -0.01759661
  eigenvalues    EBANDS =    -10332.13282813
  atomic energy  EATOM  =     48333.26757577
  Solvation  Ediel_sol  =         0.00000000
  ---------------------------------------------------
  free energy    TOTEN  =      -747.60484085 eV

  energy without entropy =     -747.58724425  energy(sigma->0) =     -747.59604255


--------------------------------------------------------------------------------------------------------




--------------------------------------- Iteration      1(  25)  ---------------------------------------


    POTLOK:  cpu time    0.4460: real time    0.4461
    SETDIJ:  cpu time    0.0539: real time    0.0539
     EDDAV:  cpu time   26.1040: real time   26.1058
       DOS:  cpu time    0.0020: real time    0.0020
    CHARGE:  cpu time    1.5970: real time    1.5970
    MIXING:  cpu time    0.0382: real time    0.0382
    --------------------------------------------
      LOOP:  cpu time   28.2411: real time   28.2429

 eigenvalue-minimisations  :  2688
 total energy-change (2. order) :-0.1536651E-03  (-0.1486972E-05)
 number of electron     517.9999994 magnetization 
 augmentation part       16.8475988 magnetization 

 Broyden mixing:
  rms(total) = 0.14128E-03    rms(broyden)= 0.14121E-03
  rms(prec ) = 0.17276E-03
  weight for this iteration     100.00

 eigenvalues of (default mixing * dielectric matrix)
  average eigenvalue GAMMA=   1.8338
  8.8235  5.5805  3.0886  2.5929  2.3264  1.7301  1.7301  0.4253  0.4253  1.0973
  1.0973  0.5800  0.7364  0.7364  0.9765  0.9765  0.9994  0.9994  0.8772  0.8772

 Free energy of the ion-electron system (eV)
  ---------------------------------------------------
  alpha Z        PSCENC =      1649.05367391
  Ewald energy   TEWEN  =    133170.31598636
  -Hartree energ DENC   =   -175681.50606258
  -exchange      EXHF   =         0.00000000
  -V(xc)+E(xc)   XCENC  =      1402.59321648
  PAW double counting   =     39535.77373325   -38825.01529804
  entropy T*S    EENTRO =        -0.01760060
  eigenvalues    EBANDS =    -10332.07021906
  atomic energy  EATOM  =     48333.26757577
  Solvation  Ediel_sol  =         0.00000000
  ---------------------------------------------------
  free energy    TOTEN  =      -747.60499452 eV

  energy without entropy =     -747.58739391  energy(sigma->0) =     -747.59619422


--------------------------------------------------------------------------------------------------------




--------------------------------------- Iteration      1(  26)  ---------------------------------------


    POTLOK:  cpu time    0.4448: real time    0.4448
    SETDIJ:  cpu time    0.0540: real time    0.0540
     EDDAV:  cpu time   24.9415: real time   24.9436
       DOS:  cpu time    0.0023: real time    0.0023
    CHARGE:  cpu time    1.5959: real time    1.5959
    MIXING:  cpu time    0.0401: real time    0.0401
    --------------------------------------------
      LOOP:  cpu time   27.0786: real time   27.0807

 eigenvalue-minimisations  :  2496
 total energy-change (2. order) :-0.3774124E-04  (-0.2764160E-06)
 number of electron     517.9999994 magnetization 
[...]
 -----------------------------------------------------------------------------------------------
   0.666E+01 -.339E+01 -.271E+04   -.618E+01 0.339E+01 0.271E+04   -.482E+00 0.899E-02 0.367E+01   -.160E-02 0.141E-03 0.278E-01
   0.281E+01 -.630E+01 -.271E+04   -.281E+01 0.584E+01 0.271E+04   -.116E-01 0.462E+00 0.368E+01   -.542E-03 0.168E-02 0.271E-01
   0.992E+00 -.999E+00 0.276E+04   -.981E+00 0.987E+00 -.276E+04   -.187E-01 0.193E-01 -.383E+01   0.127E-02 -.129E-02 0.168E-01
   0.125E+00 -.819E-01 0.276E+04   -.124E+00 0.812E-01 -.276E+04   0.483E-03 0.422E-03 -.384E+01   0.514E-04 0.235E-04 0.170E-01
   0.284E+01 -.198E+00 0.943E+03   -.277E+01 0.195E+00 -.943E+03   -.406E-01 0.185E-03 0.162E+00   0.158E-02 -.239E-04 0.732E-01
   0.321E+00 -.293E+01 0.943E+03   -.325E+00 0.286E+01 -.944E+03   0.189E-02 0.403E-01 0.240E+00   0.124E-03 -.166E-02 0.733E-01
   0.254E+02 -.257E+02 -.919E+03   -.254E+02 0.257E+02 0.919E+03   -.299E-02 0.268E-02 -.333E-01   -.967E-03 0.105E-02 0.788E-01
   0.574E+00 -.612E+00 -.885E+03   -.583E+00 0.611E+00 0.885E+03   0.862E-02 0.121E-02 -.499E-01   0.499E-03 -.189E-03 0.766E-01
   -.578E+01 -.412E+01 -.271E+04   0.532E+01 0.411E+01 0.270E+04   0.451E+00 0.114E-01 0.366E+01   0.170E-02 0.132E-02 0.262E-01
   -.243E+01 -.154E+03 -.270E+04   0.243E+01 0.152E+03 0.269E+04   -.109E-01 0.233E+01 0.444E+01   0.824E-03 0.886E-02 0.306E-01
   -.988E+00 -.987E+00 0.276E+04   0.979E+00 0.976E+00 -.276E+04   0.191E-01 0.187E-01 -.383E+01   -.126E-02 -.136E-02 0.171E-01
   -.122E+00 -.947E-01 0.276E+04   0.124E+00 0.938E-01 -.276E+04   -.190E-03 0.475E-03 -.384E+01   -.523E-04 0.139E-04 0.162E-01
   -.285E+01 -.246E+00 0.944E+03   0.278E+01 0.247E+00 -.944E+03   0.409E-01 -.168E-03 0.156E+00   -.161E-02 -.110E-03 0.732E-01
   -.375E+00 -.772E+01 0.930E+03   0.386E+00 0.752E+01 -.931E+03   -.187E-02 0.801E-01 0.352E+00   -.210E-03 0.110E-02 0.747E-01
   -.255E+02 -.254E+02 -.917E+03   0.255E+02 0.254E+02 0.917E+03   0.193E-01 0.529E-02 -.245E-01   0.168E-02 0.122E-02 0.780E-01
   -.733E+00 -.106E+01 -.880E+03   0.739E+00 0.107E+01 0.880E+03   -.689E-02 0.150E-02 0.119E+00   -.635E-04 -.266E-03 0.797E-01
   0.154E+03 0.372E+01 -.270E+04   -.152E+03 -.372E+01 0.269E+04   -.240E+01 0.136E-01 0.451E+01   -.742E-02 -.770E-03 0.300E-01
   0.347E+01 0.605E+01 -.271E+04   -.346E+01 -.558E+01 0.270E+04   -.109E-01 -.459E+00 0.367E+01   -.188E-02 -.143E-02 0.266E-01
   0.981E+00 0.997E+00 0.276E+04   -.970E+00 -.986E+00 -.276E+04   -.187E-01 -.191E-01 -.383E+01   0.127E-02 0.130E-02 0.168E-01
   0.134E+00 0.833E-01 0.276E+04   -.134E+00 -.828E-01 -.276E+04   0.529E-03 -.443E-03 -.384E+01   -.197E-04 0.381E-05 0.162E-01
   0.769E+01 0.230E+00 0.930E+03   -.750E+01 -.232E+00 -.931E+03   -.800E-01 -.567E-03 0.278E+00   -.117E-02 0.300E-04 0.747E-01
   0.375E+00 0.289E+01 0.943E+03   -.383E+00 -.282E+01 -.944E+03   0.223E-02 -.400E-01 0.235E+00   0.213E-03 0.170E-02 0.732E-01
   0.251E+02 0.258E+02 -.917E+03   -.251E+02 -.257E+02 0.917E+03   -.935E-02 -.281E-02 -.386E-01   -.119E-02 -.141E-02 0.788E-01
   0.111E+01 0.801E+00 -.881E+03   -.112E+01 -.801E+00 0.880E+03   0.745E-02 0.230E-02 0.117E+00   0.317E-03 -.586E-04 0.798E-01
   -.152E+03 0.445E+01 -.269E+04   0.150E+03 -.448E+01 0.268E+04   0.230E+01 0.241E-01 0.440E+01   0.117E-01 0.117E-02 0.308E-01
   -.316E+01 0.152E+03 -.269E+04   0.318E+01 -.149E+03 0.268E+04   -.215E-01 -.236E+01 0.448E+01   -.141E-02 -.998E-02 0.302E-01
   -.980E+00 0.986E+00 0.276E+04   0.970E+00 -.977E+00 -.276E+04   0.195E-01 -.187E-01 -.383E+01   -.126E-02 0.137E-02 0.171E-01
   -.133E+00 0.919E-01 0.276E+04   0.135E+00 -.912E-01 -.275E+04   -.573E-04 -.435E-03 -.381E+01   0.729E-04 -.257E-04 0.177E-01
   -.769E+01 0.238E+00 0.931E+03   0.749E+01 -.239E+00 -.931E+03   0.817E-01 -.426E-03 0.263E+00   0.114E-02 0.635E-04 0.749E-01
   -.376E+00 0.779E+01 0.931E+03   0.385E+00 -.759E+01 -.931E+03   -.215E-02 -.801E-01 0.355E+00   -.248E-03 -.104E-02 0.748E-01
   -.252E+02 0.254E+02 -.914E+03   0.252E+02 -.254E+02 0.914E+03   0.227E-01 -.563E-02 -.319E-01   0.138E-02 -.113E-02 0.767E-01
   -.110E+01 0.119E+01 -.102E+04   0.111E+01 -.118E+01 0.102E+04   -.956E-02 -.119E-01 0.844E+00   -.356E-04 0.741E-04 0.804E-01
   0.421E-01 -.252E+00 0.943E+03   -.424E-01 0.239E+00 -.944E+03   0.953E-03 0.130E-01 0.103E+01   -.323E-05 -.586E-03 0.625E-02
   0.249E+00 -.282E-01 0.943E+03   -.237E+00 0.280E-01 -.944E+03   -.135E-01 0.274E-03 0.103E+01   0.559E-03 0.443E-05 0.620E-02
   0.319E+00 -.716E+00 -.949E+03   -.325E+00 0.717E+00 0.951E+03   0.120E-01 -.526E-02 -.187E+01   0.179E-06 -.133E-03 0.836E-02
   0.145E+02 -.146E+02 -.950E+03   -.144E+02 0.144E+02 0.952E+03   -.105E+00 0.125E+00 -.169E+01   -.228E-02 0.219E-02 0.912E-02
   0.236E+00 -.344E+01 -.299E+03   -.237E+00 0.344E+01 0.299E+03   -.139E-02 0.368E-02 0.169E+00   -.136E-03 -.268E-03 0.270E-01
   0.336E+01 -.306E+00 -.299E+03   -.335E+01 0.305E+00 0.299E+03   -.449E-02 0.342E-02 0.168E+00   0.173E-03 0.102E-03 0.270E-01
   0.105E+00 -.540E-01 0.318E+03   -.107E+00 0.536E-01 -.318E+03   0.116E-02 0.105E-02 -.595E+00   0.777E-04 -.978E-05 0.252E-01
   0.189E+01 -.190E+01 0.314E+03   -.187E+01 0.188E+01 -.314E+03   -.384E-01 0.390E-01 -.453E+00   0.142E-03 -.153E-03 0.259E-01
   -.440E-01 -.420E+00 0.942E+03   0.432E-01 0.400E+00 -.943E+03   -.700E-03 0.330E-01 0.110E+01   -.169E-05 -.549E-04 0.635E-02
   -.250E+00 -.304E-01 0.943E+03   0.236E+00 0.302E-01 -.944E+03   0.128E-01 0.294E-03 0.103E+01   -.561E-03 0.134E-04 0.629E-02
   -.939E+00 -.168E+01 -.940E+03   0.928E+00 0.169E+01 0.942E+03   0.106E-01 0.661E-02 -.171E+01   0.171E-03 0.440E-03 0.870E-02
   -.150E+02 -.135E+02 -.948E+03   0.149E+02 0.134E+02 0.950E+03   0.110E+00 0.923E-01 -.167E+01   0.245E-02 0.200E-02 0.842E-02
   -.196E+00 -.209E+02 -.318E+03   0.200E+00 0.210E+02 0.318E+03   -.877E-02 -.720E-01 0.224E+00   -.191E-03 0.834E-03 0.287E-01
   -.328E+01 -.345E+00 -.298E+03   0.328E+01 0.344E+00 0.298E+03   0.579E-02 -.464E-03 0.175E+00   -.364E-03 -.111E-03 0.271E-01
   -.882E-01 -.113E+00 0.318E+03   0.884E-01 0.114E+00 -.318E+03   0.960E-03 -.363E-02 -.502E+00   -.746E-04 -.109E-04 0.256E-01
   -.184E+01 -.189E+01 0.314E+03   0.182E+01 0.187E+01 -.314E+03   0.463E-01 0.396E-01 -.452E+00   -.120E-03 -.147E-03 0.259E-01
   0.444E-01 0.252E+00 0.943E+03   -.447E-01 -.238E+00 -.944E+03   0.896E-03 -.130E-01 0.103E+01   -.119E-04 0.573E-03 0.625E-02
   0.418E+00 0.292E-01 0.942E+03   -.399E+00 -.284E-01 -.943E+03   -.333E-01 -.309E-03 0.110E+01   0.300E-04 -.728E-05 0.630E-02
   0.130E+01 0.834E+00 -.940E+03   -.128E+01 -.837E+00 0.941E+03   -.216E-01 0.557E-03 -.172E+01   -.488E-03 -.137E-03 0.856E-02
   0.133E+02 0.146E+02 -.948E+03   -.132E+02 -.144E+02 0.949E+03   -.970E-01 -.122E+00 -.171E+01   -.169E-02 -.219E-02 0.869E-02
   0.270E+00 0.331E+01 -.298E+03   -.271E+00 -.331E+01 0.298E+03   0.338E-02 -.107E-02 0.173E+00   0.101E-03 0.366E-03 0.271E-01
   0.209E+02 0.304E+00 -.319E+03   -.209E+02 -.303E+00 0.318E+03   0.701E-01 0.702E-03 0.220E+00   -.847E-03 0.474E-04 0.286E-01
   0.113E+00 0.651E-01 0.318E+03   -.114E+00 -.646E-01 -.318E+03   0.427E-03 -.194E-02 -.504E+00   0.701E-04 0.200E-05 0.256E-01
   0.186E+01 0.187E+01 0.314E+03   -.184E+01 -.185E+01 -.314E+03   -.409E-01 -.426E-01 -.455E+00   0.128E-03 0.152E-03 0.259E-01
   -.454E-01 0.421E+00 0.942E+03   0.448E-01 -.401E+00 -.943E+03   -.875E-03 -.331E-01 0.110E+01   0.660E-05 0.541E-04 0.635E-02
   -.419E+00 0.306E-01 0.942E+03   0.398E+00 -.300E-01 -.943E+03   0.331E-01 -.115E-03 0.110E+01   -.440E-04 -.160E-04 0.642E-02
   -.128E+03 0.174E+02 -.563E+03   0.143E+03 -.191E+02 0.542E+03   -.156E+02 0.179E+01 0.225E+02   0.183E-01 0.130E-02 -.223E-01
   -.137E+02 0.135E+02 -.945E+03   0.136E+02 -.134E+02 0.946E+03   0.155E+00 -.139E+00 -.163E+01   0.343E-02 -.343E-02 0.929E-02
   -.217E+00 0.209E+02 -.318E+03   0.220E+00 -.209E+02 0.317E+03   -.516E-02 0.718E-01 0.229E+00   -.194E-03 -.757E-03 0.286E-01
   -.208E+02 0.340E+00 -.317E+03   0.209E+02 -.338E+00 0.317E+03   -.728E-01 -.152E-02 0.222E+00   0.734E-03 0.514E-04 0.285E-01
   -.107E+00 0.627E-01 0.313E+03   0.105E+00 -.620E-01 -.313E+03   0.437E-02 -.253E-02 -.152E+00   -.713E-04 -.680E-05 0.263E-01
   -.185E+01 0.189E+01 0.315E+03   0.183E+01 -.187E+01 -.315E+03   0.445E-01 -.399E-01 -.454E+00   -.124E-03 0.164E-03 0.260E-01
   0.108E+03 -.114E+02 -.104E+04   -.140E+03 0.151E+02 0.109E+04   0.325E+02 -.387E+01 -.484E+02   0.191E-01 -.731E-02 0.251E-01
 -----------------------------------------------------------------------------------------------
   -.168E+02 0.212E+01 0.245E+02   -.284E-12 -.428E-12 0.432E-11   0.168E+02 -.211E+01 -.265E+02   0.411E-01 -.665E-02 0.213E+01
 
 
 POSITION                                       TOTAL-FORCE (eV/Angst)
 -----------------------------------------------------------------------------------
      0.02568      9.29321      6.86057        -0.006368      0.006316      0.008004
      2.32553      2.29801      6.86094        -0.007210      0.001431      0.010237
      0.00000      2.32370      0.00000        -0.007049      0.006460      1.314242
      2.32370      0.00000      0.00000         0.000889     -0.000218      1.392420
      0.00000      0.00000      2.32366         0.031645     -0.002767     -0.207782
      2.32370      2.32370      2.32366        -0.002169     -0.030524     -0.128831
     -0.00096      2.32481      4.61710         0.002720     -0.002249      0.006769
      2.32385      0.00038      4.60661         0.000416      0.000077      0.007775
      4.62392      9.29443      6.85868        -0.001489      0.000184      0.015386
      6.97298      2.21170      6.87861        -0.009960      0.007266      0.015334
      4.64740      2.32370      0.00000         0.007597      0.007124      1.311002
      6.97110      0.00000      0.00000         0.001039     -0.000299      1.346013
      4.64740      0.00000      2.32366        -0.028844      0.000124     -0.218734
      6.97110      2.32370      2.32366         0.008012     -0.120069     -0.215785
      4.65041      2.32468      4.61544        -0.005299     -0.002285      0.005365
      6.97202      9.29350      4.59562        -0.002065      0.002405      0.003198
      0.11108      4.64612      6.88260        -0.007782      0.008711     -0.000482
      2.32394      6.99610      6.85941        -0.000846      0.002260      0.014723
      0.00000      6.97110      0.00000        -0.006750     -0.006809      1.313818
      2.32370      4.64740      0.00000        -0.000047      0.000096      1.345867
      0.00000      4.64740      2.32366         0.117186     -0.002606     -0.288920
      2.32370      6.97110      2.32366        -0.005701      0.029421     -0.128026
     -0.00148      6.96856      4.61707         0.001372      0.005322      0.007508
      2.32365      4.64700      4.59582        -0.002494      0.002168      0.002330
      4.53817      4.64748      6.87631        -0.003079     -0.000158      0.015870
      6.97188      7.07881      6.88000        -0.001427      0.004231      0.018842
      4.64740      6.97110      0.00000         0.007674     -0.007737      1.310380
      6.97110      4.64740      0.00000         0.001490      0.000227      1.251994
      4.64740      4.64740      2.32366        -0.116152     -0.001243     -0.300153
      6.97110      6.97110      2.32366         0.006029      0.112512     -0.212988
      4.64949      6.96981      4.61512         0.000882      0.001359      0.006033
      6.97176      4.64660      4.57716        -0.000600     -0.001883      0.010445
      2.32370      2.32370      0.00000         0.000261     -0.000564     -0.663865
      0.00000      0.00000      0.00000        -0.000748      0.000147     -0.664947
      2.32283      0.00025      6.95639         0.005339     -0.005121      0.014192
     -0.01465      2.33743      6.99878         0.002644     -0.002411      0.032285
      2.32470      2.32155      4.64638        -0.003202      0.000096      0.002407
      0.00262      9.29403      4.64689        -0.000339      0.003333      0.000934
      2.32370      0.00000      2.32366        -0.000618      0.000683     -0.684670
      0.00000      2.32370      2.32366        -0.019246      0.019290     -0.483520
      6.97110      2.32370      0.00000        -0.001996      0.013340     -0.627505
      4.64740      0.00000      0.00000        -0.002144      0.000178     -0.664942
      6.97010      9.29256      6.94119        -0.000170      0.008162     -0.011174
      4.66252      2.34017      6.99907        -0.007445     -0.012728      0.029741
      6.97263      2.32596      4.66628        -0.005254      0.001604      0.005267
      4.64613      0.00002      4.64551        -0.001916     -0.001324      0.007843
      6.97110      0.00000      2.32366         0.000632     -0.002218     -0.596577
      4.64740      2.32370      2.32366         0.023797      0.019694     -0.482966
      2.32370      6.97110      0.00000         0.000162      0.000985     -0.665050
      0.00000      4.64740      0.00000        -0.014162      0.000544     -0.628092
      2.32401      4.64721      6.94130        -0.007132     -0.002346     -0.016905
      9.27897      6.95598      6.99797         0.015924      0.003984      0.023207
      2.32367      6.97266      4.64557         0.002023      0.004400      0.005864
      9.29203      4.64655      4.66708        -0.001827      0.002200      0.001761
      2.32370      4.64740      2.32366        -0.000481     -0.001373     -0.596925
      0.00000      6.97110      2.32366        -0.020347     -0.021659     -0.486008
      6.97110      6.97110      0.00000        -0.001978     -0.012596     -0.627828
      4.64740      4.64740      0.00000         0.011994      0.000491     -0.628836
      6.92739      4.98024     10.43081        -0.742159      0.114537      1.186653
      4.65911      6.95809      6.99465         0.017633     -0.017020      0.060373
      6.97189      6.96659      4.66647        -0.002986      0.000519      0.007650
      4.65088      4.64712      4.66476        -0.002099      0.000557      0.003215
      6.97110      4.64740      2.32366         0.002381     -0.001717     -0.176765
      4.64740      6.97110      2.32366         0.022261     -0.019941     -0.488007
      6.28065      5.05603     11.38829         0.759578     -0.112567     -1.218663
 -----------------------------------------------------------------------------------
    total drift:                                0.029020     -0.003799      0.129656


--------------------------------------------------------------------------------------------------------



  FREE ENERGIE OF THE ION-ELECTRON SYSTEM (eV)
  ---------------------------------------------------
  free  energy   TOTEN  =      -748.42914716 eV

  energy  without entropy=     -748.41670403  energy(sigma->0) =     -748.42292560
 
 d Force =-0.9746574E-02[-0.245E-01, 0.498E-02]  d Energy =-0.9513291E-02-0.233E-03
 d Force = 0.1175373E+03[ 0.117E+03, 0.118E+03]  d Ewald  = 0.1175380E+03-0.622E-03


--------------------------------------------------------------------------------------------------------


    POTLOK:  cpu time    0.5115: real time    0.5115


--------------------------------------------------------------------------------------------------------


 NEB: the previous image is higher in energy: F
 NEB: the next image is higher in energy    : F
 NEB: image is at an extrema
 NEB: diff energy (min, max):     0.666427  748.429147

 NEB: Tangent
 ----------------------------------------------
      0.00050      0.00020      0.00038
     -0.00011     -0.00015     -0.00022
      0.00000      0.00000      0.00000
      0.00000      0.00000      0.00000
      0.00000      0.00000      0.00000
      0.00000      0.00000      0.00000
      0.00011     -0.00000      0.00051
      0.00022     -0.00053      0.00054
     -0.00044     -0.00043      0.00094
     -0.00029      0.00020     -0.00081
      0.00000      0.00000      0.00000
      0.00000      0.00000      0.00000
      0.00000      0.00000      0.00000
      0.00000      0.00000      0.00000
     -0.00010     -0.00007      0.00081
      0.00002      0.00008      0.00038
      0.00034      0.00010     -0.00121
      0.00021     -0.00052      0.00055
      0.00000      0.00000      0.00000
      0.00000      0.00000      0.00000
      0.00000      0.00000      0.00000
      0.00000      0.00000      0.00000
      0.00017     -0.00010      0.00057
      0.00021     -0.00018      0.00010
     -0.00018     -0.00057      0.00027
      0.00010      0.00004     -0.00070
      0.00000      0.00000      0.00000
      0.00000      0.00000      0.00000
      0.00000      0.00000      0.00000
      0.00000      0.00000      0.00000
      0.00002     -0.00055      0.00106
      0.00013     -0.00003     -0.00121
      0.00000      0.00000      0.00000
      0.00000      0.00000      0.00000
      0.00057     -0.00057     -0.00264
      0.00030      0.00021     -0.00236
     -0.00005     -0.00023     -0.00074
      0.00016      0.00001     -0.00070
      0.00000      0.00000      0.00000
      0.00000      0.00000      0.00000
      0.00000      0.00000      0.00000
      0.00000      0.00000      0.00000
      0.00061      0.00015     -0.00065
      0.00031     -0.00080     -0.00259
     -0.00014      0.00008     -0.00089
     -0.00008     -0.00032     -0.00035
      0.00000      0.00000      0.00000
      0.00000      0.00000      0.00000
      0.00000      0.00000      0.00000
      0.00000      0.00000      0.00000
      0.00027     -0.00047     -0.00061
      0.00066     -0.00061     -0.00197
      0.00018     -0.00015     -0.00040
      0.00015      0.00007     -0.00096
      0.00000      0.00000      0.00000
      0.00000      0.00000      0.00000
      0.00000      0.00000      0.00000
      0.00000      0.00000      0.00000
     -0.03789      0.10391      0.71684
      0.00133     -0.00153     -0.00107
      0.00002     -0.00018     -0.00075
      0.00009     -0.00021     -0.00035
      0.00000      0.00000      0.00000
      0.00000      0.00000      0.00000
     -0.01683     -0.07263      0.68432

 NEB: forces: par spring, perp REAL, dneb     2.354976    2.013661    0.000000
 NEB: distance to prev, next image, angle between     2.773420    3.244416  176.372340
 NEB: projections on to tangent (spring, REAL)     2.354976    0.051885

 stress matrix after NEB project (eV)
    -31.37094      0.05979      0.80235
      0.05979    -30.98149      0.01176
      0.80235      0.01176    -12.76542
  FORCES: max atom, RMS     2.977444    0.384322
  FORCE total and by dimension    3.098507    2.837608
  Stress total and by dimension   45.915566   31.370938
 
 OPT: Flag T
 OPT: QM Step


--------------------------------------------------------------------------------------------------------


     LOOP+:  cpu time  259.2840: real time  261.4478
    4ORBIT:  cpu time    0.0000: real time    0.0000

 total amount of memory used by VASP MPI-rank0   163583. kBytes
=======================================================================

   base      :      30000. kBytes
   nonlr-proj:      14445. kBytes
   fftplans  :       7895. kBytes
   grid      :      27008. kBytes
   one-center:       1010. kBytes
   wavefun   :      83225. kBytes
 
  
  
 General timing and accounting informations for this job:
 ========================================================
  
                  Total CPU time used (sec):    13474.063
                            User time (sec):    13370.259
                          System time (sec):      103.805
                         Elapsed time (sec):    13597.817
  
                   Maximum memory used (kb):      899788.
                   Average memory used (kb):           0.
  
                          Minor page faults:     10851125
                          Major page faults:            0
                 Voluntary context switches:       140421
