PBE-grap                                
           1
     9.294800    0.000000    0.000000
     0.000000    9.294800    0.000000
     0.000000    0.000000   21.971100
   Hf   C    O 
  32  32   1
Direct configuration=     1
   0.00136265  0.99913013  0.31261941
   0.25098977  0.24890718  0.31259946
   0.00000000  0.25000000  0.00000000
   0.25000000  0.00000000  0.00000000
   0.00000000  0.00000000  0.10576000
   0.25000000  0.25000000  0.10576000
   0.00047857  0.24969151  0.21001010
   0.24992005  0.00028972  0.20961027
   0.49882843  0.99979989  0.31221958
   0.75099932  0.24175624  0.31226612
   0.50000000  0.25000000  0.00000000
   0.75000000  0.00000000  0.00000000
   0.50000000  0.00000000  0.10576000
   0.75000000  0.25000000  0.10576000
   0.50015045  0.24987107  0.21005014
   0.75008998  0.99866155  0.20966963
   0.00826369  0.49921037  0.31225634
   0.25030997  0.75123149  0.31221967
   0.00000000  0.75000000  0.00000000
   0.25000000  0.50000000  0.00000000
   0.00000000  0.50000000  0.10576000
   0.25000000  0.75000000  0.10576000
   0.00029889  0.75006937  0.21006014
   0.25153798  0.50000005  0.20964958
   0.49850097  0.50004852  0.31445111
   0.75012140  0.75148890  0.31453106
   0.50000000  0.75000000  0.00000000
   0.75000000  0.50000000  0.00000000
   0.50000000  0.50000000  0.10576000
   0.75000000  0.75000000  0.10576000
   0.50055888  0.74959114  0.21045921
   0.74850250  0.50164757  0.21116939
   0.25000000  0.25000000  0.00000000
   0.00000000  0.00000000  0.00000000
   0.24953976  0.00059015  0.31645009
   0.00061664  0.24952326  0.31653075
   0.25058966  0.24994011  0.21136014
   0.00016982  0.99955029  0.21137014
   0.25000000  0.00000000  0.10576000
   0.00000000  0.25000000  0.10576000
   0.75000000  0.25000000  0.00000000
   0.50000000  0.00000000  0.00000000
   0.75051857  0.99862021  0.31700883
   0.49948380  0.25078293  0.31665100
   0.75041981  0.25019163  0.21206021
   0.50013008  0.00037937  0.21091058
   0.75000000  0.00000000  0.10576000
   0.50000000  0.25000000  0.10576000
   0.25000000  0.75000000  0.00000000
   0.00000000  0.50000000  0.00000000
   0.25150977  0.49967129  0.31696885
   0.99939712  0.75066629  0.31666099
   0.24969059  0.74998983  0.21093058
   0.99994825  0.49977014  0.21206019
   0.25000000  0.50000000  0.10576000
   0.00000000  0.75000000  0.10576000
   0.75000000  0.75000000  0.00000000
   0.50000000  0.50000000  0.00000000
   0.74990669  0.50215764  0.38354774
   0.49355147  0.75645841  0.31398420
   0.75057921  0.75038660  0.21117277
   0.49977323  0.49959068  0.21109280
   0.75000000  0.50000000  0.10576000
   0.50000000  0.75000000  0.10576000
   0.68208586  0.56994470  0.43446649
Direct configuration=     2
   0.00136796  0.99913040  0.31261823
   0.25098931  0.24890156  0.31259837
   0.00000000  0.25000000  0.00000000
   0.25000000  0.00000000  0.00000000
   0.00000000  0.00000000  0.10576000
   0.25000000  0.25000000  0.10576000
   0.00047571  0.24969452  0.21001030
   0.24992014  0.00028917  0.20961080
   0.49882531  0.99979968  0.31221875
   0.75099795  0.24174868  0.31227830
   0.50000000  0.25000000  0.00000000
   0.75000000  0.00000000  0.00000000
   0.50000000  0.00000000  0.10576000
   0.75000000  0.25000000  0.10576000
   0.50015135  0.24987321  0.21005042
   0.75008993  0.99866465  0.20966891
   0.00827109  0.49921111  0.31226900
   0.25030990  0.75123446  0.31221901
   0.00000000  0.75000000  0.00000000
   0.25000000  0.50000000  0.00000000
   0.00000000  0.50000000  0.10576000
   0.25000000  0.75000000  0.10576000
   0.00029667  0.75006811  0.21006043
   0.25153394  0.50000015  0.20964875
   0.49846294  0.50004557  0.31445328
   0.75012419  0.75152663  0.31453312
   0.50000000  0.75000000  0.00000000
   0.75000000  0.50000000  0.00000000
   0.50000000  0.50000000  0.10576000
   0.75000000  0.75000000  0.10576000
   0.50055665  0.74959340  0.21045763
   0.74850748  0.50164270  0.21114824
   0.25000000  0.25000000  0.00000000
   0.00000000  0.00000000  0.00000000
   0.24953928  0.00059044  0.31645028
   0.00060990  0.24952980  0.31653225
   0.25058899  0.24994034  0.21136043
   0.00016946  0.99955086  0.21137043
   0.25000000  0.00000000  0.10576000
   0.00000000  0.25000000  0.10576000
   0.75000000  0.25000000  0.00000000
   0.50000000  0.00000000  0.00000000
   0.75051572  0.99862065  0.31700648
   0.49949140  0.25078878  0.31665301
   0.75041944  0.25019488  0.21206064
   0.50013023  0.00037810  0.21091174
   0.75000000  0.00000000  0.10576000
   0.50000000  0.25000000  0.10576000
   0.25000000  0.75000000  0.00000000
   0.00000000  0.50000000  0.00000000
   0.25150929  0.49967387  0.31696656
   0.99939135  0.75065887  0.31666299
   0.24969176  0.74998949  0.21093175
   0.99994475  0.49977041  0.21206058
   0.25000000  0.50000000  0.10576000
   0.00000000  0.75000000  0.10576000
   0.75000000  0.75000000  0.00000000
   0.50000000  0.50000000  0.00000000
   0.74984007  0.50227291  0.38376313
   0.49357443  0.75643523  0.31399262
   0.75057763  0.75037983  0.21117831
   0.49977967  0.49959205  0.21109841
   0.75000000  0.50000000  0.10576000
   0.50000000  0.75000000  0.10576000
   0.68213759  0.56983416  0.43457942
Direct configuration=     3
   0.00137595  0.99913082  0.31261645
   0.25098861  0.24889312  0.31259675
   0.00000000  0.25000000  0.00000000
   0.25000000  0.00000000  0.00000000
   0.00000000  0.00000000  0.10576000
   0.25000000  0.25000000  0.10576000
   0.00047142  0.24969904  0.21001061
   0.24992028  0.00028834  0.20961162
   0.49882064  0.99979936  0.31221751
   0.75099591  0.24173720  0.31229643
   0.50000000  0.25000000  0.00000000
   0.75000000  0.00000000  0.00000000
   0.50000000  0.00000000  0.10576000
   0.75000000  0.25000000  0.10576000
   0.50015273  0.24987643  0.21005085
   0.75008986  0.99866929  0.20966784
   0.00828229  0.49921221  0.31228787
   0.25030979  0.75123890  0.31221802
   0.00000000  0.75000000  0.00000000
   0.25000000  0.50000000  0.00000000
   0.00000000  0.50000000  0.10576000
   0.25000000  0.75000000  0.10576000
   0.00029333  0.75006620  0.21006087
   0.25152789  0.50000029  0.20964753
   0.49840593  0.50004116  0.31445639
   0.75012838  0.75158319  0.31453606
   0.50000000  0.75000000  0.00000000
   0.75000000  0.50000000  0.00000000
   0.50000000  0.50000000  0.10576000
   0.75000000  0.75000000  0.10576000
   0.50055333  0.74959678  0.21045528
   0.74851496  0.50163539  0.21111668
   0.25000000  0.25000000  0.00000000
   0.00000000  0.00000000  0.00000000
   0.24953857  0.00059087  0.31645056
   0.00059977  0.24953962  0.31653455
   0.25058798  0.24994069  0.21136085
   0.00016893  0.99955171  0.21137086
   0.25000000  0.00000000  0.10576000
   0.00000000  0.25000000  0.10576000
   0.75000000  0.25000000  0.00000000
   0.50000000  0.00000000  0.00000000
   0.75051144  0.99862132  0.31700298
   0.49950279  0.25079758  0.31665605
   0.75041889  0.25019971  0.21206129
   0.50013045  0.00037619  0.21091348
   0.75000000  0.00000000  0.10576000
   0.50000000  0.25000000  0.10576000
   0.25000000  0.75000000  0.00000000
   0.00000000  0.50000000  0.00000000
   0.25150856  0.49967774  0.31696313
   0.99938267  0.75064776  0.31666601
   0.24969352  0.74998897  0.21093349
   0.99993954  0.49977082  0.21206118
   0.25000000  0.50000000  0.10576000
   0.00000000  0.75000000  0.10576000
   0.75000000  0.75000000  0.00000000
   0.50000000  0.50000000  0.00000000
   0.74974002  0.50244565  0.38408604
   0.49360881  0.75640055  0.31400526
   0.75057527  0.75036973  0.21118659
   0.49978928  0.49959408  0.21110679
   0.75000000  0.50000000  0.10576000
   0.50000000  0.75000000  0.10576000
   0.68221512  0.56966862  0.43474861
Direct configuration=     4
   0.00138662  0.99913139  0.31261406
   0.25098765  0.24888181  0.31259454
   0.00000000  0.25000000  0.00000000
   0.25000000  0.00000000  0.00000000
   0.00000000  0.00000000  0.10576000
   0.25000000  0.25000000  0.10576000
   0.00046570  0.24970505  0.21001102
   0.24992047  0.00028723  0.20961269
   0.49881442  0.99979895  0.31221584
   0.75099319  0.24172165  0.31232029
   0.50000000  0.25000000  0.00000000
   0.75000000  0.00000000  0.00000000
   0.50000000  0.00000000  0.10576000
   0.75000000  0.25000000  0.10576000
   0.50015454  0.24988071  0.21005146
   0.75008983  0.99867554  0.20966645
   0.00829734  0.49921368  0.31231276
   0.25030963  0.75124479  0.31221668
   0.00000000  0.75000000  0.00000000
   0.25000000  0.50000000  0.00000000
   0.00000000  0.50000000  0.10576000
   0.25000000  0.75000000  0.10576000
   0.00028886  0.75006362  0.21006143
   0.25151985  0.50000047  0.20964593
   0.49832997  0.50003527  0.31446026
   0.75013408  0.75165874  0.31453973
   0.50000000  0.75000000  0.00000000
   0.75000000  0.50000000  0.00000000
   0.50000000  0.50000000  0.10576000
   0.75000000  0.75000000  0.10576000
   0.50054895  0.74960122  0.21045214
   0.74852483  0.50162574  0.21107488
   0.25000000  0.25000000  0.00000000
   0.00000000  0.00000000  0.00000000
   0.24953764  0.00059142  0.31645095
   0.00058619  0.24955276  0.31653770
   0.25058662  0.24994113  0.21136143
   0.00016822  0.99955286  0.21137144
   0.25000000  0.00000000  0.10576000
   0.00000000  0.25000000  0.10576000
   0.75000000  0.25000000  0.00000000
   0.50000000  0.00000000  0.00000000
   0.75050572  0.99862225  0.31699833
   0.49951800  0.25080933  0.31666016
   0.75041815  0.25020606  0.21206219
   0.50013076  0.00037364  0.21091581
   0.75000000  0.00000000  0.10576000
   0.50000000  0.25000000  0.10576000
   0.25000000  0.75000000  0.00000000
   0.00000000  0.50000000  0.00000000
   0.25150754  0.49968291  0.31695858
   0.99937107  0.75063296  0.31667012
   0.24969587  0.74998828  0.21093584
   0.99993267  0.49977135  0.21206201
   0.25000000  0.50000000  0.10576000
   0.00000000  0.75000000  0.10576000
   0.75000000  0.75000000  0.00000000
   0.50000000  0.50000000  0.00000000
   0.74960667  0.50267571  0.38451621
   0.49365466  0.75635433  0.31402217
   0.75057207  0.75035639  0.21119757
   0.49980198  0.49959674  0.21111788
   0.75000000  0.50000000  0.10576000
   0.50000000  0.75000000  0.10576000
   0.68231855  0.56944835  0.43497393
Direct configuration=     5
   0.00140015  0.99913216  0.31261104
   0.25098641  0.24886764  0.31259175
   0.00000000  0.25000000  0.00000000
   0.25000000  0.00000000  0.00000000
   0.00000000  0.00000000  0.10576000
   0.25000000  0.25000000  0.10576000
   0.00045846  0.24971263  0.21001146
   0.24992071  0.00028583  0.20961400
   0.49880658  0.99979843  0.31221372
   0.75098976  0.24170188  0.31234971
   0.50000000  0.25000000  0.00000000
   0.75000000  0.00000000  0.00000000
   0.50000000  0.00000000  0.10576000
   0.75000000  0.25000000  0.10576000
   0.50015683  0.24988607  0.21005217
   0.75008979  0.99868332  0.20966470
   0.00831636  0.49921563  0.31234362
   0.25030944  0.75125221  0.31221489
   0.00000000  0.75000000  0.00000000
   0.25000000  0.50000000  0.00000000
   0.00000000  0.50000000  0.10576000
   0.25000000  0.75000000  0.10576000
   0.00028324  0.75006035  0.21006208
   0.25150983  0.50000067  0.20964392
   0.49823512  0.50002796  0.31446463
   0.75014121  0.75175323  0.31454380
   0.50000000  0.75000000  0.00000000
   0.75000000  0.50000000  0.00000000
   0.50000000  0.50000000  0.10576000
   0.75000000  0.75000000  0.10576000
   0.50054350  0.74960669  0.21044821
   0.74853727  0.50161370  0.21102309
   0.25000000  0.25000000  0.00000000
   0.00000000  0.00000000  0.00000000
   0.24953648  0.00059207  0.31645145
   0.00056909  0.24956925  0.31654179
   0.25058491  0.24994168  0.21136220
   0.00016731  0.99955428  0.21137220
   0.25000000  0.00000000  0.10576000
   0.00000000  0.25000000  0.10576000
   0.75000000  0.25000000  0.00000000
   0.50000000  0.00000000  0.00000000
   0.75049854  0.99862347  0.31699258
   0.49953698  0.25082393  0.31666544
   0.75041725  0.25021382  0.21206337
   0.50013112  0.00037044  0.21091878
   0.75000000  0.00000000  0.10576000
   0.50000000  0.25000000  0.10576000
   0.25000000  0.75000000  0.00000000
   0.00000000  0.50000000  0.00000000
   0.25150624  0.49968931  0.31695299
   0.99935654  0.75061458  0.31667537
   0.24969880  0.74998740  0.21093883
   0.99992416  0.49977200  0.21206314
   0.25000000  0.50000000  0.10576000
   0.00000000  0.75000000  0.10576000
   0.75000000  0.75000000  0.00000000
   0.50000000  0.50000000  0.00000000
   0.74944037  0.50296265  0.38505325
   0.49371188  0.75629668  0.31404337
   0.75056813  0.75033992  0.21121126
   0.49981770  0.49960004  0.21113174
   0.75000000  0.50000000  0.10576000
   0.50000000  0.75000000  0.10576000
   0.68244800  0.56917403  0.43525534
Direct configuration=     6
   0.00141645  0.99913315  0.31260736
   0.25098482  0.24885065  0.31258835
   0.00000000  0.25000000  0.00000000
   0.25000000  0.00000000  0.00000000
   0.00000000  0.00000000  0.10576000
   0.25000000  0.25000000  0.10576000
   0.00044959  0.24972177  0.21001196
   0.24992107  0.00028412  0.20961559
   0.49879714  0.99979781  0.31221112
   0.75098572  0.24167766  0.31238430
   0.50000000  0.25000000  0.00000000
   0.75000000  0.00000000  0.00000000
   0.50000000  0.00000000  0.10576000
   0.75000000  0.25000000  0.10576000
   0.50015963  0.24989255  0.21005299
   0.75008984  0.99869273  0.20966261
   0.00833952  0.49921788  0.31238011
   0.25030919  0.75126110  0.31221268
   0.00000000  0.75000000  0.00000000
   0.25000000  0.50000000  0.00000000
   0.00000000  0.50000000  0.10576000
   0.25000000  0.75000000  0.10576000
   0.00027643  0.75005635  0.21006283
   0.25149783  0.50000089  0.20964154
   0.49812139  0.50001938  0.31446910
   0.75014964  0.75186645  0.31454789
   0.50000000  0.75000000  0.00000000
   0.75000000  0.50000000  0.00000000
   0.50000000  0.50000000  0.10576000
   0.75000000  0.75000000  0.10576000
   0.50053705  0.74961315  0.21044351
   0.74855214  0.50159926  0.21096177
   0.25000000  0.25000000  0.00000000
   0.00000000  0.00000000  0.00000000
   0.24953509  0.00059282  0.31645206
   0.00054838  0.24958918  0.31654690
   0.25058283  0.24994233  0.21136316
   0.00016621  0.99955602  0.21137314
   0.25000000  0.00000000  0.10576000
   0.00000000  0.25000000  0.10576000
   0.75000000  0.25000000  0.00000000
   0.50000000  0.00000000  0.00000000
   0.75048994  0.99862501  0.31698580
   0.49955981  0.25084152  0.31667195
   0.75041617  0.25022294  0.21206490
   0.50013154  0.00036660  0.21092236
   0.75000000  0.00000000  0.10576000
   0.50000000  0.25000000  0.10576000
   0.25000000  0.75000000  0.00000000
   0.00000000  0.50000000  0.00000000
   0.25150456  0.49969702  0.31694632
   0.99933900  0.75059259  0.31668185
   0.24970229  0.74998635  0.21094245
   0.99991418  0.49977271  0.21206457
   0.25000000  0.50000000  0.10576000
   0.00000000  0.75000000  0.10576000
   0.75000000  0.75000000  0.00000000
   0.50000000  0.50000000  0.00000000
   0.74924143  0.50330589  0.38569661
   0.49378041  0.75622759  0.31406891
   0.75056343  0.75032044  0.21122763
   0.49983631  0.49960397  0.21114829
   0.75000000  0.50000000  0.10576000
   0.50000000  0.75000000  0.10576000
   0.68260359  0.56884559  0.43559275
Direct configuration=     7
   0.00143550  0.99913439  0.31260291
   0.25098290  0.24883083  0.31258432
   0.00000000  0.25000000  0.00000000
   0.25000000  0.00000000  0.00000000
   0.00000000  0.00000000  0.10576000
   0.25000000  0.25000000  0.10576000
   0.00043927  0.24973239  0.21001252
   0.24992157  0.00028220  0.20961748
   0.49878614  0.99979710  0.31220804
   0.75098102  0.24164846  0.31242366
   0.50000000  0.25000000  0.00000000
   0.75000000  0.00000000  0.00000000
   0.50000000  0.00000000  0.10576000
   0.75000000  0.25000000  0.10576000
   0.50016300  0.24990012  0.21005391
   0.75008996  0.99870383  0.20966018
   0.00836712  0.49922029  0.31242174
   0.25030882  0.75127146  0.31220999
   0.00000000  0.75000000  0.00000000
   0.25000000  0.50000000  0.00000000
   0.00000000  0.50000000  0.10576000
   0.25000000  0.75000000  0.10576000
   0.00026846  0.75005156  0.21006366
   0.25148393  0.50000109  0.20963884
   0.49798860  0.50000942  0.31447334
   0.75015930  0.75199872  0.31455158
   0.50000000  0.75000000  0.00000000
   0.75000000  0.50000000  0.00000000
   0.50000000  0.50000000  0.10576000
   0.75000000  0.75000000  0.10576000
   0.50052955  0.74962057  0.21043802
   0.74856937  0.50158243  0.21089114
   0.25000000  0.25000000  0.00000000
   0.00000000  0.00000000  0.00000000
   0.24953352  0.00059363  0.31645280
   0.00052399  0.24961258  0.31655316
   0.25058041  0.24994306  0.21136432
   0.00016495  0.99955805  0.21137427
   0.25000000  0.00000000  0.10576000
   0.00000000  0.25000000  0.10576000
   0.75000000  0.25000000  0.00000000
   0.50000000  0.00000000  0.00000000
   0.75047987  0.99862695  0.31697798
   0.49958666  0.25086196  0.31667983
   0.75041494  0.25023328  0.21206683
   0.50013204  0.00036210  0.21092660
   0.75000000  0.00000000  0.10576000
   0.50000000  0.25000000  0.10576000
   0.25000000  0.75000000  0.00000000
   0.00000000  0.50000000  0.00000000
   0.25150247  0.49970600  0.31693863
   0.99931842  0.75056697  0.31668967
   0.24970639  0.74998512  0.21094674
   0.99990278  0.49977352  0.21206637
   0.25000000  0.50000000  0.10576000
   0.00000000  0.75000000  0.10576000
   0.75000000  0.75000000  0.00000000
   0.50000000  0.50000000  0.00000000
   0.74900928  0.50370494  0.38644560
   0.49386024  0.75614731  0.31409895
   0.75055813  0.75029810  0.21124660
   0.49985768  0.49960850  0.21116751
   0.75000000  0.50000000  0.10576000
   0.50000000  0.75000000  0.10576000
   0.68278485  0.56846472  0.43598629
Direct configuration=     8
   0.00145739  0.99913591  0.31259778
   0.25098063  0.24880811  0.31257957
   0.00000000  0.25000000  0.00000000
   0.25000000  0.00000000  0.00000000
   0.00000000  0.00000000  0.10576000
   0.25000000  0.25000000  0.10576000
   0.00042748  0.24974449  0.21001311
   0.24992217  0.00028004  0.20961959
   0.49877355  0.99979631  0.31220445
   0.75097593  0.24161382  0.31246725
   0.50000000  0.25000000  0.00000000
   0.75000000  0.00000000  0.00000000
   0.50000000  0.00000000  0.10576000
   0.75000000  0.25000000  0.10576000
   0.50016697  0.24990884  0.21005488
   0.75009010  0.99871668  0.20965742
   0.00839915  0.49922277  0.31246813
   0.25030840  0.75128326  0.31220683
   0.00000000  0.75000000  0.00000000
   0.25000000  0.50000000  0.00000000
   0.00000000  0.50000000  0.10576000
   0.25000000  0.75000000  0.10576000
   0.00025929  0.75004595  0.21006452
   0.25146813  0.50000129  0.20963582
   0.49783682  0.49999829  0.31447681
   0.75016976  0.75215002  0.31455440
   0.50000000  0.75000000  0.00000000
   0.75000000  0.50000000  0.00000000
   0.50000000  0.50000000  0.10576000
   0.75000000  0.75000000  0.10576000
   0.50052116  0.74962884  0.21043177
   0.74858942  0.50156304  0.21081165
   0.25000000  0.25000000  0.00000000
   0.00000000  0.00000000  0.00000000
   0.24953176  0.00059451  0.31645367
   0.00049575  0.24963958  0.31656072
   0.25057761  0.24994391  0.21136571
   0.00016350  0.99956041  0.21137563
   0.25000000  0.00000000  0.10576000
   0.00000000  0.25000000  0.10576000
   0.75000000  0.25000000  0.00000000
   0.50000000  0.00000000  0.00000000
   0.75046829  0.99862941  0.31696917
   0.49961752  0.25088549  0.31668922
   0.75041356  0.25024475  0.21206925
   0.50013260  0.00035697  0.21093152
   0.75000000  0.00000000  0.10576000
   0.50000000  0.25000000  0.10576000
   0.25000000  0.75000000  0.00000000
   0.00000000  0.50000000  0.00000000
   0.25149984  0.49971631  0.31692995
   0.99929467  0.75053775  0.31669898
   0.24971105  0.74998373  0.21095174
   0.99989020  0.49977446  0.21206867
   0.25000000  0.50000000  0.10576000
   0.00000000  0.75000000  0.10576000
   0.75000000  0.75000000  0.00000000
   0.50000000  0.50000000  0.00000000
   0.74874585  0.50415788  0.38729932
   0.49395150  0.75605562  0.31413361
   0.75055206  0.75027305  0.21126812
   0.49988165  0.49961363  0.21118936
   0.75000000  0.50000000  0.10576000
   0.50000000  0.75000000  0.10576000
   0.68299042  0.56803222  0.43643648
Direct configuration=     9
   0.00148229  0.99913783  0.31259183
   0.25097798  0.24878206  0.31257410
   0.00000000  0.25000000  0.00000000
   0.25000000  0.00000000  0.00000000
   0.00000000  0.00000000  0.10576000
   0.25000000  0.25000000  0.10576000
   0.00041425  0.24975806  0.21001373
   0.24992286  0.00027763  0.20962192
   0.49875936  0.99979542  0.31220033
   0.75097035  0.24157336  0.31251434
   0.50000000  0.25000000  0.00000000
   0.75000000  0.00000000  0.00000000
   0.50000000  0.00000000  0.10576000
   0.75000000  0.25000000  0.10576000
   0.50017160  0.24991870  0.21005586
   0.75009031  0.99873109  0.20965439
   0.00843619  0.49922530  0.31251894
   0.25030799  0.75129646  0.31220318
   0.00000000  0.75000000  0.00000000
   0.25000000  0.50000000  0.00000000
   0.00000000  0.50000000  0.10576000
   0.25000000  0.75000000  0.10576000
   0.00024891  0.75003946  0.21006539
   0.25145047  0.50000147  0.20963253
   0.49766642  0.49998616  0.31447870
   0.75018155  0.75231985  0.31455570
   0.50000000  0.75000000  0.00000000
   0.75000000  0.50000000  0.00000000
   0.50000000  0.50000000  0.10576000
   0.75000000  0.75000000  0.10576000
   0.50051194  0.74963788  0.21042478
   0.74861202  0.50154122  0.21072383
   0.25000000  0.25000000  0.00000000
   0.00000000  0.00000000  0.00000000
   0.24952979  0.00059545  0.31645468
   0.00046352  0.24967030  0.31656975
   0.25057441  0.24994485  0.21136739
   0.00016187  0.99956313  0.21137723
   0.25000000  0.00000000  0.10576000
   0.00000000  0.25000000  0.10576000
   0.75000000  0.25000000  0.00000000
   0.50000000  0.00000000  0.00000000
   0.75045516  0.99863251  0.31695945
   0.49965250  0.25091221  0.31670031
   0.75041202  0.25025721  0.21207223
   0.50013319  0.00035125  0.21093716
   0.75000000  0.00000000  0.10576000
   0.50000000  0.25000000  0.10576000
   0.25000000  0.75000000  0.00000000
   0.00000000  0.50000000  0.00000000
   0.25149652  0.49972785  0.31692042
   0.99926762  0.75050491  0.31670997
   0.24971627  0.74998221  0.21095749
   0.99987640  0.49977555  0.21207152
   0.25000000  0.50000000  0.10576000
   0.00000000  0.75000000  0.10576000
   0.75000000  0.75000000  0.00000000
   0.50000000  0.50000000  0.00000000
   0.74845185  0.50466323  0.38825665
   0.49405387  0.75595289  0.31417292
   0.75054524  0.75024554  0.21129215
   0.49990801  0.49961937  0.21121381
   0.75000000  0.50000000  0.10576000
   0.50000000  0.75000000  0.10576000
   0.68321949  0.56754980  0.43694405
Direct configuration=    10
   0.00151013  0.99914035  0.31258509
   0.25097483  0.24875299  0.31256784
   0.00000000  0.25000000  0.00000000
   0.25000000  0.00000000  0.00000000
   0.00000000  0.00000000  0.10576000
   0.25000000  0.25000000  0.10576000
   0.00039962  0.24977299  0.21001433
   0.24992368  0.00027491  0.20962443
   0.49874363  0.99979435  0.31219566
   0.75096415  0.24152631  0.31256431
   0.50000000  0.25000000  0.00000000
   0.75000000  0.00000000  0.00000000
   0.50000000  0.00000000  0.10576000
   0.75000000  0.25000000  0.10576000
   0.50017701  0.24992967  0.21005680
   0.75009062  0.99874699  0.20965111
   0.00847888  0.49922778  0.31257337
   0.25030769  0.75131142  0.31219887
   0.00000000  0.75000000  0.00000000
   0.25000000  0.50000000  0.00000000
   0.00000000  0.50000000  0.10576000
   0.25000000  0.75000000  0.10576000
   0.00023725  0.75003195  0.21006634
   0.25143099  0.50000153  0.20962898
   0.49747745  0.49997324  0.31447870
   0.75019436  0.75250814  0.31455480
   0.50000000  0.75000000  0.00000000
   0.75000000  0.50000000  0.00000000
   0.50000000  0.50000000  0.10576000
   0.75000000  0.75000000  0.10576000
   0.50050201  0.74964754  0.21041704
   0.74863692  0.50151717  0.21062828
   0.25000000  0.25000000  0.00000000
   0.00000000  0.00000000  0.00000000
   0.24952762  0.00059640  0.31645582
   0.00042715  0.24970461  0.31658040
   0.25057085  0.24994596  0.21136925
   0.00016008  0.99956619  0.21137910
   0.25000000  0.00000000  0.10576000
   0.00000000  0.25000000  0.10576000
   0.75000000  0.25000000  0.00000000
   0.50000000  0.00000000  0.00000000
   0.75044043  0.99863633  0.31694887
   0.49969166  0.25094224  0.31671321
   0.75041033  0.25027045  0.21207586
   0.50013381  0.00034491  0.21094354
   0.75000000  0.00000000  0.10576000
   0.50000000  0.25000000  0.10576000
   0.25000000  0.75000000  0.00000000
   0.00000000  0.50000000  0.00000000
   0.25149242  0.49974066  0.31691002
   0.99923722  0.75046843  0.31672273
   0.24972201  0.74998054  0.21096401
   0.99986152  0.49977676  0.21207497
   0.25000000  0.50000000  0.10576000
   0.00000000  0.75000000  0.10576000
   0.75000000  0.75000000  0.00000000
   0.50000000  0.50000000  0.00000000
   0.74812926  0.50521932  0.38931597
   0.49416764  0.75583908  0.31421713
   0.75053777  0.75021563  0.21131864
   0.49993631  0.49962565  0.21124083
   0.75000000  0.50000000  0.10576000
   0.50000000  0.75000000  0.10576000
   0.68346966  0.56702105  0.43751063
Direct configuration=    11
   0.00154106  0.99914347  0.31257744
   0.25097113  0.24872120  0.31256081
   0.00000000  0.25000000  0.00000000
   0.25000000  0.00000000  0.00000000
   0.00000000  0.00000000  0.10576000
   0.25000000  0.25000000  0.10576000
   0.00038365  0.24978923  0.21001488
   0.24992466  0.00027190  0.20962711
   0.49872631  0.99979302  0.31219041
   0.75095791  0.24147197  0.31261636
   0.50000000  0.25000000  0.00000000
   0.75000000  0.00000000  0.00000000
   0.50000000  0.00000000  0.10576000
   0.75000000  0.25000000  0.10576000
   0.50018357  0.24994190  0.21005763
   0.75009083  0.99876452  0.20964762
   0.00852783  0.49922986  0.31263065
   0.25030760  0.75132772  0.31219400
   0.00000000  0.75000000  0.00000000
   0.25000000  0.50000000  0.00000000
   0.00000000  0.50000000  0.10576000
   0.25000000  0.75000000  0.10576000
   0.00022427  0.75002327  0.21006733
   0.25140952  0.50000146  0.20962512
   0.49726979  0.49995935  0.31447607
   0.75020770  0.75271438  0.31455089
   0.50000000  0.75000000  0.00000000
   0.75000000  0.50000000  0.00000000
   0.50000000  0.50000000  0.10576000
   0.75000000  0.75000000  0.10576000
   0.50049144  0.74965773  0.21040857
   0.74866419  0.50149080  0.21052589
   0.25000000  0.25000000  0.00000000
   0.00000000  0.00000000  0.00000000
   0.24952532  0.00059758  0.31645703
   0.00038631  0.24974290  0.31659293
   0.25056685  0.24994713  0.21137144
   0.00015810  0.99956961  0.21138127
   0.25000000  0.00000000  0.10576000
   0.00000000  0.25000000  0.10576000
   0.75000000  0.25000000  0.00000000
   0.50000000  0.00000000  0.00000000
   0.75042403  0.99864107  0.31693750
   0.49973497  0.25097569  0.31672816
   0.75040870  0.25028435  0.21208019
   0.50013440  0.00033801  0.21095071
   0.75000000  0.00000000  0.10576000
   0.50000000  0.25000000  0.10576000
   0.25000000  0.75000000  0.00000000
   0.00000000  0.50000000  0.00000000
   0.25148731  0.49975477  0.31689881
   0.99920305  0.75042813  0.31673751
   0.24972828  0.74997893  0.21097126
   0.99984578  0.49977796  0.21207906
   0.25000000  0.50000000  0.10576000
   0.00000000  0.75000000  0.10576000
   0.75000000  0.75000000  0.00000000
   0.50000000  0.50000000  0.00000000
   0.74778136  0.50582249  0.39047538
   0.49429270  0.75571450  0.31426631
   0.75052952  0.75018385  0.21134759
   0.49996650  0.49963246  0.21127036
   0.75000000  0.50000000  0.10576000
   0.50000000  0.75000000  0.10576000
   0.68373883  0.56644937  0.43813843
Direct configuration=    12
   0.00157520  0.99914735  0.31256899
   0.25096680  0.24868677  0.31255297
   0.00000000  0.25000000  0.00000000
   0.25000000  0.00000000  0.00000000
   0.00000000  0.00000000  0.10576000
   0.25000000  0.25000000  0.10576000
   0.00036618  0.24980679  0.21001539
   0.24992582  0.00026857  0.20962991
   0.49870738  0.99979129  0.31218456
   0.75095156  0.24140932  0.31266945
   0.50000000  0.25000000  0.00000000
   0.75000000  0.00000000  0.00000000
   0.50000000  0.00000000  0.10576000
   0.75000000  0.25000000  0.10576000
   0.50019136  0.24995545  0.21005820
   0.75009132  0.99878376  0.20964389
   0.00858412  0.49923183  0.31269029
   0.25030779  0.75134560  0.31218860
   0.00000000  0.75000000  0.00000000
   0.25000000  0.50000000  0.00000000
   0.00000000  0.50000000  0.10576000
   0.25000000  0.75000000  0.10576000
   0.00021005  0.75001318  0.21006793
   0.25138628  0.50000117  0.20962104
   0.49704349  0.49994548  0.31446962
   0.75022182  0.75293921  0.31454322
   0.50000000  0.75000000  0.00000000
   0.75000000  0.50000000  0.00000000
   0.50000000  0.50000000  0.10576000
   0.75000000  0.75000000  0.10576000
   0.50048033  0.74966830  0.21039936
   0.74869411  0.50146145  0.21041732
   0.25000000  0.25000000  0.00000000
   0.00000000  0.00000000  0.00000000
   0.24952274  0.00059877  0.31645831
   0.00034099  0.24978533  0.31660763
   0.25056239  0.24994834  0.21137399
   0.00015594  0.99957342  0.21138377
   0.25000000  0.00000000  0.10576000
   0.00000000  0.25000000  0.10576000
   0.75000000  0.25000000  0.00000000
   0.50000000  0.00000000  0.00000000
   0.75040595  0.99864665  0.31692550
   0.49978296  0.25101285  0.31674559
   0.75040687  0.25029869  0.21208534
   0.50013491  0.00033061  0.21095869
   0.75000000  0.00000000  0.10576000
   0.50000000  0.25000000  0.10576000
   0.25000000  0.75000000  0.00000000
   0.00000000  0.50000000  0.00000000
   0.25148128  0.49977004  0.31688688
   0.99916473  0.75038420  0.31675467
   0.24973494  0.74997727  0.21097935
   0.99982920  0.49977935  0.21208395
   0.25000000  0.50000000  0.10576000
   0.00000000  0.75000000  0.10576000
   0.75000000  0.75000000  0.00000000
   0.50000000  0.50000000  0.00000000
   0.74741245  0.50646809  0.39173193
   0.49442908  0.75557905  0.31432070