       N       E                     dE             d eps       ncg     rms          rms(c)
DAV:   1     0.209966147518E+04    0.20997E+04   -0.15210E+05 10968   0.116E+03
DAV:   2    -0.951157208189E+02   -0.21948E+04   -0.20686E+04 11864   0.293E+02
DAV:   3    -0.210929586054E+03   -0.11581E+03   -0.10593E+03 12272   0.616E+01
DAV:   4    -0.214252515433E+03   -0.33229E+01   -0.32694E+01 12536   0.105E+01
DAV:   5    -0.214417204728E+03   -0.16469E+00   -0.16366E+00 16736   0.212E+00    0.396E+01
DAV:   6    -0.204852744270E+03    0.95645E+01   -0.32721E+01 11628   0.140E+01    0.196E+01
DAV:   7    -0.208515906519E+03   -0.36632E+01   -0.77581E+00 12160   0.154E+01    0.228E+01
DAV:   8    -0.206127410781E+03    0.23885E+01   -0.12425E+01 12988   0.167E+01    0.146E+01
DAV:   9    -0.208103425454E+03   -0.19760E+01   -0.11200E+01 12980   0.171E+01    0.171E+01
DAV:  10    -0.204987169924E+03    0.31163E+01   -0.47856E+00 12700   0.117E+01    0.931E+00
DAV:  11    -0.204018305272E+03    0.96886E+00   -0.14037E+00 12448   0.604E+00    0.152E+00
DAV:  12    -0.204011924149E+03    0.63811E-02   -0.19556E-01 11812   0.139E+00    0.783E-01
DAV:  13    -0.204013184557E+03   -0.12604E-02   -0.29263E-02 11472   0.808E-01    0.704E-01
DAV:  14    -0.204010014610E+03    0.31699E-02   -0.14312E-02 11696   0.608E-01    0.568E-01
DAV:  15    -0.204007925862E+03    0.20887E-02   -0.79791E-03 11724   0.459E-01    0.455E-01
DAV:  16    -0.204004704152E+03    0.32217E-02   -0.49657E-03 11672   0.365E-01    0.131E-01
DAV:  17    -0.204004271558E+03    0.43259E-03   -0.19124E-03 11684   0.198E-01    0.186E-01
DAV:  18    -0.204003603098E+03    0.66846E-03   -0.13233E-03 11644   0.170E-01    0.138E-01
DAV:  19    -0.204003434566E+03    0.16853E-03   -0.81472E-04 11764   0.132E-01    0.113E-01
DAV:  20    -0.204003318802E+03    0.11576E-03   -0.41680E-04 11664   0.102E-01    0.526E-02
DAV:  21    -0.204003492031E+03   -0.17323E-03   -0.22378E-04 11848   0.575E-02    0.622E-02
DAV:  22    -0.204003554675E+03   -0.62644E-04   -0.11602E-04 11496   0.515E-02    0.431E-02
DAV:  23    -0.204003671571E+03   -0.11690E-03   -0.68128E-05  9708   0.330E-02    0.179E-02
DAV:  24    -0.204003694126E+03   -0.22554E-04   -0.11514E-05  7312   0.150E-02    0.124E-02
DAV:  25    -0.204003729415E+03   -0.35289E-04   -0.76080E-06  7468   0.111E-02    0.864E-03
DAV:  26    -0.204003743019E+03   -0.13604E-04   -0.31877E-06  6848   0.806E-03    0.800E-03
DAV:  27    -0.204003753816E+03   -0.10798E-04   -0.28128E-06  7220   0.597E-03    0.351E-03
DAV:  28    -0.204003755444E+03   -0.16275E-05   -0.64191E-07  6744   0.299E-03
   1 F= -.20400376E+03 E0= -.20138551E+03  d E =-.204004E+03
       N       E                     dE             d eps       ncg     rms          rms(c)
DAV:   1    -0.204003902237E+03   -0.14842E-03   -0.21635E-03 11036   0.574E-02    0.731E-03
DAV:   2    -0.204003905349E+03   -0.31112E-05   -0.32782E-05  7040   0.944E-03    0.703E-03
DAV:   3    -0.204003905394E+03   -0.45231E-07   -0.26497E-06  6252   0.788E-03    0.663E-03
DAV:   4    -0.204003905347E+03    0.46795E-07   -0.14795E-06  5700   0.635E-03
   2 F= -.20400391E+03 E0= -.20138564E+03  d E =-.149903E-03
       N       E                     dE             d eps       ncg     rms          rms(c)
DAV:   1    -0.204004155538E+03   -0.25014E-03   -0.78772E-03 11008   0.111E-01    0.131E-02
DAV:   2    -0.204004189898E+03   -0.34359E-04   -0.13922E-04  8564   0.384E-02    0.547E-02
DAV:   3    -0.204004163949E+03    0.25948E-04   -0.44766E-05  7068   0.331E-02    0.109E-02
DAV:   4    -0.204004164178E+03   -0.22860E-06   -0.52886E-06  6244   0.120E-02
   3 F= -.20400416E+03 E0= -.20138588E+03  d E =-.258831E-03
       N       E                     dE             d eps       ncg     rms          rms(c)
DAV:   1    -0.204004475941E+03   -0.31199E-03   -0.16375E-02 10984   0.162E-01    0.173E-02
DAV:   2    -0.204004496105E+03   -0.20164E-04   -0.21728E-04 11184   0.287E-02    0.224E-02
DAV:   3    -0.204004495086E+03    0.10195E-05   -0.18901E-05  6912   0.223E-02    0.203E-02
DAV:   4    -0.204004494295E+03    0.79140E-06   -0.14387E-05  6500   0.186E-02
   4 F= -.20400449E+03 E0= -.20138621E+03  d E =-.330117E-03
       N       E                     dE             d eps       ncg     rms          rms(c)
DAV:   1    -0.204004812827E+03   -0.31774E-03   -0.28076E-02 10968   0.215E-01    0.248E-02
DAV:   2    -0.204004866412E+03   -0.53585E-04   -0.39431E-04 11460   0.508E-02    0.539E-02
DAV:   3    -0.204004845012E+03    0.21400E-04   -0.54050E-05  8720   0.413E-02    0.269E-02
DAV:   4    -0.204004845422E+03   -0.40996E-06   -0.29261E-05  6684   0.265E-02
   5 F= -.20400485E+03 E0= -.20138652E+03  d E =-.351128E-03
       N       E                     dE             d eps       ncg     rms          rms(c)
DAV:   1    -0.204005115069E+03   -0.27006E-03   -0.40965E-02 10960   0.264E-01    0.310E-02
DAV:   2    -0.204005174062E+03   -0.58993E-04   -0.58816E-04 11524   0.555E-02    0.470E-02
DAV:   3    -0.204005167571E+03    0.64918E-05   -0.77448E-05  9548   0.442E-02    0.402E-02
DAV:   4    -0.204005159032E+03    0.85384E-05   -0.45385E-05  6768   0.332E-02
   6 F= -.20400516E+03 E0= -.20138683E+03  d E =-.313610E-03
       N       E                     dE             d eps       ncg     rms          rms(c)
DAV:   1    -0.204005331973E+03   -0.16440E-03   -0.54953E-02 10960   0.311E-01    0.390E-02
DAV:   2    -0.204005450883E+03   -0.11891E-03   -0.83339E-04 11596   0.781E-02    0.810E-02
DAV:   3    -0.204005394762E+03    0.56122E-04   -0.10753E-04 11776   0.625E-02    0.318E-02
DAV:   4    -0.204005411524E+03   -0.16762E-04   -0.67282E-05  7196   0.399E-02    0.549E-02
DAV:   5    -0.204005387497E+03    0.24026E-04   -0.42320E-05  7200   0.332E-02    0.173E-02
DAV:   6    -0.204005387074E+03    0.42306E-06   -0.14572E-05  6516   0.217E-02
   7 F= -.20400539E+03 E0= -.20138703E+03  d E =-.228042E-03
       N       E                     dE             d eps       ncg     rms          rms(c)
DAV:   1    -0.204005321152E+03    0.66345E-04   -0.36739E-02 10960   0.250E-01    0.501E-02
DAV:   2    -0.204005400351E+03   -0.79199E-04   -0.89617E-04 11328   0.603E-02    0.613E-02
DAV:   3    -0.204005395136E+03    0.52150E-05   -0.13688E-04 10456   0.587E-02    0.598E-02
DAV:   4    -0.204005383779E+03    0.11357E-04   -0.97101E-05  7368   0.481E-02    0.509E-02
DAV:   5    -0.204005362555E+03    0.21224E-04   -0.55450E-05  7240   0.373E-02    0.218E-02
DAV:   6    -0.204005359834E+03    0.27210E-05   -0.20939E-05  6912   0.225E-02
   8 F= -.20400536E+03 E0= -.20138699E+03  d E =0.272400E-04
       N       E                     dE             d eps       ncg     rms          rms(c)
DAV:   1    -0.204005529579E+03   -0.16702E-03   -0.37467E-03 10988   0.623E-02    0.240E-02
DAV:   2    -0.204005549735E+03   -0.20156E-04   -0.13114E-04  7112   0.348E-02    0.406E-02
DAV:   3    -0.204005535491E+03    0.14244E-04   -0.18117E-05  7448   0.305E-02    0.186E-02
DAV:   4    -0.204005540110E+03   -0.46186E-05   -0.19467E-05  6800   0.216E-02
   9 F= -.20400554E+03 E0= -.20138718E+03  d E =-.180276E-03
       N       E                     dE             d eps       ncg     rms          rms(c)
DAV:   1    -0.204005574120E+03   -0.38629E-04   -0.81738E-03 10952   0.105E-01    0.313E-02
DAV:   2    -0.204005728059E+03   -0.15394E-03   -0.42005E-04 11336   0.851E-02    0.126E-01
DAV:   3    -0.204005585387E+03    0.14267E-03   -0.24076E-04  9384   0.756E-02    0.313E-02
DAV:   4    -0.204005579839E+03    0.55481E-05   -0.24463E-05  7244   0.274E-02
  10 F= -.20400558E+03 E0= -.20138718E+03  d E =-.397297E-04
       N       E                     dE             d eps       ncg     rms          rms(c)
DAV:   1    -0.204005614048E+03   -0.28661E-04   -0.36882E-03 10960   0.789E-02    0.189E-02
DAV:   2    -0.204005662519E+03   -0.48471E-04   -0.14983E-04 11296   0.556E-02    0.637E-02
DAV:   3    -0.204005621091E+03    0.41429E-04   -0.39569E-05  8572   0.433E-02    0.150E-02
DAV:   4    -0.204005620535E+03    0.55512E-06   -0.89381E-06  5820   0.130E-02
  11 F= -.20400562E+03 E0= -.20138725E+03  d E =-.406960E-04
       N       E                     dE             d eps       ncg     rms          rms(c)
DAV:   1    -0.204005652917E+03   -0.31826E-04   -0.61873E-03 10944   0.999E-02    0.161E-02
DAV:   2    -0.204005677540E+03   -0.24623E-04   -0.11831E-04  8532   0.353E-02    0.439E-02
DAV:   3    -0.204005662905E+03    0.14635E-04   -0.37871E-05  6556   0.310E-02    0.197E-02
DAV:   4    -0.204005660774E+03    0.21316E-05   -0.10583E-05  6020   0.171E-02
  12 F= -.20400566E+03 E0= -.20138727E+03  d E =-.402384E-04
       N       E                     dE             d eps       ncg     rms          rms(c)
DAV:   1    -0.204005699399E+03   -0.36494E-04   -0.97196E-03 10944   0.128E-01    0.205E-02
DAV:   2    -0.204005728948E+03   -0.29549E-04   -0.17231E-04 10956   0.427E-02    0.440E-02
DAV:   3    -0.204005711579E+03    0.17369E-04   -0.28696E-05  7200   0.339E-02    0.166E-02
DAV:   4    -0.204005714343E+03   -0.27641E-05   -0.16460E-05  6208   0.195E-02
  13 F= -.20400571E+03 E0= -.20138734E+03  d E =-.535690E-04
       N       E                     dE             d eps       ncg     rms          rms(c)
DAV:   1    -0.204005751632E+03   -0.40053E-04   -0.14649E-02 10944   0.159E-01    0.269E-02
DAV:   2    -0.204005858448E+03   -0.10682E-03   -0.36648E-04 11776   0.746E-02    0.978E-02
DAV:   3    -0.204005779539E+03    0.78909E-04   -0.17044E-04  9876   0.654E-02    0.380E-02
DAV:   4    -0.204005768005E+03    0.11535E-04   -0.31573E-05  6996   0.296E-02    0.180E-02
DAV:   5    -0.204005768720E+03   -0.71549E-06   -0.93162E-06  6184   0.172E-02
  14 F= -.20400577E+03 E0= -.20138740E+03  d E =-.543775E-04
       N       E                     dE             d eps       ncg     rms          rms(c)
DAV:   1    -0.204005790335E+03   -0.22330E-04   -0.15596E-02 10944   0.170E-01    0.262E-02
DAV:   2    -0.204005818171E+03   -0.27836E-04   -0.27705E-04 10872   0.329E-02    0.302E-02
DAV:   3    -0.204005814693E+03    0.34784E-05   -0.20517E-05  7480   0.285E-02    0.247E-02
DAV:   4    -0.204005811638E+03    0.30552E-05   -0.10737E-05  6712   0.180E-02
  15 F= -.20400581E+03 E0= -.20138744E+03  d E =-.429174E-04
       N       E                     dE             d eps       ncg     rms          rms(c)
DAV:   1    -0.204005828806E+03   -0.14113E-04   -0.89544E-03 10944   0.114E-01    0.386E-02
DAV:   2    -0.204006687397E+03   -0.85859E-03   -0.16111E-03 13476   0.186E-01    0.300E-01
DAV:   3    -0.204005836937E+03    0.85046E-03   -0.11733E-03 13388   0.162E-01    0.198E-02
DAV:   4    -0.204005837248E+03   -0.31145E-06   -0.22793E-05  7520   0.201E-02
  16 F= -.20400584E+03 E0= -.20138748E+03  d E =-.256108E-04
       N       E                     dE             d eps       ncg     rms          rms(c)
DAV:   1    -0.204005865761E+03   -0.28824E-04   -0.79055E-04 11020   0.412E-02    0.138E-02
DAV:   2    -0.204005894393E+03   -0.28633E-04   -0.58479E-05  8508   0.411E-02    0.503E-02
DAV:   3    -0.204005867495E+03    0.26898E-04   -0.18357E-05  7060   0.330E-02    0.676E-03
DAV:   4    -0.204005868004E+03   -0.50928E-06   -0.36688E-06  5764   0.723E-03
  17 F= -.20400587E+03 E0= -.20138748E+03  d E =-.307560E-04
       N       E                     dE             d eps       ncg     rms          rms(c)
DAV:   1    -0.204005887698E+03   -0.20203E-04   -0.21974E-03 10944   0.610E-02    0.137E-02
DAV:   2    -0.204005908097E+03   -0.20399E-04   -0.68246E-05  6864   0.314E-02    0.448E-02
DAV:   3    -0.204005891195E+03    0.16902E-04   -0.32675E-05  6516   0.287E-02    0.137E-02
DAV:   4    -0.204005890284E+03    0.91057E-06   -0.46777E-06  5648   0.113E-02
  18 F= -.20400589E+03 E0= -.20138750E+03  d E =-.222796E-04
       N       E                     dE             d eps       ncg     rms          rms(c)
DAV:   1    -0.204005910688E+03   -0.19493E-04   -0.41087E-03 10944   0.804E-02    0.131E-02
DAV:   2    -0.204005923866E+03   -0.13178E-04   -0.69061E-05  6964   0.268E-02    0.293E-02
DAV:   3    -0.204005916009E+03    0.78571E-05   -0.10090E-05  6528   0.219E-02    0.840E-03
DAV:   4    -0.204005918270E+03   -0.22618E-05   -0.66615E-06  5760   0.125E-02
  19 F= -.20400592E+03 E0= -.20138754E+03  d E =-.279864E-04
       N       E                     dE             d eps       ncg     rms          rms(c)
DAV:   1    -0.204005940579E+03   -0.24570E-04   -0.63601E-03 10944   0.103E-01    0.171E-02
DAV:   2    -0.204005977200E+03   -0.36621E-04   -0.14441E-04  8928   0.423E-02    0.568E-02
DAV:   3    -0.204005950657E+03    0.26543E-04   -0.56052E-05  6820   0.372E-02    0.184E-02
DAV:   4    -0.204005948732E+03    0.19250E-05   -0.10010E-05  5800   0.167E-02
  20 F= -.20400595E+03 E0= -.20138756E+03  d E =-.304618E-04
       N       E                     dE             d eps       ncg     rms          rms(c)
DAV:   1    -0.204005974855E+03   -0.24197E-04   -0.98529E-03 10944   0.127E-01    0.207E-02
DAV:   2    -0.204006003930E+03   -0.29075E-04   -0.16849E-04 10536   0.411E-02    0.432E-02
DAV:   3    -0.204005988182E+03    0.15748E-04   -0.27846E-05  7452   0.335E-02    0.182E-02
DAV:   4    -0.204005991278E+03   -0.30961E-05   -0.19561E-05  6376   0.212E-02
  21 F= -.20400599E+03 E0= -.20138762E+03  d E =-.425460E-04
       N       E                     dE             d eps       ncg     rms          rms(c)
DAV:   1    -0.204006006456E+03   -0.18274E-04   -0.10962E-02 10944   0.139E-01    0.272E-02
DAV:   2    -0.204006069574E+03   -0.63118E-04   -0.28278E-04 10960   0.609E-02    0.727E-02
DAV:   3    -0.204006031865E+03    0.37710E-04   -0.11230E-04  8608   0.538E-02    0.394E-02
DAV:   4    -0.204006020319E+03    0.11546E-04   -0.32036E-05  6660   0.291E-02    0.200E-02
DAV:   5    -0.204006020215E+03    0.10364E-06   -0.95366E-06  6296   0.176E-02
  22 F= -.20400602E+03 E0= -.20138767E+03  d E =-.289369E-04
       N       E                     dE             d eps       ncg     rms          rms(c)
DAV:   1    -0.204006022995E+03   -0.26761E-05   -0.88290E-03 10944   0.114E-01    0.234E-02
DAV:   2    -0.204006044827E+03   -0.21832E-04   -0.19615E-04  7848   0.310E-02    0.317E-02
DAV:   3    -0.204006038583E+03    0.62442E-05   -0.20135E-05  7276   0.284E-02    0.221E-02
DAV:   4    -0.204006042187E+03   -0.36044E-05   -0.21629E-05  6816   0.228E-02
  23 F= -.20400604E+03 E0= -.20138767E+03  d E =-.219718E-04
       N       E                     dE             d eps       ncg     rms          rms(c)
DAV:   1    -0.204006066772E+03   -0.28189E-04   -0.13205E-03 10952   0.490E-02    0.151E-02
DAV:   2    -0.204006139774E+03   -0.73002E-04   -0.15169E-04  8240   0.574E-02    0.854E-02
DAV:   3    -0.204006072844E+03    0.66930E-04   -0.10033E-04  6964   0.504E-02    0.191E-02
DAV:   4    -0.204006069784E+03    0.30607E-05   -0.60777E-06  6216   0.134E-02
  24 F= -.20400607E+03 E0= -.20138771E+03  d E =-.275968E-04
       N       E                     dE             d eps       ncg     rms          rms(c)
DAV:   1    -0.204006084442E+03   -0.11597E-04   -0.24652E-03 10944   0.620E-02    0.128E-02
DAV:   2    -0.204006090156E+03   -0.57145E-05   -0.40242E-05  6408   0.185E-02    0.189E-02
DAV:   3    -0.204006087494E+03    0.26623E-05   -0.57722E-06  5772   0.166E-02    0.104E-02
DAV:   4    -0.204006088177E+03   -0.68279E-06   -0.37328E-06  5536   0.106E-02
  25 F= -.20400609E+03 E0= -.20138773E+03  d E =-.183928E-04
       N       E                     dE             d eps       ncg     rms          rms(c)
DAV:   1    -0.204006104246E+03   -0.16752E-04   -0.49991E-03 10944   0.838E-02    0.185E-02
DAV:   2    -0.204006262170E+03   -0.15792E-03   -0.31839E-04 10160   0.807E-02    0.128E-01
DAV:   3    -0.204006109510E+03    0.15266E-03   -0.21275E-04  8272   0.707E-02    0.963E-03
DAV:   4    -0.204006110481E+03   -0.97023E-06   -0.80145E-06  6284   0.132E-02
  26 F= -.20400611E+03 E0= -.20138777E+03  d E =-.223041E-04
       N       E                     dE             d eps       ncg     rms          rms(c)
DAV:   1    -0.204006126588E+03   -0.17077E-04   -0.75352E-03 10944   0.103E-01    0.183E-02
DAV:   2    -0.204006145589E+03   -0.19001E-04   -0.12495E-04  7744   0.304E-02    0.327E-02
DAV:   3    -0.204006138293E+03    0.72958E-05   -0.20046E-05  6816   0.272E-02    0.193E-02
DAV:   4    -0.204006139795E+03   -0.15014E-05   -0.15929E-05  6220   0.195E-02
  27 F= -.20400614E+03 E0= -.20138777E+03  d E =-.293139E-04
       N       E                     dE             d eps       ncg     rms          rms(c)
DAV:   1    -0.204006150552E+03   -0.12259E-04   -0.11144E-02 10944   0.127E-01    0.213E-02
DAV:   2    -0.204006176006E+03   -0.25454E-04   -0.19062E-04  9172   0.356E-02    0.369E-02
DAV:   3    -0.204006170636E+03    0.53702E-05   -0.42455E-05  6972   0.327E-02    0.286E-02
DAV:   4    -0.204006165875E+03    0.47608E-05   -0.20504E-05  6340   0.230E-02
  28 F= -.20400617E+03 E0= -.20138783E+03  d E =-.260803E-04
       N       E                     dE             d eps       ncg     rms          rms(c)
DAV:   1    -0.204006164057E+03    0.65785E-05   -0.95494E-03 10944   0.123E-01    0.284E-02
DAV:   2    -0.204006217130E+03   -0.53073E-04   -0.24767E-04 11064   0.560E-02    0.639E-02
DAV:   3    -0.204006178060E+03    0.39070E-04   -0.46125E-05  9564   0.461E-02    0.218E-02
DAV:   4    -0.204006181954E+03   -0.38945E-05   -0.21792E-05  6812   0.224E-02
  29 F= -.20400618E+03 E0= -.20138784E+03  d E =-.160794E-04
       N       E                     dE             d eps       ncg     rms          rms(c)
DAV:   1    -0.204006204329E+03   -0.26269E-04   -0.31290E-03 10964   0.664E-02    0.215E-02
DAV:   2    -0.204006370480E+03   -0.16615E-03   -0.36221E-04 10924   0.860E-02    0.130E-01
DAV:   3    -0.204006213143E+03    0.15734E-03   -0.23494E-04  8740   0.743E-02    0.203E-02
DAV:   4    -0.204006209317E+03    0.38260E-05   -0.10942E-05  6340   0.171E-02
  30 F= -.20400621E+03 E0= -.20138789E+03  d E =-.273624E-04
       N       E                     dE             d eps       ncg     rms          rms(c)
DAV:   1    -0.204006220807E+03   -0.76648E-05   -0.13334E-03 10944   0.483E-02    0.132E-02
DAV:   2    -0.204006239774E+03   -0.18966E-04   -0.47773E-05  7716   0.343E-02    0.410E-02
DAV:   3    -0.204006222762E+03    0.17012E-04   -0.14768E-05  6632   0.283E-02    0.942E-03
DAV:   4    -0.204006223557E+03   -0.79441E-06   -0.55019E-06  5520   0.108E-02
  31 F= -.20400622E+03 E0= -.20138789E+03  d E =-.142398E-04
       N       E                     dE             d eps       ncg     rms          rms(c)
DAV:   1    -0.204006235251E+03   -0.12488E-04   -0.27316E-03 10944   0.653E-02    0.118E-02
DAV:   2    -0.204006246069E+03   -0.10819E-04   -0.53298E-05  6608   0.245E-02    0.295E-02
DAV:   3    -0.204006240010E+03    0.60596E-05   -0.19055E-05  6396   0.218E-02    0.144E-02
DAV:   4    -0.204006238657E+03    0.13531E-05   -0.54301E-06  5572   0.123E-02
  32 F= -.20400624E+03 E0= -.20138791E+03  d E =-.151000E-04
       N       E                     dE             d eps       ncg     rms          rms(c)
DAV:   1    -0.204006252823E+03   -0.12814E-04   -0.46031E-03 10944   0.830E-02    0.144E-02
DAV:   2    -0.204006262740E+03   -0.99169E-05   -0.77092E-05  6592   0.244E-02    0.226E-02
DAV:   3    -0.204006258791E+03    0.39491E-05   -0.13486E-05  5832   0.205E-02    0.105E-02
DAV:   4    -0.204006260290E+03   -0.14987E-05   -0.52124E-06  5492   0.120E-02
  33 F= -.20400626E+03 E0= -.20138795E+03  d E =-.216331E-04
       N       E                     dE             d eps       ncg     rms          rms(c)
DAV:   1    -0.204006273768E+03   -0.14977E-04   -0.72429E-03 10944   0.103E-01    0.193E-02
DAV:   2    -0.204006365197E+03   -0.91429E-04   -0.23955E-04  9508   0.633E-02    0.949E-02
DAV:   3    -0.204006283170E+03    0.82027E-04   -0.12806E-04  7320   0.555E-02    0.152E-02
DAV:   4    -0.204006283045E+03    0.12501E-06   -0.10127E-05  6152   0.167E-02
  34 F= -.20400628E+03 E0= -.20138799E+03  d E =-.227555E-04
       N       E                     dE             d eps       ncg     rms          rms(c)
DAV:   1    -0.204006297510E+03   -0.14340E-04   -0.94865E-03 10944   0.122E-01    0.230E-02
DAV:   2    -0.204006333500E+03   -0.35990E-04   -0.18061E-04 10776   0.461E-02    0.503E-02
DAV:   3    -0.204006311040E+03    0.22460E-04   -0.36855E-05  8200   0.388E-02    0.215E-02
DAV:   4    -0.204006313231E+03   -0.21910E-05   -0.21494E-05  6420   0.222E-02
  35 F= -.20400631E+03 E0= -.20138800E+03  d E =-.301863E-04
       N       E                     dE             d eps       ncg     rms          rms(c)
DAV:   1    -0.204006306305E+03    0.47358E-05   -0.11601E-02 10944   0.134E-01    0.252E-02
DAV:   2    -0.204006357705E+03   -0.51401E-04   -0.27076E-04 10760   0.545E-02    0.634E-02
DAV:   3    -0.204006329655E+03    0.28050E-04   -0.90420E-05  7328   0.475E-02    0.344E-02
DAV:   4    -0.204006320511E+03    0.91445E-05   -0.26261E-05  6548   0.263E-02
  36 F= -.20400632E+03 E0= -.20138804E+03  d E =-.727938E-05
       N       E                     dE             d eps       ncg     rms          rms(c)
DAV:   1    -0.204006340104E+03   -0.10449E-04   -0.24953E-03 10956   0.588E-02    0.246E-02
DAV:   2    -0.204006402939E+03   -0.62835E-04   -0.16316E-04 11500   0.625E-02    0.749E-02
DAV:   3    -0.204006344440E+03    0.58499E-04   -0.47904E-05  9896   0.501E-02    0.156E-02
DAV:   4    -0.204006343066E+03    0.13736E-05   -0.83312E-06  6048   0.124E-02
  37 F= -.20400634E+03 E0= -.20138806E+03  d E =-.225554E-04
       N       E                     dE             d eps       ncg     rms          rms(c)
DAV:   1    -0.204006353171E+03   -0.87312E-05   -0.48756E-04 10740   0.293E-02    0.116E-02
DAV:   2    -0.204006416582E+03   -0.63411E-04   -0.11433E-04  7620   0.524E-02    0.822E-02
DAV:   3    -0.204006354465E+03    0.62117E-04   -0.88254E-05  6988   0.469E-02    0.117E-02
DAV:   4    -0.204006353237E+03    0.12281E-05   -0.40461E-06  5816   0.974E-03
  38 F= -.20400635E+03 E0= -.20138807E+03  d E =-.101707E-04
       N       E                     dE             d eps       ncg     rms          rms(c)
DAV:   1    -0.204006361097E+03   -0.66321E-05   -0.11924E-03 10944   0.418E-02    0.782E-03
DAV:   2    -0.204006364361E+03   -0.32642E-05   -0.20221E-05  6300   0.141E-02    0.144E-02
DAV:   3    -0.204006362653E+03    0.17086E-05   -0.30826E-06  5496   0.118E-02    0.634E-03
DAV:   4    -0.204006363277E+03   -0.62419E-06   -0.26270E-06  5484   0.797E-03
  39 F= -.20400636E+03 E0= -.20138809E+03  d E =-.100399E-04
       N       E                     dE             d eps       ncg     rms          rms(c)
DAV:   1    -0.204006371978E+03   -0.93248E-05   -0.21818E-03 10944   0.556E-02    0.106E-02
DAV:   2    -0.204006386794E+03   -0.14817E-04   -0.51491E-05  6808   0.267E-02    0.363E-02
DAV:   3    -0.204006375868E+03    0.10927E-04   -0.22510E-05  6456   0.241E-02    0.125E-02
DAV:   4    -0.204006374997E+03    0.87112E-06   -0.37510E-06  5584   0.109E-02
  40 F= -.20400637E+03 E0= -.20138809E+03  d E =-.117197E-04
       N       E                     dE             d eps       ncg     rms          rms(c)
DAV:   1    -0.204006385101E+03   -0.92329E-05   -0.39908E-03 10944   0.712E-02    0.131E-02
DAV:   2    -0.204006393173E+03   -0.80723E-05   -0.62271E-05  6540   0.204E-02    0.196E-02
DAV:   3    -0.204006391255E+03    0.19180E-05   -0.96374E-06  5896   0.183E-02    0.140E-02
DAV:   4    -0.204006391869E+03   -0.61416E-06   -0.85309E-06  5644   0.143E-02
  41 F= -.20400639E+03 E0= -.20138813E+03  d E =-.168725E-04
       N       E                     dE             d eps       ncg     rms          rms(c)
DAV:   1    -0.204006402008E+03   -0.10753E-04   -0.58305E-03 10944   0.887E-02    0.179E-02
DAV:   2    -0.204006430371E+03   -0.28363E-04   -0.11778E-04  8176   0.391E-02    0.473E-02
DAV:   3    -0.204006413247E+03    0.17124E-04   -0.40948E-05  6808   0.352E-02    0.244E-02
DAV:   4    -0.204006409722E+03    0.35245E-05   -0.14652E-05  6268   0.191E-02
  42 F= -.20400641E+03 E0= -.20138813E+03  d E =-.178530E-04
       N       E                     dE             d eps       ncg     rms          rms(c)
DAV:   1    -0.204006417462E+03   -0.42155E-05   -0.82029E-03 10944   0.105E-01    0.198E-02
DAV:   2    -0.204006437738E+03   -0.20276E-04   -0.14665E-04  7956   0.354E-02    0.338E-02
DAV:   3    -0.204006430839E+03    0.68992E-05   -0.29849E-05  6948   0.305E-02    0.229E-02
DAV:   4    -0.204006429352E+03    0.14871E-05   -0.17830E-05  6332   0.203E-02
  43 F= -.20400643E+03 E0= -.20138818E+03  d E =-.196296E-04
       N       E                     dE             d eps       ncg     rms          rms(c)
DAV:   1    -0.204006421372E+03    0.94667E-05   -0.57156E-03 10944   0.904E-02    0.255E-02
DAV:   2    -0.204006474064E+03   -0.52692E-04   -0.19007E-04 10828   0.552E-02    0.672E-02
DAV:   3    -0.204006434568E+03    0.39496E-04   -0.61499E-05  8844   0.474E-02    0.298E-02
DAV:   4    -0.204006430197E+03    0.43711E-05   -0.22055E-05  6508   0.224E-02
  44 F= -.20400643E+03 E0= -.20138817E+03  d E =-.845266E-06
       N       E                     dE             d eps       ncg     rms          rms(c)
DAV:   1    -0.204006450857E+03   -0.16289E-04   -0.77874E-04 10372   0.333E-02    0.125E-02
DAV:   2    -0.204006467106E+03   -0.16249E-04   -0.60779E-05  6792   0.350E-02    0.377E-02
DAV:   3    -0.204006457309E+03    0.97966E-05   -0.29706E-05  6580   0.297E-02    0.232E-02
DAV:   4    -0.204006452544E+03    0.47656E-05   -0.87199E-06  6036   0.148E-02
  45 F= -.20400645E+03 E0= -.20138822E+03  d E =-.223470E-04
       N       E                     dE             d eps       ncg     rms          rms(c)
DAV:   1    -0.204006460438E+03   -0.31282E-05   -0.14219E-03 10944   0.440E-02    0.111E-02
DAV:   2    -0.204006466967E+03   -0.65297E-05   -0.29544E-05  6580   0.199E-02    0.236E-02
DAV:   3    -0.204006462072E+03    0.48953E-05   -0.65896E-06  5932   0.175E-02    0.960E-03
DAV:   4    -0.204006462993E+03   -0.92062E-06   -0.50975E-06  5568   0.110E-02
  46 F= -.20400646E+03 E0= -.20138822E+03  d E =-.104488E-04
       N       E                     dE             d eps       ncg     rms          rms(c)
DAV:   1    -0.204006470489E+03   -0.84167E-05   -0.15759E-03 10944   0.476E-02    0.100E-02
DAV:   2    -0.204006479082E+03   -0.85931E-05   -0.41160E-05  6436   0.233E-02    0.261E-02
DAV:   3    -0.204006474694E+03    0.43880E-05   -0.15442E-05  6212   0.203E-02    0.159E-02
DAV:   4    -0.204006472620E+03    0.20736E-05   -0.46032E-06  5572   0.110E-02
  47 F= -.20400647E+03 E0= -.20138824E+03  d E =-.962747E-05
       N       E                     dE             d eps       ncg     rms          rms(c)
DAV:   1    -0.204006480974E+03   -0.62802E-05   -0.27452E-03 10944   0.583E-02    0.116E-02
DAV:   2    -0.204006490958E+03   -0.99837E-05   -0.47903E-05  6616   0.229E-02    0.261E-02
DAV:   3    -0.204006484498E+03    0.64596E-05   -0.70510E-06  6252   0.195E-02    0.740E-03
DAV:   4    -0.204006486651E+03   -0.21526E-05   -0.52054E-06  5708   0.111E-02
  48 F= -.20400649E+03 E0= -.20138826E+03  d E =-.140305E-04
       N       E                     dE             d eps       ncg     rms          rms(c)
DAV:   1    -0.204006492740E+03   -0.82422E-05   -0.37689E-03 10944   0.681E-02    0.139E-02
DAV:   2    -0.204006511985E+03   -0.19244E-04   -0.84109E-05  6768   0.302E-02    0.402E-02
DAV:   3    -0.204006498923E+03    0.13062E-04   -0.29386E-05  6492   0.270E-02    0.145E-02
DAV:   4    -0.204006497838E+03    0.10848E-05   -0.57015E-06  5576   0.129E-02
  49 F= -.20400650E+03 E0= -.20138828E+03  d E =-.111874E-04
       N       E                     dE             d eps       ncg     rms          rms(c)
DAV:   1    -0.204006502120E+03   -0.31974E-05   -0.54235E-03 10944   0.789E-02    0.147E-02
DAV:   2    -0.204006510941E+03   -0.88212E-05   -0.87698E-05  6572   0.173E-02    0.151E-02
DAV:   3    -0.204006510468E+03    0.47313E-06   -0.74351E-06  6156   0.168E-02    0.134E-02
DAV:   4    -0.204006510348E+03    0.12043E-06   -0.38014E-06  5528   0.119E-02
  50 F= -.20400651E+03 E0= -.20138830E+03  d E =-.125098E-04
       N       E                     dE             d eps       ncg     rms          rms(c)
DAV:   1    -0.204006510721E+03   -0.25283E-06   -0.35662E-03 10944   0.669E-02    0.202E-02
DAV:   2    -0.204006643306E+03   -0.13258E-03   -0.28707E-04  9124   0.743E-02    0.117E-01
DAV:   3    -0.204006515772E+03    0.12753E-03   -0.17913E-04  8068   0.649E-02    0.138E-02
DAV:   4    -0.204006515701E+03    0.71272E-07   -0.70462E-06  6488   0.119E-02
  51 F= -.20400652E+03 E0= -.20138832E+03  d E =-.535322E-05
       N       E                     dE             d eps       ncg     rms          rms(c)
DAV:   1    -0.204006529487E+03   -0.13715E-04   -0.11792E-03 10904   0.384E-02    0.126E-02
DAV:   2    -0.204006550348E+03   -0.20861E-04   -0.51482E-05  7532   0.347E-02    0.425E-02
DAV:   3    -0.204006531688E+03    0.18660E-04   -0.13292E-05  6576   0.281E-02    0.821E-03
DAV:   4    -0.204006532122E+03   -0.43349E-06   -0.40741E-06  5472   0.877E-03
  52 F= -.20400653E+03 E0= -.20138832E+03  d E =-.164205E-04
       N       E                     dE             d eps       ncg     rms          rms(c)
DAV:   1    -0.204006537617E+03   -0.59287E-05   -0.11389E-03 10944   0.393E-02    0.766E-03
DAV:   2    -0.204006541569E+03   -0.39523E-05   -0.21912E-05  6280   0.146E-02    0.170E-02
DAV:   3    -0.204006539752E+03    0.18170E-05   -0.70138E-06  5592   0.133E-02    0.988E-03
DAV:   4    -0.204006539161E+03    0.59137E-06   -0.24994E-06  5476   0.831E-03
  53 F= -.20400654E+03 E0= -.20138833E+03  d E =-.703917E-05
       N       E                     dE             d eps       ncg     rms          rms(c)
DAV:   1    -0.204006547348E+03   -0.75961E-05   -0.22219E-03 10944   0.524E-02    0.978E-03
DAV:   2    -0.204006551701E+03   -0.43529E-05   -0.35253E-05  6308   0.148E-02    0.141E-02
DAV:   3    -0.204006550369E+03    0.13324E-05   -0.45895E-06  5544   0.129E-02    0.747E-03
DAV:   4    -0.204006550753E+03   -0.38446E-06   -0.18871E-06  5472   0.805E-03
  54 F= -.20400655E+03 E0= -.20138834E+03  d E =-.115924E-04
       N       E                     dE             d eps       ncg     rms          rms(c)
DAV:   1    -0.204006558908E+03   -0.85390E-05   -0.37614E-03 10944   0.661E-02    0.146E-02
DAV:   2    -0.204006623583E+03   -0.64675E-04   -0.14971E-04  7580   0.521E-02    0.807E-02
DAV:   3    -0.204006563611E+03    0.59972E-04   -0.88388E-05  6940   0.462E-02    0.103E-02
DAV:   4    -0.204006564058E+03   -0.44693E-06   -0.45861E-06  5952   0.124E-02
  55 F= -.20400656E+03 E0= -.20138835E+03  d E =-.133047E-04
       N       E                     dE             d eps       ncg     rms          rms(c)
DAV:   1    -0.204006571843E+03   -0.82321E-05   -0.56572E-03 10944   0.783E-02    0.159E-02
DAV:   2    -0.204006583011E+03   -0.11168E-04   -0.89784E-05  6628   0.238E-02    0.226E-02
DAV:   3    -0.204006580783E+03    0.22274E-05   -0.13466E-05  6320   0.218E-02    0.175E-02
DAV:   4    -0.204006581247E+03   -0.46364E-06   -0.12179E-05  6116   0.171E-02
  56 F= -.20400658E+03 E0= -.20138840E+03  d E =-.171892E-04
       N       E                     dE             d eps       ncg     rms          rms(c)
DAV:   1    -0.204006586565E+03   -0.57818E-05   -0.81533E-03 10944   0.933E-02    0.214E-02
DAV:   2    -0.204006627225E+03   -0.40660E-04   -0.16591E-04  9144   0.471E-02    0.565E-02
DAV:   3    -0.204006602380E+03    0.24845E-04   -0.59056E-05  7264   0.421E-02    0.294E-02
DAV:   4    -0.204006597122E+03    0.52581E-05   -0.21614E-05  6544   0.232E-02
  57 F= -.20400660E+03 E0= -.20138839E+03  d E =-.158751E-04
       N       E                     dE             d eps       ncg     rms          rms(c)
DAV:   1    -0.204006601386E+03    0.99381E-06   -0.99044E-03 10944   0.106E-01    0.246E-02
DAV:   2    -0.204006628499E+03   -0.27113E-04   -0.19454E-04  9588   0.437E-02    0.405E-02
DAV:   3    -0.204006618887E+03    0.96124E-05   -0.44442E-05  7364   0.375E-02    0.305E-02
DAV:   4    -0.204006614619E+03    0.42683E-05   -0.26626E-05  6416   0.247E-02
  58 F= -.20400661E+03 E0= -.20138844E+03  d E =-.174964E-04
       N       E                     dE             d eps       ncg     rms          rms(c)
DAV:   1    -0.204006588579E+03    0.30308E-04   -0.99131E-03 10944   0.106E-01    0.299E-02
DAV:   2    -0.204006680414E+03   -0.91835E-04   -0.30424E-04 11868   0.728E-02    0.889E-02
DAV:   3    -0.204006611362E+03    0.69051E-04   -0.11433E-04 10600   0.622E-02    0.389E-02
DAV:   4    -0.204006601232E+03    0.10130E-04   -0.35363E-05  6656   0.288E-02    0.218E-02
DAV:   5    -0.204006599143E+03    0.20890E-05   -0.12436E-05  6296   0.177E-02
  59 F= -.20400660E+03 E0= -.20138843E+03  d E =0.154754E-04
       N       E                     dE             d eps       ncg     rms          rms(c)
DAV:   1    -0.204006628960E+03   -0.27728E-04   -0.58061E-04  6792   0.297E-02    0.111E-02
DAV:   2    -0.204006634575E+03   -0.56145E-05   -0.35581E-05  6384   0.223E-02    0.196E-02
DAV:   3    -0.204006631998E+03    0.25762E-05   -0.92299E-06  5624   0.175E-02    0.136E-02
DAV:   4    -0.204006630795E+03    0.12038E-05   -0.38950E-06  5524   0.942E-03
  60 F= -.20400663E+03 E0= -.20138846E+03  d E =-.316515E-04
       N       E                     dE             d eps       ncg     rms          rms(c)
DAV:   1    -0.204006639146E+03   -0.71472E-05   -0.12369E-03 10944   0.361E-02    0.150E-02
DAV:   2    -0.204006650664E+03   -0.11518E-04   -0.42869E-05  6720   0.270E-02    0.341E-02
DAV:   3    -0.204006641353E+03    0.93108E-05   -0.15181E-05  6560   0.243E-02    0.168E-02
DAV:   4    -0.204006640378E+03    0.97481E-06   -0.74811E-06  5944   0.135E-02
  61 F= -.20400664E+03 E0= -.20138848E+03  d E =-.958352E-05
       N       E                     dE             d eps       ncg     rms          rms(c)
DAV:   1    -0.204006645540E+03   -0.41868E-05   -0.12179E-03 10944   0.369E-02    0.893E-03
DAV:   2    -0.204006651530E+03   -0.59899E-05   -0.32095E-05  6308   0.205E-02    0.203E-02
DAV:   3    -0.204006648855E+03    0.26742E-05   -0.91974E-06  5876   0.173E-02    0.135E-02
DAV:   4    -0.204006647495E+03    0.13609E-05   -0.37722E-06  5560   0.945E-03
  62 F= -.20400665E+03 E0= -.20138848E+03  d E =-.711635E-05
       N       E                     dE             d eps       ncg     rms          rms(c)
DAV:   1    -0.204006653039E+03   -0.41832E-05   -0.19526E-03 10944   0.439E-02    0.102E-02
DAV:   2    -0.204006659500E+03   -0.64615E-05   -0.34285E-05  6480   0.188E-02    0.209E-02
DAV:   3    -0.204006656113E+03    0.33867E-05   -0.64688E-06  5756   0.164E-02    0.107E-02
DAV:   4    -0.204006656227E+03   -0.11314E-06   -0.44962E-06  5488   0.103E-02
  63 F= -.20400666E+03 E0= -.20138850E+03  d E =-.873207E-05
       N       E                     dE             d eps       ncg     rms          rms(c)
DAV:   1    -0.204006661251E+03   -0.51375E-05   -0.37262E-03 10944   0.583E-02    0.134E-02
DAV:   2    -0.204006670174E+03   -0.89231E-05   -0.61724E-05  6492   0.219E-02    0.223E-02
DAV:   3    -0.204006667781E+03    0.23932E-05   -0.12480E-05  6108   0.204E-02    0.169E-02
DAV:   4    -0.204006666867E+03    0.91382E-06   -0.84475E-06  5812   0.142E-02
  64 F= -.20400667E+03 E0= -.20138849E+03  d E =-.106405E-04
       N       E                     dE             d eps       ncg     rms          rms(c)
DAV:   1    -0.204006671366E+03   -0.35854E-05   -0.59619E-03 10944   0.716E-02    0.176E-02
DAV:   2    -0.204006689096E+03   -0.17730E-04   -0.10268E-04  6808   0.315E-02    0.339E-02
DAV:   3    -0.204006680682E+03    0.84142E-05   -0.18912E-05  6676   0.275E-02    0.190E-02
DAV:   4    -0.204006680650E+03    0.32294E-07   -0.13612E-05  6124   0.179E-02
  65 F= -.20400668E+03 E0= -.20138853E+03  d E =-.137825E-04
       N       E                     dE             d eps       ncg     rms          rms(c)
DAV:   1    -0.204006683160E+03   -0.24777E-05   -0.87784E-03 10944   0.896E-02    0.219E-02
DAV:   2    -0.204006712940E+03   -0.29780E-04   -0.16235E-04  8332   0.420E-02    0.452E-02
DAV:   3    -0.204006698994E+03    0.13946E-04   -0.42527E-05  7400   0.375E-02    0.284E-02
DAV:   4    -0.204006695288E+03    0.37062E-05   -0.22461E-05  6384   0.228E-02
  66 F= -.20400670E+03 E0= -.20138852E+03  d E =-.146382E-04
       N       E                     dE             d eps       ncg     rms          rms(c)
DAV:   1    -0.204006693647E+03    0.53471E-05   -0.10399E-02 10944   0.100E-01    0.264E-02
DAV:   2    -0.204006731140E+03   -0.37493E-04   -0.21444E-04  9848   0.493E-02    0.514E-02
DAV:   3    -0.204006711015E+03    0.20125E-04   -0.46765E-05  8388   0.416E-02    0.294E-02
DAV:   4    -0.204006708998E+03    0.20170E-05   -0.28302E-05  6456   0.254E-02
  67 F= -.20400671E+03 E0= -.20138857E+03  d E =-.137099E-04
       N       E                     dE             d eps       ncg     rms          rms(c)
DAV:   1    -0.204006678244E+03    0.32770E-04   -0.91460E-03 10944   0.938E-02    0.292E-02
DAV:   2    -0.204006754649E+03   -0.76405E-04   -0.30205E-04 11300   0.677E-02    0.808E-02
DAV:   3    -0.204006704233E+03    0.50416E-04   -0.12070E-04  9232   0.594E-02    0.428E-02
DAV:   4    -0.204006690718E+03    0.13515E-04   -0.36999E-05  6720   0.298E-02    0.209E-02
DAV:   5    -0.204006689289E+03    0.14290E-05   -0.11743E-05  6368   0.181E-02
  68 F= -.20400669E+03 E0= -.20138855E+03  d E =0.197087E-04
       N       E                     dE             d eps       ncg     rms          rms(c)
DAV:   1    -0.204006719661E+03   -0.28943E-04   -0.62565E-04  6596   0.305E-02    0.115E-02
DAV:   2    -0.204006727743E+03   -0.80823E-05   -0.39125E-05  6456   0.254E-02    0.252E-02
DAV:   3    -0.204006722610E+03    0.51334E-05   -0.10753E-05  5880   0.200E-02    0.131E-02
DAV:   4    -0.204006721574E+03    0.10359E-05   -0.41150E-06  5556   0.953E-03
  69 F= -.20400672E+03 E0= -.20138857E+03  d E =-.322850E-04
       N       E                     dE             d eps       ncg     rms          rms(c)
DAV:   1    -0.204006729125E+03   -0.65148E-05   -0.14005E-03 10648   0.351E-02    0.154E-02
DAV:   2    -0.204006741825E+03   -0.12700E-04   -0.48945E-05  6736   0.282E-02    0.360E-02
DAV:   3    -0.204006732266E+03    0.95582E-05   -0.20898E-05  6512   0.260E-02    0.190E-02
DAV:   4    -0.204006730343E+03    0.19237E-05   -0.80185E-06  5996   0.144E-02
  70 F= -.20400673E+03 E0= -.20138860E+03  d E =-.876860E-05
       N       E                     dE             d eps       ncg     rms          rms(c)
DAV:   1    -0.204006735093E+03   -0.28267E-05   -0.17136E-03 10944   0.400E-02    0.114E-02
DAV:   2    -0.204006746203E+03   -0.11110E-04   -0.48473E-05  6644   0.283E-02    0.296E-02
DAV:   3    -0.204006739407E+03    0.67962E-05   -0.15289E-05  6192   0.235E-02    0.161E-02
DAV:   4    -0.204006737483E+03    0.19236E-05   -0.58747E-06  5700   0.117E-02
  71 F= -.20400674E+03 E0= -.20138859E+03  d E =-.714068E-05
       N       E                     dE             d eps       ncg     rms          rms(c)
DAV:   1    -0.204006742162E+03   -0.27550E-05   -0.27383E-03 10944   0.471E-02    0.124E-02
DAV:   2    -0.204006752421E+03   -0.10259E-04   -0.51810E-05  6676   0.239E-02    0.275E-02
DAV:   3    -0.204006747294E+03    0.51268E-05   -0.14286E-05  6232   0.216E-02    0.161E-02
DAV:   4    -0.204006746049E+03    0.12459E-05   -0.68710E-06  5848   0.131E-02
  72 F= -.20400675E+03 E0= -.20138862E+03  d E =-.856535E-05
       N       E                     dE             d eps       ncg     rms          rms(c)
DAV:   1    -0.204006750139E+03   -0.28443E-05   -0.49204E-03 10944   0.622E-02    0.160E-02
DAV:   2    -0.204006764236E+03   -0.14097E-04   -0.85608E-05  6700   0.286E-02    0.297E-02
DAV:   3    -0.204006758328E+03    0.59078E-05   -0.17272E-05  6564   0.254E-02    0.188E-02
DAV:   4    -0.204006757494E+03    0.83383E-06   -0.11633E-05  6096   0.167E-02
  73 F= -.20400676E+03 E0= -.20138861E+03  d E =-.114453E-04
       N       E                     dE             d eps       ncg     rms          rms(c)
DAV:   1    -0.204006760019E+03   -0.16915E-05   -0.69867E-03 10944   0.753E-02    0.204E-02
DAV:   2    -0.204006788741E+03   -0.28722E-04   -0.14049E-04  7880   0.414E-02    0.467E-02
DAV:   3    -0.204006774001E+03    0.14740E-04   -0.44391E-05  6808   0.369E-02    0.286E-02
DAV:   4    -0.204006769005E+03    0.49953E-05   -0.19435E-05  6392   0.219E-02
  74 F= -.20400677E+03 E0= -.20138866E+03  d E =-.115114E-04
       N       E                     dE             d eps       ncg     rms          rms(c)
DAV:   1    -0.204006766374E+03    0.76268E-05   -0.97224E-03 10944   0.890E-02    0.243E-02
DAV:   2    -0.204006804358E+03   -0.37984E-04   -0.19735E-04  9656   0.487E-02    0.514E-02
DAV:   3    -0.204006782486E+03    0.21872E-04   -0.44422E-05  8284   0.410E-02    0.273E-02
DAV:   4    -0.204006780668E+03    0.18181E-05   -0.25427E-05  6468   0.242E-02
  75 F= -.20400678E+03 E0= -.20138865E+03  d E =-.116626E-04
       N       E                     dE             d eps       ncg     rms          rms(c)
DAV:   1    -0.204006760856E+03    0.21630E-04   -0.63940E-03 10944   0.752E-02    0.282E-02
DAV:   2    -0.204006813903E+03   -0.53047E-04   -0.24001E-04 10304   0.586E-02    0.677E-02
DAV:   3    -0.204006782546E+03    0.31357E-04   -0.94681E-05  7980   0.516E-02    0.416E-02
DAV:   4    -0.204006769842E+03    0.12704E-04   -0.33274E-05  6584   0.288E-02    0.208E-02
DAV:   5    -0.204006769480E+03    0.36202E-06   -0.11093E-05  6488   0.185E-02
  76 F= -.20400677E+03 E0= -.20138863E+03  d E =0.111881E-04
       N       E                     dE             d eps       ncg     rms          rms(c)
DAV:   1    -0.204006793868E+03   -0.24026E-04   -0.99443E-04  6668   0.350E-02    0.121E-02
DAV:   2    -0.204006802012E+03   -0.81435E-05   -0.41571E-05  6400   0.245E-02    0.258E-02
DAV:   3    -0.204006797943E+03    0.40683E-05   -0.14559E-05  6180   0.212E-02    0.173E-02
DAV:   4    -0.204006795894E+03    0.20497E-05   -0.67814E-06  5792   0.129E-02
  77 F= -.20400680E+03 E0= -.20138869E+03  d E =-.264138E-04
       N       E                     dE             d eps       ncg     rms          rms(c)
DAV:   1    -0.204006799888E+03   -0.19441E-05   -0.18387E-03 10408   0.375E-02    0.132E-02
DAV:   2    -0.204006810889E+03   -0.11002E-04   -0.44098E-05  6840   0.277E-02    0.311E-02
DAV:   3    -0.204006801801E+03    0.90879E-05   -0.10642E-05  6412   0.232E-02    0.117E-02
DAV:   4    -0.204006802247E+03   -0.44542E-06   -0.60861E-06  5556   0.119E-02
  78 F= -.20400680E+03 E0= -.20138868E+03  d E =-.635311E-05
       N       E                     dE             d eps       ncg     rms          rms(c)
DAV:   1    -0.204006805550E+03   -0.37491E-05   -0.25341E-03 10752   0.447E-02    0.130E-02
DAV:   2    -0.204006823189E+03   -0.17638E-04   -0.69793E-05  6796   0.316E-02    0.389E-02
DAV:   3    -0.204006811935E+03    0.11254E-04   -0.30088E-05  6544   0.281E-02    0.193E-02
DAV:   4    -0.204006808895E+03    0.30395E-05   -0.69296E-06  5772   0.142E-02
  79 F= -.20400681E+03 E0= -.20138870E+03  d E =-.664822E-05
       N       E                     dE             d eps       ncg     rms          rms(c)
DAV:   1    -0.204006811643E+03    0.29169E-06   -0.47069E-03 10944   0.567E-02    0.159E-02
DAV:   2    -0.204006827461E+03   -0.15818E-04   -0.81048E-05  6852   0.293E-02    0.325E-02
DAV:   3    -0.204006817367E+03    0.10094E-04   -0.10407E-05  6520   0.248E-02    0.104E-02
DAV:   4    -0.204006819420E+03   -0.20529E-05   -0.67371E-06  5740   0.134E-02
  80 F= -.20400682E+03 E0= -.20138871E+03  d E =-.105248E-04
       N       E                     dE             d eps       ncg     rms          rms(c)
DAV:   1    -0.204006819661E+03   -0.22943E-05   -0.66446E-03 10944   0.696E-02    0.209E-02
DAV:   2    -0.204006919162E+03   -0.99501E-04   -0.25090E-04  8528   0.659E-02    0.991E-02
DAV:   3    -0.204006828870E+03    0.90292E-04   -0.13724E-04  7484   0.581E-02    0.173E-02
DAV:   4    -0.204006827830E+03    0.10400E-05   -0.10221E-05  6164   0.172E-02
  81 F= -.20400683E+03 E0= -.20138873E+03  d E =-.841031E-05
       N       E                     dE             d eps       ncg     rms          rms(c)
DAV:   1    -0.204006822616E+03    0.62539E-05   -0.94420E-03 10944   0.804E-02    0.226E-02
DAV:   2    -0.204006861095E+03   -0.38479E-04   -0.17682E-04  8596   0.449E-02    0.517E-02
DAV:   3    -0.204006833953E+03    0.27143E-04   -0.24720E-05  7988   0.371E-02    0.132E-02
DAV:   4    -0.204006836144E+03   -0.21913E-05   -0.95466E-06  6080   0.151E-02
  82 F= -.20400684E+03 E0= -.20138873E+03  d E =-.831380E-05
       N       E                     dE             d eps       ncg     rms          rms(c)
DAV:   1    -0.204006822339E+03    0.11613E-04   -0.62109E-03 10944   0.693E-02    0.277E-02
DAV:   2    -0.204007057641E+03   -0.23530E-03   -0.52054E-04 11036   0.994E-02    0.155E-01
DAV:   3    -0.204006831531E+03    0.22611E-03   -0.32877E-04  9508   0.864E-02    0.198E-02
DAV:   4    -0.204006829430E+03    0.21009E-05   -0.13433E-05  6832   0.166E-02
  83 F= -.20400683E+03 E0= -.20138873E+03  d E =0.671383E-05
       N       E                     dE             d eps       ncg     rms          rms(c)
DAV:   1    -0.204006851273E+03   -0.19742E-04   -0.19852E-03  8064   0.419E-02    0.147E-02
DAV:   2    -0.204006865999E+03   -0.14726E-04   -0.73264E-05  6868   0.322E-02    0.329E-02
DAV:   3    -0.204006855337E+03    0.10662E-04   -0.11815E-05  6720   0.249E-02    0.110E-02
DAV:   4    -0.204006855031E+03    0.30634E-06   -0.39523E-06  5484   0.105E-02
  84 F= -.20400686E+03 E0= -.20138876E+03  d E =-.256010E-04
       N       E                     dE             d eps       ncg     rms          rms(c)
DAV:   1    -0.204006860034E+03   -0.46966E-05   -0.21349E-03 10320   0.404E-02    0.175E-02
DAV:   2    -0.204007035912E+03   -0.17588E-03   -0.31854E-04  9804   0.845E-02    0.136E-01
DAV:   3    -0.204006861486E+03    0.17443E-03   -0.24088E-04  8380   0.745E-02    0.104E-02
DAV:   4    -0.204006861253E+03    0.23380E-06   -0.60127E-06  6244   0.119E-02
  85 F= -.20400686E+03 E0= -.20138878E+03  d E =-.622155E-05
       N       E                     dE             d eps       ncg     rms          rms(c)
DAV:   1    -0.204006864329E+03   -0.28428E-05   -0.42978E-03 10896   0.528E-02    0.149E-02
DAV:   2    -0.204006876075E+03   -0.11746E-04   -0.73727E-05  6660   0.259E-02    0.263E-02
DAV:   3    -0.204006870044E+03    0.60308E-05   -0.92471E-06  6400   0.219E-02    0.119E-02
DAV:   4    -0.204006871770E+03   -0.17260E-05   -0.74828E-06  5796   0.141E-02
  86 F= -.20400687E+03 E0= -.20138878E+03  d E =-.105177E-04
       N       E                     dE             d eps       ncg     rms          rms(c)
DAV:   1    -0.204006871837E+03   -0.17928E-05   -0.76740E-03 10944   0.698E-02    0.207E-02
DAV:   2    -0.204006939846E+03   -0.68009E-04   -0.20888E-04  8016   0.563E-02    0.797E-02
DAV:   3    -0.204006883788E+03    0.56059E-04   -0.99863E-05  7036   0.497E-02    0.216E-02
DAV:   4    -0.204006881499E+03    0.22889E-05   -0.11898E-05  6448   0.199E-02
  87 F= -.20400688E+03 E0= -.20138881E+03  d E =-.972866E-05
       N       E                     dE             d eps       ncg     rms          rms(c)
DAV:   1    -0.204006880468E+03    0.33202E-05   -0.12017E-02 10944   0.846E-02    0.259E-02
DAV:   2    -0.204006918074E+03   -0.37606E-04   -0.21476E-04  8932   0.473E-02    0.488E-02
DAV:   3    -0.204006895579E+03    0.22495E-04   -0.31239E-05  8316   0.391E-02    0.197E-02
DAV:   4    -0.204006899615E+03   -0.40360E-05   -0.19690E-05  6380   0.230E-02
  88 F= -.20400690E+03 E0= -.20138882E+03  d E =-.181158E-04
       N       E                     dE             d eps       ncg     rms          rms(c)
DAV:   1    -0.204006891754E+03    0.38246E-05   -0.18119E-02 10944   0.107E-01    0.349E-02
DAV:   2    -0.204007190670E+03   -0.29892E-03   -0.73557E-04 12488   0.115E-01    0.172E-01
DAV:   3    -0.204006918097E+03    0.27257E-03   -0.43675E-04 11080   0.101E-01    0.327E-02
DAV:   4    -0.204006912356E+03    0.57403E-05   -0.30704E-05  7396   0.311E-02
  89 F= -.20400691E+03 E0= -.20138886E+03  d E =-.127414E-04
       N       E                     dE             d eps       ncg     rms          rms(c)
DAV:   1    -0.204006900247E+03    0.17849E-04   -0.22486E-02 10944   0.119E-01    0.391E-02
DAV:   2    -0.204006995688E+03   -0.95441E-04   -0.45820E-04 11532   0.775E-02    0.832E-02
DAV:   3    -0.204006927777E+03    0.67911E-04   -0.83379E-05 11576   0.627E-02    0.291E-02
DAV:   4    -0.204006934863E+03   -0.70857E-05   -0.41679E-05  7040   0.331E-02
  90 F= -.20400693E+03 E0= -.20138886E+03  d E =-.225068E-04
       N       E                     dE             d eps       ncg     rms          rms(c)
DAV:   1    -0.204006855448E+03    0.72330E-04   -0.24568E-02 10944   0.132E-01    0.474E-02
DAV:   2    -0.204007473923E+03   -0.61848E-03   -0.14670E-03 12972   0.166E-01    0.250E-01
DAV:   3    -0.204006897636E+03    0.57629E-03   -0.91132E-04 12660   0.145E-01    0.465E-02
DAV:   4    -0.204006882242E+03    0.15395E-04   -0.54455E-05  9740   0.402E-02    0.292E-02
DAV:   5    -0.204006882546E+03   -0.30445E-06   -0.22528E-05  7232   0.289E-02
  91 F= -.20400688E+03 E0= -.20138878E+03  d E =0.523170E-04
       N       E                     dE             d eps       ncg     rms          rms(c)
DAV:   1    -0.204006941187E+03   -0.58946E-04   -0.15046E-03  6764   0.462E-02    0.163E-02
DAV:   2    -0.204006954751E+03   -0.13564E-04   -0.71693E-05  6632   0.296E-02    0.316E-02
DAV:   3    -0.204006948189E+03    0.65622E-05   -0.18482E-05  6416   0.252E-02    0.209E-02
DAV:   4    -0.204006945675E+03    0.25133E-05   -0.97199E-06  5984   0.152E-02
  92 F= -.20400695E+03 E0= -.20138888E+03  d E =-.631294E-04
       N       E                     dE             d eps       ncg     rms          rms(c)
DAV:   1    -0.204006950690E+03   -0.25014E-05   -0.27371E-03  9048   0.435E-02    0.216E-02
DAV:   2    -0.204006972745E+03   -0.22055E-04   -0.92148E-05  7556   0.395E-02    0.465E-02
DAV:   3    -0.204006956394E+03    0.16352E-04   -0.36309E-05  7208   0.357E-02    0.267E-02
DAV:   4    -0.204006953043E+03    0.33505E-05   -0.17281E-05  6324   0.203E-02
  93 F= -.20400695E+03 E0= -.20138887E+03  d E =-.736777E-05
       N       E                     dE             d eps       ncg     rms          rms(c)
DAV:   1    -0.204006957608E+03   -0.12137E-05   -0.31373E-03  9800   0.485E-02    0.166E-02
DAV:   2    -0.204006984817E+03   -0.27210E-04   -0.10667E-04  8340   0.433E-02    0.471E-02
DAV:   3    -0.204006968209E+03    0.16608E-04   -0.43341E-05  6800   0.366E-02    0.281E-02
DAV:   4    -0.204006961780E+03    0.64293E-05   -0.15479E-05  6136   0.190E-02
  94 F= -.20400696E+03 E0= -.20138890E+03  d E =-.873666E-05
       N       E                     dE             d eps       ncg     rms          rms(c)
DAV:   1    -0.204006964996E+03    0.32133E-05   -0.40908E-03 10688   0.505E-02    0.162E-02
DAV:   2    -0.204006979200E+03   -0.14204E-04   -0.78765E-05  6740   0.286E-02    0.309E-02
DAV:   3    -0.204006971747E+03    0.74528E-05   -0.14729E-05  6532   0.252E-02    0.169E-02
DAV:   4    -0.204006972033E+03   -0.28647E-06   -0.10652E-05  6020   0.160E-02
  95 F= -.20400697E+03 E0= -.20138889E+03  d E =-.102534E-04
       N       E                     dE             d eps       ncg     rms          rms(c)
DAV:   1    -0.204006971484E+03    0.26320E-06   -0.70673E-03 10840   0.657E-02    0.192E-02
DAV:   2    -0.204006994924E+03   -0.23441E-04   -0.12981E-04  6744   0.352E-02    0.403E-02
DAV:   3    -0.204006985274E+03    0.96502E-05   -0.38356E-05  7004   0.327E-02    0.265E-02
DAV:   4    -0.204006981096E+03    0.41776E-05   -0.16017E-05  6372   0.208E-02
  96 F= -.20400698E+03 E0= -.20138893E+03  d E =-.906303E-05
       N       E                     dE             d eps       ncg     rms          rms(c)
DAV:   1    -0.204006978711E+03    0.65632E-05   -0.89831E-03 10944   0.746E-02    0.248E-02
DAV:   2    -0.204007016164E+03   -0.37454E-04   -0.18584E-04  8880   0.478E-02    0.517E-02
DAV:   3    -0.204006990748E+03    0.25417E-04   -0.32077E-05  8324   0.394E-02    0.201E-02
DAV:   4    -0.204006994297E+03   -0.35498E-05   -0.20400E-05  6420   0.223E-02
  97 F= -.20400699E+03 E0= -.20138892E+03  d E =-.132009E-04
       N       E                     dE             d eps       ncg     rms          rms(c)
DAV:   1    -0.204006973621E+03    0.17126E-04   -0.11304E-02 10944   0.871E-02    0.277E-02
DAV:   2    -0.204007088091E+03   -0.11447E-03   -0.36707E-04 10336   0.741E-02    0.103E-01
DAV:   3    -0.204006995258E+03    0.92832E-04   -0.17155E-04  8224   0.652E-02    0.320E-02
DAV:   4    -0.204006988224E+03    0.70341E-05   -0.23689E-05  6768   0.266E-02
  98 F= -.20400699E+03 E0= -.20138895E+03  d E =0.607288E-05
       N       E                     dE             d eps       ncg     rms          rms(c)
DAV:   1    -0.204006994698E+03    0.56039E-06   -0.44380E-03 10456   0.579E-02    0.264E-02
DAV:   2    -0.204007047598E+03   -0.52900E-04   -0.19667E-04 10924   0.590E-02    0.663E-02
DAV:   3    -0.204007003189E+03    0.44409E-04   -0.44335E-05  9236   0.467E-02    0.208E-02
DAV:   4    -0.204007003682E+03   -0.49242E-06   -0.16098E-05  6196   0.192E-02
  99 F= -.20400700E+03 E0= -.20138894E+03  d E =-.154572E-04
       N       E                     dE             d eps       ncg     rms          rms(c)
DAV:   1    -0.204007012769E+03   -0.95795E-05   -0.24880E-03  7416   0.477E-02    0.204E-02
DAV:   2    -0.204007178987E+03   -0.16622E-03   -0.32068E-04 10736   0.851E-02    0.131E-01
DAV:   3    -0.204007019175E+03    0.15981E-03   -0.23115E-04  8704   0.749E-02    0.203E-02
DAV:   4    -0.204007015666E+03    0.35098E-05   -0.10788E-05  6512   0.173E-02
 100 F= -.20400702E+03 E0= -.20138897E+03  d E =-.119840E-04
       N       E                     dE             d eps       ncg     rms          rms(c)
DAV:   1    -0.204007018077E+03    0.10982E-05   -0.35266E-03  9000   0.457E-02    0.157E-02
DAV:   2    -0.204007032613E+03   -0.14536E-04   -0.69345E-05  6876   0.301E-02    0.324E-02
DAV:   3    -0.204007022609E+03    0.10005E-04   -0.10969E-05  6584   0.249E-02    0.113E-02
DAV:   4    -0.204007024288E+03   -0.16789E-05   -0.71551E-06  5644   0.138E-02
 101 F= -.20400702E+03 E0= -.20138897E+03  d E =-.862210E-05
       N       E                     dE             d eps       ncg     rms          rms(c)
DAV:   1    -0.204007023878E+03   -0.12689E-05   -0.68821E-03 10680   0.634E-02    0.207E-02
DAV:   2    -0.204007110535E+03   -0.86657E-04   -0.22687E-04  8368   0.621E-02    0.919E-02
DAV:   3    -0.204007033694E+03    0.76841E-04   -0.12186E-04  7460   0.549E-02    0.190E-02
DAV:   4    -0.204007032303E+03    0.13906E-05   -0.10754E-05  6328   0.188E-02
 102 F= -.20400703E+03 E0= -.20138899E+03  d E =-.801570E-05
       N       E                     dE             d eps       ncg     rms          rms(c)
DAV:   1    -0.204007030439E+03    0.32555E-05   -0.10730E-02 10944   0.775E-02    0.247E-02
DAV:   2    -0.204007068814E+03   -0.38375E-04   -0.19182E-04  8796   0.470E-02    0.510E-02
DAV:   3    -0.204007043096E+03    0.25718E-04   -0.28404E-05  8320   0.388E-02    0.166E-02
DAV:   4    -0.204007043769E+03   -0.67362E-06   -0.10439E-05  5956   0.180E-02
 103 F= -.20400704E+03 E0= -.20138900E+03  d E =-.114659E-04
       N       E                     dE             d eps       ncg     rms          rms(c)
DAV:   1    -0.204007036751E+03    0.63443E-05   -0.15479E-02 10944   0.921E-02    0.246E-02
DAV:   2    -0.204007095162E+03   -0.58410E-04   -0.27764E-04  7148   0.466E-02    0.665E-02
DAV:   3    -0.204007056650E+03    0.38512E-04   -0.77061E-05  7308   0.433E-02    0.180E-02
DAV:   4    -0.204007057276E+03   -0.62647E-06   -0.78302E-06  6548   0.146E-02
 104 F= -.20400706E+03 E0= -.20138899E+03  d E =-.135069E-04
       N       E                     dE             d eps       ncg     rms          rms(c)
DAV:   1    -0.204007043645E+03    0.13005E-04   -0.19344E-02 10944   0.103E-01    0.299E-02
DAV:   2    -0.204007087826E+03   -0.44181E-04   -0.30736E-04  7648   0.420E-02    0.474E-02
DAV:   3    -0.204007069239E+03    0.18587E-04   -0.25401E-05  7940   0.381E-02    0.219E-02
DAV:   4    -0.204007073255E+03   -0.40159E-05   -0.17132E-05  6988   0.205E-02
 105 F= -.20400707E+03 E0= -.20138903E+03  d E =-.159789E-04
       N       E                     dE             d eps       ncg     rms          rms(c)
DAV:   1    -0.204007003946E+03    0.65293E-04   -0.21713E-02 10944   0.114E-01    0.355E-02
DAV:   2    -0.204007221254E+03   -0.21731E-03   -0.69240E-04 10396   0.949E-02    0.142E-01
DAV:   3    -0.204007032657E+03    0.18860E-03   -0.29876E-04  9252   0.821E-02    0.236E-02
DAV:   4    -0.204007035149E+03   -0.24925E-05   -0.21205E-05  7116   0.238E-02
 106 F= -.20400704E+03 E0= -.20138896E+03  d E =0.381058E-04
       N       E                     dE             d eps       ncg     rms          rms(c)
DAV:   1    -0.204007086274E+03   -0.53617E-04   -0.21208E-03  6780   0.509E-02    0.210E-02
DAV:   2    -0.204007131883E+03   -0.45609E-04   -0.11758E-04  9148   0.510E-02    0.627E-02
DAV:   3    -0.204007091161E+03    0.40722E-04   -0.27775E-05  8132   0.408E-02    0.121E-02
DAV:   4    -0.204007092340E+03   -0.11783E-05   -0.84832E-06  6380   0.116E-02
 107 F= -.20400709E+03 E0= -.20138906E+03  d E =-.571902E-04
       N       E                     dE             d eps       ncg     rms          rms(c)
DAV:   1    -0.204007094358E+03   -0.31969E-05   -0.25171E-03  7408   0.444E-02    0.191E-02
DAV:   2    -0.204007233915E+03   -0.13956E-03   -0.26237E-04  9204   0.765E-02    0.121E-01
DAV:   3    -0.204007095925E+03    0.13799E-03   -0.19070E-04  7912   0.677E-02    0.105E-02
DAV:   4    -0.204007096148E+03   -0.22282E-06   -0.64480E-06  6152   0.110E-02
 108 F= -.20400710E+03 E0= -.20138905E+03  d E =-.380813E-05
       N       E                     dE             d eps       ncg     rms          rms(c)
DAV:   1    -0.204007097551E+03   -0.16265E-05   -0.47468E-03  9392   0.517E-02    0.151E-02
DAV:   2    -0.204007112891E+03   -0.15340E-04   -0.81317E-05  6748   0.278E-02    0.315E-02
DAV:   3    -0.204007103566E+03    0.93257E-05   -0.92697E-06  6528   0.233E-02    0.926E-03
DAV:   4    -0.204007107967E+03   -0.44007E-05   -0.97306E-06  6116   0.151E-02
 109 F= -.20400711E+03 E0= -.20138908E+03  d E =-.118189E-04
       N       E                     dE             d eps       ncg     rms          rms(c)
DAV:   1    -0.204007103590E+03   -0.23829E-07   -0.65587E-03 10744   0.630E-02    0.181E-02
DAV:   2    -0.204007129235E+03   -0.25645E-04   -0.13133E-04  6704   0.337E-02    0.442E-02
DAV:   3    -0.204007114676E+03    0.14559E-04   -0.38861E-05  6624   0.312E-02    0.202E-02
DAV:   4    -0.204007113086E+03    0.15899E-05   -0.11060E-05  5992   0.178E-02
 110 F= -.20400711E+03 E0= -.20138907E+03  d E =-.511944E-05
       N       E                     dE             d eps       ncg     rms          rms(c)
DAV:   1    -0.204007105798E+03    0.88779E-05   -0.96162E-03 10816   0.723E-02    0.206E-02
DAV:   2    -0.204007127095E+03   -0.21297E-04   -0.15751E-04  6740   0.298E-02    0.321E-02
DAV:   3    -0.204007118713E+03    0.83817E-05   -0.12139E-05  6996   0.264E-02    0.148E-02
DAV:   4    -0.204007118647E+03    0.66313E-07   -0.55211E-06  5948   0.136E-02
 111 F= -.20400712E+03 E0= -.20138909E+03  d E =-.556095E-05
       N       E                     dE             d eps       ncg     rms          rms(c)
DAV:   1    -0.204007106461E+03    0.12253E-04   -0.74989E-03 10744   0.674E-02    0.285E-02
DAV:   2    -0.204007393215E+03   -0.28675E-03   -0.61522E-04 11248   0.108E-01    0.172E-01
DAV:   3    -0.204007115665E+03    0.27755E-03   -0.39631E-04 10076   0.942E-02    0.180E-02
DAV:   4    -0.204007114780E+03    0.88558E-06   -0.12456E-05  6952   0.137E-02
 112 F= -.20400711E+03 E0= -.20138908E+03  d E =0.386727E-05
       N       E                     dE             d eps       ncg     rms          rms(c)
DAV:   1    -0.204007130722E+03   -0.15057E-04   -0.41518E-03  8096   0.564E-02    0.226E-02
DAV:   2    -0.204007187004E+03   -0.56282E-04   -0.16436E-04 10924   0.588E-02    0.698E-02
DAV:   3    -0.204007136290E+03    0.50714E-04   -0.41761E-05  9068   0.464E-02    0.125E-02
DAV:   4    -0.204007138150E+03   -0.18604E-05   -0.11423E-05  5952   0.153E-02
 113 F= -.20400714E+03 E0= -.20138911E+03  d E =-.233708E-04
       N       E                     dE             d eps       ncg     rms          rms(c)
DAV:   1    -0.204007141496E+03   -0.52064E-05   -0.26119E-03  7048   0.447E-02    0.183E-02
DAV:   2    -0.204007269810E+03   -0.12831E-03   -0.25833E-04  9472   0.749E-02    0.115E-01
DAV:   3    -0.204007147422E+03    0.12239E-03   -0.18499E-04  7648   0.657E-02    0.190E-02
DAV:   4    -0.204007144242E+03    0.31800E-05   -0.99484E-06  6336   0.156E-02
 114 F= -.20400714E+03 E0= -.20138911E+03  d E =-.609142E-05
       N       E                     dE             d eps       ncg     rms          rms(c)
DAV:   1    -0.204007146079E+03    0.13427E-05   -0.50151E-03  8064   0.496E-02    0.161E-02
DAV:   2    -0.204007161076E+03   -0.14996E-04   -0.84469E-05  6768   0.282E-02    0.309E-02
DAV:   3    -0.204007152531E+03    0.85448E-05   -0.10817E-05  6492   0.240E-02    0.117E-02
DAV:   4    -0.204007156496E+03   -0.39653E-05   -0.11436E-05  6144   0.166E-02
 115 F= -.20400716E+03 E0= -.20138914E+03  d E =-.122542E-04
       N       E                     dE             d eps       ncg     rms          rms(c)
DAV:   1    -0.204007152053E+03    0.47825E-06   -0.76053E-03 10520   0.666E-02    0.206E-02
DAV:   2    -0.204007193808E+03   -0.41755E-04   -0.16848E-04  7356   0.461E-02    0.586E-02
DAV:   3    -0.204007166864E+03    0.26944E-04   -0.67267E-05  7056   0.418E-02    0.276E-02
DAV:   4    -0.204007161617E+03    0.52468E-05   -0.15524E-05  6388   0.214E-02
 116 F= -.20400716E+03 E0= -.20138912E+03  d E =-.512089E-05
       N       E                     dE             d eps       ncg     rms          rms(c)
DAV:   1    -0.204007157343E+03    0.95207E-05   -0.11485E-02 10800   0.769E-02    0.247E-02
DAV:   2    -0.204007198460E+03   -0.41117E-04   -0.20762E-04  8556   0.482E-02    0.527E-02
DAV:   3    -0.204007170775E+03    0.27686E-04   -0.30196E-05  8132   0.394E-02    0.156E-02
DAV:   4    -0.204007175300E+03   -0.45251E-05   -0.15237E-05  6300   0.208E-02
 117 F= -.20400718E+03 E0= -.20138915E+03  d E =-.136828E-04
       N       E                     dE             d eps       ncg     rms          rms(c)
DAV:   1    -0.204007153831E+03    0.16944E-04   -0.11249E-02 10752   0.841E-02    0.342E-02
DAV:   2    -0.204007517886E+03   -0.36405E-03   -0.77380E-04 12576   0.125E-01    0.193E-01
DAV:   3    -0.204007172298E+03    0.34559E-03   -0.50003E-04 11396   0.109E-01    0.306E-02
DAV:   4    -0.204007166339E+03    0.59586E-05   -0.23038E-05  6840   0.264E-02
 118 F= -.20400717E+03 E0= -.20138913E+03  d E =0.896024E-05
       N       E                     dE             d eps       ncg     rms          rms(c)
DAV:   1    -0.204007167049E+03    0.52492E-05   -0.68817E-03  8264   0.662E-02    0.262E-02
DAV:   2    -0.204007226186E+03   -0.59137E-04   -0.23234E-04 10816   0.597E-02    0.685E-02
DAV:   3    -0.204007178341E+03    0.47845E-04   -0.44012E-05  9232   0.472E-02    0.179E-02
DAV:   4    -0.204007180739E+03   -0.23981E-05   -0.16780E-05  6276   0.196E-02
 119 F= -.20400718E+03 E0= -.20138916E+03  d E =-.143998E-04
       N       E                     dE             d eps       ncg     rms          rms(c)
DAV:   1    -0.204007193109E+03   -0.14768E-04   -0.16334E-03  6696   0.423E-02    0.199E-02
DAV:   2    -0.204007355850E+03   -0.16274E-03   -0.30489E-04 10356   0.844E-02    0.129E-01
DAV:   3    -0.204007199759E+03    0.15609E-03   -0.23043E-04  8420   0.744E-02    0.226E-02
DAV:   4    -0.204007194939E+03    0.48200E-05   -0.10721E-05  6492   0.173E-02
 120 F= -.20400719E+03 E0= -.20138917E+03  d E =-.141994E-04
       N       E                     dE             d eps       ncg     rms          rms(c)
DAV:   1    -0.204007197080E+03    0.26786E-05   -0.33260E-03  7184   0.415E-02    0.153E-02
DAV:   2    -0.204007210599E+03   -0.13519E-04   -0.61365E-05  6804   0.290E-02    0.321E-02
DAV:   3    -0.204007200773E+03    0.98259E-05   -0.96236E-06  6520   0.239E-02    0.942E-03
DAV:   4    -0.204007202341E+03   -0.15682E-05   -0.50893E-06  5492   0.125E-02
 121 F= -.20400720E+03 E0= -.20138918E+03  d E =-.740257E-05
       N       E                     dE             d eps       ncg     rms          rms(c)
DAV:   1    -0.204007202325E+03   -0.15519E-05   -0.66215E-03  8872   0.602E-02    0.217E-02
DAV:   2    -0.204007382405E+03   -0.18008E-03   -0.37013E-04 10088   0.867E-02    0.135E-01
DAV:   3    -0.204007210023E+03    0.17238E-03   -0.24065E-04  8672   0.758E-02    0.147E-02
DAV:   4    -0.204007210264E+03   -0.24157E-06   -0.98234E-06  6436   0.171E-02
 122 F= -.20400721E+03 E0= -.20138918E+03  d E =-.792282E-05
       N       E                     dE             d eps       ncg     rms          rms(c)
DAV:   1    -0.204007206965E+03    0.30575E-05   -0.10437E-02 10360   0.718E-02    0.221E-02
DAV:   2    -0.204007231492E+03   -0.24527E-04   -0.16529E-04  6904   0.348E-02    0.365E-02
DAV:   3    -0.204007219934E+03    0.11558E-04   -0.17029E-05  7164   0.303E-02    0.157E-02
DAV:   4    -0.204007222545E+03   -0.26109E-05   -0.96535E-06  6144   0.180E-02
 123 F= -.20400722E+03 E0= -.20138920E+03  d E =-.122805E-04
       N       E                     dE             d eps       ncg     rms          rms(c)
DAV:   1    -0.204007215623E+03    0.43108E-05   -0.15288E-02 10944   0.912E-02    0.315E-02
DAV:   2    -0.204007553365E+03   -0.33774E-03   -0.74601E-04 12096   0.118E-01    0.185E-01
DAV:   3    -0.204007232900E+03    0.32047E-03   -0.47521E-04 11104   0.103E-01    0.203E-02
DAV:   4    -0.204007235569E+03   -0.26689E-05   -0.18975E-05  6904   0.251E-02
 124 F= -.20400724E+03 E0= -.20138920E+03  d E =-.130245E-04
       N       E                     dE             d eps       ncg     rms          rms(c)
DAV:   1    -0.204007219183E+03    0.13717E-04   -0.19127E-02 10944   0.101E-01    0.312E-02
DAV:   2    -0.204007261834E+03   -0.42650E-04   -0.31324E-04  8152   0.455E-02    0.467E-02
DAV:   3    -0.204007244655E+03    0.17179E-04   -0.34008E-05  8372   0.404E-02    0.249E-02
DAV:   4    -0.204007252260E+03   -0.76049E-05   -0.29154E-05  7024   0.288E-02
 125 F= -.20400725E+03 E0= -.20138924E+03  d E =-.166909E-04
       N       E                     dE             d eps       ncg     rms          rms(c)
DAV:   1    -0.204007186562E+03    0.58093E-04   -0.22417E-02 10944   0.117E-01    0.401E-02
DAV:   2    -0.204007559296E+03   -0.37273E-03   -0.94961E-04 12780   0.128E-01    0.191E-01
DAV:   3    -0.204007222819E+03    0.33648E-03   -0.54688E-04 11684   0.111E-01    0.391E-02
DAV:   4    -0.204007214313E+03    0.85058E-05   -0.36984E-05  7876   0.350E-02
 126 F= -.20400721E+03 E0= -.20138918E+03  d E =0.379470E-04
       N       E                     dE             d eps       ncg     rms          rms(c)
DAV:   1    -0.204007257665E+03   -0.34846E-04   -0.32410E-03  7076   0.560E-02    0.280E-02
DAV:   2    -0.204007317752E+03   -0.60087E-04   -0.21340E-04 10956   0.670E-02    0.715E-02
DAV:   3    -0.204007265395E+03    0.52356E-04   -0.55295E-05  9676   0.518E-02    0.209E-02
DAV:   4    -0.204007262775E+03    0.26202E-05   -0.11201E-05  5864   0.170E-02
 127 F= -.20400726E+03 E0= -.20138926E+03  d E =-.484623E-04
       N       E                     dE             d eps       ncg     rms          rms(c)
DAV:   1    -0.204007267224E+03   -0.18286E-05   -0.21016E-03  6752   0.398E-02    0.211E-02
DAV:   2    -0.204007537848E+03   -0.27062E-03   -0.48013E-04 11120   0.104E-01    0.169E-01
DAV:   3    -0.204007267997E+03    0.26985E-03   -0.37994E-04  9620   0.924E-02    0.108E-02
DAV:   4    -0.204007267571E+03    0.42592E-06   -0.91602E-06  6332   0.133E-02
 128 F= -.20400727E+03 E0= -.20138927E+03  d E =-.479611E-05
       N       E                     dE             d eps       ncg     rms          rms(c)
DAV:   1    -0.204007268172E+03   -0.17457E-06   -0.41431E-03  7600   0.458E-02    0.130E-02
DAV:   2    -0.204007273846E+03   -0.56741E-05   -0.60714E-05  6448   0.124E-02    0.100E-02
DAV:   3    -0.204007274426E+03   -0.57956E-06   -0.54513E-06  5880   0.133E-02    0.119E-02
DAV:   4    -0.204007275917E+03   -0.14912E-05   -0.72120E-06  5952   0.134E-02
 129 F= -.20400728E+03 E0= -.20138928E+03  d E =-.834535E-05
       N       E                     dE             d eps       ncg     rms          rms(c)
DAV:   1    -0.204007272595E+03    0.18310E-05   -0.69929E-03  9224   0.601E-02    0.165E-02
DAV:   2    -0.204007286689E+03   -0.14094E-04   -0.10993E-04  6548   0.221E-02    0.253E-02
DAV:   3    -0.204007284827E+03    0.18614E-05   -0.22030E-05  6524   0.234E-02    0.214E-02
DAV:   4    -0.204007282979E+03    0.18487E-05   -0.11027E-05  6096   0.174E-02
 130 F= -.20400728E+03 E0= -.20138929E+03  d E =-.706193E-05
       N       E                     dE             d eps       ncg     rms          rms(c)
DAV:   1    -0.204007278698E+03    0.61298E-05   -0.10483E-02 10544   0.718E-02    0.202E-02
DAV:   2    -0.204007295273E+03   -0.16575E-04   -0.15130E-04  6640   0.214E-02    0.226E-02
DAV:   3    -0.204007295514E+03   -0.24134E-06   -0.15777E-05  7012   0.244E-02    0.233E-02
DAV:   4    -0.204007299363E+03   -0.38489E-05   -0.23413E-05  6376   0.238E-02
 131 F= -.20400730E+03 E0= -.20138929E+03  d E =-.163846E-04
       N       E                     dE             d eps       ncg     rms          rms(c)
DAV:   1    -0.204007285762E+03    0.97528E-05   -0.14187E-02 10944   0.876E-02    0.244E-02
DAV:   2    -0.204007312950E+03   -0.27188E-04   -0.21668E-04  6668   0.306E-02    0.349E-02
DAV:   3    -0.204007310242E+03    0.27082E-05   -0.38720E-05  7016   0.330E-02    0.313E-02
DAV:   4    -0.204007309207E+03    0.10343E-05   -0.28147E-05  6556   0.271E-02
 132 F= -.20400731E+03 E0= -.20138935E+03  d E =-.984400E-05
       N       E                     dE             d eps       ncg     rms          rms(c)
DAV:   1    -0.204007288974E+03    0.21267E-04   -0.19053E-02 10944   0.999E-02    0.284E-02
DAV:   2    -0.204007324459E+03   -0.35484E-04   -0.28724E-04  7080   0.364E-02    0.380E-02
DAV:   3    -0.204007315495E+03    0.89639E-05   -0.25818E-05  7660   0.350E-02    0.244E-02
DAV:   4    -0.204007328245E+03   -0.12751E-04   -0.36358E-05  6616   0.304E-02    0.434E-02
DAV:   5    -0.204007313266E+03    0.14979E-04   -0.29724E-05  6452   0.275E-02    0.135E-02
DAV:   6    -0.204007312715E+03    0.55071E-06   -0.63222E-06  5640   0.146E-02
 133 F= -.20400731E+03 E0= -.20138933E+03  d E =-.350787E-05
       N       E                     dE             d eps       ncg     rms          rms(c)
DAV:   1    -0.204007253538E+03    0.59728E-04   -0.16167E-02 10824   0.882E-02    0.320E-02
DAV:   2    -0.204007281901E+03   -0.28363E-04   -0.33861E-04  6680   0.304E-02    0.321E-02
DAV:   3    -0.204007278707E+03    0.31942E-05   -0.31718E-05  7088   0.309E-02    0.290E-02
DAV:   4    -0.204007283332E+03   -0.46249E-05   -0.35846E-05  6924   0.292E-02
 134 F= -.20400728E+03 E0= -.20138930E+03  d E =0.293833E-04
       N       E                     dE             d eps       ncg     rms          rms(c)
DAV:   1    -0.204007329060E+03   -0.50353E-04   -0.29479E-03  6804   0.598E-02    0.245E-02
DAV:   2    -0.204007566669E+03   -0.23761E-03   -0.47878E-04 11040   0.102E-01    0.157E-01
DAV:   3    -0.204007340878E+03    0.22579E-03   -0.35164E-04  9556   0.896E-02    0.299E-02
DAV:   4    -0.204007332186E+03    0.86921E-05   -0.20282E-05  6548   0.220E-02
 135 F= -.20400733E+03 E0= -.20138935E+03  d E =-.488539E-04
       N       E                     dE             d eps       ncg     rms          rms(c)
DAV:   1    -0.204007333528E+03    0.73504E-05   -0.30402E-03  7128   0.402E-02    0.149E-02
DAV:   2    -0.204007346352E+03   -0.12825E-04   -0.56778E-05  6828   0.286E-02    0.326E-02
DAV:   3    -0.204007336056E+03    0.10297E-04   -0.97002E-06  6512   0.240E-02    0.894E-03
DAV:   4    -0.204007337438E+03   -0.13818E-05   -0.53436E-06  5612   0.119E-02
 136 F= -.20400734E+03 E0= -.20138935E+03  d E =-.525171E-05
       N       E                     dE             d eps       ncg     rms          rms(c)
DAV:   1    -0.204007337422E+03   -0.13667E-05   -0.47434E-03  7624   0.521E-02    0.195E-02
DAV:   2    -0.204007471031E+03   -0.13361E-03   -0.28185E-04  9184   0.753E-02    0.117E-01
DAV:   3    -0.204007343443E+03    0.12759E-03   -0.18127E-04  7896   0.660E-02    0.138E-02
DAV:   4    -0.204007343139E+03    0.30404E-06   -0.79489E-06  6176   0.144E-02
 137 F= -.20400734E+03 E0= -.20138935E+03  d E =-.570122E-05
       N       E                     dE             d eps       ncg     rms          rms(c)
DAV:   1    -0.204007340248E+03    0.31950E-05   -0.76481E-03  8432   0.613E-02    0.191E-02
DAV:   2    -0.204007360142E+03   -0.19894E-04   -0.12720E-04  6832   0.314E-02    0.336E-02
DAV:   3    -0.204007350162E+03    0.99801E-05   -0.11958E-05  7056   0.266E-02    0.131E-02
DAV:   4    -0.204007350830E+03   -0.66764E-06   -0.60953E-06  5704   0.140E-02
 138 F= -.20400735E+03 E0= -.20138937E+03  d E =-.769099E-05
       N       E                     dE             d eps       ncg     rms          rms(c)
DAV:   1    -0.204007343549E+03    0.66131E-05   -0.82313E-03  9288   0.674E-02    0.276E-02
DAV:   2    -0.204007625485E+03   -0.28194E-03   -0.57780E-04 11488   0.108E-01    0.170E-01
DAV:   3    -0.204007353191E+03    0.27229E-03   -0.37222E-04 10128   0.940E-02    0.172E-02
DAV:   4    -0.204007353485E+03   -0.29414E-06   -0.11893E-05  6904   0.171E-02
 139 F= -.20400735E+03 E0= -.20138936E+03  d E =-.265491E-05
       N       E                     dE             d eps       ncg     rms          rms(c)
DAV:   1    -0.204007341761E+03    0.11430E-04   -0.80477E-03  8448   0.685E-02    0.236E-02
DAV:   2    -0.204007381241E+03   -0.39481E-04   -0.19113E-04  8588   0.462E-02    0.531E-02
DAV:   3    -0.204007353216E+03    0.28025E-04   -0.24367E-05  7964   0.373E-02    0.151E-02
DAV:   4    -0.204007354471E+03   -0.12553E-05   -0.11369E-05  6336   0.157E-02
 140 F= -.20400735E+03 E0= -.20138938E+03  d E =-.986594E-06
       N       E                     dE             d eps       ncg     rms          rms(c)
DAV:   1    -0.204007368811E+03   -0.15595E-04   -0.25919E-03  6728   0.475E-02    0.230E-02
DAV:   2    -0.204007629718E+03   -0.26091E-03   -0.47681E-04 10996   0.103E-01    0.165E-01
DAV:   3    -0.204007372741E+03    0.25698E-03   -0.34559E-04  9732   0.906E-02    0.144E-02
DAV:   4    -0.204007371608E+03    0.11323E-05   -0.82599E-06  6400   0.130E-02
 141 F= -.20400737E+03 E0= -.20138939E+03  d E =-.171370E-04
       N       E                     dE             d eps       ncg     rms          rms(c)
DAV:   1    -0.204007374532E+03   -0.17918E-05   -0.32738E-03  7048   0.435E-02    0.158E-02
DAV:   2    -0.204007399742E+03   -0.25210E-04   -0.74930E-05  7676   0.385E-02    0.459E-02
DAV:   3    -0.204007378101E+03    0.21641E-04   -0.15234E-05  7008   0.311E-02    0.751E-03
DAV:   4    -0.204007378949E+03   -0.84836E-06   -0.43733E-06  5612   0.981E-03
 142 F= -.20400738E+03 E0= -.20138941E+03  d E =-.734109E-05
       N       E                     dE             d eps       ncg     rms          rms(c)
DAV:   1    -0.204007379766E+03   -0.16653E-05   -0.53259E-03  7728   0.529E-02    0.192E-02
DAV:   2    -0.204007506558E+03   -0.12679E-03   -0.27680E-04  8740   0.726E-02    0.113E-01
DAV:   3    -0.204007385674E+03    0.12088E-03   -0.17468E-04  7604   0.637E-02    0.110E-02
DAV:   4    -0.204007385842E+03   -0.16830E-06   -0.66310E-06  6008   0.124E-02
 143 F= -.20400739E+03 E0= -.20138941E+03  d E =-.689255E-05
       N       E                     dE             d eps       ncg     rms          rms(c)
DAV:   1    -0.204007383398E+03    0.22760E-05   -0.87941E-03  8952   0.647E-02    0.194E-02
DAV:   2    -0.204007405828E+03   -0.22430E-04   -0.13506E-04  6852   0.314E-02    0.357E-02
DAV:   3    -0.204007394139E+03    0.11688E-04   -0.11885E-05  7032   0.273E-02    0.118E-02
DAV:   4    -0.204007394039E+03    0.10012E-06   -0.23756E-06  6132   0.753E-03
 144 F= -.20400739E+03 E0= -.20138942E+03  d E =-.819734E-05
       N       E                     dE             d eps       ncg     rms          rms(c)
DAV:   1    -0.204007387779E+03    0.63607E-05   -0.11352E-02 10168   0.738E-02    0.261E-02
DAV:   2    -0.204007580497E+03   -0.19272E-03   -0.45641E-04  9728   0.887E-02    0.138E-01
DAV:   3    -0.204007400659E+03    0.17984E-03   -0.25115E-04  8964   0.774E-02    0.145E-02
DAV:   4    -0.204007400454E+03    0.20523E-06   -0.71935E-06  6868   0.819E-03
 145 F= -.20400740E+03 E0= -.20138942E+03  d E =-.641494E-05
       N       E                     dE             d eps       ncg     rms          rms(c)
DAV:   1    -0.204007373307E+03    0.27353E-04   -0.13670E-02 10744   0.843E-02    0.296E-02
DAV:   2    -0.204007449786E+03   -0.76480E-04   -0.30512E-04 11168   0.648E-02    0.769E-02
DAV:   3    -0.204007388799E+03    0.60988E-04   -0.51330E-05  9980   0.519E-02    0.160E-02
DAV:   4    -0.204007389226E+03   -0.42690E-06   -0.13153E-05  6704   0.156E-02
 146 F= -.20400739E+03 E0= -.20138942E+03  d E =0.112285E-04
       N       E                     dE             d eps       ncg     rms          rms(c)
DAV:   1    -0.204007409768E+03   -0.20969E-04   -0.33508E-03  6912   0.516E-02    0.232E-02
DAV:   2    -0.204007523164E+03   -0.11340E-03   -0.27881E-04  8728   0.715E-02    0.107E-01
DAV:   3    -0.204007419144E+03    0.10402E-03   -0.16026E-04  7888   0.626E-02    0.244E-02
DAV:   4    -0.204007415133E+03    0.40110E-05   -0.13513E-05  6244   0.184E-02
 147 F= -.20400742E+03 E0= -.20138946E+03  d E =-.259070E-04
       N       E                     dE             d eps       ncg     rms          rms(c)
DAV:   1    -0.204007420409E+03   -0.12651E-05   -0.19831E-03  6720   0.354E-02    0.122E-02
DAV:   2    -0.204007435476E+03   -0.15067E-04   -0.48397E-05  6964   0.288E-02    0.346E-02
DAV:   3    -0.204007423155E+03    0.12321E-04   -0.87341E-06  6440   0.238E-02    0.604E-03
DAV:   4    -0.204007425435E+03   -0.22798E-05   -0.51646E-06  5716   0.105E-02
 148 F= -.20400743E+03 E0= -.20138946E+03  d E =-.103018E-04
       N       E                     dE             d eps       ncg     rms          rms(c)
DAV:   1    -0.204007424933E+03   -0.17778E-05   -0.36532E-03  7112   0.444E-02    0.122E-02
DAV:   2    -0.204007434693E+03   -0.97609E-05   -0.61127E-05  6444   0.196E-02    0.249E-02
DAV:   3    -0.204007430655E+03    0.40382E-05   -0.14395E-05  6272   0.189E-02    0.130E-02
DAV:   4    -0.204007430272E+03    0.38302E-06   -0.53153E-06  5632   0.120E-02
 149 F= -.20400743E+03 E0= -.20138947E+03  d E =-.483764E-05
       N       E                     dE             d eps       ncg     rms          rms(c)
DAV:   1    -0.204007429601E+03    0.10544E-05   -0.68538E-03  8112   0.561E-02    0.160E-02
DAV:   2    -0.204007439148E+03   -0.95474E-05   -0.97370E-05  6508   0.138E-02    0.145E-02
DAV:   3    -0.204007443440E+03   -0.42918E-05   -0.14502E-05  6356   0.202E-02    0.257E-02
[...]
       N       E                     dE             d eps       ncg     rms          rms(c)
DAV:   1    -0.204008161503E+03   -0.99894E-06   -0.12631E-04  6288   0.108E-02    0.357E-03
DAV:   2    -0.204008163187E+03   -0.16838E-05   -0.50155E-06  6052   0.975E-03    0.123E-02
DAV:   3    -0.204008161966E+03    0.12204E-05   -0.24288E-06  5472   0.847E-03    0.557E-03
DAV:   4    -0.204008161708E+03    0.25826E-06   -0.49477E-07  5472   0.357E-03
 358 F= -.20400816E+03 E0= -.20139028E+03  d E =-.136403E-05
       N       E                     dE             d eps       ncg     rms          rms(c)
DAV:   1    -0.204008162810E+03   -0.84419E-06   -0.24726E-04  6392   0.112E-02    0.368E-03
DAV:   2    -0.204008163394E+03   -0.58320E-06   -0.41768E-06  6016   0.591E-03    0.580E-03
DAV:   3    -0.204008163160E+03    0.23361E-06   -0.60594E-07  5472   0.510E-03    0.328E-03
DAV:   4    -0.204008163271E+03   -0.11149E-06   -0.58352E-07  5472   0.377E-03
 359 F= -.20400816E+03 E0= -.20139028E+03  d E =-.156353E-05
       N       E                     dE             d eps       ncg     rms          rms(c)
DAV:   1    -0.204008164503E+03   -0.13435E-05   -0.45863E-04  6512   0.160E-02    0.500E-03
DAV:   2    -0.204008166998E+03   -0.24946E-05   -0.95962E-06  6112   0.114E-02    0.144E-02
DAV:   3    -0.204008165398E+03    0.15997E-05   -0.38735E-06  5484   0.103E-02    0.667E-03
DAV:   4    -0.204008165108E+03    0.29068E-06   -0.94954E-07  5472   0.523E-03
 360 F= -.20400817E+03 E0= -.20139028E+03  d E =-.183627E-05
       N       E                     dE             d eps       ncg     rms          rms(c)
DAV:   1    -0.204008166627E+03   -0.12290E-05   -0.74292E-04  6680   0.195E-02    0.617E-03
DAV:   2    -0.204008168231E+03   -0.16039E-05   -0.12137E-05  6164   0.976E-03    0.910E-03
DAV:   3    -0.204008167601E+03    0.63000E-06   -0.13280E-06  5472   0.825E-03    0.478E-03
DAV:   4    -0.204008167625E+03   -0.24073E-07   -0.61664E-07  5472   0.495E-03
 361 F= -.20400817E+03 E0= -.20139028E+03  d E =-.251757E-05
       N       E                     dE             d eps       ncg     rms          rms(c)
DAV:   1    -0.204008169391E+03   -0.17895E-05   -0.11204E-03  6712   0.249E-02    0.868E-03
DAV:   2    -0.204008197728E+03   -0.28337E-04   -0.59669E-05  6936   0.342E-02    0.539E-02
DAV:   3    -0.204008170560E+03    0.27168E-04   -0.38248E-05  6580   0.302E-02    0.442E-03
DAV:   4    -0.204008170869E+03   -0.30890E-06   -0.12526E-06  5620   0.598E-03
 362 F= -.20400817E+03 E0= -.20139028E+03  d E =-.324352E-05
       N       E                     dE             d eps       ncg     rms          rms(c)
DAV:   1    -0.204008172197E+03   -0.16370E-05   -0.15282E-03  6760   0.297E-02    0.837E-03
DAV:   2    -0.204008175325E+03   -0.31277E-05   -0.23971E-05  6288   0.116E-02    0.121E-02
DAV:   3    -0.204008174418E+03    0.90617E-06   -0.22493E-06  5484   0.107E-02    0.711E-03
DAV:   4    -0.204008175398E+03   -0.97954E-06   -0.30937E-06  5508   0.875E-03
 363 F= -.20400818E+03 E0= -.20139030E+03  d E =-.452916E-05
       N       E                     dE             d eps       ncg     rms          rms(c)
DAV:   1    -0.204008175311E+03   -0.89289E-06   -0.19899E-03  8728   0.370E-02    0.965E-03
DAV:   2    -0.204008183567E+03   -0.82560E-05   -0.39173E-05  6492   0.196E-02    0.252E-02
DAV:   3    -0.204008178591E+03    0.49762E-05   -0.12800E-05  6192   0.179E-02    0.103E-02
DAV:   4    -0.204008178366E+03    0.22549E-06   -0.29387E-06  5516   0.967E-03
 364 F= -.20400818E+03 E0= -.20139029E+03  d E =-.296766E-05
       N       E                     dE             d eps       ncg     rms          rms(c)
DAV:   1    -0.204008174554E+03    0.40368E-05   -0.15354E-03 10128   0.343E-02    0.118E-02
DAV:   2    -0.204008180752E+03   -0.61972E-05   -0.38318E-05  6480   0.197E-02    0.212E-02
DAV:   3    -0.204008176861E+03    0.38909E-05   -0.47824E-06  5864   0.164E-02    0.928E-03
DAV:   4    -0.204008176598E+03    0.26209E-06   -0.21757E-06  5496   0.811E-03
 365 F= -.20400818E+03 E0= -.20139029E+03  d E =0.176716E-05
       N       E                     dE             d eps       ncg     rms          rms(c)
DAV:   1    -0.204008182995E+03   -0.61345E-05   -0.12501E-04  6364   0.167E-02    0.145E-02
DAV:   2    -0.204008357728E+03   -0.17473E-03   -0.28905E-04  9160   0.820E-02    0.136E-01
DAV:   3    -0.204008181713E+03    0.17602E-03   -0.23951E-04  8200   0.737E-02    0.511E-03
DAV:   4    -0.204008181669E+03    0.43594E-07   -0.34080E-06  6128   0.650E-03
 366 F= -.20400818E+03 E0= -.20139029E+03  d E =-.507042E-05
       N       E                     dE             d eps       ncg     rms          rms(c)
DAV:   1    -0.204008182891E+03   -0.11789E-05   -0.26037E-04  6424   0.135E-02    0.528E-03
DAV:   2    -0.204008183594E+03   -0.70248E-06   -0.63428E-06  6164   0.758E-03    0.758E-03
DAV:   3    -0.204008183267E+03    0.32729E-06   -0.10776E-06  5472   0.681E-03    0.550E-03
DAV:   4    -0.204008183294E+03   -0.27379E-07   -0.11045E-06  5472   0.521E-03
 367 F= -.20400818E+03 E0= -.20139030E+03  d E =-.162504E-05
       N       E                     dE             d eps       ncg     rms          rms(c)
DAV:   1    -0.204008184416E+03   -0.11490E-05   -0.16959E-04  6352   0.119E-02    0.458E-03
DAV:   2    -0.204008188355E+03   -0.39396E-05   -0.90943E-06  6188   0.144E-02    0.196E-02
DAV:   3    -0.204008185132E+03    0.32232E-05   -0.61044E-06  5676   0.128E-02    0.729E-03
DAV:   4    -0.204008184656E+03    0.47601E-06   -0.84618E-07  5472   0.507E-03
 368 F= -.20400818E+03 E0= -.20139030E+03  d E =-.136209E-05
       N       E                     dE             d eps       ncg     rms          rms(c)
DAV:   1    -0.204008185988E+03   -0.85635E-06   -0.33284E-04  6416   0.130E-02    0.406E-03
DAV:   2    -0.204008186506E+03   -0.51729E-06   -0.51200E-06  6072   0.482E-03    0.403E-03
DAV:   3    -0.204008186488E+03    0.17200E-07   -0.43476E-07  5472   0.453E-03    0.366E-03
DAV:   4    -0.204008186516E+03   -0.27652E-07   -0.36832E-07  5472   0.372E-03
 369 F= -.20400819E+03 E0= -.20139030E+03  d E =-.186010E-05
       N       E                     dE             d eps       ncg     rms          rms(c)
DAV:   1    -0.204008188157E+03   -0.16683E-05   -0.57295E-04  6576   0.175E-02    0.612E-03
DAV:   2    -0.204008199392E+03   -0.11235E-04   -0.24937E-05  6656   0.218E-02    0.337E-02
DAV:   3    -0.204008188924E+03    0.10468E-04   -0.15354E-05  6236   0.193E-02    0.496E-03
DAV:   4    -0.204008188893E+03    0.30675E-07   -0.65634E-07  5508   0.505E-03
 370 F= -.20400819E+03 E0= -.20139030E+03  d E =-.237714E-05
       N       E                     dE             d eps       ncg     rms          rms(c)
DAV:   1    -0.204008190498E+03   -0.15742E-05   -0.91884E-04  6704   0.217E-02    0.620E-03
DAV:   2    -0.204008191836E+03   -0.13375E-05   -0.13642E-05  6188   0.688E-03    0.577E-03
DAV:   3    -0.204008192171E+03   -0.33537E-06   -0.16960E-06  5472   0.752E-03    0.826E-03
DAV:   4    -0.204008191979E+03    0.19154E-06   -0.19715E-06  5472   0.688E-03
 371 F= -.20400819E+03 E0= -.20139031E+03  d E =-.308617E-05
       N       E                     dE             d eps       ncg     rms          rms(c)
DAV:   1    -0.204008193168E+03   -0.99741E-06   -0.11461E-03  6720   0.259E-02    0.836E-03
DAV:   2    -0.204008199111E+03   -0.59425E-05   -0.23833E-05  6400   0.177E-02    0.218E-02
DAV:   3    -0.204008195460E+03    0.36512E-05   -0.80793E-06  5924   0.160E-02    0.109E-02
DAV:   4    -0.204008194780E+03    0.67985E-06   -0.27377E-06  5500   0.836E-03
 372 F= -.20400819E+03 E0= -.20139030E+03  d E =-.280036E-05
       N       E                     dE             d eps       ncg     rms          rms(c)
DAV:   1    -0.204008193119E+03    0.23408E-05   -0.12478E-03  6720   0.279E-02    0.841E-03
DAV:   2    -0.204008195550E+03   -0.24307E-05   -0.25354E-05  6304   0.111E-02    0.932E-03
DAV:   3    -0.204008195125E+03    0.42477E-06   -0.21574E-06  5496   0.951E-03    0.716E-03
DAV:   4    -0.204008195135E+03   -0.98516E-08   -0.14951E-06  5480   0.708E-03
 373 F= -.20400820E+03 E0= -.20139031E+03  d E =-.354812E-06
       N       E                     dE             d eps       ncg     rms          rms(c)
DAV:   1    -0.204008198959E+03   -0.38342E-05   -0.16655E-04  6328   0.149E-02    0.994E-03
DAV:   2    -0.204008260477E+03   -0.61518E-04   -0.10241E-04  7360   0.497E-02    0.807E-02
DAV:   3    -0.204008199378E+03    0.61099E-04   -0.84466E-05  6888   0.447E-02    0.856E-03
DAV:   4    -0.204008198712E+03    0.66606E-06   -0.14920E-06  5860   0.637E-03
 374 F= -.20400820E+03 E0= -.20139031E+03  d E =-.357704E-05
       N       E                     dE             d eps       ncg     rms          rms(c)
DAV:   1    -0.204008199713E+03   -0.33511E-06   -0.17542E-04  6360   0.103E-02    0.374E-03
DAV:   2    -0.204008200016E+03   -0.30314E-06   -0.30833E-06  5912   0.516E-03    0.405E-03
DAV:   3    -0.204008199910E+03    0.10584E-06   -0.48921E-07  5472   0.437E-03    0.262E-03
DAV:   4    -0.204008200096E+03   -0.18620E-06   -0.50875E-07  5472   0.364E-03
 375 F= -.20400820E+03 E0= -.20139031E+03  d E =-.138466E-05
       N       E                     dE             d eps       ncg     rms          rms(c)
DAV:   1    -0.204008201285E+03   -0.13751E-05   -0.35455E-04  6416   0.148E-02    0.456E-03
DAV:   2    -0.204008205033E+03   -0.37481E-05   -0.10164E-05  6328   0.135E-02    0.187E-02
DAV:   3    -0.204008202000E+03    0.30333E-05   -0.55191E-06  5732   0.120E-02    0.600E-03
DAV:   4    -0.204008201718E+03    0.28204E-06   -0.66784E-07  5472   0.456E-03
 376 F= -.20400820E+03 E0= -.20139031E+03  d E =-.162172E-05
       N       E                     dE             d eps       ncg     rms          rms(c)
DAV:   1    -0.204008203329E+03   -0.13290E-05   -0.56522E-04  6568   0.170E-02    0.518E-03
DAV:   2    -0.204008204482E+03   -0.11524E-05   -0.93529E-06  6104   0.765E-03    0.762E-03
DAV:   3    -0.204008204198E+03    0.28313E-06   -0.15675E-06  5472   0.710E-03    0.551E-03
DAV:   4    -0.204008204287E+03   -0.88181E-07   -0.12564E-06  5472   0.541E-03
 377 F= -.20400820E+03 E0= -.20139032E+03  d E =-.256857E-05
       N       E                     dE             d eps       ncg     rms          rms(c)
DAV:   1    -0.204008205671E+03   -0.14721E-05   -0.89137E-04  6704   0.229E-02    0.648E-03
DAV:   2    -0.204008208402E+03   -0.27315E-05   -0.15349E-05  6188   0.116E-02    0.133E-02
DAV:   3    -0.204008207273E+03    0.11290E-05   -0.35934E-06  5472   0.107E-02    0.811E-03
DAV:   4    -0.204008207050E+03    0.22282E-06   -0.19608E-06  5472   0.699E-03
 378 F= -.20400821E+03 E0= -.20139032E+03  d E =-.276359E-05
       N       E                     dE             d eps       ncg     rms          rms(c)
DAV:   1    -0.204008207935E+03   -0.66194E-06   -0.10383E-03  6720   0.257E-02    0.783E-03
DAV:   2    -0.204008210196E+03   -0.22613E-05   -0.19460E-05  6264   0.115E-02    0.105E-02
DAV:   3    -0.204008209506E+03    0.69015E-06   -0.21250E-06  5472   0.979E-03    0.653E-03
DAV:   4    -0.204008209457E+03    0.49520E-07   -0.10395E-06  5472   0.619E-03
 379 F= -.20400821E+03 E0= -.20139032E+03  d E =-.240640E-05
       N       E                     dE             d eps       ncg     rms          rms(c)
DAV:   1    -0.204008208757E+03    0.74893E-06   -0.94057E-04  6696   0.263E-02    0.109E-02
DAV:   2    -0.204008264671E+03   -0.55914E-04   -0.10794E-04  7264   0.480E-02    0.765E-02
DAV:   3    -0.204008209794E+03    0.54877E-04   -0.76118E-05  6936   0.424E-02    0.627E-03
DAV:   4    -0.204008209914E+03   -0.11931E-06   -0.19037E-06  5772   0.702E-03
 380 F= -.20400821E+03 E0= -.20139032E+03  d E =-.457054E-06
       N       E                     dE             d eps       ncg     rms          rms(c)
DAV:   1    -0.204008212625E+03   -0.28311E-05   -0.92692E-05  6248   0.112E-02    0.395E-03
DAV:   2    -0.204008213993E+03   -0.13671E-05   -0.48295E-06  6084   0.930E-03    0.106E-02
DAV:   3    -0.204008212967E+03    0.10254E-05   -0.10344E-06  5472   0.743E-03    0.361E-03
DAV:   4    -0.204008212942E+03    0.25586E-07   -0.44094E-07  5472   0.304E-03
 381 F= -.20400821E+03 E0= -.20139033E+03  d E =-.302792E-05
       N       E                     dE             d eps       ncg     rms          rms(c)
DAV:   1    -0.204008214057E+03   -0.10899E-05   -0.17374E-04  6352   0.102E-02    0.430E-03
DAV:   2    -0.204008215059E+03   -0.10024E-05   -0.44142E-06  6044   0.748E-03    0.984E-03
DAV:   3    -0.204008214396E+03    0.66299E-06   -0.19682E-06  5472   0.714E-03    0.506E-03
DAV:   4    -0.204008214265E+03    0.13181E-06   -0.56845E-07  5472   0.407E-03
 382 F= -.20400821E+03 E0= -.20139033E+03  d E =-.132310E-05
       N       E                     dE             d eps       ncg     rms          rms(c)
DAV:   1    -0.204008215556E+03   -0.11599E-05   -0.31655E-04  6416   0.135E-02    0.448E-03
DAV:   2    -0.204008217201E+03   -0.16446E-05   -0.64850E-06  6096   0.102E-02    0.113E-02
DAV:   3    -0.204008215938E+03    0.12628E-05   -0.10479E-06  5472   0.817E-03    0.269E-03
DAV:   4    -0.204008215970E+03   -0.32109E-07   -0.38957E-07  5472   0.327E-03
 383 F= -.20400822E+03 E0= -.20139033E+03  d E =-.170566E-05
       N       E                     dE             d eps       ncg     rms          rms(c)
DAV:   1    -0.204008217535E+03   -0.15967E-05   -0.47231E-04  6512   0.160E-02    0.608E-03
DAV:   2    -0.204008230565E+03   -0.13030E-04   -0.27084E-05  6700   0.235E-02    0.367E-02
DAV:   3    -0.204008218060E+03    0.12505E-04   -0.17606E-05  6336   0.207E-02    0.382E-03
DAV:   4    -0.204008218098E+03   -0.38188E-07   -0.60372E-07  5548   0.431E-03
 384 F= -.20400822E+03 E0= -.20139033E+03  d E =-.212806E-05
       N       E                     dE             d eps       ncg     rms          rms(c)
DAV:   1    -0.204008219631E+03   -0.15707E-05   -0.78423E-04  6688   0.203E-02    0.615E-03
DAV:   2    -0.204008221855E+03   -0.22244E-05   -0.12911E-05  6172   0.107E-02    0.117E-02
DAV:   3    -0.204008220617E+03    0.12385E-05   -0.13187E-06  5472   0.905E-03    0.400E-03
DAV:   4    -0.204008220795E+03   -0.17811E-06   -0.79414E-07  5472   0.475E-03
 385 F= -.20400822E+03 E0= -.20139034E+03  d E =-.269652E-05
       N       E                     dE             d eps       ncg     rms          rms(c)
DAV:   1    -0.204008222104E+03   -0.14871E-05   -0.96903E-04  6704   0.235E-02    0.828E-03
DAV:   2    -0.204008238688E+03   -0.16584E-04   -0.40975E-05  6804   0.267E-02    0.408E-02
DAV:   3    -0.204008223417E+03    0.15271E-04   -0.23160E-05  6400   0.236E-02    0.606E-03
DAV:   4    -0.204008223374E+03    0.43281E-07   -0.11279E-06  5544   0.608E-03
 386 F= -.20400822E+03 E0= -.20139033E+03  d E =-.257884E-05
       N       E                     dE             d eps       ncg     rms          rms(c)
DAV:   1    -0.204008223952E+03   -0.53483E-06   -0.11264E-03  6712   0.260E-02    0.849E-03
DAV:   2    -0.204008228974E+03   -0.50220E-05   -0.24337E-05  6416   0.168E-02    0.191E-02
DAV:   3    -0.204008225502E+03    0.34719E-05   -0.30130E-06  5744   0.137E-02    0.542E-03
DAV:   4    -0.204008226013E+03   -0.51096E-06   -0.19661E-06  5472   0.679E-03
 387 F= -.20400823E+03 E0= -.20139034E+03  d E =-.263918E-05
       N       E                     dE             d eps       ncg     rms          rms(c)
DAV:   1    -0.204008228241E+03   -0.27388E-05   -0.32161E-04  6408   0.176E-02    0.748E-03
DAV:   2    -0.204008243983E+03   -0.15742E-04   -0.33893E-05  6792   0.264E-02    0.404E-02
DAV:   3    -0.204008229025E+03    0.14958E-04   -0.22217E-05  6340   0.233E-02    0.639E-03
DAV:   4    -0.204008228766E+03    0.25905E-06   -0.87583E-07  5532   0.530E-03
 388 F= -.20400823E+03 E0= -.20139034E+03  d E =-.275305E-05
       N       E                     dE             d eps       ncg     rms          rms(c)
DAV:   1    -0.204008230222E+03   -0.11966E-05   -0.18079E-04  6352   0.119E-02    0.503E-03
DAV:   2    -0.204008233355E+03   -0.31339E-05   -0.66913E-06  6196   0.140E-02    0.170E-02
DAV:   3    -0.204008230409E+03    0.29467E-05   -0.18475E-06  5568   0.113E-02    0.236E-03
DAV:   4    -0.204008230414E+03   -0.47003E-08   -0.37316E-07  5472   0.280E-03
 389 F= -.20400823E+03 E0= -.20139035E+03  d E =-.164752E-05
       N       E                     dE             d eps       ncg     rms          rms(c)
DAV:   1    -0.204008231883E+03   -0.14738E-05   -0.26464E-04  6408   0.126E-02    0.511E-03
DAV:   2    -0.204008243661E+03   -0.11779E-04   -0.22275E-05  6632   0.221E-02    0.351E-02
DAV:   3    -0.204008232106E+03    0.11555E-04   -0.15738E-05  6332   0.195E-02    0.252E-03
DAV:   4    -0.204008232147E+03   -0.40705E-07   -0.39686E-07  5512   0.308E-03
 390 F= -.20400823E+03 E0= -.20139035E+03  d E =-.173346E-05
       N       E                     dE             d eps       ncg     rms          rms(c)
DAV:   1    -0.204008233815E+03   -0.17092E-05   -0.47052E-04  6528   0.157E-02    0.465E-03
DAV:   2    -0.204008235187E+03   -0.13717E-05   -0.75349E-06  6096   0.816E-03    0.932E-03
DAV:   3    -0.204008234424E+03    0.76302E-06   -0.90604E-07  5472   0.710E-03    0.334E-03
DAV:   4    -0.204008234857E+03   -0.43257E-06   -0.11169E-06  5472   0.505E-03
 391 F= -.20400823E+03 E0= -.20139035E+03  d E =-.270970E-05
       N       E                     dE             d eps       ncg     rms          rms(c)
DAV:   1    -0.204008236228E+03   -0.18043E-05   -0.69879E-04  6680   0.206E-02    0.531E-03
DAV:   2    -0.204008237324E+03   -0.10959E-05   -0.10768E-05  6152   0.550E-03    0.549E-03
DAV:   3    -0.204008237762E+03   -0.43781E-06   -0.20563E-06  5472   0.709E-03    0.859E-03
DAV:   4    -0.204008237223E+03    0.53934E-06   -0.13179E-06  5472   0.573E-03
 392 F= -.20400824E+03 E0= -.20139035E+03  d E =-.236604E-05
       N       E                     dE             d eps       ncg     rms          rms(c)
DAV:   1    -0.204008238912E+03   -0.11498E-05   -0.10035E-03  6720   0.244E-02    0.666E-03
DAV:   2    -0.204008241709E+03   -0.27971E-05   -0.16531E-05  6196   0.115E-02    0.129E-02
DAV:   3    -0.204008240350E+03    0.13593E-05   -0.21891E-06  5472   0.101E-02    0.557E-03
DAV:   4    -0.204008240974E+03   -0.62420E-06   -0.22758E-06  5472   0.719E-03
 393 F= -.20400824E+03 E0= -.20139036E+03  d E =-.375109E-05
       N       E                     dE             d eps       ncg     rms          rms(c)
DAV:   1    -0.204008240839E+03   -0.48951E-06   -0.10424E-03  6744   0.273E-02    0.761E-03
DAV:   2    -0.204008243213E+03   -0.23743E-05   -0.20562E-05  6280   0.985E-03    0.109E-02
DAV:   3    -0.204008243142E+03    0.71625E-07   -0.42056E-06  5472   0.103E-02    0.102E-02
DAV:   4    -0.204008242642E+03    0.49959E-06   -0.25640E-06  5472   0.788E-03
 394 F= -.20400824E+03 E0= -.20139036E+03  d E =-.166838E-05
       N       E                     dE             d eps       ncg     rms          rms(c)
DAV:   1    -0.204008242428E+03    0.71375E-06   -0.63376E-04  6616   0.220E-02    0.715E-03
DAV:   2    -0.204008245252E+03   -0.28237E-05   -0.17561E-05  6280   0.122E-02    0.138E-02
DAV:   3    -0.204008243662E+03    0.15898E-05   -0.23195E-06  5496   0.104E-02    0.607E-03
DAV:   4    -0.204008244027E+03   -0.36540E-06   -0.19461E-06  5488   0.662E-03
 395 F= -.20400824E+03 E0= -.20139036E+03  d E =-.138510E-05
       N       E                     dE             d eps       ncg     rms          rms(c)
DAV:   1    -0.204008245402E+03   -0.17406E-05   -0.42857E-05  6176   0.945E-03    0.320E-03
DAV:   2    -0.204008248295E+03   -0.28921E-05   -0.59515E-06  5936   0.116E-02    0.170E-02
DAV:   3    -0.204008245734E+03    0.25607E-05   -0.43179E-06  5636   0.104E-02    0.477E-03
DAV:   4    -0.204008245528E+03    0.20576E-06   -0.35996E-07  5472   0.320E-03
 396 F= -.20400825E+03 E0= -.20139036E+03  d E =-.150086E-05
