 vasp.6.5.1 10Mar25 (build Apr 25 2025 15:31:43) complex                        
  
 executed on             LinuxIFC date 2025.12.08  14:54:14
 running  384 mpi-ranks, on   16 nodes
 each image running on   48 cores
 distrk:  each k-point on   24 cores,    2 groups
 distr:  one band on NCORE=   6 cores,    4 groups


--------------------------------------------------------------------------------------------------------


 INCAR:
   SYSTEM = PBE-grap
   NWRITE = 0    write-flag
   ISTART = 0    job   : 0-new, 1-cont, 2-samecut
   ICHARG = 2    charge: 0-wave, 1-file, 2-atom, >10-const
   INIWAV = 1    electr: 0-lowe 1-rand  2-diag
   GGA = PE
   PREC = Normal   low | medium | high
   ENCUT = 370
   NELMDL = -5    number of delayed ELM steps
   NELMIN = 4
   NELM = 150    number of ELM steps
   EDIFF = 1E-05    energy stopping-criterion for ELM
   LREAL = AUTO   real-space projection (.FALSE., .TRUE., On, Auto)
   IALGO = 38    algorithm (8\=CG for small, 48\=RMM for big systems)
   LCHARG = .FALSE.
   LVTOT = .FALSE.
   LWAVE = .FALSE.
   NSW = 1000   max number of geometry steps
   EDIFFG = -0.026   force (eV/A) stopping-criterion for geometry steps
   ISIF = 2     (1:force\=y stress\=trace only ions\=y shape\=n volume\=n)
   ISYM = 0     (1-use symmetry, 0-no symmetry)
   ISMEAR = 0    (-1-Fermi, 1-Methfessel/Paxton)
   SIGMA = 0.41   broadening in eV
   IOPT = 3
   TIMESTEP = 0.05
   ICHAIN = 0     turn on NEB
   LCLIMB = .TRUE.
   POTIM = 0
   IBRION = 3
   IMAGES = 8      image number
   SPRING = -5     spring constant between images
   LPLANE = .TRUE.
   NPAR = 4
   KPAR = 2

 POTCAR:    PAW_PBE Pd 04Jan2005                  
 POTCAR:    PAW_PBE C 08Apr2002                   
 POTCAR:    PAW_PBE O 08Apr2002                   
 POTCAR:    PAW_PBE Pd 04Jan2005                  
  local pseudopotential read in
  partial core-charges read in
  partial kinetic energy density read in
  atomic valenz-charges read in
  non local Contribution for L=           2  read in
    real space projection operators read in
  non local Contribution for L=           2  read in
    real space projection operators read in
  non local Contribution for L=           0  read in
    real space projection operators read in
  non local Contribution for L=           0  read in
    real space projection operators read in
  non local Contribution for L=           1  read in
    real space projection operators read in
  non local Contribution for L=           1  read in
    real space projection operators read in
    PAW grid and wavefunctions read in
 
   number of l-projection  operators is LMAX  =           6
   number of lm-projection operators is LMMAX =          18
 
 POTCAR:    PAW_PBE C 08Apr2002                   
  local pseudopotential read in
  partial core-charges read in
  partial kinetic energy density read in
  atomic valenz-charges read in
  non local Contribution for L=           0  read in
    real space projection operators read in
  non local Contribution for L=           0  read in
    real space projection operators read in
  non local Contribution for L=           1  read in
    real space projection operators read in
  non local Contribution for L=           1  read in
    real space projection operators read in
    PAW grid and wavefunctions read in
 
   number of l-projection  operators is LMAX  =           4
   number of lm-projection operators is LMMAX =           8
 
 POTCAR:    PAW_PBE O 08Apr2002                   
  local pseudopotential read in
  partial core-charges read in
  partial kinetic energy density read in
  kinetic energy density of atom read in
  atomic valenz-charges read in
  non local Contribution for L=           0  read in
    real space projection operators read in
  non local Contribution for L=           0  read in
    real space projection operators read in
  non local Contribution for L=           1  read in
    real space projection operators read in
  non local Contribution for L=           1  read in
    real space projection operators read in
    PAW grid and wavefunctions read in
 
   number of l-projection  operators is LMAX  =           4
   number of lm-projection operators is LMMAX =           8
 
 Optimization of the real space projectors (new method)

 maximal supplied QI-value         = 14.36
 optimisation between [QCUT,QGAM] = [  9.77, 19.68] = [ 26.71,108.41] Ry 
 Optimized for a Real-space Cutoff    1.52 Angstroem

   l    n(q)    QCUT    max X(q) W(low)/X(q) W(high)/X(q)  e(spline) 
   2      8     9.766    59.108    0.18E-03    0.12E-03    0.98E-07
   2      8     9.766    58.101    0.18E-03    0.12E-03    0.10E-06
   0      9     9.766   102.235    0.37E-04    0.68E-04    0.73E-07
   0      9     9.766    58.388    0.33E-04    0.64E-04    0.69E-07
   1      8     9.766    22.191    0.23E-03    0.61E-04    0.11E-06
   1      8     9.766    15.590    0.19E-03    0.52E-04    0.93E-07
 Optimization of the real space projectors (new method)

 maximal supplied QI-value         = 25.13
 optimisation between [QCUT,QGAM] = [  9.80, 19.60] = [ 26.90,107.62] Ry 
 Optimized for a Real-space Cutoff    1.35 Angstroem

   l    n(q)    QCUT    max X(q) W(low)/X(q) W(high)/X(q)  e(spline) 
   0      8     9.802   115.676    0.45E-03    0.67E-03    0.24E-06
   0      8     9.802    87.132    0.44E-03    0.67E-03    0.24E-06
   1      7     9.802     4.429    0.38E-03    0.18E-03    0.24E-06
   1      7     9.802     2.733    0.25E-03    0.72E-04    0.26E-06
 Optimization of the real space projectors (new method)

 maximal supplied QI-value         = 24.76
 optimisation between [QCUT,QGAM] = [  9.65, 19.56] = [ 26.10,107.10] Ry 
 Optimized for a Real-space Cutoff    1.44 Angstroem

   l    n(q)    QCUT    max X(q) W(low)/X(q) W(high)/X(q)  e(spline) 
   0      8     9.655    20.381    0.19E-03    0.21E-03    0.36E-06
   0      8     9.655    15.268    0.21E-03    0.24E-03    0.37E-06
   1      8     9.655     5.964    0.43E-03    0.39E-03    0.31E-06
   1      8     9.655     5.382    0.36E-03    0.33E-03    0.28E-06
  PAW_PBE Pd 04Jan2005                  :
 energy of atom  1       EATOM= -809.7530
 kinetic energy error for atom=    0.0177 (will be added to EATOM!!)
  PAW_PBE C 08Apr2002                   :
 energy of atom  2       EATOM= -147.1560
 kinetic energy error for atom=    0.0545 (will be added to EATOM!!)
  PAW_PBE O 08Apr2002                   :
 energy of atom  3       EATOM= -432.3788
 kinetic energy error for atom=    0.2342 (will be added to EATOM!!)
 
 
 POSCAR: Pd  C  O
  positions in direct lattice
  velocities in cartesian coordinates


 exchange-correlation table for PE
   RHO(1)=    0.500       N(1)  =     2000
   RHO(2)=  100.500       N(2)  =     4000

 VTST: version 4.2, (11/09/24)

 CHAIN: initializing optimizer
 
 OPT: Using Quick-Min optimizer
 OPT: QM, Init
 OPT: QM, MAXMOVE       0.200000
 OPT: QM, TIMESTEP      0.050000
 
 CHAIN: Read ICHAIN            0
 CHAIN: Running the NEB
 NEB:          SPRING     -5.000000
 NEB:          LCLIMB      T
 NEB:     LTANGENTOLD      F
 NEB:           LDNEB      F
 NEB:        LDNEBORG      F
 NEB:        LNEBCELL      F
 NEB:          EFIRST      0.000000
 NEB:           ELAST      0.000000
 
 POSCAR: Pd  C  O
  positions in cartesian coordinates
  No initial velocities read in
 
 POSCAR: Pd  C  O
  positions in cartesian coordinates
  No initial velocities read in
 
 POSCAR: Pd  C  O
  positions in cartesian coordinates
  No initial velocities read in
 
 POSCAR: Pd  C  O
  positions in cartesian coordinates
  No initial velocities read in
 


--------------------------------------------------------------------------------------------------------


 ion  position               nearest neighbor table
   1  1.000  0.000  0.437-  19 2.77  25 2.77   4 2.77  13 2.77   7 2.77  10 2.77   3 2.80  27 2.80
                             9 2.80
   2  0.111  0.223  0.160-  31 2.77  32 2.77  28 2.77   5 2.77   8 2.77  26 2.77  20 2.77  14 2.77
                            11 2.77  12 2.79   9 2.79   3 2.79
   3  0.222  0.112  0.299-  15 2.77  12 2.77   9 2.77   6 2.77  27 2.77  21 2.77   2 2.79  20 2.79
                             5 2.79   4 2.80   1 2.80  13 2.81
   4  0.333  0.001  0.437-  22 2.77  13 2.77  16 2.77   1 2.77   7 2.77  19 2.77   3 2.80  21 2.80
                             6 2.80
   5  0.444  0.223  0.160-  32 2.77  29 2.77  33 2.77   2 2.77  20 2.77  23 2.77   8 2.77  17 2.77
                            14 2.77   6 2.79  15 2.79   3 2.79
   6  0.555  0.112  0.298-  21 2.77   3 2.77  24 2.77  18 2.77  15 2.77   9 2.77  23 2.78   5 2.79
                             8 2.79  16 2.79   7 2.79   4 2.80
   7  0.666  0.001  0.437-  10 2.77  22 2.77   4 2.77  25 2.77  16 2.77   1 2.77   9 2.79  24 2.79
                             6 2.79
   8  0.778  0.223  0.160-  33 2.77  31 2.77  30 2.77   2 2.77  26 2.77  23 2.77  11 2.77   5 2.77
                            17 2.77  18 2.78   6 2.79   9 2.79
   9  0.889  0.112  0.298-   3 2.77  27 2.77  12 2.77  18 2.77   6 2.77  24 2.77  26 2.79   2 2.79
                             8 2.79   7 2.79  10 2.80   1 2.80
  10  0.999  0.334  0.437-   7 2.77  16 2.77  19 2.77   1 2.77  13 2.77  22 2.78   9 2.80  12 2.80
                            18 2.80
  11  0.111  0.557  0.160-  34 2.77  35 2.77  31 2.77  14 2.77  17 2.77  23 2.77  20 2.77   8 2.77
                             2 2.77  21 2.79  18 2.79  12 2.79
  12  0.222  0.445  0.299-  15 2.77   3 2.77  24 2.77   9 2.77  18 2.77  21 2.77   2 2.79  14 2.79
                            11 2.79  22 2.80  10 2.80  13 2.81
  13  0.333  0.334  0.438-  16 2.77   4 2.77   1 2.77  25 2.77  22 2.77  10 2.77   3 2.81  15 2.81
                            12 2.81
  14  0.444  0.557  0.160-  35 2.77  36 2.77  32 2.77  11 2.77  23 2.77  26 2.77   2 2.77  17 2.77
                             5 2.77  24 2.78  15 2.79  12 2.79
  15  0.555  0.445  0.298-   3 2.77  12 2.77  24 2.77   6 2.77  18 2.77  27 2.77   5 2.79  14 2.79
                            17 2.79  25 2.79  16 2.79  13 2.81
  16  0.666  0.334  0.437-  10 2.77  13 2.77   4 2.77  25 2.77  19 2.77   7 2.77  15 2.79   6 2.79
                            18 2.79
  17  0.778  0.557  0.160-  36 2.77  34 2.77  33 2.77  11 2.77  26 2.77  20 2.77  14 2.77   8 2.77
                             5 2.77  27 2.78  18 2.79  15 2.79
  18  0.889  0.445  0.298-   9 2.77   6 2.77  12 2.77  21 2.77  27 2.77  15 2.77   8 2.78  17 2.79
                            11 2.79  19 2.79  16 2.79  10 2.80
  19  0.999  0.667  0.437-   1 2.77  25 2.77  16 2.77  10 2.77   4 2.77  22 2.77  18 2.79  21 2.79
                            27 2.79
  20  0.111  0.890  0.160-  29 2.77  28 2.77  34 2.77  23 2.77  26 2.77  11 2.77  17 2.77   5 2.77
                             2 2.77  27 2.79  21 2.79   3 2.79
  21  0.222  0.779  0.298-  24 2.77   6 2.77  12 2.77  27 2.77  18 2.77   3 2.77  11 2.79  20 2.79
                            23 2.79  19 2.79  22 2.80   4 2.80
  22  0.333  0.668  0.437-   7 2.77   4 2.77  25 2.77  19 2.77  13 2.77  10 2.78  12 2.80  24 2.80
                            21 2.80
  23  0.444  0.890  0.160-  29 2.77  35 2.77  30 2.77  20 2.77  11 2.77  14 2.77   5 2.77   8 2.77
                            26 2.77   6 2.78  24 2.79  21 2.79
  24  0.555  0.779  0.298-  21 2.77  12 2.77  15 2.77   6 2.77  27 2.77   9 2.77  14 2.78  23 2.79
                            26 2.79   7 2.79  25 2.79  22 2.80
  25  0.666  0.667  0.437-   1 2.77  19 2.77  16 2.77  22 2.77   7 2.77  13 2.77  15 2.79  27 2.79
                            24 2.79
  26  0.778  0.890  0.160-  28 2.77  30 2.77  36 2.77  20 2.77  17 2.77   8 2.77   2 2.77  14 2.77
                            23 2.77  27 2.78  24 2.79   9 2.79
  27  0.889  0.779  0.298-   9 2.77  24 2.77   3 2.77  21 2.77  18 2.77  15 2.77  26 2.78  17 2.78
                            20 2.79  19 2.79  25 2.79   1 2.80
  28  1.000  0.001  0.023-  26 2.77  20 2.77   2 2.77  30 2.77  29 2.77  31 2.77  32 2.77  36 2.77
                            34 2.77
  29  0.333  0.001  0.023-  20 2.77  23 2.77   5 2.77  28 2.77  32 2.77  34 2.77  35 2.77  33 2.77
                            30 2.77
  30  0.666  0.001  0.023-  26 2.77   8 2.77  23 2.77  28 2.77  31 2.77  33 2.77  36 2.77  35 2.77
                            29 2.77
  31  1.000  0.334  0.023-   2 2.77   8 2.77  11 2.77  33 2.77  32 2.77  28 2.77  30 2.77  35 2.77
                            34 2.77
  32  0.333  0.334  0.023-   5 2.77   2 2.77  14 2.77  31 2.77  29 2.77  28 2.77  33 2.77  35 2.77
                            36 2.77
  33  0.666  0.334  0.023-   8 2.77   5 2.77  17 2.77  31 2.77  30 2.77  29 2.77  34 2.77  32 2.77
                            36 2.77
  34  1.000  0.668  0.023-  11 2.77  17 2.77  20 2.77  36 2.77  35 2.77  28 2.77  29 2.77  33 2.77
                            31 2.77
  35  0.333  0.668  0.023-  14 2.77  11 2.77  23 2.77  34 2.77  29 2.77  30 2.77  31 2.77  36 2.77
                            32 2.77
  36  0.666  0.668  0.023-  17 2.77  26 2.77  14 2.77  34 2.77  28 2.77  30 2.77  35 2.77  32 2.77
                            33 2.77
  37  0.247  0.133  0.707-  38 1.18  39 1.18
  38  0.264  0.282  0.700-  37 1.18
  39  0.230  0.985  0.715-  37 1.18
 

IMPORTANT INFORMATION: All symmetrisations will be switched off!
NOSYMM: (Re-)initialisation of all symmetry stuff for point group C_1.


----------------------------------------------------------------------------------------

                                     Primitive cell                                     

  volume of cell :     988.1533

  direct lattice vectors                    reciprocal lattice vectors
     8.309900284  0.000000000  0.000000000     0.120338387  0.069477400  0.000000000
    -4.154950142  7.196584749  0.000000000     0.000000000  0.138954801  0.000000000
     0.000000000  0.000000000 16.523500443     0.000000000  0.000000000  0.060519864

  length of vectors
     8.309900284  8.309900284 16.523500443     0.138954801  0.138954801  0.060519864

  position of ions in fractional coordinates (direct lattice)
     0.999587237  0.000385053  0.437464416
     0.110930000  0.223300000  0.160240000
     0.221939426  0.112271427  0.298606368
     0.332991875  0.000719735  0.437270695
     0.444260000  0.223300000  0.160240000
     0.555124622  0.111962825  0.298245367
     0.666265978  0.000744286  0.436894219
     0.777600000  0.223300000  0.160240000
     0.888672436  0.112036632  0.298436039
     0.999050337  0.333815723  0.437328923
     0.110930000  0.556640000  0.160240000
     0.221921456  0.445281018  0.298515936
     0.332811579  0.333811567  0.438316412
     0.444260000  0.556640000  0.160240000
     0.554823533  0.445210810  0.298428823
     0.666078539  0.334043333  0.436801947
     0.777600000  0.556640000  0.160240000
     0.888537162  0.445274585  0.298234904
     0.999385269  0.667253567  0.436761591
     0.110930000  0.889970000  0.160240000
     0.221971323  0.778731027  0.298300422
     0.333255588  0.667759996  0.437178893
     0.444260000  0.889970000  0.160240000
     0.555068113  0.778588167  0.298261251
     0.666323948  0.667395740  0.436830575
     0.777600000  0.889970000  0.160240000
     0.888578867  0.778821150  0.298217803
     0.999820000  0.001080000  0.023370000
     0.333150000  0.001080000  0.023370000
     0.666490000  0.001080000  0.023370000
     0.999820000  0.334410000  0.023370000
     0.333150000  0.334410000  0.023370000
     0.666490000  0.334410000  0.023370000
     0.999820000  0.667750000  0.023370000
     0.333150000  0.667750000  0.023370000
     0.666490000  0.667750000  0.023370000
     0.247422094  0.133129144  0.706522096
     0.263995884  0.281629709  0.699740869
     0.229862497  0.984510071  0.714963102

  ion indices of the primitive-cell ions
   primitive index   ion index
                 1           1
                 2           2
                 3           3
                 4           4
                 5           5
                 6           6
                 7           7
                 8           8
                 9           9
                10          10
                11          11
                12          12
                13          13
                14          14
                15          15
                16          16
                17          17
                18          18
                19          19
                20          20
                21          21
                22          22
                23          23
                24          24
                25          25
                26          26
                27          27
                28          28
                29          29
                30          30
                31          31
                32          32
                33          33
                34          34
                35          35
                36          36
                37          37
                38          38
                39          39

----------------------------------------------------------------------------------------

 
 
 KPOINTS: Automatic mesh                          

Automatic generation of k-mesh.
 Grid dimensions read from file:
 generate k-points for:    4    4    1

 Generating k-lattice:

  Cartesian coordinates                     Fractional coordinates (reciprocal lattice)
     0.030084597  0.017369350  0.000000000     0.250000000  0.000000000  0.000000000
     0.000000000  0.034738700  0.000000000     0.000000000  0.250000000  0.000000000
     0.000000000  0.000000000  0.060519864     0.000000000  0.000000000  1.000000000

  Length of vectors
     0.034738700  0.034738700  0.060519864

  Shift w.r.t. Gamma in fractional coordinates (k-lattice)
     0.500000000  0.500000000  0.000000000

 
 Subroutine IBZKPT returns following result:
 ===========================================
 
 Found     24 irreducible k-points:
 
 Following reciprocal coordinates:
            Coordinates               Weight
  0.125000  0.125000  0.000000      2.000000
 -0.125000  0.250000  0.000000      2.000000
 -0.250000  0.125000  0.000000      2.000000
  0.375000  0.125000  0.000000      2.000000
 -0.125000  0.500000  0.000000      2.000000
  0.500000  0.375000  0.000000      2.000000
 -0.375000  0.500000  0.000000      2.000000
  0.125000  0.375000  0.000000      2.000000
  0.500000 -0.125000  0.000000      2.000000
 -0.375000  0.125000  0.000000      2.000000
 -0.125000 -0.250000  0.000000      2.000000
  0.250000 -0.375000  0.000000      2.000000
  0.375000 -0.250000  0.000000      2.000000
  0.125000 -0.375000  0.000000      2.000000
 -0.250000 -0.125000  0.000000      2.000000
 -0.125000  0.125000  0.000000      2.000000
 -0.125000  0.000000  0.000000      2.000000
  0.000000 -0.125000  0.000000      2.000000
  0.375000  0.375000  0.000000      2.000000
 -0.375000 -0.250000  0.000000      2.000000
  0.250000  0.375000  0.000000      2.000000
 -0.375000  0.375000  0.000000      2.000000
 -0.375000  0.000000  0.000000      2.000000
  0.000000 -0.375000  0.000000      2.000000
 
 Following cartesian coordinates:
            Coordinates               Weight
  0.015042  0.026054  0.000000      2.000000
 -0.015042  0.026054  0.000000      2.000000
 -0.030085  0.000000  0.000000      2.000000
  0.045127  0.043423  0.000000      2.000000
 -0.015042  0.060793  0.000000      2.000000
  0.060169  0.086847  0.000000      2.000000
 -0.045127  0.043423  0.000000      2.000000
  0.015042  0.060793  0.000000      2.000000
  0.060169  0.017369  0.000000      2.000000
 -0.045127 -0.008685  0.000000      2.000000
 -0.015042 -0.043423  0.000000      2.000000
  0.030085 -0.034739  0.000000      2.000000
  0.045127 -0.008685  0.000000      2.000000
  0.015042 -0.043423  0.000000      2.000000
 -0.030085 -0.034739  0.000000      2.000000
 -0.015042  0.008685  0.000000      2.000000
 -0.015042 -0.008685  0.000000      2.000000
  0.000000 -0.017369  0.000000      2.000000
  0.045127  0.078162  0.000000      2.000000
 -0.045127 -0.060793  0.000000      2.000000
  0.030085  0.069477  0.000000      2.000000
 -0.045127  0.026054  0.000000      2.000000
 -0.045127 -0.026054  0.000000      2.000000
  0.000000 -0.052108  0.000000      2.000000
 


--------------------------------------------------------------------------------------------------------




 Dimension of arrays:
   k-points           NKPTS =     24   k-points in BZ     NKDIM =     24   number of bands    NBANDS=    228
   number of dos      NEDOS =    301   number of ions     NIONS =     39
   non local maximal  LDIM  =      6   non local SUM 2l+1 LMDIM =     18
   total plane-waves  NPLWV = 128000
   max r-space proj   IRMAX =   1966   max aug-charges    IRDMAX=   6482
   dimension x,y,z NGX =    40 NGY =   40 NGZ =   80
   dimension x,y,z NGXF=    80 NGYF=   80 NGZF=  160
   support grid    NGXF=    80 NGYF=   80 NGZF=  160
   ions per type =              36   1   2
   NGX,Y,Z   is equivalent  to a cutoff of   8.00,  8.00,  8.05 a.u.
   NGXF,Y,Z  is equivalent  to a cutoff of  16.00, 16.00, 16.10 a.u.

 SYSTEM =  PBE-grap                                
 POSCAR =  Pd  C  O                                

 Startparameter for this run:
   NWRITE =      0    write-flag & timer
   PREC   = normal    normal or accurate (medium, high low for compatibility)
   ISTART =      0    job   : 0-new  1-cont  2-samecut
   ICHARG =      2    charge: 1-file 2-atom 10-const
   ISPIN  =      1    spin polarized calculation?
   LNONCOLLINEAR =      F non collinear calculations
   LSORBIT =      F    spin-orbit coupling
   INIWAV =      1    electr: 0-lowe 1-rand  2-diag
   LASPH  =      F    aspherical Exc in radial PAW
 Electronic Relaxation 1
   ENCUT  =  370.0 eV  27.19 Ry    5.21 a.u.  13.03 13.03 25.92*2*pi/ulx,y,z
   ENINI  =  370.0     initial cutoff
   ENAUG  =  644.9 eV  augmentation charge cutoff
   NELM   =    150;   NELMIN=  4; NELMDL= -5     # of ELM steps 
   EDIFF  = 0.1E-04   stopping-criterion for ELM
   LREAL  =      T    real-space projection
   NLSPLINE    = F    spline interpolate recip. space projectors
   LCOMPAT=      F    compatible to vasp.4.4
   GGA_COMPAT  = T    GGA compatible to vasp.4.4-vasp.4.6
   LMAXPAW     = -100 max onsite density
   LMAXMIX     =    2 max onsite mixed and CHGCAR
   VOSKOWN=      0    Vosko Wilk Nusair interpolation
   ROPT   =   -0.00050  -0.00050  -0.00050
 Ionic relaxation
   EDIFFG = -.3E-01   stopping-criterion for IOM
   NSW    =   1000    number of steps for IOM
   NBLOCK =      1;   KBLOCK =   1000    inner block; outer block 
   IBRION =      3    ionic relax: 0-MD 1-quasi-New 2-CG
   NFREE  =      0    steps in history (QN), initial steepest desc. (CG)
   ISIF   =      2    stress and relaxation
   IWAVPR =     11    prediction:  0-non 1-charg 2-wave 3-comb
   ISYM   =      0    0-nonsym 1-usesym 2-fastsym
   LCORR  =      T    Harris-Foulkes like correction to forces

   POTIM  = 0.0000    time-step for ionic-motion
   TEIN   =    0.0    initial temperature
   TEBEG  =    0.0;   TEEND  =   0.0 temperature during run
   SMASS  =  -3.00    Nose mass-parameter (am)
   estimated Nose-frequenzy (Omega)   =  0.10E-29 period in steps = 0.00E+00 mass=  -0.158E-26a.u.
   SCALEE = 1.0000    scale energy and forces
   NPACO  =    256;   APACO  = 10.0  distance and # of slots for P.C.
   PSTRESS=    0.0 pullay stress

  Mass of Ions in am
   POMASS = 106.42 12.01 16.00
  Ionic Valenz
   ZVAL   =  10.00  4.00  6.00
  Atomic Wigner-Seitz radii
   RWIGS  =  -1.00 -1.00 -1.00
  virtual crystal weights 
   VCA    =   1.00  1.00  1.00
   NELECT =     376.0000    total number of electrons
   NUPDOWN=      -1.0000    fix difference up-down

 DOS related values:
   EMIN   =  10.00;   EMAX   =-10.00  energy-range for DOS
   EFERMI =   0.00;   METHOD = LEGACY      
   ISMEAR =     0;   SIGMA  =   0.41  broadening in eV -4-tet -1-fermi 0-gaus
   EFERMI_NEDOS =   21; number of points for ismear=-14 and -15

 Electronic relaxation 2 (details)
   IALGO  =     38    algorithm
   LDIAG  =      T    sub-space diagonalisation (order eigenvalues)
   LSUBROT=      F    optimize rotation matrix (better conditioning)
   LROBUST=      F    robust break criterion during scf (extrapolated energy error)
   ISEARCH=      0    line search for conjugate gradient (0, 1=use gradient)
   TURBO    =      0    0=normal 1=particle mesh
   IRESTART =      0    0=no restart 2=restart with 2 vectors
   NREBOOT  =      0    no. of reboots
   NMIN     =      0    reboot dimension
   EREF     =   0.00    reference energy to select bands
   IMIX   =      4    mixing-type and parameters
     AMIX     =   0.40;   BMIX     =  1.00
     AMIX_MAG =   1.60;   BMIX_MAG =  1.00
     AMIN     =   0.10
     WC   =   100.;   INIMIX=   1;  MIXPRE=   1;  MAXMIX= -45

 Intra band minimization:
   WEIMIN = 0.0010     energy-eigenvalue tresh-hold
   EBREAK =  0.11E-07  absolut break condition
   DEPER  =   0.30     relativ break condition  

   TIME   =   0.40     timestep for ELM

  volume/ion in A,a.u.               =      25.34       170.98
  Fermi-wavevector in a.u.,A,eV,Ry     =   1.186304  2.241790 19.147714  1.407317
  Thomas-Fermi vector in A             =   2.322480
 
 Write flags
   LWAVE        =      F    write WAVECAR
   LDOWNSAMPLE  =      F    k-point downsampling of WAVECAR
   LCHARG       =      F    write CHGCAR
   LVTOT        =      F    write LOCPOT, total local potential
   LVHAR        =      F    write LOCPOT, Hartree potential only
   WRT_POTENTIAL= false  ! write potential to hdf5 file
   LELF         =      F    write electronic localiz. function (ELF)
   LORBIT       =      0    0 simple, 1 ext, 2 COOP (PROOUT), +10 PAW based schemes


 Python interface
   PLUGINS active      =      F    recompile with -DPLUGINS to activate
 
 Dipole corrections
   LMONO      =      F    monopole corrections only (constant potential shift)
   LDIPOL     =      F    correct potential (dipole corrections)
   IDIPOL     =      0    1-x, 2-y, 3-z, 4-all directions 
   EPSILON    =  1.0000000 bulk dielectric constant
   LVACPOTAV  =      F  vacuum potentials using an averaging scheme for the charge density
   VACPOTFLAT =  0.1000000 required flatness to determine vacuum potential
 
Coulomb truncation method
  LTRUNCATE          =      F  Coulomb kernel truncation to be used

 
 Exchange correlation treatment:
   GGA     = PE    functional components
   XC_C    = 1    coefficients multiplying the functional components
   LIBXC   =     F    Libxc                    
   VOSKOWN =     0    Vosko Wilk Nusair interpolation
   LHFCALC =     F    Hartree Fock is set to
   LHFONE  =     F    Hartree Fock one center treatment
   AEXX    =    0.0000 exact exchange contribution

 Parameters of functionals:
   PE:
     No parameter
 
 Van der Waals corrections
   IVDW    =     0    specifies the selected vdW correction

 Linear response parameters
   LEPSILON=     F    determine dielectric tensor
   LRPA    =     F    only Hartree local field effects (RPA)
   LNABLA  =     F    use nabla operator in PAW spheres
   LVEL    =     F    velocity operator in full k-point grid
   CSHIFT  =0.1000    complex shift for real part using Kramers Kronig
   OMEGAMAX=  -1.0    maximum frequency
   DEG_THRESHOLD= 0.2000000E-02 threshold for treating states as degnerate
   RTIME   =   -0.100 relaxation time in fs
  (WPLASMAI=    0.000 imaginary part of plasma frequency in eV, 0.658/RTIME)
   DFIELD  = 0.0000000 0.0000000 0.0000000 field for delta impulse in time
 
  Optional k-point grid parameters
   LKPOINTS_OPT  =     F    use optional k-point grid
   KPOINTS_OPT_MODE=     1    mode for optional k-point grid
 
 Orbital magnetization related:
   ORBITALMAG=     F  switch on orbital magnetization
   LCHIMAG   =     F  perturbation theory with respect to B field
   DQ        =  0.001000  dq finite difference perturbation B field
   LLRAUG    =     F  two centre corrections for induced B field
   LBONE     =     F  B-component reconstruction in AE one-centre
   LVGVCALC  =     T  calculate vGv susceptibility
   LVGVAPPL  =     F  apply vGv susceptibility instead of pGv for G=0

 Random number generation:
   RANDOM_GENERATOR = DEFAULT
   PCG_SEED         = not used


--------------------------------------------------------------------------------------------------------


 quickmin algorithm: (dynamic with friction)
   using selective dynamics as specified on POSCAR
 charge density and potential will be updated during run
 non-spin polarized calculation
 Variant of blocked Davidson
 Davidson routine will perform the subspace rotation
 perform sub-space diagonalisation
    after iterative eigenvector-optimisation
 modified Broyden-mixing scheme, WC =      100.0
 initial mixing is a Kerker type mixing with AMIX =  0.4000 and BMIX =      1.0000
 Hartree-type preconditioning will be used
 using additional bands           40
 real space projection scheme for non local part
 use partial core corrections
 calculate Harris-corrections to forces 
   (improved forces if not selfconsistent)
 use gradient corrections 
 use of overlap-Matrix (Vanderbilt PP)
 Gauss-broadening in eV      SIGMA  =   0.41


--------------------------------------------------------------------------------------------------------


  energy-cutoff  :      370.00
  volume of cell :      988.15
      direct lattice vectors                 reciprocal lattice vectors
     8.309900284  0.000000000  0.000000000     0.120338387  0.069477400  0.000000000
    -4.154950142  7.196584749  0.000000000     0.000000000  0.138954801  0.000000000
     0.000000000  0.000000000 16.523500443     0.000000000  0.000000000  0.060519864

  length of vectors
     8.309900284  8.309900284 16.523500443     0.138954801  0.138954801  0.060519864


 
 k-points in units of 2pi/SCALE and weight: Automatic mesh                          
   0.01504230  0.02605403  0.00000000       0.042
  -0.01504230  0.02605403  0.00000000       0.042
  -0.03008460  0.00000000  0.00000000       0.042
   0.04512690  0.04342338  0.00000000       0.042
  -0.01504230  0.06079273  0.00000000       0.042
   0.06016919  0.08684675  0.00000000       0.042
  -0.04512690  0.04342338  0.00000000       0.042
   0.01504230  0.06079273  0.00000000       0.042
   0.06016919  0.01736935  0.00000000       0.042
  -0.04512690 -0.00868468  0.00000000       0.042
  -0.01504230 -0.04342338  0.00000000       0.042
   0.03008460 -0.03473870  0.00000000       0.042
   0.04512690 -0.00868468  0.00000000       0.042
   0.01504230 -0.04342338  0.00000000       0.042
  -0.03008460 -0.03473870  0.00000000       0.042
  -0.01504230  0.00868468  0.00000000       0.042
  -0.01504230 -0.00868468  0.00000000       0.042
   0.00000000 -0.01736935  0.00000000       0.042
   0.04512690  0.07816208  0.00000000       0.042
  -0.04512690 -0.06079273  0.00000000       0.042
   0.03008460  0.06947740  0.00000000       0.042
  -0.04512690  0.02605403  0.00000000       0.042
  -0.04512690 -0.02605403  0.00000000       0.042
   0.00000000 -0.05210805  0.00000000       0.042
 
 k-points in reciprocal lattice and weights: Automatic mesh                          
   0.12500000  0.12500000  0.00000000       0.042
  -0.12500000  0.25000000  0.00000000       0.042
  -0.25000000  0.12500000  0.00000000       0.042
   0.37500000  0.12500000  0.00000000       0.042
  -0.12500000  0.50000000  0.00000000       0.042
   0.50000000  0.37500000  0.00000000       0.042
  -0.37500000  0.50000000  0.00000000       0.042
   0.12500000  0.37500000  0.00000000       0.042
   0.50000000 -0.12500000  0.00000000       0.042
  -0.37500000  0.12500000  0.00000000       0.042
  -0.12500000 -0.25000000  0.00000000       0.042
   0.25000000 -0.37500000  0.00000000       0.042
   0.37500000 -0.25000000  0.00000000       0.042
   0.12500000 -0.37500000  0.00000000       0.042
  -0.25000000 -0.12500000  0.00000000       0.042
  -0.12500000  0.12500000  0.00000000       0.042
  -0.12500000  0.00000000  0.00000000       0.042
   0.00000000 -0.12500000  0.00000000       0.042
   0.37500000  0.37500000  0.00000000       0.042
  -0.37500000 -0.25000000  0.00000000       0.042
   0.25000000  0.37500000  0.00000000       0.042
  -0.37500000  0.37500000  0.00000000       0.042
  -0.37500000  0.00000000  0.00000000       0.042
   0.00000000 -0.37500000  0.00000000       0.042
 
 position of ions in fractional coordinates (direct lattice) 
   0.99958724  0.00038505  0.43746442
   0.11093000  0.22330000  0.16024000
   0.22193943  0.11227143  0.29860637
   0.33299188  0.00071973  0.43727070
   0.44426000  0.22330000  0.16024000
   0.55512462  0.11196283  0.29824537
   0.66626598  0.00074429  0.43689422
   0.77760000  0.22330000  0.16024000
   0.88867244  0.11203663  0.29843604
   0.99905034  0.33381572  0.43732892
   0.11093000  0.55664000  0.16024000
   0.22192146  0.44528102  0.29851594
   0.33281158  0.33381157  0.43831641
   0.44426000  0.55664000  0.16024000
   0.55482353  0.44521081  0.29842882
   0.66607854  0.33404333  0.43680195
   0.77760000  0.55664000  0.16024000
   0.88853716  0.44527458  0.29823490
   0.99938527  0.66725357  0.43676159
   0.11093000  0.88997000  0.16024000
   0.22197132  0.77873103  0.29830042
   0.33325559  0.66776000  0.43717889
   0.44426000  0.88997000  0.16024000
   0.55506811  0.77858817  0.29826125
   0.66632395  0.66739574  0.43683058
   0.77760000  0.88997000  0.16024000
   0.88857887  0.77882115  0.29821780
   0.99982000  0.00108000  0.02337000
   0.33315000  0.00108000  0.02337000
   0.66649000  0.00108000  0.02337000
   0.99982000  0.33441000  0.02337000
   0.33315000  0.33441000  0.02337000
   0.66649000  0.33441000  0.02337000
   0.99982000  0.66775000  0.02337000
   0.33315000  0.66775000  0.02337000
   0.66649000  0.66775000  0.02337000
   0.24742209  0.13312914  0.70652210
   0.26399588  0.28162971  0.69974087
   0.22986250  0.98451007  0.71496310
 
 position of ions in cartesian coordinates  (Angst):
   8.30487039  0.00277107  7.22844347
  -0.00598313  1.60699737  2.64772571
   1.37781232  0.80797084  4.93402246
   2.76413882  0.00517963  7.22524252
   2.76395593  1.60699737  2.64772571
   4.14783029  0.80574996  4.92805745
   5.53351137  0.00535632  7.21902183
   5.53397809  1.60699737  2.64772571
   6.91927271  0.80628112  4.93120802
   6.91502099  2.40233314  7.22620465
  -1.39099421  4.00590693  2.64772571
  -0.00597526  3.20450258  4.93252819
   1.37866062  2.40230323  7.24252143
   1.37894485  4.00590693  2.64772571
   2.76069951  3.20399733  4.93108879
   4.14711285  2.40397115  7.21749716
   4.14896701  4.00590693  2.64772571
   5.53356152  3.20445628  4.92788457
   5.53238663  4.80194684  7.21683035
  -2.77596374  6.40474453  2.64772571
  -1.39102903  5.60420383  4.92896716
  -0.00518878  4.80559140  7.22372563
  -0.00602468  6.40474453  2.64772571
   1.37756565  5.60317573  4.92831992
   2.76408954  4.80297000  7.21797020
   2.76399748  6.40474453  2.64772571
   4.14803873  5.60485241  4.92760199
   8.30391716  0.00777231  0.38615421
   2.76395593  0.00777231  0.38615421
   5.53397809  0.00777231  0.38615421
   6.91894762  2.40660991  0.38615421
   1.37898640  2.40660991  0.38615421
   4.14900856  2.40660991  0.38615421
   5.53393654  4.80551947  0.38615421
  -0.00602468  4.80551947  0.38615421
   2.76399748  4.80551947  0.38615421
   1.50290798  0.95807517 11.67421817
   1.02362207  2.02677207 11.56216856
  -2.18045583  7.08511016 11.81369313
 


--------------------------------------------------------------------------------------------------------


 k-point     1 :   0.1250 0.1250 0.0000  plane waves:   15951
 k-point     2 :  -0.1250 0.2500 0.0000  plane waves:   15951
 k-point     3 :  -0.2500 0.1250 0.0000  plane waves:   15951
 k-point     4 :   0.3750 0.1250 0.0000  plane waves:   15982
 k-point     5 :  -0.1250 0.5000 0.0000  plane waves:   15982
 k-point     6 :   0.5000 0.3750 0.0000  plane waves:   15982
 k-point     7 :  -0.3750 0.5000 0.0000  plane waves:   15982
 k-point     8 :   0.1250 0.3750 0.0000  plane waves:   15982
 k-point     9 :   0.5000-0.1250 0.0000  plane waves:   15982
 k-point    10 :  -0.3750 0.1250 0.0000  plane waves:   15967
 k-point    11 :  -0.1250-0.2500 0.0000  plane waves:   15967
 k-point    12 :   0.2500-0.3750 0.0000  plane waves:   15967
 k-point    13 :   0.3750-0.2500 0.0000  plane waves:   15967
 k-point    14 :   0.1250-0.3750 0.0000  plane waves:   15967
 k-point    15 :  -0.2500-0.1250 0.0000  plane waves:   15967
 k-point    16 :  -0.1250 0.1250 0.0000  plane waves:   15947
 k-point    17 :  -0.1250 0.0000 0.0000  plane waves:   15947
 k-point    18 :   0.0000-0.1250 0.0000  plane waves:   15947
 k-point    19 :   0.3750 0.3750 0.0000  plane waves:   16001
 k-point    20 :  -0.3750-0.2500 0.0000  plane waves:   16001
 k-point    21 :   0.2500 0.3750 0.0000  plane waves:   16001
 k-point    22 :  -0.3750 0.3750 0.0000  plane waves:   15956
 k-point    23 :  -0.3750 0.0000 0.0000  plane waves:   15956
 k-point    24 :   0.0000-0.3750 0.0000  plane waves:   15956

 maximum and minimum number of plane-waves per node :      2691     2615

 maximum number of plane-waves:     16001
 maximum index in each direction: 
   IXMAX=   13   IYMAX=   13   IZMAX=   25
   IXMIN=  -13   IYMIN=  -13   IZMIN=  -25


 real space projection operators:
  total allocation   :       9692.17 KBytes
  max/ min on nodes  :       1709.52       1431.78


 parallel 3D FFT for wavefunctions:
    minimum data exchange during FFTs selected (reduces bandwidth)
 parallel 3D FFT for charge:
    minimum data exchange during FFTs selected (reduces bandwidth)


 total amount of memory used by VASP MPI-rank0   101491. kBytes
=======================================================================

   base                                    :      30000. kBytes
   nonlr-proj                              :       3364. kBytes
   fftplans                                :       2350. kBytes
   grid                                    :       4208. kBytes
   one-center                              :        108. kBytes
   wavefun                                 :      61461. kBytes
 
     INWAV:  cpu time      0.0000: real time      0.0000
 Broyden mixing: mesh for mixing (old mesh)
   NGX = 27   NGY = 27   NGZ = 51
  (NGX  = 80   NGY  = 80   NGZ  =160)
  gives a total of  37179 points

 initial charge density was supplied:
 charge density of overlapping atoms calculated
 number of electron     376.0000000 magnetization 
 keeping initial charge density in first step


--------------------------------------------------------------------------------------------------------


 Maximum index for non-local projection operator          389
 Maximum index for augmentation-charges          586 (set IRDMAX)


--------------------------------------------------------------------------------------------------------


 First call to EWALD:  gamma=   0.178
 Maximum number of real-space cells   4x   4x   2
 Maximum number of reciprocal cells   2x   2x   4

    FEWALD:  cpu time      0.0257: real time      0.0296


--------------------------------------- Ionic step        1  -------------------------------------------




--------------------------------------- Iteration      1(   1)  ---------------------------------------


    POTLOK:  cpu time      0.0519: real time      0.0542
    SETDIJ:  cpu time      0.0294: real time      0.0307
     EDDAV:  cpu time     13.5072: real time     13.6479
       DOS:  cpu time      0.0435: real time      0.0513
    --------------------------------------------
      LOOP:  cpu time     13.6319: real time     13.7842

 eigenvalue-minimisations  : 10968
 total energy-change (2. order) : 0.2099661E+04  (-0.1521044E+05)
 number of electron     376.0000000 magnetization 
 augmentation part      376.0000000 magnetization 

 Free energy of the ion-electron system (eV)
  ---------------------------------------------------
  alpha Z        PSCENC =       918.22725072
  Ewald energy   TEWEN  =     20108.21365705
  -Hartree energ DENC   =    -52747.12601123
  -exchange      EXHF   =         0.00000000
  -V(xc)+E(xc)   XCENC  =      -993.44051459
  PAW double counting   =     29844.20032359   -27608.36462881
  entropy T*S    EENTRO =        -1.25031664
  eigenvalues    EBANDS =      2417.33838855
  atomic energy  EATOM  =     30161.86332653
  Solvation  Ediel_sol  =         0.00000000
  ---------------------------------------------------
  free energy    TOTEN  =      2099.66147518 eV

  energy without entropy =     2100.91179182  energy(sigma->0) =     2100.28663350


--------------------------------------------------------------------------------------------------------




--------------------------------------- Iteration      1(   2)  ---------------------------------------


     EDDAV:  cpu time     14.4469: real time     14.5469
       DOS:  cpu time      0.0373: real time      0.0374
    --------------------------------------------
      LOOP:  cpu time     14.4841: real time     14.5843

 eigenvalue-minimisations  : 11864
 total energy-change (2. order) :-0.2194777E+04  (-0.2068618E+04)
 number of electron     376.0000000 magnetization 
 augmentation part      376.0000000 magnetization 

 Free energy of the ion-electron system (eV)
  ---------------------------------------------------
  alpha Z        PSCENC =       918.22725072
  Ewald energy   TEWEN  =     20108.21365705
  -Hartree energ DENC   =    -52747.12601123
  -exchange      EXHF   =         0.00000000
  -V(xc)+E(xc)   XCENC  =      -993.44051459
  PAW double counting   =     29844.20032359   -27608.36462881
  entropy T*S    EENTRO =        -3.51305676
  eigenvalues    EBANDS =       224.82393268
  atomic energy  EATOM  =     30161.86332653
  Solvation  Ediel_sol  =         0.00000000
  ---------------------------------------------------
  free energy    TOTEN  =       -95.11572082 eV

  energy without entropy =      -91.60266405  energy(sigma->0) =      -93.35919244


--------------------------------------------------------------------------------------------------------




--------------------------------------- Iteration      1(   3)  ---------------------------------------


     EDDAV:  cpu time     15.1601: real time     15.2598
       DOS:  cpu time      0.0331: real time      0.0332
    --------------------------------------------
      LOOP:  cpu time     15.1932: real time     15.2930

 eigenvalue-minimisations  : 12272
 total energy-change (2. order) :-0.1158139E+03  (-0.1059329E+03)
 number of electron     376.0000000 magnetization 
 augmentation part      376.0000000 magnetization 

 Free energy of the ion-electron system (eV)
  ---------------------------------------------------
  alpha Z        PSCENC =       918.22725072
  Ewald energy   TEWEN  =     20108.21365705
  -Hartree energ DENC   =    -52747.12601123
  -exchange      EXHF   =         0.00000000
  -V(xc)+E(xc)   XCENC  =      -993.44051459
  PAW double counting   =     29844.20032359   -27608.36462881
  entropy T*S    EENTRO =        -5.22366353
  eigenvalues    EBANDS =       110.72067421
  atomic energy  EATOM  =     30161.86332653
  Solvation  Ediel_sol  =         0.00000000
  ---------------------------------------------------
  free energy    TOTEN  =      -210.92958605 eV

  energy without entropy =     -205.70592252  energy(sigma->0) =     -208.31775429


--------------------------------------------------------------------------------------------------------




--------------------------------------- Iteration      1(   4)  ---------------------------------------


     EDDAV:  cpu time     15.5240: real time     15.6291
       DOS:  cpu time      0.0329: real time      0.0330
    --------------------------------------------
      LOOP:  cpu time     15.5570: real time     15.6621

 eigenvalue-minimisations  : 12536
 total energy-change (2. order) :-0.3322929E+01  (-0.3269368E+01)
 number of electron     376.0000000 magnetization 
 augmentation part      376.0000000 magnetization 

 Free energy of the ion-electron system (eV)
  ---------------------------------------------------
  alpha Z        PSCENC =       918.22725072
  Ewald energy   TEWEN  =     20108.21365705
  -Hartree energ DENC   =    -52747.12601123
  -exchange      EXHF   =         0.00000000
  -V(xc)+E(xc)   XCENC  =      -993.44051459
  PAW double counting   =     29844.20032359   -27608.36462881
  entropy T*S    EENTRO =        -5.26661033
  eigenvalues    EBANDS =       107.44069163
  atomic energy  EATOM  =     30161.86332653
  Solvation  Ediel_sol  =         0.00000000
  ---------------------------------------------------
  free energy    TOTEN  =      -214.25251543 eV

  energy without entropy =     -208.98590510  energy(sigma->0) =     -211.61921027


--------------------------------------------------------------------------------------------------------




--------------------------------------- Iteration      1(   5)  ---------------------------------------


     EDDAV:  cpu time     19.5904: real time     19.7234
       DOS:  cpu time      0.0481: real time      0.0483
    CHARGE:  cpu time      0.2733: real time      0.2757
    MIXING:  cpu time      0.0880: real time      0.0894
    --------------------------------------------
      LOOP:  cpu time     19.9998: real time     20.1367

 eigenvalue-minimisations  : 16736
 total energy-change (2. order) :-0.1646893E+00  (-0.1636608E+00)
 number of electron     375.9999992 magnetization 
 augmentation part      146.9749945 magnetization 

 Broyden mixing:
  rms(total) = 0.39638E+01    rms(broyden)= 0.39631E+01
  rms(prec ) = 0.41178E+01
  weight for this iteration     100.00

 Free energy of the ion-electron system (eV)
  ---------------------------------------------------
  alpha Z        PSCENC =       918.22725072
  Ewald energy   TEWEN  =     20108.21365705
  -Hartree energ DENC   =    -52747.12601123
  -exchange      EXHF   =         0.00000000
  -V(xc)+E(xc)   XCENC  =      -993.44051459
  PAW double counting   =     29844.20032359   -27608.36462881
  entropy T*S    EENTRO =        -5.26726578
  eigenvalues    EBANDS =       107.27665778
  atomic energy  EATOM  =     30161.86332653
  Solvation  Ediel_sol  =         0.00000000
  ---------------------------------------------------
  free energy    TOTEN  =      -214.41720473 eV

  energy without entropy =     -209.14993895  energy(sigma->0) =     -211.78357184


--------------------------------------------------------------------------------------------------------




--------------------------------------- Iteration      1(   6)  ---------------------------------------


    POTLOK:  cpu time      0.0509: real time      0.0538
    SETDIJ:  cpu time      0.0207: real time      0.0208
     EDDAV:  cpu time     14.6655: real time     14.7609
       DOS:  cpu time      0.0329: real time      0.0330
    CHARGE:  cpu time      0.2687: real time      0.2699
    MIXING:  cpu time      0.0886: real time      0.0907
    --------------------------------------------
      LOOP:  cpu time     15.1273: real time     15.2290

 eigenvalue-minimisations  : 11628
 total energy-change (2. order) : 0.9564460E+01  (-0.3272091E+01)
 number of electron     375.9999990 magnetization 
 augmentation part      152.5057468 magnetization 

 Broyden mixing:
  rms(total) = 0.19589E+01    rms(broyden)= 0.19588E+01
  rms(prec ) = 0.19921E+01
  weight for this iteration     100.00

 eigenvalues of (default mixing * dielectric matrix)
  average eigenvalue GAMMA=   1.4990
  1.4990

 Free energy of the ion-electron system (eV)
  ---------------------------------------------------
  alpha Z        PSCENC =       918.22725072
  Ewald energy   TEWEN  =     20108.21365705
  -Hartree energ DENC   =    -52595.09856743
  -exchange      EXHF   =         0.00000000
  -V(xc)+E(xc)   XCENC  =      -999.13629277
  PAW double counting   =     32031.88650989   -29839.49267168
  entropy T*S    EENTRO =        -5.20008421
  eigenvalues    EBANDS =        13.88412763
  atomic energy  EATOM  =     30161.86332653
  Solvation  Ediel_sol  =         0.00000000
  ---------------------------------------------------
  free energy    TOTEN  =      -204.85274427 eV

  energy without entropy =     -199.65266006  energy(sigma->0) =     -202.25270216


--------------------------------------------------------------------------------------------------------




--------------------------------------- Iteration      1(   7)  ---------------------------------------


    POTLOK:  cpu time      0.0501: real time      0.0504
    SETDIJ:  cpu time      0.0205: real time      0.0206
     EDDAV:  cpu time     15.0455: real time     15.1455
       DOS:  cpu time      0.0340: real time      0.0341
    CHARGE:  cpu time      0.2691: real time      0.2703
    MIXING:  cpu time      0.0882: real time      0.0902
    --------------------------------------------
      LOOP:  cpu time     15.5074: real time     15.6111

 eigenvalue-minimisations  : 12160
 total energy-change (2. order) :-0.3663162E+01  (-0.7758060E+00)
 number of electron     376.0000004 magnetization 
 augmentation part      152.7525523 magnetization 

 Broyden mixing:
  rms(total) = 0.22840E+01    rms(broyden)= 0.22838E+01
  rms(prec ) = 0.32423E+01
  weight for this iteration     100.00

 eigenvalues of (default mixing * dielectric matrix)
  average eigenvalue GAMMA=   0.9723
  1.6450  0.2996

 Free energy of the ion-electron system (eV)
  ---------------------------------------------------
  alpha Z        PSCENC =       918.22725072
  Ewald energy   TEWEN  =     20108.21365705
  -Hartree energ DENC   =    -52589.77622679
  -exchange      EXHF   =         0.00000000
  -V(xc)+E(xc)   XCENC  =      -999.43975841
  PAW double counting   =     33927.50076340   -31757.68609762
  entropy T*S    EENTRO =        -4.73763167
  eigenvalues    EBANDS =        27.31881027
  atomic energy  EATOM  =     30161.86332653
  Solvation  Ediel_sol  =         0.00000000
  ---------------------------------------------------
  free energy    TOTEN  =      -208.51590652 eV

  energy without entropy =     -203.77827485  energy(sigma->0) =     -206.14709068


--------------------------------------------------------------------------------------------------------




--------------------------------------- Iteration      1(   8)  ---------------------------------------


    POTLOK:  cpu time      0.0505: real time      0.0518
    SETDIJ:  cpu time      0.0202: real time      0.0203
     EDDAV:  cpu time     15.8231: real time     15.9266
       DOS:  cpu time      0.0361: real time      0.0362
    CHARGE:  cpu time      0.2700: real time      0.2712
    MIXING:  cpu time      0.0883: real time      0.0886
    --------------------------------------------
      LOOP:  cpu time     16.2883: real time     16.3948

 eigenvalue-minimisations  : 12988
 total energy-change (2. order) : 0.2388496E+01  (-0.1242519E+01)
 number of electron     376.0000005 magnetization 
 augmentation part      152.6545804 magnetization 

 Broyden mixing:
  rms(total) = 0.14558E+01    rms(broyden)= 0.14555E+01
  rms(prec ) = 0.25490E+01
  weight for this iteration     100.00

 eigenvalues of (default mixing * dielectric matrix)
  average eigenvalue GAMMA=   0.9038
  1.8947  0.6531  0.1635

 Free energy of the ion-electron system (eV)
  ---------------------------------------------------
  alpha Z        PSCENC =       918.22725072
  Ewald energy   TEWEN  =     20108.21365705
  -Hartree energ DENC   =    -52636.83132430
  -exchange      EXHF   =         0.00000000
  -V(xc)+E(xc)   XCENC  =      -999.62649104
  PAW double counting   =     34243.42353390   -32077.18000963
  entropy T*S    EENTRO =        -4.84839560
  eigenvalues    EBANDS =        80.63104158
  atomic energy  EATOM  =     30161.86332653
  Solvation  Ediel_sol  =         0.00000000
  ---------------------------------------------------
  free energy    TOTEN  =      -206.12741078 eV

  energy without entropy =     -201.27901519  energy(sigma->0) =     -203.70321298


--------------------------------------------------------------------------------------------------------




--------------------------------------- Iteration      1(   9)  ---------------------------------------


    POTLOK:  cpu time      0.0500: real time      0.0502
    SETDIJ:  cpu time      0.0208: real time      0.0209
     EDDAV:  cpu time     15.8119: real time     15.9180
       DOS:  cpu time      0.0351: real time      0.0352
    CHARGE:  cpu time      0.2703: real time      0.2715
    MIXING:  cpu time      0.0883: real time      0.0885
    --------------------------------------------
      LOOP:  cpu time     16.2764: real time     16.3844

 eigenvalue-minimisations  : 12980
 total energy-change (2. order) :-0.1976015E+01  (-0.1120007E+01)
 number of electron     375.9999973 magnetization 
 augmentation part      152.4494056 magnetization 

 Broyden mixing:
  rms(total) = 0.17066E+01    rms(broyden)= 0.17063E+01
  rms(prec ) = 0.28613E+01
  weight for this iteration     100.00

 eigenvalues of (default mixing * dielectric matrix)
  average eigenvalue GAMMA=   0.9174
  2.3761  0.9703  0.2123  0.1108

 Free energy of the ion-electron system (eV)
  ---------------------------------------------------
  alpha Z        PSCENC =       918.22725072
  Ewald energy   TEWEN  =     20108.21365705
  -Hartree energ DENC   =    -52658.93406252
  -exchange      EXHF   =         0.00000000
  -V(xc)+E(xc)   XCENC  =      -999.71897906
  PAW double counting   =     34617.32928674   -32455.09338863
  entropy T*S    EENTRO =        -4.66412265
  eigenvalues    EBANDS =       104.67360636
  atomic energy  EATOM  =     30161.86332653
  Solvation  Ediel_sol  =         0.00000000
  ---------------------------------------------------
  free energy    TOTEN  =      -208.10342545 eV

  energy without entropy =     -203.43930280  energy(sigma->0) =     -205.77136413


--------------------------------------------------------------------------------------------------------




--------------------------------------- Iteration      1(  10)  ---------------------------------------


    POTLOK:  cpu time      0.0499: real time      0.0520
    SETDIJ:  cpu time      0.0209: real time      0.0210
     EDDAV:  cpu time     15.8555: real time     15.9593
       DOS:  cpu time      0.0362: real time      0.0363
    CHARGE:  cpu time      0.2688: real time      0.2700
    MIXING:  cpu time      0.0888: real time      0.0891
    --------------------------------------------
      LOOP:  cpu time     16.3201: real time     16.4277

 eigenvalue-minimisations  : 12700
 total energy-change (2. order) : 0.3116256E+01  (-0.4785621E+00)
 number of electron     375.9999990 magnetization 
 augmentation part      152.8834202 magnetization 

 Broyden mixing:
  rms(total) = 0.93091E+00    rms(broyden)= 0.93070E+00
  rms(prec ) = 0.11997E+01
  weight for this iteration     100.00

 eigenvalues of (default mixing * dielectric matrix)
  average eigenvalue GAMMA=   0.7942
  2.4319  0.9961  0.2351  0.1930  0.1152

 Free energy of the ion-electron system (eV)
  ---------------------------------------------------
  alpha Z        PSCENC =       918.22725072
  Ewald energy   TEWEN  =     20108.21365705
  -Hartree energ DENC   =    -52642.19654513
  -exchange      EXHF   =         0.00000000
  -V(xc)+E(xc)   XCENC  =      -999.70610128
  PAW double counting   =     35433.85712452   -33280.29851383
  entropy T*S    EENTRO =        -5.03037378
  eigenvalues    EBANDS =       100.08300528
  atomic energy  EATOM  =     30161.86332653
  Solvation  Ediel_sol  =         0.00000000
  ---------------------------------------------------
  free energy    TOTEN  =      -204.98716992 eV

  energy without entropy =     -199.95679614  energy(sigma->0) =     -202.47198303


--------------------------------------------------------------------------------------------------------




--------------------------------------- Iteration      1(  11)  ---------------------------------------


    POTLOK:  cpu time      0.0500: real time      0.0503
    SETDIJ:  cpu time      0.0205: real time      0.0206
     EDDAV:  cpu time     15.2390: real time     15.3410
       DOS:  cpu time      0.0354: real time      0.0356
    CHARGE:  cpu time      0.2688: real time      0.2701
    MIXING:  cpu time      0.0885: real time      0.0887
    --------------------------------------------
      LOOP:  cpu time     15.7022: real time     15.8062

 eigenvalue-minimisations  : 12448
 total energy-change (2. order) : 0.9688647E+00  (-0.1403697E+00)
 number of electron     375.9999991 magnetization 
 augmentation part      152.9112376 magnetization 

 Broyden mixing:
  rms(total) = 0.15164E+00    rms(broyden)= 0.15122E+00
  rms(prec ) = 0.23803E+00
  weight for this iteration     100.00

 eigenvalues of (default mixing * dielectric matrix)
  average eigenvalue GAMMA=   0.7880
  2.4072  1.0593  0.7046  0.2221  0.2221  0.1130

 Free energy of the ion-electron system (eV)
  ---------------------------------------------------
  alpha Z        PSCENC =       918.22725072
  Ewald energy   TEWEN  =     20108.21365705
  -Hartree energ DENC   =    -52641.64923619
  -exchange      EXHF   =         0.00000000
  -V(xc)+E(xc)   XCENC  =      -999.64375465
  PAW double counting   =     35532.48125520   -33379.62476736
  entropy T*S    EENTRO =        -5.20526816
  eigenvalues    EBANDS =       101.31923158
  atomic energy  EATOM  =     30161.86332653
  Solvation  Ediel_sol  =         0.00000000
  ---------------------------------------------------
  free energy    TOTEN  =      -204.01830527 eV

  energy without entropy =     -198.81303711  energy(sigma->0) =     -201.41567119


--------------------------------------------------------------------------------------------------------




--------------------------------------- Iteration      1(  12)  ---------------------------------------


    POTLOK:  cpu time      0.0507: real time      0.0521
    SETDIJ:  cpu time      0.0207: real time      0.0208
     EDDAV:  cpu time     14.6708: real time     14.7673
       DOS:  cpu time      0.0329: real time      0.0330
    CHARGE:  cpu time      0.2686: real time      0.2698
    MIXING:  cpu time      0.0888: real time      0.0891
    --------------------------------------------
      LOOP:  cpu time     15.1326: real time     15.2320

 eigenvalue-minimisations  : 11812
 total energy-change (2. order) : 0.6381123E-02  (-0.1955638E-01)
 number of electron     375.9999993 magnetization 
 augmentation part      152.7732455 magnetization 

 Broyden mixing:
  rms(total) = 0.78328E-01    rms(broyden)= 0.78237E-01
  rms(prec ) = 0.10005E+00
  weight for this iteration     100.00

 eigenvalues of (default mixing * dielectric matrix)
  average eigenvalue GAMMA=   0.7677
  2.4073  1.0305  0.6862  0.6862  0.1131  0.2253  0.2253

 Free energy of the ion-electron system (eV)
  ---------------------------------------------------
  alpha Z        PSCENC =       918.22725072
  Ewald energy   TEWEN  =     20108.21365705
  -Hartree energ DENC   =    -52650.84798368
  -exchange      EXHF   =         0.00000000
  -V(xc)+E(xc)   XCENC  =      -999.47155209
  PAW double counting   =     35556.88125668   -33403.21133967
  entropy T*S    EENTRO =        -5.22430002
  eigenvalues    EBANDS =       109.55776033
  atomic energy  EATOM  =     30161.86332653
  Solvation  Ediel_sol  =         0.00000000
  ---------------------------------------------------
  free energy    TOTEN  =      -204.01192415 eV

  energy without entropy =     -198.78762413  energy(sigma->0) =     -201.39977414


--------------------------------------------------------------------------------------------------------




--------------------------------------- Iteration      1(  13)  ---------------------------------------


    POTLOK:  cpu time      0.0498: real time      0.0500
    SETDIJ:  cpu time      0.0210: real time      0.0211
     EDDAV:  cpu time     14.3546: real time     14.4505
       DOS:  cpu time      0.0318: real time      0.0320
    CHARGE:  cpu time      0.2682: real time      0.2695
    MIXING:  cpu time      0.0895: real time      0.0897
    --------------------------------------------
      LOOP:  cpu time     14.8149: real time     14.9128

 eigenvalue-minimisations  : 11472
 total energy-change (2. order) :-0.1260409E-02  (-0.2926269E-02)
 number of electron     375.9999993 magnetization 
 augmentation part      152.7726547 magnetization 

 Broyden mixing:
  rms(total) = 0.70371E-01    rms(broyden)= 0.70363E-01
  rms(prec ) = 0.91808E-01
  weight for this iteration     100.00

 eigenvalues of (default mixing * dielectric matrix)
  average eigenvalue GAMMA=   0.7804
  2.3984  1.0622  1.0622  0.8742  0.1131  0.2246  0.2246  0.2841

 Free energy of the ion-electron system (eV)
  ---------------------------------------------------
  alpha Z        PSCENC =       918.22725072
  Ewald energy   TEWEN  =     20108.21365705
  -Hartree energ DENC   =    -52654.69114414
  -exchange      EXHF   =         0.00000000
  -V(xc)+E(xc)   XCENC  =      -999.44684023
  PAW double counting   =     35559.93764709   -33406.07687368
  entropy T*S    EENTRO =        -5.22727239
  eigenvalues    EBANDS =       113.18706450
  atomic energy  EATOM  =     30161.86332653
  Solvation  Ediel_sol  =         0.00000000
  ---------------------------------------------------
  free energy    TOTEN  =      -204.01318456 eV

  energy without entropy =     -198.78591217  energy(sigma->0) =     -201.39954836


--------------------------------------------------------------------------------------------------------




--------------------------------------- Iteration      1(  14)  ---------------------------------------


    POTLOK:  cpu time      0.0504: real time      0.0519
    SETDIJ:  cpu time      0.0209: real time      0.0210
     EDDAV:  cpu time     14.5014: real time     14.5968
       DOS:  cpu time      0.0335: real time      0.0336
    CHARGE:  cpu time      0.2688: real time      0.2699
    MIXING:  cpu time      0.0896: real time      0.0899
    --------------------------------------------
      LOOP:  cpu time     14.9646: real time     15.0631

 eigenvalue-minimisations  : 11696
 total energy-change (2. order) : 0.3169947E-02  (-0.1431242E-02)
 number of electron     375.9999993 magnetization 
 augmentation part      152.7672382 magnetization 

 Broyden mixing:
  rms(total) = 0.56809E-01    rms(broyden)= 0.56802E-01
  rms(prec ) = 0.84109E-01
  weight for this iteration     100.00

 eigenvalues of (default mixing * dielectric matrix)
  average eigenvalue GAMMA=   0.8009
  2.3673  1.2683  1.2683  0.8629  0.6272  0.1131  0.2245  0.2245  0.2524

 Free energy of the ion-electron system (eV)
  ---------------------------------------------------
  alpha Z        PSCENC =       918.22725072
  Ewald energy   TEWEN  =     20108.21365705
  -Hartree energ DENC   =    -52660.33627757
  -exchange      EXHF   =         0.00000000
  -V(xc)+E(xc)   XCENC  =      -999.40957021
  PAW double counting   =     35556.60894537   -33402.48216352
  entropy T*S    EENTRO =        -5.23107749
  eigenvalues    EBANDS =       118.53589451
  atomic energy  EATOM  =     30161.86332653
  Solvation  Ediel_sol  =         0.00000000
  ---------------------------------------------------
  free energy    TOTEN  =      -204.01001461 eV

  energy without entropy =     -198.77893712  energy(sigma->0) =     -201.39447587


--------------------------------------------------------------------------------------------------------




--------------------------------------- Iteration      1(  15)  ---------------------------------------


    POTLOK:  cpu time      0.0500: real time      0.0502
    SETDIJ:  cpu time      0.0204: real time      0.0205
     EDDAV:  cpu time     14.4725: real time     14.5685
       DOS:  cpu time      0.0358: real time      0.0359
    CHARGE:  cpu time      0.2690: real time      0.2702
    MIXING:  cpu time      0.0901: real time      0.0903
    --------------------------------------------
      LOOP:  cpu time     14.9377: real time     15.0356

 eigenvalue-minimisations  : 11724
 total energy-change (2. order) : 0.2088748E-02  (-0.7979079E-03)
 number of electron     375.9999993 magnetization 
 augmentation part      152.7574525 magnetization 

 Broyden mixing:
  rms(total) = 0.45545E-01    rms(broyden)= 0.45540E-01
  rms(prec ) = 0.64084E-01
  weight for this iteration     100.00

 eigenvalues of (default mixing * dielectric matrix)
  average eigenvalue GAMMA=   0.8130
  2.2815  1.9020  1.1415  0.9240  0.8003  0.1131  0.2934  0.2249  0.2249  0.2246

 Free energy of the ion-electron system (eV)
  ---------------------------------------------------
  alpha Z        PSCENC =       918.22725072
  Ewald energy   TEWEN  =     20108.21365705
  -Hartree energ DENC   =    -52665.21671993
  -exchange      EXHF   =         0.00000000
  -V(xc)+E(xc)   XCENC  =      -999.37219620
  PAW double counting   =     35548.63874463   -33394.31500581
  entropy T*S    EENTRO =        -5.23311902
  eigenvalues    EBANDS =       123.18613618
  atomic energy  EATOM  =     30161.86332653
  Solvation  Ediel_sol  =         0.00000000
  ---------------------------------------------------
  free energy    TOTEN  =      -204.00792586 eV

  energy without entropy =     -198.77480685  energy(sigma->0) =     -201.39136635


--------------------------------------------------------------------------------------------------------




--------------------------------------- Iteration      1(  16)  ---------------------------------------


    POTLOK:  cpu time      0.0505: real time      0.0520
    SETDIJ:  cpu time      0.0205: real time      0.0206
     EDDAV:  cpu time     14.3766: real time     14.4700
       DOS:  cpu time      0.0359: real time      0.0360
    CHARGE:  cpu time      0.2680: real time      0.2692
    MIXING:  cpu time      0.0904: real time      0.0907
    --------------------------------------------
      LOOP:  cpu time     14.8419: real time     14.9385

 eigenvalue-minimisations  : 11672
 total energy-change (2. order) : 0.3221710E-02  (-0.4965654E-03)
 number of electron     375.9999993 magnetization 
 augmentation part      152.7482317 magnetization 

 Broyden mixing:
  rms(total) = 0.13063E-01    rms(broyden)= 0.13049E-01
  rms(prec ) = 0.21557E-01
  weight for this iteration     100.00

 eigenvalues of (default mixing * dielectric matrix)
  average eigenvalue GAMMA=   0.8125
  2.2730  2.1229  1.1564  0.8305  0.8305  0.6522  0.1131  0.2890  0.2246  0.2246
  0.2211

 Free energy of the ion-electron system (eV)
  ---------------------------------------------------
  alpha Z        PSCENC =       918.22725072
  Ewald energy   TEWEN  =     20108.21365705
  -Hartree energ DENC   =    -52670.17350234
  -exchange      EXHF   =         0.00000000
  -V(xc)+E(xc)   XCENC  =      -999.33301196
  PAW double counting   =     35541.14024145   -33386.66234715
  entropy T*S    EENTRO =        -5.23516398
  eigenvalues    EBANDS =       127.95484553
  atomic energy  EATOM  =     30161.86332653
  Solvation  Ediel_sol  =         0.00000000
  ---------------------------------------------------
  free energy    TOTEN  =      -204.00470415 eV

  energy without entropy =     -198.76954017  energy(sigma->0) =     -201.38712216


--------------------------------------------------------------------------------------------------------




--------------------------------------- Iteration      1(  17)  ---------------------------------------


    POTLOK:  cpu time      0.0498: real time      0.0500
    SETDIJ:  cpu time      0.0202: real time      0.0203
     EDDAV:  cpu time     14.3837: real time     14.4792
       DOS:  cpu time      0.0331: real time      0.0332
    CHARGE:  cpu time      0.2677: real time      0.2690
    MIXING:  cpu time      0.0906: real time      0.0909
    --------------------------------------------
      LOOP:  cpu time     14.8451: real time     14.9426

 eigenvalue-minimisations  : 11684
 total energy-change (2. order) : 0.4325944E-03  (-0.1912384E-03)
 number of electron     375.9999993 magnetization 
 augmentation part      152.7466784 magnetization 

 Broyden mixing:
  rms(total) = 0.18555E-01    rms(broyden)= 0.18553E-01
  rms(prec ) = 0.25582E-01
  weight for this iteration     100.00

 eigenvalues of (default mixing * dielectric matrix)
  average eigenvalue GAMMA=   0.8399
  2.4604  2.3067  1.1686  1.0186  1.0186  0.7502  0.1131  0.2250  0.2250  0.2933
  0.2777  0.2215

 Free energy of the ion-electron system (eV)
  ---------------------------------------------------
  alpha Z        PSCENC =       918.22725072
  Ewald energy   TEWEN  =     20108.21365705
  -Hartree energ DENC   =    -52673.79963866
  -exchange      EXHF   =         0.00000000
  -V(xc)+E(xc)   XCENC  =      -999.30846993
  PAW double counting   =     35540.01238173   -33385.52193009
  entropy T*S    EENTRO =        -5.23593273
  eigenvalues    EBANDS =       131.54508383
  atomic energy  EATOM  =     30161.86332653
  Solvation  Ediel_sol  =         0.00000000
  ---------------------------------------------------
  free energy    TOTEN  =      -204.00427156 eV

  energy without entropy =     -198.76833882  energy(sigma->0) =     -201.38630519


--------------------------------------------------------------------------------------------------------




--------------------------------------- Iteration      1(  18)  ---------------------------------------


    POTLOK:  cpu time      0.0497: real time      0.0500
    SETDIJ:  cpu time      0.0205: real time      0.0206
     EDDAV:  cpu time     14.2630: real time     14.3571
       DOS:  cpu time      0.0328: real time      0.0329
    CHARGE:  cpu time      0.2683: real time      0.2694
    MIXING:  cpu time      0.0909: real time      0.0913
    --------------------------------------------
      LOOP:  cpu time     14.7252: real time     14.8213

 eigenvalue-minimisations  : 11644
 total energy-change (2. order) : 0.6684596E-03  (-0.1323257E-03)
 number of electron     375.9999993 magnetization 
 augmentation part      152.7459986 magnetization 

 Broyden mixing:
  rms(total) = 0.13792E-01    rms(broyden)= 0.13791E-01
  rms(prec ) = 0.21111E-01
  weight for this iteration     100.00

 eigenvalues of (default mixing * dielectric matrix)
  average eigenvalue GAMMA=   0.8720
  2.7180  2.4060  1.2242  1.2242  1.0179  0.7042  0.7042  0.1131  0.2982  0.2246
  0.2246  0.2572  0.2197

 Free energy of the ion-electron system (eV)
  ---------------------------------------------------
  alpha Z        PSCENC =       918.22725072
  Ewald energy   TEWEN  =     20108.21365705
  -Hartree energ DENC   =    -52678.20410718
  -exchange      EXHF   =         0.00000000
  -V(xc)+E(xc)   XCENC  =      -999.28062319
  PAW double counting   =     35537.32672984   -33382.83427575
  entropy T*S    EENTRO =        -5.23659852
  eigenvalues    EBANDS =       135.92103741
  atomic energy  EATOM  =     30161.86332653
  Solvation  Ediel_sol  =         0.00000000
  ---------------------------------------------------
  free energy    TOTEN  =      -204.00360310 eV

  energy without entropy =     -198.76700457  energy(sigma->0) =     -201.38530384


--------------------------------------------------------------------------------------------------------




--------------------------------------- Iteration      1(  19)  ---------------------------------------


    POTLOK:  cpu time      0.0496: real time      0.0511
    SETDIJ:  cpu time      0.0213: real time      0.0214
     EDDAV:  cpu time     14.4417: real time     14.5357
       DOS:  cpu time      0.0327: real time      0.0328
    CHARGE:  cpu time      0.2679: real time      0.2692
    MIXING:  cpu time      0.0912: real time      0.0915
    --------------------------------------------
      LOOP:  cpu time     14.9044: real time     15.0016

 eigenvalue-minimisations  : 11764
 total energy-change (2. order) : 0.1685323E-03  (-0.8147235E-04)
 number of electron     375.9999993 magnetization 
 augmentation part      152.7438754 magnetization 

 Broyden mixing:
  rms(total) = 0.11305E-01    rms(broyden)= 0.11303E-01
  rms(prec ) = 0.15619E-01
  weight for this iteration     100.00

 eigenvalues of (default mixing * dielectric matrix)
  average eigenvalue GAMMA=   0.8853
  2.9992  2.4523  1.3967  1.3967  0.9163  0.8047  0.8047  0.1131  0.2933  0.2933
  0.2246  0.2246  0.2553  0.2189

 Free energy of the ion-electron system (eV)
  ---------------------------------------------------
  alpha Z        PSCENC =       918.22725072
  Ewald energy   TEWEN  =     20108.21365705
  -Hartree energ DENC   =    -52681.59442375
  -exchange      EXHF   =         0.00000000
  -V(xc)+E(xc)   XCENC  =      -999.26392732
  PAW double counting   =     35531.38589255   -33376.89457900
  entropy T*S    EENTRO =        -5.23615343
  eigenvalues    EBANDS =       139.29552207
  atomic energy  EATOM  =     30161.86332653
  Solvation  Ediel_sol  =         0.00000000
  ---------------------------------------------------
  free energy    TOTEN  =      -204.00343457 eV

  energy without entropy =     -198.76728114  energy(sigma->0) =     -201.38535785


--------------------------------------------------------------------------------------------------------




--------------------------------------- Iteration      1(  20)  ---------------------------------------


    POTLOK:  cpu time      0.0497: real time      0.0500
    SETDIJ:  cpu time      0.0206: real time      0.0207
     EDDAV:  cpu time     14.3304: real time     14.4237
       DOS:  cpu time      0.0327: real time      0.0328
    CHARGE:  cpu time      0.2692: real time      0.2703
    MIXING:  cpu time      0.0914: real time      0.0917
    --------------------------------------------
      LOOP:  cpu time     14.7940: real time     14.8893

 eigenvalue-minimisations  : 11664
 total energy-change (2. order) : 0.1157637E-03  (-0.4167987E-04)
 number of electron     375.9999993 magnetization 
 augmentation part      152.7423210 magnetization 

 Broyden mixing:
  rms(total) = 0.52632E-02    rms(broyden)= 0.52603E-02
  rms(prec ) = 0.73930E-02
  weight for this iteration     100.00

 eigenvalues of (default mixing * dielectric matrix)
  average eigenvalue GAMMA=   0.9283
  3.1022  2.3562  2.2008  1.1137  0.8818  0.8818  0.8844  0.8844  0.1131  0.3091
  0.2816  0.2247  0.2247  0.2195  0.2458

 Free energy of the ion-electron system (eV)
  ---------------------------------------------------
  alpha Z        PSCENC =       918.22725072
  Ewald energy   TEWEN  =     20108.21365705
  -Hartree energ DENC   =    -52683.72489679
  -exchange      EXHF   =         0.00000000
  -V(xc)+E(xc)   XCENC  =      -999.25558275
  PAW double counting   =     35526.85576221   -33372.37788530
  entropy T*S    EENTRO =        -5.23580216
  eigenvalues    EBANDS =       141.43085169
  atomic energy  EATOM  =     30161.86332653
  Solvation  Ediel_sol  =         0.00000000
  ---------------------------------------------------
  free energy    TOTEN  =      -204.00331880 eV

  energy without entropy =     -198.76751664  energy(sigma->0) =     -201.38541772


--------------------------------------------------------------------------------------------------------




--------------------------------------- Iteration      1(  21)  ---------------------------------------


    POTLOK:  cpu time      0.0505: real time      0.0519
    SETDIJ:  cpu time      0.0213: real time      0.0214
     EDDAV:  cpu time     14.4734: real time     14.5671
       DOS:  cpu time      0.0278: real time      0.0279
    CHARGE:  cpu time      0.2689: real time      0.2701
    MIXING:  cpu time      0.0922: real time      0.0925
    --------------------------------------------
      LOOP:  cpu time     14.9341: real time     15.0308

 eigenvalue-minimisations  : 11848
 total energy-change (2. order) :-0.1732288E-03  (-0.2237763E-04)
 number of electron     375.9999993 magnetization 
 augmentation part      152.7425936 magnetization 

 Broyden mixing:
  rms(total) = 0.62247E-02    rms(broyden)= 0.62240E-02
  rms(prec ) = 0.89599E-02
  weight for this iteration     100.00

 eigenvalues of (default mixing * dielectric matrix)
  average eigenvalue GAMMA=   0.9386
  3.3331  2.4648  2.4648  1.0967  1.0967  0.9372  0.8475  0.8475  0.1131  0.3085
  0.3085  0.2880  0.2247  0.2247  0.2195  0.2432

 Free energy of the ion-electron system (eV)
  ---------------------------------------------------
  alpha Z        PSCENC =       918.22725072
  Ewald energy   TEWEN  =     20108.21365705
  -Hartree energ DENC   =    -52685.18501736
  -exchange      EXHF   =         0.00000000
  -V(xc)+E(xc)   XCENC  =      -999.25545773
  PAW double counting   =     35524.53301082   -33370.11734763
  entropy T*S    EENTRO =        -5.23581636
  eigenvalues    EBANDS =       142.95290193
  atomic energy  EATOM  =     30161.86332653
  Solvation  Ediel_sol  =         0.00000000
  ---------------------------------------------------
  free energy    TOTEN  =      -204.00349203 eV

  energy without entropy =     -198.76767567  energy(sigma->0) =     -201.38558385


--------------------------------------------------------------------------------------------------------




--------------------------------------- Iteration      1(  22)  ---------------------------------------


    POTLOK:  cpu time      0.0493: real time      0.0495
    SETDIJ:  cpu time      0.0225: real time      0.0231
     EDDAV:  cpu time     14.2272: real time     14.3198
       DOS:  cpu time      0.0348: real time      0.0349
    CHARGE:  cpu time      0.2693: real time      0.2704
    MIXING:  cpu time      0.0929: real time      0.0931
    --------------------------------------------
      LOOP:  cpu time     14.6959: real time     14.7908

 eigenvalue-minimisations  : 11496
 total energy-change (2. order) :-0.6264387E-04  (-0.1160212E-04)
 number of electron     375.9999993 magnetization 
 augmentation part      152.7425807 magnetization 

 Broyden mixing:
  rms(total) = 0.43099E-02    rms(broyden)= 0.43094E-02
  rms(prec ) = 0.68608E-02
  weight for this iteration     100.00

 eigenvalues of (default mixing * dielectric matrix)
  average eigenvalue GAMMA=   1.0566
  4.9717  2.5519  2.5519  1.3440  1.3440  0.9230  0.8151  0.8151  0.8055  0.1131
  0.3123  0.2831  0.2247  0.2247  0.2450  0.2197  0.2169

 Free energy of the ion-electron system (eV)
  ---------------------------------------------------
  alpha Z        PSCENC =       918.22725072
  Ewald energy   TEWEN  =     20108.21365705
  -Hartree energ DENC   =    -52685.72098995
  -exchange      EXHF   =         0.00000000
  -V(xc)+E(xc)   XCENC  =      -999.25521204
  PAW double counting   =     35523.78508981   -33369.38582265
  entropy T*S    EENTRO =        -5.23596062
  eigenvalues    EBANDS =       143.50510649
  atomic energy  EATOM  =     30161.86332653
  Solvation  Ediel_sol  =         0.00000000
  ---------------------------------------------------
  free energy    TOTEN  =      -204.00355467 eV

  energy without entropy =     -198.76759405  energy(sigma->0) =     -201.38557436


--------------------------------------------------------------------------------------------------------




--------------------------------------- Iteration      1(  23)  ---------------------------------------


    POTLOK:  cpu time      0.0500: real time      0.0502
    SETDIJ:  cpu time      0.0205: real time      0.0206
     EDDAV:  cpu time     12.5652: real time     12.6465
       DOS:  cpu time      0.0360: real time      0.0361
    CHARGE:  cpu time      0.2692: real time      0.2704
    MIXING:  cpu time      0.0933: real time      0.0935
    --------------------------------------------
      LOOP:  cpu time     13.0342: real time     13.1174

 eigenvalue-minimisations  :  9708
 total energy-change (2. order) :-0.1168967E-03  (-0.6812846E-05)
[...]
   1.00000000000000        1.00000000000000        1.00000000000000     
   1.00000000000000        1.00000000000000        1.00000000000000     
  0.000000000000000E+000  0.000000000000000E+000  0.000000000000000E+000
   1.00000000000000        1.00000000000000        1.00000000000000     
   1.00000000000000        1.00000000000000        1.00000000000000     
  0.000000000000000E+000  0.000000000000000E+000  0.000000000000000E+000
   1.00000000000000        1.00000000000000        1.00000000000000     
   1.00000000000000        1.00000000000000        1.00000000000000     
  0.000000000000000E+000  0.000000000000000E+000  0.000000000000000E+000
   1.00000000000000        1.00000000000000        1.00000000000000     
   1.00000000000000        1.00000000000000        1.00000000000000     
  0.000000000000000E+000  0.000000000000000E+000  0.000000000000000E+000
   1.00000000000000        1.00000000000000        1.00000000000000     
   1.00000000000000        1.00000000000000        1.00000000000000     
  0.000000000000000E+000  0.000000000000000E+000  0.000000000000000E+000
   1.00000000000000        1.00000000000000        1.00000000000000     
   1.00000000000000        1.00000000000000        1.00000000000000     
  0.000000000000000E+000  0.000000000000000E+000  0.000000000000000E+000
   1.00000000000000        1.00000000000000        1.00000000000000     
  0.000000000000000E+000  0.000000000000000E+000  0.000000000000000E+000
  0.000000000000000E+000  0.000000000000000E+000  0.000000000000000E+000
  0.000000000000000E+000  0.000000000000000E+000  0.000000000000000E+000
  0.000000000000000E+000  0.000000000000000E+000  0.000000000000000E+000
  0.000000000000000E+000  0.000000000000000E+000  0.000000000000000E+000
  0.000000000000000E+000  0.000000000000000E+000  0.000000000000000E+000
  0.000000000000000E+000  0.000000000000000E+000  0.000000000000000E+000
  0.000000000000000E+000  0.000000000000000E+000  0.000000000000000E+000
  0.000000000000000E+000  0.000000000000000E+000  0.000000000000000E+000
   1.00000000000000        1.00000000000000        1.00000000000000     
   1.00000000000000        1.00000000000000        1.00000000000000     
   1.00000000000000        1.00000000000000        1.00000000000000     
 NEB: the previous image is higher in energy: F
 NEB: the next image is higher in energy    : F
 NEB: image is at an extrema
 NEB: diff energy (min, max):     0.002579  204.008246

 NEB: Tangent
 ----------------------------------------------
      0.00049      0.00167      0.00597
      0.00000      0.00000      0.00000
     -0.00070      0.00106      0.00276
     -0.00022      0.00215      0.00379
      0.00000      0.00000      0.00000
     -0.00043      0.00067      0.00224
      0.00004      0.00211      0.00508
      0.00000      0.00000      0.00000
     -0.00076      0.00059      0.00298
     -0.00009      0.00140      0.00569
      0.00000      0.00000      0.00000
     -0.00037      0.00044      0.00280
      0.00012      0.00204      0.00415
      0.00000      0.00000      0.00000
     -0.00035      0.00124      0.00134
     -0.00015      0.00275      0.00229
      0.00000      0.00000      0.00000
      0.00014      0.00123      0.00217
     -0.00026      0.00179      0.00399
      0.00000      0.00000      0.00000
     -0.00038      0.00082      0.00234
     -0.00057      0.00196      0.00408
      0.00000      0.00000      0.00000
     -0.00037      0.00091      0.00260
     -0.00018      0.00239      0.00351
      0.00000      0.00000      0.00000
     -0.00019      0.00150      0.00251
      0.00000      0.00000      0.00000
      0.00000      0.00000      0.00000
      0.00000      0.00000      0.00000
      0.00000      0.00000      0.00000
      0.00000      0.00000      0.00000
      0.00000      0.00000      0.00000
      0.00000      0.00000      0.00000
      0.00000      0.00000      0.00000
      0.00000      0.00000      0.00000
      0.12832     -0.10307      0.54499
      0.14942     -0.08230      0.65818
      0.10699     -0.12402      0.43186

 NEB: forces: par spring, perp REAL, dneb     0.026281    0.014846    0.000000
 NEB: distance to prev, next image, angle between     0.977723    0.972466  176.838459
 NEB: projections on to tangent (spring, REAL)    -0.026281   -0.005466

 stress matrix after NEB project (eV)
    -13.29181     -0.19790      0.03348
     -0.19790    -12.95981     -0.04560
      0.03348     -0.04560     -3.70638
 after stress write
 before force*Free
 force:   1.664280362114291E-004  1.908710049193886E-004  2.602735567372867E-006
  0.000000000000000E+000  0.000000000000000E+000  0.000000000000000E+000
 -8.170513316813102E-006  1.018488533086204E-004  6.047946111180426E-005
  9.907870185668304E-005  1.118624909864623E-004  8.733770027199879E-005
  0.000000000000000E+000  0.000000000000000E+000  0.000000000000000E+000
  4.169967694807059E-005  4.806432333410253E-005  2.490150229513378E-004
  1.426535442275970E-004  2.006079283158525E-004  2.786253129309736E-004
  0.000000000000000E+000  0.000000000000000E+000  0.000000000000000E+000
 -1.265459980949248E-005  5.270990294594718E-005  2.290174871023378E-004
 -7.037938945978095E-005  5.278348562790283E-004 -5.147928409247853E-004
  0.000000000000000E+000  0.000000000000000E+000  0.000000000000000E+000
  3.390869695795028E-004 -2.667957833546402E-004  6.215054375969674E-004
  1.635644923651263E-004  2.419190993083059E-004 -1.107960865009444E-005
  0.000000000000000E+000  0.000000000000000E+000  0.000000000000000E+000
  2.017194765818209E-004 -6.690427053567924E-004  2.899044834871449E-004
  1.552405277158583E-004  1.740226508442429E-004  3.510923486249233E-005
  0.000000000000000E+000  0.000000000000000E+000  0.000000000000000E+000
  2.492730866128746E-005  8.685983988786943E-005  1.809700002806031E-004
 -1.282457171397202E-004  3.217627317914459E-004  8.848172346874656E-005
  0.000000000000000E+000  0.000000000000000E+000  0.000000000000000E+000
  2.355518735735908E-004  4.656293585986520E-004  2.421145686869283E-004
  1.420585159107453E-004  2.825436948039131E-004 -2.993007656722174E-005
  0.000000000000000E+000  0.000000000000000E+000  0.000000000000000E+000
  7.923297124694133E-005  1.273313583259322E-004  2.109879931710424E-004
  9.349941745325907E-005  2.272271027645003E-004  1.372449207123036E-004
  0.000000000000000E+000  0.000000000000000E+000  0.000000000000000E+000
  5.356243695533173E-005  9.121015027610275E-005  1.783080522577495E-004
  0.000000000000000E+000  0.000000000000000E+000  0.000000000000000E+000
  0.000000000000000E+000  0.000000000000000E+000  0.000000000000000E+000
  0.000000000000000E+000  0.000000000000000E+000  0.000000000000000E+000
  0.000000000000000E+000  0.000000000000000E+000  0.000000000000000E+000
  0.000000000000000E+000  0.000000000000000E+000  0.000000000000000E+000
  0.000000000000000E+000  0.000000000000000E+000  0.000000000000000E+000
  0.000000000000000E+000  0.000000000000000E+000  0.000000000000000E+000
  0.000000000000000E+000  0.000000000000000E+000  0.000000000000000E+000
  0.000000000000000E+000  0.000000000000000E+000  0.000000000000000E+000
 -7.431483742388516E-003  1.317878541672628E-002 -1.618284960271725E-002
 -1.621016620873707E-003 -4.071029787204334E-003 -1.712116293318796E-002
  1.346260769172134E-003 -1.634119088727628E-003 -1.002515273124111E-002
 A:    8.30990028380000       0.000000000000000E+000  0.000000000000000E+000
  -4.15495014190000        7.19658474870000       0.000000000000000E+000
  0.000000000000000E+000  0.000000000000000E+000   16.5235004425000     
 B:   0.120338387447258       6.947740038638753E-002  0.000000000000000E+000
  0.000000000000000E+000  0.138954800772775       0.000000000000000E+000
  0.000000000000000E+000  0.000000000000000E+000  6.051986402517384E-002
 force:   3.328890273463367E-005  2.652244246187301E-005  1.575172026308896E-007
  0.000000000000000E+000  0.000000000000000E+000  0.000000000000000E+000
  6.092967163055838E-006  1.415238712043494E-005  3.660208762802183E-006
  1.969488628628595E-005  1.554383014897021E-005  5.285665744732755E-006
  0.000000000000000E+000  0.000000000000000E+000  0.000000000000000E+000
  8.357456117586624E-006  6.678768473168460E-006  1.507035532924051E-005
  3.110441483226928E-005  2.787543471256843E-005  1.686236605255403E-005
  0.000000000000000E+000  0.000000000000000E+000  0.000000000000000E+000
  2.139312896438502E-006  7.324294062606400E-006  1.386010717882049E-005
  2.820325141047681E-005  7.334518729517873E-005 -3.115519273390096E-005
  0.000000000000000E+000  0.000000000000000E+000  0.000000000000000E+000
  2.226890166204441E-005 -3.707255492306049E-005  3.761342457427463E-005
  3.649099737860598E-005  3.361582024751482E-005 -6.705364089558556E-007
  0.000000000000000E+000  0.000000000000000E+000  0.000000000000000E+000
 -2.220875138710461E-005 -9.296669583133154E-005  1.754497992093026E-005
  3.077203616079367E-005  2.418128277801197E-005  2.124806119905929E-006
  0.000000000000000E+000  0.000000000000000E+000  0.000000000000000E+000
  9.034508001086409E-006  1.206959174677404E-005  1.095227980961777E-005
  6.922355348481064E-006  4.471047629218422E-005  5.354901873041575E-006
  0.000000000000000E+000  0.000000000000000E+000  0.000000000000000E+000
  6.069665000504156E-005  6.470143475803071E-005  1.465274077544651E-005
  3.672549413839043E-005  3.926080282108151E-005 -1.811364164111302E-006
  0.000000000000000E+000  0.000000000000000E+000  0.000000000000000E+000
  1.838141975666522E-005  1.769330352830675E-005  1.276896465765579E-005
  2.703871752099118E-005  3.157429679481602E-005  8.306043939654376E-006
  0.000000000000000E+000  0.000000000000000E+000  0.000000000000000E+000
  1.278266142098538E-005  1.267408826007073E-005  1.079117907723259E-005
  0.000000000000000E+000  0.000000000000000E+000  0.000000000000000E+000
  0.000000000000000E+000  0.000000000000000E+000  0.000000000000000E+000
  0.000000000000000E+000  0.000000000000000E+000  0.000000000000000E+000
  0.000000000000000E+000  0.000000000000000E+000  0.000000000000000E+000
  0.000000000000000E+000  0.000000000000000E+000  0.000000000000000E+000
  0.000000000000000E+000  0.000000000000000E+000  0.000000000000000E+000
  0.000000000000000E+000  0.000000000000000E+000  0.000000000000000E+000
  0.000000000000000E+000  0.000000000000000E+000  0.000000000000000E+000
  0.000000000000000E+000  0.000000000000000E+000  0.000000000000000E+000
  2.133498110463213E-005  1.831255502008354E-003 -9.793838574962866E-004
 -4.779150926916500E-004 -5.656891330210111E-004 -1.036170452669382E-003
  4.847250383911105E-005 -2.270686924131363E-004 -6.067208801263124E-004
 Free:    1.00000000000000        1.00000000000000        1.00000000000000     
  0.000000000000000E+000  0.000000000000000E+000  0.000000000000000E+000
   1.00000000000000        1.00000000000000        1.00000000000000     
   1.00000000000000        1.00000000000000        1.00000000000000     
  0.000000000000000E+000  0.000000000000000E+000  0.000000000000000E+000
   1.00000000000000        1.00000000000000        1.00000000000000     
   1.00000000000000        1.00000000000000        1.00000000000000     
  0.000000000000000E+000  0.000000000000000E+000  0.000000000000000E+000
   1.00000000000000        1.00000000000000        1.00000000000000     
   1.00000000000000        1.00000000000000        1.00000000000000     
  0.000000000000000E+000  0.000000000000000E+000  0.000000000000000E+000
   1.00000000000000        1.00000000000000        1.00000000000000     
   1.00000000000000        1.00000000000000        1.00000000000000     
  0.000000000000000E+000  0.000000000000000E+000  0.000000000000000E+000
   1.00000000000000        1.00000000000000        1.00000000000000     
   1.00000000000000        1.00000000000000        1.00000000000000     
  0.000000000000000E+000  0.000000000000000E+000  0.000000000000000E+000
   1.00000000000000        1.00000000000000        1.00000000000000     
   1.00000000000000        1.00000000000000        1.00000000000000     
  0.000000000000000E+000  0.000000000000000E+000  0.000000000000000E+000
   1.00000000000000        1.00000000000000        1.00000000000000     
   1.00000000000000        1.00000000000000        1.00000000000000     
  0.000000000000000E+000  0.000000000000000E+000  0.000000000000000E+000
   1.00000000000000        1.00000000000000        1.00000000000000     
   1.00000000000000        1.00000000000000        1.00000000000000     
  0.000000000000000E+000  0.000000000000000E+000  0.000000000000000E+000
   1.00000000000000        1.00000000000000        1.00000000000000     
  0.000000000000000E+000  0.000000000000000E+000  0.000000000000000E+000
  0.000000000000000E+000  0.000000000000000E+000  0.000000000000000E+000
  0.000000000000000E+000  0.000000000000000E+000  0.000000000000000E+000
  0.000000000000000E+000  0.000000000000000E+000  0.000000000000000E+000
  0.000000000000000E+000  0.000000000000000E+000  0.000000000000000E+000
  0.000000000000000E+000  0.000000000000000E+000  0.000000000000000E+000
  0.000000000000000E+000  0.000000000000000E+000  0.000000000000000E+000
  0.000000000000000E+000  0.000000000000000E+000  0.000000000000000E+000
  0.000000000000000E+000  0.000000000000000E+000  0.000000000000000E+000
   1.00000000000000        1.00000000000000        1.00000000000000     
   1.00000000000000        1.00000000000000        1.00000000000000     
   1.00000000000000        1.00000000000000        1.00000000000000     
 force:   3.328890273463367E-005  2.652244246187301E-005  1.575172026308896E-007
  0.000000000000000E+000  0.000000000000000E+000  0.000000000000000E+000
  6.092967163055838E-006  1.415238712043494E-005  3.660208762802183E-006
  1.969488628628595E-005  1.554383014897021E-005  5.285665744732755E-006
  0.000000000000000E+000  0.000000000000000E+000  0.000000000000000E+000
  8.357456117586624E-006  6.678768473168460E-006  1.507035532924051E-005
  3.110441483226928E-005  2.787543471256843E-005  1.686236605255403E-005
  0.000000000000000E+000  0.000000000000000E+000  0.000000000000000E+000
  2.139312896438502E-006  7.324294062606400E-006  1.386010717882049E-005
  2.820325141047681E-005  7.334518729517873E-005 -3.115519273390096E-005
  0.000000000000000E+000  0.000000000000000E+000  0.000000000000000E+000
  2.226890166204441E-005 -3.707255492306049E-005  3.761342457427463E-005
  3.649099737860598E-005  3.361582024751482E-005 -6.705364089558556E-007
  0.000000000000000E+000  0.000000000000000E+000  0.000000000000000E+000
 -2.220875138710461E-005 -9.296669583133154E-005  1.754497992093026E-005
  3.077203616079367E-005  2.418128277801197E-005  2.124806119905929E-006
  0.000000000000000E+000  0.000000000000000E+000  0.000000000000000E+000
  9.034508001086409E-006  1.206959174677404E-005  1.095227980961777E-005
  6.922355348481064E-006  4.471047629218422E-005  5.354901873041575E-006
  0.000000000000000E+000  0.000000000000000E+000  0.000000000000000E+000
  6.069665000504156E-005  6.470143475803071E-005  1.465274077544651E-005
  3.672549413839043E-005  3.926080282108151E-005 -1.811364164111302E-006
  0.000000000000000E+000  0.000000000000000E+000  0.000000000000000E+000
  1.838141975666522E-005  1.769330352830675E-005  1.276896465765579E-005
  2.703871752099118E-005  3.157429679481602E-005  8.306043939654376E-006
  0.000000000000000E+000  0.000000000000000E+000  0.000000000000000E+000
  1.278266142098538E-005  1.267408826007073E-005  1.079117907723259E-005
  0.000000000000000E+000  0.000000000000000E+000  0.000000000000000E+000
  0.000000000000000E+000  0.000000000000000E+000  0.000000000000000E+000
  0.000000000000000E+000  0.000000000000000E+000  0.000000000000000E+000
  0.000000000000000E+000  0.000000000000000E+000  0.000000000000000E+000
  0.000000000000000E+000  0.000000000000000E+000  0.000000000000000E+000
  0.000000000000000E+000  0.000000000000000E+000  0.000000000000000E+000
  0.000000000000000E+000  0.000000000000000E+000  0.000000000000000E+000
  0.000000000000000E+000  0.000000000000000E+000  0.000000000000000E+000
  0.000000000000000E+000  0.000000000000000E+000  0.000000000000000E+000
  2.133498110463213E-005  1.831255502008354E-003 -9.793838574962866E-004
 -4.779150926916500E-004 -5.656891330210111E-004 -1.036170452669382E-003
  4.847250383911105E-005 -2.270686924131363E-004 -6.067208801263124E-004
 after force*Free
  1.664280362114291E-004  1.908710049193886E-004  2.602735567372867E-006
  0.000000000000000E+000  0.000000000000000E+000  0.000000000000000E+000
 -8.170513316813099E-006  1.018488533086204E-004  6.047946111180425E-005
  9.907870185668303E-005  1.118624909864623E-004  8.733770027199878E-005
  0.000000000000000E+000  0.000000000000000E+000  0.000000000000000E+000
  4.169967694807059E-005  4.806432333410253E-005  2.490150229513378E-004
  1.426535442275970E-004  2.006079283158525E-004  2.786253129309736E-004
  0.000000000000000E+000  0.000000000000000E+000  0.000000000000000E+000
 -1.265459980949247E-005  5.270990294594718E-005  2.290174871023378E-004
 -7.037938945978091E-005  5.278348562790283E-004 -5.147928409247853E-004
  0.000000000000000E+000  0.000000000000000E+000  0.000000000000000E+000
  3.390869695795028E-004 -2.667957833546402E-004  6.215054375969673E-004
  1.635644923651263E-004  2.419190993083059E-004 -1.107960865009444E-005
  0.000000000000000E+000  0.000000000000000E+000  0.000000000000000E+000
  2.017194765818209E-004 -6.690427053567924E-004  2.899044834871448E-004
  1.552405277158583E-004  1.740226508442429E-004  3.510923486249232E-005
  0.000000000000000E+000  0.000000000000000E+000  0.000000000000000E+000
  2.492730866128747E-005  8.685983988786943E-005  1.809700002806031E-004
 -1.282457171397202E-004  3.217627317914459E-004  8.848172346874656E-005
  0.000000000000000E+000  0.000000000000000E+000  0.000000000000000E+000
  2.355518735735908E-004  4.656293585986519E-004  2.421145686869282E-004
  1.420585159107453E-004  2.825436948039131E-004 -2.993007656722174E-005
  0.000000000000000E+000  0.000000000000000E+000  0.000000000000000E+000
  7.923297124694130E-005  1.273313583259322E-004  2.109879931710423E-004
  9.349941745325909E-005  2.272271027645003E-004  1.372449207123035E-004
  0.000000000000000E+000  0.000000000000000E+000  0.000000000000000E+000
  5.356243695533173E-005  9.121015027610275E-005  1.783080522577494E-004
  0.000000000000000E+000  0.000000000000000E+000  0.000000000000000E+000
  0.000000000000000E+000  0.000000000000000E+000  0.000000000000000E+000
  0.000000000000000E+000  0.000000000000000E+000  0.000000000000000E+000
  0.000000000000000E+000  0.000000000000000E+000  0.000000000000000E+000
  0.000000000000000E+000  0.000000000000000E+000  0.000000000000000E+000
  0.000000000000000E+000  0.000000000000000E+000  0.000000000000000E+000
  0.000000000000000E+000  0.000000000000000E+000  0.000000000000000E+000
  0.000000000000000E+000  0.000000000000000E+000  0.000000000000000E+000
  0.000000000000000E+000  0.000000000000000E+000  0.000000000000000E+000
 -7.431483742388516E-003  1.317878541672628E-002 -1.618284960271725E-002
 -1.621016620873707E-003 -4.071029787204334E-003 -1.712116293318796E-002
  1.346260769172134E-003 -1.634119088727628E-003 -1.002515273124111E-002
 before force check
 after force check
 before ML stuff 
  FORCES: max atom, RMS     0.022154    0.004833
  FORCE total and by dimension    0.030185    0.017121
 into some ML stuff
  Stress total and by dimension   18.932793   13.291805
 
 OPT: Flag T
 OPT: QM Step
 another before ML stuff


--------------------------------------------------------------------------------------------------------


      MLFF:  cpu time      2.1643: real time      2.1769
    WAVPRE:  cpu time      0.0227: real time      0.0228
    FEWALD:  cpu time      0.0061: real time      0.0062

 real space projection operators:
  total allocation   :       9691.20 KBytes
  max/ min on nodes  :       1709.03       1432.17

