<?xml version="1.0" encoding="ISO-8859-1"?>
<modeling>
 <generator>
  <i name="program" type="string">vasp </i>
  <i name="version" type="string">6.5.1  </i>
  <i name="subversion" type="string">10Mar25 (build Apr 25 2025 15:31:43) complex                          parallel </i>
  <i name="platform" type="string">LinuxIFC </i>
  <i name="date" type="string">2025 12 08 </i>
  <i name="time" type="string">14:54:14 </i>
 </generator>
 <incar>
  <i type="string" name="SYSTEM">PBE-grap</i>
  <i type="int" name="ISTART">     0</i>
  <i type="string" name="PREC">Normal   low | medium | high</i>
  <i type="int" name="IALGO">    38</i>
  <i type="int" name="ICHARG">     2</i>
  <i type="int" name="INIWAV">     1</i>
  <i type="int" name="NELM">   150</i>
  <i type="int" name="NELMDL">    -5</i>
  <i type="int" name="NELMIN">     4</i>
  <i type="int" name="IBRION">     3</i>
  <i name="EDIFF">      0.00001000</i>
  <i name="EDIFFG">     -0.02600000</i>
  <i type="int" name="NSW">  1000</i>
  <i type="int" name="ISIF">     2</i>
  <i type="int" name="ISYM">     0</i>
  <i name="ENCUT">    370.00000000</i>
  <i name="POTIM">      0.00000000</i>
  <i type="string" name="LREAL">AUTO   real-space projection (.FALSE., .TRUE., On, Auto)</i>
  <i type="logical" name="LPLANE"> T  </i>
  <i type="int" name="ISMEAR">     0</i>
  <i name="SIGMA">      0.41000000</i>
  <i type="int" name="NWRITE">     0</i>
  <i type="logical" name="LWAVE"> F  </i>
  <i type="logical" name="LCHARG"> F  </i>
  <i type="logical" name="LVTOT"> F  </i>
  <i type="string" name="GGA">PE</i>
  <i name="SPRING">     -5.00000000</i>
 </incar>
 <primitive_cell>
  <structure name="primitive_cell" >
   <crystal>
    <varray name="basis" >
     <v>       8.30990028       0.00000000       0.00000000 </v>
     <v>      -4.15495014       7.19658475       0.00000000 </v>
     <v>       0.00000000       0.00000000      16.52350044 </v>
    </varray>
    <i name="volume">    988.15327180 </i>
    <varray name="rec_basis" >
     <v>       0.12033839       0.06947740       0.00000000 </v>
     <v>       0.00000000       0.13895480       0.00000000 </v>
     <v>       0.00000000       0.00000000       0.06051986 </v>
    </varray>
   </crystal>
   <varray name="positions" >
    <v>       0.99958724       0.00038505       0.43746442 </v>
    <v>       0.11093000       0.22330000       0.16024000 </v>
    <v>       0.22193943       0.11227143       0.29860637 </v>
    <v>       0.33299188       0.00071973       0.43727070 </v>
    <v>       0.44426000       0.22330000       0.16024000 </v>
    <v>       0.55512462       0.11196283       0.29824537 </v>
    <v>       0.66626598       0.00074429       0.43689422 </v>
    <v>       0.77760000       0.22330000       0.16024000 </v>
    <v>       0.88867244       0.11203663       0.29843604 </v>
    <v>       0.99905034       0.33381572       0.43732892 </v>
    <v>       0.11093000       0.55664000       0.16024000 </v>
    <v>       0.22192146       0.44528102       0.29851594 </v>
    <v>       0.33281158       0.33381157       0.43831641 </v>
    <v>       0.44426000       0.55664000       0.16024000 </v>
    <v>       0.55482353       0.44521081       0.29842882 </v>
    <v>       0.66607854       0.33404333       0.43680195 </v>
    <v>       0.77760000       0.55664000       0.16024000 </v>
    <v>       0.88853716       0.44527458       0.29823490 </v>
    <v>       0.99938527       0.66725357       0.43676159 </v>
    <v>       0.11093000       0.88997000       0.16024000 </v>
    <v>       0.22197132       0.77873103       0.29830042 </v>
    <v>       0.33325559       0.66776000       0.43717889 </v>
    <v>       0.44426000       0.88997000       0.16024000 </v>
    <v>       0.55506811       0.77858817       0.29826125 </v>
    <v>       0.66632395       0.66739574       0.43683058 </v>
    <v>       0.77760000       0.88997000       0.16024000 </v>
    <v>       0.88857887       0.77882115       0.29821780 </v>
    <v>       0.99982000       0.00108000       0.02337000 </v>
    <v>       0.33315000       0.00108000       0.02337000 </v>
    <v>       0.66649000       0.00108000       0.02337000 </v>
    <v>       0.99982000       0.33441000       0.02337000 </v>
    <v>       0.33315000       0.33441000       0.02337000 </v>
    <v>       0.66649000       0.33441000       0.02337000 </v>
    <v>       0.99982000       0.66775000       0.02337000 </v>
    <v>       0.33315000       0.66775000       0.02337000 </v>
    <v>       0.66649000       0.66775000       0.02337000 </v>
    <v>       0.24742209       0.13312914       0.70652210 </v>
    <v>       0.26399588       0.28162971       0.69974087 </v>
    <v>       0.22986250       0.98451007       0.71496310 </v>
   </varray>
  </structure>
  <varray name="primitive_index" >
   <v type="int" >        1 </v>
   <v type="int" >        2 </v>
   <v type="int" >        3 </v>
   <v type="int" >        4 </v>
   <v type="int" >        5 </v>
   <v type="int" >        6 </v>
   <v type="int" >        7 </v>
   <v type="int" >        8 </v>
   <v type="int" >        9 </v>
   <v type="int" >       10 </v>
   <v type="int" >       11 </v>
   <v type="int" >       12 </v>
   <v type="int" >       13 </v>
   <v type="int" >       14 </v>
   <v type="int" >       15 </v>
   <v type="int" >       16 </v>
   <v type="int" >       17 </v>
   <v type="int" >       18 </v>
   <v type="int" >       19 </v>
   <v type="int" >       20 </v>
   <v type="int" >       21 </v>
   <v type="int" >       22 </v>
   <v type="int" >       23 </v>
   <v type="int" >       24 </v>
   <v type="int" >       25 </v>
   <v type="int" >       26 </v>
   <v type="int" >       27 </v>
   <v type="int" >       28 </v>
   <v type="int" >       29 </v>
   <v type="int" >       30 </v>
   <v type="int" >       31 </v>
   <v type="int" >       32 </v>
   <v type="int" >       33 </v>
   <v type="int" >       34 </v>
   <v type="int" >       35 </v>
   <v type="int" >       36 </v>
   <v type="int" >       37 </v>
   <v type="int" >       38 </v>
   <v type="int" >       39 </v>
  </varray>
 </primitive_cell>
 <kpoints>
  <generation param="Monkhorst-Pack">
   <v type="int" name="divisions">       4        4        1 </v>
   <v name="usershift">      0.00000000       0.00000000       0.00000000 </v>
   <v name="genvec1">      0.25000000       0.00000000       0.00000000 </v>
   <v name="genvec2">      0.00000000       0.25000000       0.00000000 </v>
   <v name="genvec3">      0.00000000       0.00000000       1.00000000 </v>
   <v name="shift">      0.50000000       0.50000000       0.00000000 </v>
  </generation>
  <varray name="kpointlist" >
   <v>       0.12500000       0.12500000       0.00000000 </v>
   <v>      -0.12500000       0.25000000       0.00000000 </v>
   <v>      -0.25000000       0.12500000       0.00000000 </v>
   <v>       0.37500000       0.12500000       0.00000000 </v>
   <v>      -0.12500000       0.50000000       0.00000000 </v>
   <v>       0.50000000       0.37500000       0.00000000 </v>
   <v>      -0.37500000       0.50000000       0.00000000 </v>
   <v>       0.12500000       0.37500000       0.00000000 </v>
   <v>       0.50000000      -0.12500000       0.00000000 </v>
   <v>      -0.37500000       0.12500000       0.00000000 </v>
   <v>      -0.12500000      -0.25000000       0.00000000 </v>
   <v>       0.25000000      -0.37500000       0.00000000 </v>
   <v>       0.37500000      -0.25000000       0.00000000 </v>
   <v>       0.12500000      -0.37500000       0.00000000 </v>
   <v>      -0.25000000      -0.12500000       0.00000000 </v>
   <v>      -0.12500000       0.12500000       0.00000000 </v>
   <v>      -0.12500000       0.00000000       0.00000000 </v>
   <v>       0.00000000      -0.12500000       0.00000000 </v>
   <v>       0.37500000       0.37500000       0.00000000 </v>
   <v>      -0.37500000      -0.25000000       0.00000000 </v>
   <v>       0.25000000       0.37500000       0.00000000 </v>
   <v>      -0.37500000       0.37500000       0.00000000 </v>
   <v>      -0.37500000       0.00000000       0.00000000 </v>
   <v>       0.00000000      -0.37500000       0.00000000 </v>
  </varray>
  <varray name="weights" >
   <v>       0.04166667 </v>
   <v>       0.04166667 </v>
   <v>       0.04166667 </v>
   <v>       0.04166667 </v>
   <v>       0.04166667 </v>
   <v>       0.04166667 </v>
   <v>       0.04166667 </v>
   <v>       0.04166667 </v>
   <v>       0.04166667 </v>
   <v>       0.04166667 </v>
   <v>       0.04166667 </v>
   <v>       0.04166667 </v>
   <v>       0.04166667 </v>
   <v>       0.04166667 </v>
   <v>       0.04166667 </v>
   <v>       0.04166667 </v>
   <v>       0.04166667 </v>
   <v>       0.04166667 </v>
   <v>       0.04166667 </v>
   <v>       0.04166667 </v>
   <v>       0.04166667 </v>
   <v>       0.04166667 </v>
   <v>       0.04166667 </v>
   <v>       0.04166667 </v>
  </varray>
 </kpoints>
 <parameters>
  <separator name="general" >
   <i type="string" name="SYSTEM">PBE-grap</i>
   <i type="logical" name="LCOMPAT"> F  </i>
  </separator>
  <separator name="electronic" >
   <i type="string" name="PREC">normal</i>
   <i name="ENMAX">    370.00000000</i>
   <i name="ENAUG">    644.87300000</i>
   <i name="EDIFF">      0.00001000</i>
   <i type="int" name="IALGO">    38</i>
   <i type="int" name="IWAVPR">    11</i>
   <i type="int" name="NBANDS">   228</i>
   <i type="int" name="NBANDSLOW">    -1</i>
   <i type="int" name="NBANDSHIGH">    -1</i>
   <i name="NELECT">    376.00000000</i>
   <i type="int" name="TURBO">     0</i>
   <i type="int" name="IRESTART">     0</i>
   <i type="int" name="NREBOOT">     0</i>
   <i type="int" name="NMIN">     0</i>
   <i name="EREF">      0.00000000</i>
   <separator name="electronic smearing" >
    <i type="int" name="ISMEAR">     0</i>
    <i name="SIGMA">      0.41000000</i>
    <i name="KSPACING">      0.50000000</i>
    <i type="logical" name="KGAMMA"> T  </i>
    <i type="logical" name="KBLOWUP"> T  </i>
   </separator>
   <separator name="electronic projectors" >
    <i type="logical" name="LREAL"> T  </i>
    <v name="ROPT">     -0.00050000     -0.00050000     -0.00050000</v>
    <i type="int" name="LMAXPAW">  -100</i>
    <i type="int" name="LMAXMIX">     2</i>
    <i type="logical" name="NLSPLINE"> F  </i>
   </separator>
   <separator name="electronic startup" >
    <i type="int" name="ISTART">     0</i>
    <i type="int" name="ICHARG">     2</i>
    <i type="int" name="INIWAV">     1</i>
   </separator>
   <separator name="electronic spin" >
    <i type="int" name="ISPIN">     1</i>
    <i type="logical" name="LNONCOLLINEAR"> F  </i>
    <v name="MAGMOM">      1.00000000      1.00000000      1.00000000      1.00000000      1.00000000      1.00000000      1.00000000      1.00000000      1.00000000      1.00000000      1.00000000      1.00000000      1.00000000      1.00000000      1.00000000      1.00000000      1.00000000      1.00000000      1.00000000      1.00000000
      1.00000000      1.00000000      1.00000000      1.00000000      1.00000000      1.00000000      1.00000000      1.00000000      1.00000000      1.00000000      1.00000000      1.00000000      1.00000000      1.00000000      1.00000000      1.00000000      1.00000000      1.00000000      1.00000000</v>
    <i name="NUPDOWN">     -1.00000000</i>
    <i type="logical" name="LSORBIT"> F  </i>
    <v name="SAXIS">      0.00000000      0.00000000      1.00000000</v>
    <i type="logical" name="LSPIRAL"> F  </i>
    <v name="QSPIRAL">      0.00000000      0.00000000      0.00000000</v>
    <i type="logical" name="LZEROZ"> F  </i>
   </separator>
   <separator name="electronic exchange-correlation" >
    <i type="logical" name="LASPH"> F  </i>
   </separator>
   <separator name="electronic convergence" >
    <i type="int" name="NELM">   150</i>
    <i type="int" name="NELMDL">    -5</i>
    <i type="int" name="NELMIN">     4</i>
    <i name="ENINI">    370.00000000</i>
    <separator name="electronic convergence detail" >
     <i type="logical" name="LDIAG"> T  </i>
     <i type="logical" name="LSUBROT"> F  </i>
     <i type="logical" name="LROBUST"> F  </i>
     <i type="int" name="ISEARCH">     0</i>
     <i name="WEIMIN">      0.00100000</i>
     <i name="EBREAK">      0.00000001</i>
     <i name="DEPER">      0.30000000</i>
     <i type="int" name="NRMM">     4</i>
     <i name="TIME">      0.40000000</i>
    </separator>
   </separator>
   <separator name="electronic mixer" >
    <i name="AMIX">      0.40000000</i>
    <i name="BMIX">      1.00000000</i>
    <i name="AMIN">      0.10000000</i>
    <i name="AMIX_MAG">      1.60000000</i>
    <i name="BMIX_MAG">      1.00000000</i>
    <separator name="electronic mixer details" >
     <i type="int" name="IMIX">     4</i>
     <i type="logical" name="MIXFIRST"> F  </i>
     <i type="int" name="MAXMIX">   -45</i>
     <i name="WC">    100.00000000</i>
     <i type="int" name="INIMIX">     1</i>
     <i type="int" name="MIXPRE">     1</i>
     <i type="int" name="MREMOVE">     5</i>
    </separator>
   </separator>
   <separator name="electronic dipolcorrection" >
    <i type="logical" name="LDIPOL"> F  </i>
    <i type="logical" name="LMONO"> F  </i>
    <i type="int" name="IDIPOL">     0</i>
    <i name="EPSILON">      1.00000000</i>
    <v name="DIPOL">   -100.00000000   -100.00000000   -100.00000000</v>
    <i name="EFIELD">      0.00000000</i>
    <i type="logical" name="LVACPOTAV"> F  </i>
   </separator>
  </separator>
  <separator name="grids" >
   <i type="int" name="NGX">    40</i>
   <i type="int" name="NGY">    40</i>
   <i type="int" name="NGZ">    80</i>
   <i type="int" name="NGXF">    80</i>
   <i type="int" name="NGYF">    80</i>
   <i type="int" name="NGZF">   160</i>
   <i type="logical" name="ADDGRID"> F  </i>
  </separator>
  <separator name="ionic" >
   <i type="int" name="NSW">  1000</i>
   <i type="int" name="IBRION">     3</i>
   <i type="int" name="MDALGO">     0</i>
   <i type="int" name="ISIF">     2</i>
   <i name="PSTRESS">      0.00000000</i>
   <i name="EDIFFG">     -0.02600000</i>
   <i type="int" name="NFREE">     0</i>
   <i name="POTIM">      0.00000000</i>
   <i name="SMASS">     -3.00000000</i>
   <i name="SCALEE">      1.00000000</i>
  </separator>
  <separator name="ionic md" >
   <i name="TEBEG">      0.00010000</i>
   <i name="TEEND">      0.00010000</i>
   <i type="int" name="NBLOCK">     1</i>
   <i type="int" name="KBLOCK">  1000</i>
   <i type="int" name="NPACO">   256</i>
   <i name="APACO">     10.00000000</i>
  </separator>
  <separator name="symmetry" >
   <i type="int" name="ISYM">     0</i>
   <i name="SYMPREC">      0.00001000</i>
  </separator>
  <separator name="dos" >
   <i type="int" name="LORBIT">     0</i>
   <v name="RWIGS">     -1.00000000     -1.00000000     -1.00000000</v>
   <i type="int" name="NEDOS">   301</i>
   <i name="EMIN">     10.00000000</i>
   <i name="EMAX">    -10.00000000</i>
   <i name="EFERMI">      0.00000000</i>
  </separator>
  <separator name="writing" >
   <i type="int" name="NWRITE">     0</i>
   <i type="logical" name="LWAVE"> F  </i>
   <i type="logical" name="LDOWNSAMPLE"> F  </i>
   <i type="logical" name="LCHARG"> F  </i>
   <i type="logical" name="LPARD"> F  </i>
   <i type="logical" name="LVTOT"> F  </i>
   <i type="logical" name="LVHAR"> F  </i>
   <i type="logical" name="LELF"> F  </i>
   <i type="logical" name="LOPTICS"> F  </i>
   <v name="STM">      0.00000000      0.00000000      0.00000000      0.00000000      0.00000000      0.00000000      0.00000000</v>
  </separator>
  <separator name="performance" >
   <i type="int" name="NPAR">     4</i>
   <i type="int" name="NSIM">     4</i>
   <i type="int" name="NBLK">    -1</i>
   <i type="logical" name="LPLANE"> T  </i>
   <i type="logical" name="LSCALAPACK"> T  </i>
   <i type="logical" name="LSCAAWARE"> F  </i>
   <i type="logical" name="LSCALU"> F  </i>
   <i type="logical" name="LASYNC"> F  </i>
   <i type="logical" name="LORBITALREAL"> F  </i>
  </separator>
  <separator name="miscellaneous" >
   <i type="int" name="IDIOT">     3</i>
   <i type="int" name="PHON_NSTRUCT">    -1</i>
   <i type="logical" name="LMUSIC"> F  </i>
   <v name="POMASS">    106.42000000     12.01100000     16.00000000</v>
   <v name="DARWINR">      0.00000000      0.00000000      0.00000000</v>
   <v name="DARWINV">      1.00000000      1.00000000      1.00000000</v>
   <i type="logical" name="LCORR"> T  </i>
  </separator>
  <i type="logical" name="GGA_COMPAT"> T  </i>
  <i type="logical" name="LBERRY"> F  </i>
  <i type="int" name="ICORELEVEL">     0</i>
  <i type="logical" name="LDAU"> F  </i>
  <i type="int" name="I_CONSTRAINED_M">     0</i>
  <separator name="electronic exchange-correlation" >
   <i type="string" name="GGA    ">PE</i>
   <i type="string" name="XC_C">1</i>
   <i type="int" name="VOSKOWN">     0</i>
   <i type="logical" name="LHFCALC"> F  </i>
   <i type="string" name="PRECFOCK"></i>
   <i type="logical" name="LSYMGRAD"> F  </i>
   <i type="logical" name="LHFONE"> F  </i>
   <i type="logical" name="LRHFCALC"> F  </i>
   <i type="logical" name="LTHOMAS"> F  </i>
   <i type="logical" name="LMODELHF"> F  </i>
   <i type="logical" name="LFOCKACE"> F  </i>
   <i name="ENCUT4O">     -1.00000000</i>
   <i type="int" name="EXXOEP">     0</i>
   <i type="int" name="FOURORBIT">     0</i>
   <i name="AEXX">      0.00000000</i>
   <i name="HFALPHA">      0.00000000</i>
   <i name="MCALPHA">      0.00000000</i>
   <i name="ALDAX">      1.00000000</i>
   <i name="AGGAX">      1.00000000</i>
   <i name="AMGGAX">      1.00000000</i>
   <i name="ALDAC">      1.00000000</i>
   <i name="AGGAC">      1.00000000</i>
   <i name="AMGGAC">      1.00000000</i>
   <i type="int" name="NKREDX">     1</i>
   <i type="int" name="NKREDY">     1</i>
   <i type="int" name="NKREDZ">     1</i>
   <i type="logical" name="SHIFTRED"> F  </i>
   <i type="logical" name="ODDONLY"> F  </i>
   <i type="logical" name="EVENONLY"> F  </i>
   <i type="int" name="LMAXFOCK">     0</i>
   <i type="int" name="NMAXFOCKAE">     0</i>
   <i type="logical" name="LFOCKAEDFT"> F  </i>
   <i name="HFSCREEN">      0.00000000</i>
   <i name="HFSCREENC">      0.00000000</i>
   <i type="int" name="NBANDSGWLOW">     0</i>
  </separator>
  <separator name="vdW DFT" >
   <i type="logical" name="LUSE_VDW"> F  </i>
   <i type="int" name="IVDW_NL">    -1</i>
   <i type="logical" name="LSPIN_VDW"> F  </i>
   <i name="ZAB_VDW">     -0.84910000</i>
   <i name="GAMMA_VDW">      1.39626340</i>
   <i name="ALPHA_VDW">      0.00000000</i>
   <i name="PARAM1">      0.12340000</i>
   <i name="PARAM2">      1.00000000</i>
   <i name="BPARAM">      6.30000000</i>
   <i name="CPARAM">      0.00930000</i>
  </separator>
  <separator name="model GW" >
   <i type="int" name="MODEL_GW">     0</i>
   <i name="MODEL_EPS0">     15.20235803</i>
   <i name="MODEL_ALPHA">      1.00000000</i>
  </separator>
  <separator name="linear response parameters" >
   <i type="logical" name="LEPSILON"> F  </i>
   <i type="logical" name="LRPA"> F  </i>
   <i type="logical" name="LNABLA"> F  </i>
   <i type="logical" name="LVEL"> F  </i>
   <i name="CSHIFT">      0.10000000</i>
   <i name="OMEGAMAX">     -1.00000000</i>
   <i name="DEG_THRESHOLD">      0.00200000</i>
   <i name="RTIME">     -0.10000000</i>
   <i name="WPLASMAI">      0.00000000</i>
   <v name="DFIELD">      0.00000000      0.00000000      0.00000000</v>
   <v name="WPLASMA">      0.00000000      0.00000000      0.00000000      0.00000000      0.00000000      0.00000000      0.00000000      0.00000000      0.00000000</v>
  </separator>
  <separator name="orbital magnetization" >
   <i type="logical" name="NUCIND"> F  </i>
   <v name="MAGPOS">      0.00000000      0.00000000      0.00000000</v>
   <i type="logical" name="LNICSALL"> T  </i>
   <i type="logical" name="ORBITALMAG"> F  </i>
   <i type="logical" name="LMAGBLOCH"> F  </i>
   <i type="logical" name="LCHIMAG"> F  </i>
   <i type="logical" name="LGAUGE"> T  </i>
   <i type="int" name="MAGATOM">     0</i>
   <v name="MAGDIPOL">      0.00000000      0.00000000      0.00000000</v>
   <v name="AVECCONST">      0.00000000      0.00000000      0.00000000</v>
  </separator>
  <separator name="response functions" >
   <i type="logical" name="LALL_IN_ONE"> F  </i>
   <i type="int" name="IALL_IN_ONE">    -1</i>
   <i type="int" name="NBANDS_WAVE">    -1</i>
   <i type="logical" name="LFINITE_TEMPERATURE"> F  </i>
   <i type="logical" name="LADDER"> F  </i>
   <i type="logical" name="LRPAFORCE"> F  </i>
   <i type="logical" name="LFXC"> F  </i>
   <i type="logical" name="LHARTREE"> T  </i>
   <i type="int" name="IBSE">     2</i>
   <v type="int" name="KPOINT">    -1     0     0     0</v>
   <i type="logical" name="LTCTC"> F  </i>
   <i type="logical" name="LTCTE"> F  </i>
   <i type="logical" name="LTETE"> F  </i>
   <i type="logical" name="LTRIPLET"> F  </i>
   <i type="logical" name="LFXCEPS"> F  </i>
   <i type="logical" name="LFXHEG"> F  </i>
   <i type="int" name="NATURALO">     2</i>
   <i type="logical" name="LHOLEGF"> F  </i>
   <i type="logical" name="L2ORDER"> F  </i>
   <i type="logical" name="LDMP1"> F  </i>
   <i type="logical" name="LMP2LT"> F  </i>
   <i type="logical" name="LSMP2LT"> F  </i>
   <i type="logical" name="LGWLF"> F  </i>
   <i name="ENCUTGW">     -1.60000002</i>
   <i name="ENCUTGWSOFT">     -1.60000002</i>
   <i name="ENCUTLF">     -1.00000000</i>
   <i type="logical" name="ESF_SPLINES"> F  </i>
   <i name="ESF_CONV">      0.01000000</i>
   <i type="int" name="ESF_NINTER">    15</i>
   <i type="int" name="LMAXMP2">    -1</i>
   <i name="SCISSOR">      0.00000000</i>
   <i type="int" name="NOMEGA">     0</i>
   <i type="int" name="NOMEGAR">     0</i>
   <i type="int" name="NBANDSGW">    -1</i>
   <i type="int" name="NBANDSO">    -1</i>
   <i type="int" name="NBANDSV">    -1</i>
   <i type="int" name="NELMGW">     1</i>
   <i type="int" name="NELMHF">     1</i>
   <i type="int" name="DIM">     3</i>
   <i type="int" name="IESPILON">     4</i>
   <i type="int" name="ANTIRES">     0</i>
   <i name="OMEGAMAX">    -30.00000000</i>
   <i name="OMEGAMIN">    -30.00000000</i>
   <i name="OMEGATL">   -200.00000000</i>
   <i type="int" name="OMEGAGRID">     0</i>
   <i name="CSHIFT">     -0.10000000</i>
   <i type="logical" name="LSELFENERGY"> F  </i>
   <i type="logical" name="LSPECTRAL"> F  </i>
   <i type="logical" name="LSPECTRALGW"> F  </i>
   <i type="logical" name="LSINGLES"> F  </i>
   <i type="logical" name="LFERMIGW"> F  </i>
   <i type="logical" name="ODDONLYGW"> F  </i>
   <i type="logical" name="EVENONLYGW"> F  </i>
   <i type="int" name="NKREDLFX">     1</i>
   <i type="int" name="NKREDLFY">     1</i>
   <i type="int" name="NKREDLFZ">     1</i>
   <i type="int" name="MAXMEM">  2800</i>
   <i type="int" name="TELESCOPE">     0</i>
   <i type="int" name="NTAUPAR">    -1</i>
   <i type="int" name="NOMEGAPAR">    -1</i>
   <i name="DAMP_NEWTON">      0.80000001</i>
   <i name="LAMBDA">      1.00000000</i>
  </separator>
  <separator name="External order field" >
   <i name="OFIELD_KAPPA">      0.00000000</i>
   <v name="OFIELD_K">      0.00000000      0.00000000      0.00000000</v>
   <i name="OFIELD_Q6_NEAR">      0.00000000</i>
   <i name="OFIELD_Q6_FAR">      0.00000000</i>
   <i name="OFIELD_A">      0.00000000</i>
  </separator>
  <separator name="optional k-points parameters" >
   <i type="int" name="KPOINTS_OPT_MODE">     1</i>
   <i type="logical" name="LKPOINTS_OPT"> F  </i>
  </separator>
 </parameters>
 <atominfo>
  <atoms>      39 </atoms>
  <types>       3 </types>
  <array name="atoms" >
   <dimension dim="1">ion</dimension>
   <field type="string">element</field>
   <field type="int">atomtype</field>
   <set>
    <rc><c>Pd</c><c>   1</c></rc>
    <rc><c>Pd</c><c>   1</c></rc>
    <rc><c>Pd</c><c>   1</c></rc>
    <rc><c>Pd</c><c>   1</c></rc>
    <rc><c>Pd</c><c>   1</c></rc>
    <rc><c>Pd</c><c>   1</c></rc>
    <rc><c>Pd</c><c>   1</c></rc>
    <rc><c>Pd</c><c>   1</c></rc>
    <rc><c>Pd</c><c>   1</c></rc>
    <rc><c>Pd</c><c>   1</c></rc>
    <rc><c>Pd</c><c>   1</c></rc>
    <rc><c>Pd</c><c>   1</c></rc>
    <rc><c>Pd</c><c>   1</c></rc>
    <rc><c>Pd</c><c>   1</c></rc>
    <rc><c>Pd</c><c>   1</c></rc>
    <rc><c>Pd</c><c>   1</c></rc>
    <rc><c>Pd</c><c>   1</c></rc>
    <rc><c>Pd</c><c>   1</c></rc>
    <rc><c>Pd</c><c>   1</c></rc>
    <rc><c>Pd</c><c>   1</c></rc>
    <rc><c>Pd</c><c>   1</c></rc>
    <rc><c>Pd</c><c>   1</c></rc>
    <rc><c>Pd</c><c>   1</c></rc>
    <rc><c>Pd</c><c>   1</c></rc>
    <rc><c>Pd</c><c>   1</c></rc>
    <rc><c>Pd</c><c>   1</c></rc>
    <rc><c>Pd</c><c>   1</c></rc>
    <rc><c>Pd</c><c>   1</c></rc>
    <rc><c>Pd</c><c>   1</c></rc>
    <rc><c>Pd</c><c>   1</c></rc>
    <rc><c>Pd</c><c>   1</c></rc>
    <rc><c>Pd</c><c>   1</c></rc>
    <rc><c>Pd</c><c>   1</c></rc>
    <rc><c>Pd</c><c>   1</c></rc>
    <rc><c>Pd</c><c>   1</c></rc>
    <rc><c>Pd</c><c>   1</c></rc>
    <rc><c>C </c><c>   2</c></rc>
    <rc><c>O </c><c>   3</c></rc>
    <rc><c>O </c><c>   3</c></rc>
   </set>
  </array>
  <array name="atomtypes" >
   <dimension dim="1">type</dimension>
   <field type="int">atomspertype</field>
   <field type="string">element</field>
   <field>mass</field>
   <field>valence</field>
   <field type="string">pseudopotential</field>
   <set>
    <rc><c>  36</c><c>Pd</c><c>    106.42000000</c><c>     10.00000000</c><c>  PAW_PBE Pd 04Jan2005                  </c></rc>
    <rc><c>   1</c><c>C </c><c>     12.01100000</c><c>      4.00000000</c><c>  PAW_PBE C 08Apr2002                   </c></rc>
    <rc><c>   2</c><c>O </c><c>     16.00000000</c><c>      6.00000000</c><c>  PAW_PBE O 08Apr2002                   </c></rc>
   </set>
  </array>
 </atominfo>
 <structure name="initialpos" >
  <crystal>
   <varray name="basis" >
    <v>       8.30990028       0.00000000       0.00000000 </v>
    <v>      -4.15495014       7.19658475       0.00000000 </v>
    <v>       0.00000000       0.00000000      16.52350044 </v>
   </varray>
   <i name="volume">    988.15327180 </i>
   <varray name="rec_basis" >
    <v>       0.12033839       0.06947740       0.00000000 </v>
    <v>       0.00000000       0.13895480       0.00000000 </v>
    <v>       0.00000000       0.00000000       0.06051986 </v>
   </varray>
  </crystal>
  <varray name="positions" >
   <v>       0.99958724       0.00038505       0.43746442 </v>
   <v>       0.11093000       0.22330000       0.16024000 </v>
   <v>       0.22193943       0.11227143       0.29860637 </v>
   <v>       0.33299188       0.00071973       0.43727070 </v>
   <v>       0.44426000       0.22330000       0.16024000 </v>
   <v>       0.55512462       0.11196283       0.29824537 </v>
   <v>       0.66626598       0.00074429       0.43689422 </v>
   <v>       0.77760000       0.22330000       0.16024000 </v>
   <v>       0.88867244       0.11203663       0.29843604 </v>
   <v>       0.99905034       0.33381572       0.43732892 </v>
   <v>       0.11093000       0.55664000       0.16024000 </v>
   <v>       0.22192146       0.44528102       0.29851594 </v>
   <v>       0.33281158       0.33381157       0.43831641 </v>
   <v>       0.44426000       0.55664000       0.16024000 </v>
   <v>       0.55482353       0.44521081       0.29842882 </v>
   <v>       0.66607854       0.33404333       0.43680195 </v>
   <v>       0.77760000       0.55664000       0.16024000 </v>
   <v>       0.88853716       0.44527458       0.29823490 </v>
   <v>       0.99938527       0.66725357       0.43676159 </v>
   <v>       0.11093000       0.88997000       0.16024000 </v>
   <v>       0.22197132       0.77873103       0.29830042 </v>
   <v>       0.33325559       0.66776000       0.43717889 </v>
   <v>       0.44426000       0.88997000       0.16024000 </v>
   <v>       0.55506811       0.77858817       0.29826125 </v>
   <v>       0.66632395       0.66739574       0.43683058 </v>
   <v>       0.77760000       0.88997000       0.16024000 </v>
   <v>       0.88857887       0.77882115       0.29821780 </v>
   <v>       0.99982000       0.00108000       0.02337000 </v>
   <v>       0.33315000       0.00108000       0.02337000 </v>
   <v>       0.66649000       0.00108000       0.02337000 </v>
   <v>       0.99982000       0.33441000       0.02337000 </v>
   <v>       0.33315000       0.33441000       0.02337000 </v>
   <v>       0.66649000       0.33441000       0.02337000 </v>
   <v>       0.99982000       0.66775000       0.02337000 </v>
   <v>       0.33315000       0.66775000       0.02337000 </v>
   <v>       0.66649000       0.66775000       0.02337000 </v>
   <v>       0.24742209       0.13312914       0.70652210 </v>
   <v>       0.26399588       0.28162971       0.69974087 </v>
   <v>       0.22986250       0.98451007       0.71496310 </v>
  </varray>
  <varray name="selective"  type="logical" >
   <v type="logical" >  T  T  T </v>
   <v type="logical" >  F  F  F </v>
   <v type="logical" >  T  T  T </v>
   <v type="logical" >  T  T  T </v>
   <v type="logical" >  F  F  F </v>
   <v type="logical" >  T  T  T </v>
   <v type="logical" >  T  T  T </v>
   <v type="logical" >  F  F  F </v>
   <v type="logical" >  T  T  T </v>
   <v type="logical" >  T  T  T </v>
   <v type="logical" >  F  F  F </v>
   <v type="logical" >  T  T  T </v>
   <v type="logical" >  T  T  T </v>
   <v type="logical" >  F  F  F </v>
   <v type="logical" >  T  T  T </v>
   <v type="logical" >  T  T  T </v>
   <v type="logical" >  F  F  F </v>
   <v type="logical" >  T  T  T </v>
   <v type="logical" >  T  T  T </v>
   <v type="logical" >  F  F  F </v>
   <v type="logical" >  T  T  T </v>
   <v type="logical" >  T  T  T </v>
   <v type="logical" >  F  F  F </v>
   <v type="logical" >  T  T  T </v>
   <v type="logical" >  T  T  T </v>
   <v type="logical" >  F  F  F </v>
   <v type="logical" >  T  T  T </v>
   <v type="logical" >  F  F  F </v>
   <v type="logical" >  F  F  F </v>
   <v type="logical" >  F  F  F </v>
   <v type="logical" >  F  F  F </v>
   <v type="logical" >  F  F  F </v>
   <v type="logical" >  F  F  F </v>
   <v type="logical" >  F  F  F </v>
   <v type="logical" >  F  F  F </v>
   <v type="logical" >  F  F  F </v>
   <v type="logical" >  T  T  T </v>
   <v type="logical" >  T  T  T </v>
   <v type="logical" >  T  T  T </v>
  </varray>
  <nose>
   <v>      -3.00000000       0.00000000       0.00010000       0.00010000 </v>
  </nose>
 </structure>
 <calculation>
  <scstep>
   <time name="dav">   13.51   13.65</time>
   <time name="total">   13.63   13.78</time>
   <energy>
    <i name="alphaZ">    918.22725072 </i>
    <i name="ewald">  20108.21365705 </i>
    <i name="hartreedc"> -52747.12601123 </i>
    <i name="XCdc">   -993.44051459 </i>
    <i name="pawpsdc">  29844.20032359 </i>
    <i name="pawaedc"> -27608.36462881 </i>
    <i name="eentropy">     -1.25031664 </i>
    <i name="bandstr">   2417.33838855 </i>
    <i name="atom">  30161.86332653 </i>
    <i name="e_fr_energy">   2099.66147518 </i>
    <i name="e_wo_entrp">   2100.91179182 </i>
    <i name="e_0_energy">   2100.28663350 </i>
   </energy>
  </scstep>
  <scstep>
   <time name="dav">   14.45   14.55</time>
   <time name="total">   14.48   14.58</time>
   <energy>
    <i name="e_fr_energy">    -95.11572082 </i>
    <i name="e_wo_entrp">    -91.60266405 </i>
    <i name="e_0_energy">    -93.35919244 </i>
   </energy>
  </scstep>
  <scstep>
   <time name="dav">   15.16   15.26</time>
   <time name="total">   15.19   15.29</time>
   <energy>
    <i name="e_fr_energy">   -210.92958605 </i>
    <i name="e_wo_entrp">   -205.70592252 </i>
    <i name="e_0_energy">   -208.31775429 </i>
   </energy>
  </scstep>
  <scstep>
   <time name="dav">   15.52   15.63</time>
   <time name="total">   15.56   15.66</time>
   <energy>
    <i name="e_fr_energy">   -214.25251543 </i>
    <i name="e_wo_entrp">   -208.98590510 </i>
    <i name="e_0_energy">   -211.61921027 </i>
   </energy>
  </scstep>
  <scstep>
   <time name="dav">   19.59   19.72</time>
   <time name="total">   20.00   20.14</time>
   <energy>
    <i name="e_fr_energy">   -214.41720473 </i>
    <i name="e_wo_entrp">   -209.14993895 </i>
    <i name="e_0_energy">   -211.78357184 </i>
   </energy>
  </scstep>
  <scstep>
   <time name="dav">   14.67   14.76</time>
   <time name="total">   15.13   15.23</time>
   <energy>
    <i name="e_fr_energy">   -204.85274427 </i>
    <i name="e_wo_entrp">   -199.65266006 </i>
    <i name="e_0_energy">   -202.25270216 </i>
   </energy>
  </scstep>
  <scstep>
   <time name="dav">   15.05   15.15</time>
   <time name="total">   15.51   15.61</time>
   <energy>
    <i name="e_fr_energy">   -208.51590652 </i>
    <i name="e_wo_entrp">   -203.77827485 </i>
    <i name="e_0_energy">   -206.14709068 </i>
   </energy>
  </scstep>
  <scstep>
   <time name="dav">   15.82   15.93</time>
   <time name="total">   16.29   16.39</time>
   <energy>
    <i name="e_fr_energy">   -206.12741078 </i>
    <i name="e_wo_entrp">   -201.27901519 </i>
    <i name="e_0_energy">   -203.70321298 </i>
   </energy>
  </scstep>
  <scstep>
   <time name="dav">   15.81   15.92</time>
   <time name="total">   16.28   16.38</time>
   <energy>
    <i name="e_fr_energy">   -208.10342545 </i>
    <i name="e_wo_entrp">   -203.43930280 </i>
    <i name="e_0_energy">   -205.77136413 </i>
   </energy>
  </scstep>
  <scstep>
   <time name="dav">   15.86   15.96</time>
   <time name="total">   16.32   16.43</time>
   <energy>
    <i name="e_fr_energy">   -204.98716992 </i>
    <i name="e_wo_entrp">   -199.95679614 </i>
    <i name="e_0_energy">   -202.47198303 </i>
   </energy>
  </scstep>
  <scstep>
   <time name="dav">   15.24   15.34</time>
   <time name="total">   15.70   15.81</time>
   <energy>
    <i name="e_fr_energy">   -204.01830527 </i>
    <i name="e_wo_entrp">   -198.81303711 </i>
    <i name="e_0_energy">   -201.41567119 </i>
   </energy>
  </scstep>
  <scstep>
   <time name="dav">   14.67   14.77</time>
   <time name="total">   15.13   15.23</time>
   <energy>
    <i name="e_fr_energy">   -204.01192415 </i>
    <i name="e_wo_entrp">   -198.78762413 </i>
    <i name="e_0_energy">   -201.39977414 </i>
   </energy>
  </scstep>
  <scstep>
   <time name="dav">   14.35   14.45</time>
   <time name="total">   14.81   14.91</time>
   <energy>
    <i name="e_fr_energy">   -204.01318456 </i>
    <i name="e_wo_entrp">   -198.78591217 </i>
    <i name="e_0_energy">   -201.39954836 </i>
   </energy>
  </scstep>
  <scstep>
   <time name="dav">   14.50   14.60</time>
   <time name="total">   14.96   15.06</time>
   <energy>
    <i name="e_fr_energy">   -204.01001461 </i>
    <i name="e_wo_entrp">   -198.77893712 </i>
    <i name="e_0_energy">   -201.39447587 </i>
   </energy>
  </scstep>
  <scstep>
   <time name="dav">   14.47   14.57</time>
   <time name="total">   14.94   15.04</time>
   <energy>
    <i name="e_fr_energy">   -204.00792586 </i>
    <i name="e_wo_entrp">   -198.77480685 </i>
    <i name="e_0_energy">   -201.39136635 </i>
   </energy>
  </scstep>
  <scstep>
   <time name="dav">   14.38   14.47</time>
   <time name="total">   14.84   14.94</time>
   <energy>
    <i name="e_fr_energy">   -204.00470415 </i>
    <i name="e_wo_entrp">   -198.76954017 </i>
    <i name="e_0_energy">   -201.38712216 </i>
   </energy>
  </scstep>
  <scstep>
   <time name="dav">   14.38   14.48</time>
   <time name="total">   14.85   14.94</time>
   <energy>
    <i name="e_fr_energy">   -204.00427156 </i>
    <i name="e_wo_entrp">   -198.76833882 </i>
    <i name="e_0_energy">   -201.38630519 </i>
   </energy>
  </scstep>
  <scstep>
   <time name="dav">   14.26   14.36</time>
   <time name="total">   14.73   14.82</time>
   <energy>
    <i name="e_fr_energy">   -204.00360310 </i>
    <i name="e_wo_entrp">   -198.76700457 </i>
    <i name="e_0_energy">   -201.38530384 </i>
   </energy>
  </scstep>
  <scstep>
   <time name="dav">   14.44   14.54</time>
   <time name="total">   14.90   15.00</time>
   <energy>
    <i name="e_fr_energy">   -204.00343457 </i>
    <i name="e_wo_entrp">   -198.76728114 </i>
    <i name="e_0_energy">   -201.38535785 </i>
   </energy>
  </scstep>
  <scstep>
   <time name="dav">   14.33   14.42</time>
   <time name="total">   14.79   14.89</time>
   <energy>
    <i name="e_fr_energy">   -204.00331880 </i>
    <i name="e_wo_entrp">   -198.76751664 </i>
    <i name="e_0_energy">   -201.38541772 </i>
   </energy>
  </scstep>
  <scstep>
   <time name="dav">   14.47   14.57</time>
   <time name="total">   14.93   15.03</time>
   <energy>
    <i name="e_fr_energy">   -204.00349203 </i>
    <i name="e_wo_entrp">   -198.76767567 </i>
    <i name="e_0_energy">   -201.38558385 </i>
   </energy>
  </scstep>
  <scstep>
   <time name="dav">   14.23   14.32</time>
   <time name="total">   14.70   14.79</time>
   <energy>
    <i name="e_fr_energy">   -204.00355467 </i>
    <i name="e_wo_entrp">   -198.76759405 </i>
    <i name="e_0_energy">   -201.38557436 </i>
   </energy>
  </scstep>
  <scstep>
   <time name="dav">   12.57   12.65</time>
   <time name="total">   13.03   13.12</time>
   <energy>
    <i name="e_fr_energy">   -204.00367157 </i>
    <i name="e_wo_entrp">   -198.76720207 </i>
    <i name="e_0_energy">   -201.38543682 </i>
   </energy>
  </scstep>
  <scstep>
   <time name="dav">   10.32   10.39</time>
   <time name="total">   10.78   10.85</time>
   <energy>
    <i name="e_fr_energy">   -204.00369413 </i>
    <i name="e_wo_entrp">   -198.76719078 </i>
    <i name="e_0_energy">   -201.38544245 </i>
   </energy>
  </scstep>
  <scstep>
   <time name="dav">   10.50   10.57</time>
   <time name="total">   10.97   11.04</time>
   <energy>
    <i name="e_fr_energy">   -204.00372941 </i>
    <i name="e_wo_entrp">   -198.76720834 </i>
    <i name="e_0_energy">   -201.38546888 </i>
   </energy>
  </scstep>
  <scstep>
   <time name="dav">    9.90    9.96</time>
   <time name="total">   10.37   10.44</time>
   <energy>
    <i name="e_fr_energy">   -204.00374302 </i>
    <i name="e_wo_entrp">   -198.76723217 </i>
    <i name="e_0_energy">   -201.38548759 </i>
   </energy>
  </scstep>
  <scstep>
   <time name="dav">   10.24   10.30</time>
   <time name="total">   10.70   10.77</time>
   <energy>
    <i name="e_fr_energy">   -204.00375382 </i>
    <i name="e_wo_entrp">   -198.76725995 </i>
    <i name="e_0_energy">   -201.38550688 </i>
   </energy>
  </scstep>
  <scstep>
   <time name="dav">    9.79    9.85</time>
   <time name="total">    9.89    9.95</time>
   <energy>
    <i name="alphaZ">    918.22725072 </i>
    <i name="ewald">  20108.21365705 </i>
    <i name="hartreedc"> -52686.68878097 </i>
    <i name="XCdc">   -999.25461757 </i>
    <i name="pawpsdc">  35523.08475531 </i>
    <i name="pawaedc"> -33368.67295565 </i>
    <i name="eentropy">     -5.23649319 </i>
    <i name="bandstr">    144.46010233 </i>
    <i name="atom">  30161.86332653 </i>
    <i name="e_fr_energy">   -204.00375544 </i>
    <i name="e_wo_entrp">   -198.76726225 </i>
    <i name="e_0_energy">   -201.38550885 </i>
   </energy>
  </scstep>
  <structure>
   <crystal>
    <varray name="basis" >
     <v>       8.30990028       0.00000000       0.00000000 </v>
     <v>      -4.15495014       7.19658475       0.00000000 </v>
     <v>       0.00000000       0.00000000      16.52350044 </v>
    </varray>
    <i name="volume">    988.15327180 </i>
    <varray name="rec_basis" >
     <v>       0.12033839       0.06947740       0.00000000 </v>
     <v>       0.00000000       0.13895480       0.00000000 </v>
     <v>       0.00000000       0.00000000       0.06051986 </v>
    </varray>
   </crystal>
   <varray name="positions" >
    <v>       0.99958724       0.00038505       0.43746442 </v>
    <v>       0.11093000       0.22330000       0.16024000 </v>
    <v>       0.22193943       0.11227143       0.29860637 </v>
    <v>       0.33299188       0.00071973       0.43727070 </v>
    <v>       0.44426000       0.22330000       0.16024000 </v>
    <v>       0.55512462       0.11196283       0.29824537 </v>
    <v>       0.66626598       0.00074429       0.43689422 </v>
    <v>       0.77760000       0.22330000       0.16024000 </v>
    <v>       0.88867244       0.11203663       0.29843604 </v>
    <v>       0.99905034       0.33381572       0.43732892 </v>
    <v>       0.11093000       0.55664000       0.16024000 </v>
    <v>       0.22192146       0.44528102       0.29851594 </v>
    <v>       0.33281158       0.33381157       0.43831641 </v>
    <v>       0.44426000       0.55664000       0.16024000 </v>
    <v>       0.55482353       0.44521081       0.29842882 </v>
    <v>       0.66607854       0.33404333       0.43680195 </v>
    <v>       0.77760000       0.55664000       0.16024000 </v>
    <v>       0.88853716       0.44527458       0.29823490 </v>
    <v>       0.99938527       0.66725357       0.43676159 </v>
    <v>       0.11093000       0.88997000       0.16024000 </v>
    <v>       0.22197132       0.77873103       0.29830042 </v>
    <v>       0.33325559       0.66776000       0.43717889 </v>
    <v>       0.44426000       0.88997000       0.16024000 </v>
    <v>       0.55506811       0.77858817       0.29826125 </v>
    <v>       0.66632395       0.66739574       0.43683058 </v>
    <v>       0.77760000       0.88997000       0.16024000 </v>
    <v>       0.88857887       0.77882115       0.29821780 </v>
    <v>       0.99982000       0.00108000       0.02337000 </v>
    <v>       0.33315000       0.00108000       0.02337000 </v>
    <v>       0.66649000       0.00108000       0.02337000 </v>
    <v>       0.99982000       0.33441000       0.02337000 </v>
    <v>       0.33315000       0.33441000       0.02337000 </v>
    <v>       0.66649000       0.33441000       0.02337000 </v>
    <v>       0.99982000       0.66775000       0.02337000 </v>
    <v>       0.33315000       0.66775000       0.02337000 </v>
    <v>       0.66649000       0.66775000       0.02337000 </v>
    <v>       0.24742209       0.13312914       0.70652210 </v>
    <v>       0.26399588       0.28162971       0.69974087 </v>
    <v>       0.22986250       0.98451007       0.71496310 </v>
   </varray>
  </structure>
  <varray name="forces" >
   <v>       0.00246337       0.01073676      -0.03056719 </v>
   <v>       0.00164647      -0.00224354       0.16806490 </v>
   <v>       0.00098952      -0.00070419       0.00684680 </v>
   <v>      -0.00718321       0.00022861      -0.01982001 </v>
   <v>      -0.00414219       0.00054553       0.15560930 </v>
   <v>       0.00004133       0.00168123       0.00229455 </v>
   <v>       0.00172374      -0.00134291      -0.00275237 </v>
   <v>      -0.00047603      -0.00132332       0.15388602 </v>
   <v>       0.00247735       0.00062470      -0.00700205 </v>
   <v>       0.02795026       0.01067842      -0.02669952 </v>
   <v>       0.00431979      -0.00091302       0.15384623 </v>
   <v>       0.00321083       0.00086566       0.01523351 </v>
   <v>      -0.01238862       0.01336633      -0.07934422 </v>
   <v>      -0.00301151      -0.00674040       0.16011051 </v>
   <v>       0.00225959       0.00041730       0.00049810 </v>
   <v>      -0.00039871      -0.00421420       0.00953375 </v>
   <v>      -0.00301804      -0.00703417       0.14923486 </v>
   <v>       0.00021606       0.00067286       0.00088534 </v>
   <v>       0.01170511       0.00446275       0.00555207 </v>
   <v>       0.00034502       0.00605502       0.16166023 </v>
   <v>      -0.00070063      -0.00016136      -0.00135665 </v>
   <v>      -0.00883401      -0.02178851      -0.01158839 </v>
   <v>      -0.00223874      -0.00053137       0.15017108 </v>
   <v>       0.00149960      -0.00055623      -0.00538441 </v>
   <v>      -0.00808307      -0.00450674       0.00472815 </v>
   <v>      -0.00152043       0.00300362       0.15949042 </v>
   <v>       0.00064124      -0.00136133       0.00343360 </v>
   <v>       0.00269848      -0.00641712      -0.13451121 </v>
   <v>      -0.00295893       0.00165910      -0.14434162 </v>
   <v>       0.00152557       0.00074492      -0.14078077 </v>
   <v>      -0.00088470      -0.00007750      -0.13918603 </v>
   <v>      -0.00029159      -0.00024383      -0.14197793 </v>
   <v>      -0.00106007       0.00039255      -0.14225959 </v>
   <v>      -0.00140809       0.00199562      -0.14559338 </v>
   <v>      -0.00153606      -0.00044767      -0.14459379 </v>
   <v>       0.00014344      -0.00028268      -0.14303551 </v>
   <v>      -0.02803218      -0.05560960       0.17347651 </v>
   <v>       0.00943211       0.03159640      -0.08947459 </v>
   <v>       0.01287794       0.02677233      -0.08428669 </v>
  </varray>
  <varray name="stress" >
   <v>     -22.04998595      -0.34741973       0.06719127 </v>
   <v>      -0.34741982     -21.48673545      -0.02249116 </v>
   <v>       0.06719124      -0.02249118      -7.10391708 </v>
  </varray>
  <energy>
   <i name="e_fr_energy">   -204.00375544 </i>
   <i name="e_wo_entrp">   -198.76726225 </i>
   <i name="e_0_energy">   -201.38550885 </i>
  </energy>
  <time name="totalsc">  597.52  600.84</time>
 </calculation>
 <calculation>
  <scstep>
   <time name="dav">   13.47   13.58</time>
   <time name="total">   13.93   14.04</time>
   <energy>
    <i name="alphaZ">    918.22725072 </i>
    <i name="ewald">  20108.89587727 </i>
    <i name="hartreedc"> -52687.37792466 </i>
    <i name="XCdc">   -999.25403799 </i>
    <i name="pawpsdc">  35523.08417607 </i>
    <i name="pawaedc"> -33368.67158260 </i>
    <i name="eentropy">     -5.23651956 </i>
    <i name="bandstr">    144.46553198 </i>
    <i name="atom">  30161.86332653 </i>
    <i name="e_fr_energy">   -204.00390224 </i>
    <i name="e_wo_entrp">   -198.76738268 </i>
    <i name="e_0_energy">   -201.38564246 </i>
   </energy>
  </scstep>
  <scstep>
   <time name="dav">   10.00   10.08</time>
   <time name="total">   10.46   10.55</time>
   <energy>
    <i name="e_fr_energy">   -204.00390535 </i>
    <i name="e_wo_entrp">   -198.76738253 </i>
    <i name="e_0_energy">   -201.38564394 </i>
   </energy>
  </scstep>
  <scstep>
   <time name="dav">    9.24    9.31</time>
   <time name="total">    9.70    9.77</time>
   <energy>
    <i name="e_fr_energy">   -204.00390539 </i>
    <i name="e_wo_entrp">   -198.76739870 </i>
    <i name="e_0_energy">   -201.38565205 </i>
   </energy>
  </scstep>
  <scstep>
   <time name="dav">    8.71    8.78</time>
   <time name="total">    8.81    8.88</time>
   <energy>
    <i name="alphaZ">    918.22725072 </i>
    <i name="ewald">  20108.89587727 </i>
    <i name="hartreedc"> -52687.37839458 </i>
    <i name="XCdc">   -999.25404121 </i>
    <i name="pawpsdc">  35523.00216402 </i>
    <i name="pawaedc"> -33368.59000321 </i>
    <i name="eentropy">     -5.23652256 </i>
    <i name="bandstr">    144.46643767 </i>
    <i name="atom">  30161.86332653 </i>
    <i name="e_fr_energy">   -204.00390535 </i>
    <i name="e_wo_entrp">   -198.76738279 </i>
    <i name="e_0_energy">   -201.38564407 </i>
   </energy>
  </scstep>
  <structure>
   <crystal>
    <varray name="basis" >
     <v>       8.30990028       0.00000000       0.00000000 </v>
     <v>      -4.15495014       7.19658475       0.00000000 </v>
     <v>       0.00000000       0.00000000      16.52350044 </v>
    </varray>
    <i name="volume">    988.15327180 </i>
    <varray name="rec_basis" >
     <v>       0.12033839       0.06947740       0.00000000 </v>
     <v>       0.00000000       0.13895480       0.00000000 </v>
     <v>       0.00000000       0.00000000       0.06051986 </v>
    </varray>
   </crystal>
   <varray name="positions" >
    <v>       0.99958969       0.00038857       0.43745991 </v>
    <v>       0.11093000       0.22330000       0.16024000 </v>
    <v>       0.22193957       0.11227118       0.29860754 </v>
    <v>       0.33298968       0.00071964       0.43726782 </v>
    <v>       0.44426000       0.22330000       0.16024000 </v>
    <v>       0.55512482       0.11196331       0.29824570 </v>
    <v>       0.66626614       0.00074366       0.43689377 </v>
    <v>       0.77760000       0.22330000       0.16024000 </v>
    <v>       0.88867326       0.11203680       0.29843503 </v>
    <v>       0.99906031       0.33381923       0.43732500 </v>
    <v>       0.11093000       0.55664000       0.16024000 </v>
    <v>       0.22192251       0.44528119       0.29851835 </v>
    <v>       0.33280997       0.33381593       0.43830492 </v>
    <v>       0.44426000       0.55664000       0.16024000 </v>
    <v>       0.55482406       0.44521080       0.29842897 </v>
    <v>       0.66607753       0.33404172       0.43680334 </v>
    <v>       0.77760000       0.55664000       0.16024000 </v>
    <v>       0.88853727       0.44527472       0.29823501 </v>
    <v>       0.99938941       0.66725493       0.43676234 </v>
    <v>       0.11093000       0.88997000       0.16024000 </v>
    <v>       0.22197105       0.77873091       0.29830023 </v>
    <v>       0.33324916       0.66775236       0.43717719 </v>
    <v>       0.44426000       0.88997000       0.16024000 </v>
    <v>       0.55506838       0.77858789       0.29826042 </v>
    <v>       0.66632064       0.66739402       0.43683124 </v>
    <v>       0.77760000       0.88997000       0.16024000 </v>
    <v>       0.88857877       0.77882064       0.29821829 </v>
    <v>       0.99982000       0.00108000       0.02337000 </v>
    <v>       0.33315000       0.00108000       0.02337000 </v>
    <v>       0.66649000       0.00108000       0.02337000 </v>
    <v>       0.99982000       0.33441000       0.02337000 </v>
    <v>       0.33315000       0.33441000       0.02337000 </v>
    <v>       0.66649000       0.33441000       0.02337000 </v>
    <v>       0.99982000       0.66775000       0.02337000 </v>
    <v>       0.33315000       0.66775000       0.02337000 </v>
    <v>       0.66649000       0.66775000       0.02337000 </v>
    <v>       0.24740157       0.13311386       0.70653846 </v>
    <v>       0.26400076       0.28164388       0.69971573 </v>
    <v>       0.22986951       0.98452448       0.71494267 </v>
   </varray>
  </structure>
  <varray name="forces" >
   <v>       0.00230323       0.01023853      -0.02946097 </v>
   <v>       0.00171243      -0.00216722       0.16789872 </v>
   <v>       0.00103176      -0.00076583       0.00583446 </v>
   <v>      -0.00678121       0.00025269      -0.01910893 </v>
   <v>      -0.00412696       0.00057687       0.15541799 </v>
   <v>       0.00014132       0.00168296       0.00199871 </v>
   <v>       0.00167203      -0.00126790      -0.00270625 </v>
   <v>      -0.00050041      -0.00128713       0.15366709 </v>
   <v>       0.00227140       0.00059452      -0.00708422 </v>
   <v>       0.02638151       0.00933924      -0.02556004 </v>
   <v>       0.00437283      -0.00092796       0.15371526 </v>
   <v>       0.00301912       0.00097583       0.01376810 </v>
   <v>      -0.01154691       0.01276593      -0.07611877 </v>
   <v>      -0.00300327      -0.00676390       0.15993498 </v>
   <v>       0.00244289       0.00053186       0.00005505 </v>
   <v>      -0.00022476      -0.00396262       0.00927524 </v>
   <v>      -0.00301791      -0.00702649       0.14906960 </v>
   <v>       0.00014729       0.00068272       0.00070702 </v>
   <v>       0.01110028       0.00427946       0.00555018 </v>
   <v>       0.00034997       0.00609561       0.16148956 </v>
   <v>      -0.00064697      -0.00015140      -0.00159900 </v>
   <v>      -0.00845302      -0.02061793      -0.01115117 </v>
   <v>      -0.00222606      -0.00048289       0.14995066 </v>
   <v>       0.00148974      -0.00046704      -0.00530684 </v>
   <v>      -0.00762970      -0.00421480       0.00470415 </v>
   <v>      -0.00148740       0.00299582       0.15925985 </v>
   <v>       0.00061520      -0.00139754       0.00312720 </v>
   <v>       0.00271315      -0.00640522      -0.13461118 </v>
   <v>      -0.00292985       0.00168855      -0.14438949 </v>
   <v>       0.00152947       0.00077106      -0.14079680 </v>
   <v>      -0.00088094      -0.00004883      -0.13920171 </v>
   <v>      -0.00026262      -0.00021288      -0.14204132 </v>
   <v>      -0.00104690       0.00041662      -0.14230131 </v>
   <v>      -0.00140536       0.00200775      -0.14569830 </v>
   <v>      -0.00151928      -0.00042610      -0.14455915 </v>
   <v>       0.00016745      -0.00027090      -0.14308024 </v>
   <v>      -0.04071151      -0.02155548       0.16165027 </v>
   <v>       0.01592584       0.01441743      -0.08394038 </v>
   <v>       0.01901412       0.01010660      -0.07835801 </v>
  </varray>
  <varray name="stress" >
   <v>     -22.04499385      -0.34619652       0.06755342 </v>
   <v>      -0.34619638     -21.48066957      -0.02401908 </v>
   <v>       0.06755343      -0.02401907      -7.08798629 </v>
  </varray>
  <energy>
   <i name="e_fr_energy">   -204.00390535 </i>
   <i name="e_wo_entrp">   -198.76738279 </i>
   <i name="e_0_energy">   -201.38564407 </i>
  </energy>
  <time name="totalsc">  178.05  178.92</time>
 </calculation>
 <calculation>
  <scstep>
   <time name="dav">   13.49   13.58</time>
   <time name="total">   13.95   14.04</time>
   <energy>
    <i name="alphaZ">    918.22725072 </i>
    <i name="ewald">  20110.25295918 </i>
    <i name="hartreedc"> -52688.72944513 </i>
    <i name="XCdc">   -999.25293359 </i>
    <i name="pawpsdc">  35522.99399882 </i>
    <i name="pawaedc"> -33368.58187496 </i>
    <i name="eentropy">     -5.23656651 </i>
    <i name="bandstr">    144.45912940 </i>
    <i name="atom">  30161.86332653 </i>
    <i name="e_fr_energy">   -204.00415554 </i>
    <i name="e_wo_entrp">   -198.76758902 </i>
    <i name="e_0_energy">   -201.38587228 </i>
   </energy>
  </scstep>
  <scstep>
   <time name="dav">   11.29   11.36</time>
   <time name="total">   11.75   11.83</time>
   <energy>
    <i name="e_fr_energy">   -204.00418990 </i>
    <i name="e_wo_entrp">   -198.76770090 </i>
    <i name="e_0_energy">   -201.38594540 </i>
   </energy>
  </scstep>
  <scstep>
   <time name="dav">    9.97   10.04</time>
   <time name="total">   10.44   10.50</time>
   <energy>
    <i name="e_fr_energy">   -204.00416395 </i>
    <i name="e_wo_entrp">   -198.76763135 </i>
    <i name="e_0_energy">   -201.38589765 </i>
   </energy>
  </scstep>
  <scstep>
   <time name="dav">    9.26    9.32</time>
   <time name="total">    9.36    9.42</time>
   <energy>
    <i name="alphaZ">    918.22725072 </i>
    <i name="ewald">  20110.25295918 </i>
    <i name="hartreedc"> -52688.72095250 </i>
    <i name="XCdc">   -999.25298917 </i>
    <i name="pawpsdc">  35523.03619866 </i>
    <i name="pawaedc"> -33368.62540514 </i>
    <i name="eentropy">     -5.23657658 </i>
    <i name="bandstr">    144.45202412 </i>
    <i name="atom">  30161.86332653 </i>
    <i name="e_fr_energy">   -204.00416418 </i>
    <i name="e_wo_entrp">   -198.76758759 </i>
    <i name="e_0_energy">   -201.38587589 </i>
   </energy>
  </scstep>
  <structure>
   <crystal>
    <varray name="basis" >
     <v>       8.30990028       0.00000000       0.00000000 </v>
     <v>      -4.15495014       7.19658475       0.00000000 </v>
     <v>       0.00000000       0.00000000      16.52350044 </v>
    </varray>
    <i name="volume">    988.15327180 </i>
    <varray name="rec_basis" >
     <v>       0.12033839       0.06947740       0.00000000 </v>
     <v>       0.00000000       0.13895480       0.00000000 </v>
     <v>       0.00000000       0.00000000       0.06051986 </v>
    </varray>
   </crystal>
   <varray name="positions" >
    <v>       0.99959446       0.00039546       0.43745099 </v>
    <v>       0.11093000       0.22330000       0.16024000 </v>
    <v>       0.22193987       0.11227062       0.29860962 </v>
    <v>       0.33298542       0.00071947       0.43726211 </v>
    <v>       0.44426000       0.22330000       0.16024000 </v>
    <v>       0.55512529       0.11196430       0.29824629 </v>
    <v>       0.66626645       0.00074243       0.43689286 </v>
    <v>       0.77760000       0.22330000       0.16024000 </v>
    <v>       0.88867482       0.11203712       0.29843293 </v>
    <v>       0.99907938       0.33382549       0.43731729 </v>
    <v>       0.11093000       0.55664000       0.16024000 </v>
    <v>       0.22192461       0.44528162       0.29852285 </v>
    <v>       0.33280697       0.33382447       0.43828227 </v>
    <v>       0.44426000       0.55664000       0.16024000 </v>
    <v>       0.55482530       0.44521086       0.29842913 </v>
    <v>       0.66607565       0.33403857       0.43680611 </v>
    <v>       0.77760000       0.55664000       0.16024000 </v>
    <v>       0.88853747       0.44527500       0.29823518 </v>
    <v>       0.99939749       0.66725761       0.43676388 </v>
    <v>       0.11093000       0.88997000       0.16024000 </v>
    <v>       0.22197054       0.77873068       0.29829977 </v>
    <v>       0.33323659       0.66773750       0.43717383 </v>
    <v>       0.44426000       0.88997000       0.16024000 </v>
    <v>       0.55506895       0.77858740       0.29825874 </v>
    <v>       0.66631422       0.66739068       0.43683260 </v>
    <v>       0.77760000       0.88997000       0.16024000 </v>
    <v>       0.88857853       0.77881958       0.29821920 </v>
    <v>       0.99982000       0.00108000       0.02337000 </v>
    <v>       0.33315000       0.00108000       0.02337000 </v>
    <v>       0.66649000       0.00108000       0.02337000 </v>
    <v>       0.99982000       0.33441000       0.02337000 </v>
    <v>       0.33315000       0.33441000       0.02337000 </v>
    <v>       0.66649000       0.33441000       0.02337000 </v>
    <v>       0.99982000       0.66775000       0.02337000 </v>
    <v>       0.33315000       0.66775000       0.02337000 </v>
    <v>       0.66649000       0.66775000       0.02337000 </v>
    <v>       0.24736369       0.13310671       0.70656857 </v>
    <v>       0.26400872       0.28166072       0.69966586 </v>
    <v>       0.22988179       0.98454216       0.71490257 </v>
   </varray>
  </structure>
  <varray name="forces" >
   <v>       0.00209190       0.00957160      -0.02880874 </v>
   <v>       0.00179381      -0.00208352       0.16802775 </v>
   <v>       0.00108422      -0.00093208       0.00470965 </v>
   <v>      -0.00638958       0.00032762      -0.01813244 </v>
   <v>      -0.00413662       0.00055850       0.15554272 </v>
   <v>       0.00027345       0.00163573       0.00197534 </v>
   <v>       0.00158283      -0.00120676      -0.00295734 </v>
   <v>      -0.00051236      -0.00126858       0.15372546 </v>
   <v>       0.00199485       0.00052973      -0.00694345 </v>
   <v>       0.02471710       0.00874394      -0.02493254 </v>
   <v>       0.00446225      -0.00098472       0.15390804 </v>
   <v>       0.00271893       0.00111886       0.01201082 </v>
   <v>      -0.01066379       0.01172623      -0.07351019 </v>
   <v>      -0.00304550      -0.00682844       0.16004994 </v>
   <v>       0.00273339       0.00066681      -0.00026814 </v>
   <v>       0.00002731      -0.00368671       0.00862014 </v>
   <v>      -0.00299699      -0.00701320       0.14919561 </v>
   <v>       0.00008209       0.00067006       0.00084004 </v>
   <v>       0.01028900       0.00402065       0.00517018 </v>
   <v>       0.00033839       0.00612704       0.16160883 </v>
   <v>      -0.00057364      -0.00016768      -0.00157996 </v>
   <v>      -0.00797647      -0.01904789      -0.01085413 </v>
   <v>      -0.00222927      -0.00045437       0.15000871 </v>
   <v>       0.00144630      -0.00036391      -0.00485678 </v>
   <v>      -0.00703918      -0.00385064       0.00421159 </v>
   <v>      -0.00142425       0.00297227       0.15924868 </v>
   <v>       0.00059766      -0.00146125       0.00308000 </v>
   <v>       0.00272069      -0.00641680      -0.13466723 </v>
   <v>      -0.00291523       0.00169801      -0.14438243 </v>
   <v>       0.00154667       0.00077647      -0.14084372 </v>
   <v>      -0.00087282      -0.00004783      -0.13927503 </v>
   <v>      -0.00024790      -0.00020784      -0.14204326 </v>
   <v>      -0.00103187       0.00042522      -0.14222804 </v>
   <v>      -0.00141324       0.00200519      -0.14574390 </v>
   <v>      -0.00150093      -0.00043123      -0.14459749 </v>
   <v>       0.00019503      -0.00026756      -0.14304063 </v>
   <v>      -0.04827755       0.00557258       0.14355738 </v>
   <v>       0.01993655       0.00061798      -0.07603325 </v>
   <v>       0.02261475      -0.00304349      -0.06979215 </v>
  </varray>
  <varray name="stress" >
   <v>     -22.03411428      -0.34519240       0.06730413 </v>
   <v>      -0.34519228     -21.46920290      -0.02531008 </v>
   <v>       0.06730438      -0.02531016      -7.05374919 </v>
  </varray>
  <energy>
   <i name="e_fr_energy">   -204.00416418 </i>
   <i name="e_wo_entrp">   -198.76758759 </i>
   <i name="e_0_energy">   -201.38587589 </i>
  </energy>
  <time name="totalsc">  182.63  183.37</time>
 </calculation>
 <calculation>
  <scstep>
   <time name="dav">   13.42   13.51</time>
   <time name="total">   13.88   13.97</time>
   <energy>
    <i name="alphaZ">    918.22725072 </i>
    <i name="ewald">  20112.31469076 </i>
    <i name="hartreedc"> -52690.79699977 </i>
    <i name="XCdc">   -999.25140509 </i>
    <i name="pawpsdc">  35523.05408857 </i>
    <i name="pawaedc"> -33368.64361494 </i>
    <i name="eentropy">     -5.23659826 </i>
    <i name="bandstr">    144.46478555 </i>
    <i name="atom">  30161.86332653 </i>
    <i name="e_fr_energy">   -204.00447594 </i>
    <i name="e_wo_entrp">   -198.76787768 </i>
    <i name="e_0_energy">   -201.38617681 </i>
   </energy>
  </scstep>
  <scstep>
   <time name="dav">   13.65   13.74</time>
   <time name="total">   14.11   14.20</time>
   <energy>
    <i name="e_fr_energy">   -204.00449611 </i>
    <i name="e_wo_entrp">   -198.76789619 </i>
    <i name="e_0_energy">   -201.38619615 </i>
   </energy>
  </scstep>
  <scstep>
   <time name="dav">    9.84    9.90</time>
   <time name="total">   10.30   10.37</time>
   <energy>
    <i name="e_fr_energy">   -204.00449509 </i>
    <i name="e_wo_entrp">   -198.76792713 </i>
    <i name="e_0_energy">   -201.38621111 </i>
   </energy>
  </scstep>
  <scstep>
   <time name="dav">    9.50    9.56</time>
   <time name="total">    9.60    9.66</time>
   <energy>
    <i name="alphaZ">    918.22725072 </i>
    <i name="ewald">  20112.31469076 </i>
    <i name="hartreedc"> -52690.80602083 </i>
    <i name="XCdc">   -999.25159859 </i>
    <i name="pawpsdc">  35523.21309887 </i>
    <i name="pawaedc"> -33368.80490485 </i>
    <i name="eentropy">     -5.23657183 </i>
    <i name="bandstr">    144.47623493 </i>
    <i name="atom">  30161.86332653 </i>
    <i name="e_fr_energy">   -204.00449429 </i>
    <i name="e_wo_entrp">   -198.76792247 </i>
    <i name="e_0_energy">   -201.38620838 </i>
   </energy>
  </scstep>
  <structure>
   <crystal>
    <varray name="basis" >
     <v>       8.30990028       0.00000000       0.00000000 </v>
     <v>      -4.15495014       7.19658475       0.00000000 </v>
     <v>       0.00000000       0.00000000      16.52350044 </v>
    </varray>
    <i name="volume">    988.15327180 </i>
    <varray name="rec_basis" >
     <v>       0.12033839       0.06947740       0.00000000 </v>
     <v>       0.00000000       0.13895480       0.00000000 </v>
     <v>       0.00000000       0.00000000       0.06051986 </v>
    </varray>
   </crystal>
   <varray name="positions" >
    <v>       0.99960129       0.00040541       0.43743747 </v>
    <v>       0.11093000       0.22330000       0.16024000 </v>
    <v>       0.22194029       0.11226957       0.29861230 </v>
    <v>       0.33297923       0.00071930       0.43725374 </v>
    <v>       0.44426000       0.22330000       0.16024000 </v>
    <v>       0.55512612       0.11196579       0.29824719 </v>
    <v>       0.66626690       0.00074060       0.43689134 </v>
    <v>       0.77760000       0.22330000       0.16024000 </v>
    <v>       0.88867694       0.11203754       0.29842975 </v>
    <v>       0.99910701       0.33383455       0.43730564 </v>
    <v>       0.11093000       0.55664000       0.16024000 </v>
    <v>       0.22192766       0.44528245       0.29852898 </v>
    <v>       0.33280260       0.33383656       0.43824842 </v>
    <v>       0.44426000       0.55664000       0.16024000 </v>
    <v>       0.55482759       0.44521112       0.29842923 </v>
    <v>       0.66607315       0.33403402       0.43681010 </v>
    <v>       0.77760000       0.55664000       0.16024000 </v>
    <v>       0.88853770       0.44527543       0.29823551 </v>
    <v>       0.99940910       0.66726148       0.43676610 </v>
    <v>       0.11093000       0.88997000       0.16024000 </v>
    <v>       0.22196980       0.77873030       0.29829907 </v>
    <v>       0.33321843       0.66771620       0.43716877 </v>
    <v>       0.44426000       0.88997000       0.16024000 </v>
    <v>       0.55506986       0.77858674       0.29825636 </v>
    <v>       0.66630505       0.66738592       0.43683447 </v>
    <v>       0.77760000       0.88997000       0.16024000 </v>
    <v>       0.88857811       0.77881785       0.29822058 </v>
    <v>       0.99982000       0.00108000       0.02337000 </v>
    <v>       0.33315000       0.00108000       0.02337000 </v>
    <v>       0.66649000       0.00108000       0.02337000 </v>
    <v>       0.99982000       0.33441000       0.02337000 </v>
    <v>       0.33315000       0.33441000       0.02337000 </v>
    <v>       0.66649000       0.33441000       0.02337000 </v>
    <v>       0.99982000       0.66775000       0.02337000 </v>
    <v>       0.33315000       0.66775000       0.02337000 </v>
    <v>       0.66649000       0.66775000       0.02337000 </v>
    <v>       0.24731291       0.13312549       0.70660698 </v>
    <v>       0.26401742       0.28167136       0.69959299 </v>
    <v>       0.22989707       0.98455471       0.71484495 </v>
   </varray>
  </structure>
  <varray name="forces" >
   <v>       0.00097493       0.00903325      -0.02656336 </v>
   <v>       0.00186231      -0.00193443       0.16782245 </v>
   <v>       0.00164542      -0.00183571       0.00216636 </v>
   <v>      -0.00541737       0.00041814      -0.01669815 </v>
   <v>      -0.00418615       0.00055563       0.15531650 </v>
   <v>       0.00043455       0.00165925       0.00125420 </v>
   <v>       0.00152392      -0.00119180      -0.00253171 </v>
   <v>      -0.00063549      -0.00121678       0.15344859 </v>
   <v>       0.00160870       0.00043349      -0.00786581 </v>
   <v>       0.02344938       0.00812654      -0.02391836 </v>
   <v>       0.00450963      -0.00105917       0.15382343 </v>
   <v>       0.00238912       0.00140001       0.00931492 </v>
   <v>      -0.00822153       0.01055078      -0.07094167 </v>
   <v>      -0.00314928      -0.00691765       0.15981562 </v>
   <v>       0.00325885       0.00088547      -0.00144294 </v>
   <v>       0.00026146      -0.00358295       0.00920202 </v>
   <v>      -0.00303041      -0.00699565       0.14902203 </v>
   <v>      -0.00012617       0.00067331       0.00027205 </v>
   <v>       0.00900928       0.00476915       0.00583215 </v>
   <v>       0.00025846       0.00615015       0.16140857 </v>
   <v>      -0.00056595      -0.00018579      -0.00251503 </v>
   <v>      -0.00772806      -0.01782112      -0.00997102 </v>
   <v>      -0.00229583      -0.00039634       0.14970722 </v>
   <v>       0.00142774      -0.00020937      -0.00532118 </v>
   <v>      -0.00671640      -0.00357334       0.00480900 </v>
   <v>      -0.00139836       0.00290564       0.15886858 </v>
   <v>       0.00051548      -0.00168259       0.00241159 </v>
   <v>       0.00268427      -0.00641761      -0.13446260 </v>
   <v>      -0.00295387       0.00171417      -0.14417993 </v>
   <v>       0.00148949       0.00078340      -0.14064349 </v>
   <v>      -0.00091372      -0.00002867      -0.13906451 </v>
   <v>      -0.00029532      -0.00019702      -0.14183350 </v>
   <v>      -0.00107870       0.00042880      -0.14207359 </v>
   <v>      -0.00146611       0.00201397      -0.14560685 </v>
   <v>      -0.00154096      -0.00042998      -0.14438159 </v>
   <v>       0.00015369      -0.00025863      -0.14288225 </v>
   <v>      -0.03698106      -0.00442438       0.12379089 </v>
   <v>       0.01445512       0.00529242      -0.06577384 </v>
   <v>       0.01678895       0.00256538      -0.05961477 </v>
  </varray>
  <varray name="stress" >
   <v>     -22.03504715      -0.34753983       0.06890933 </v>
   <v>      -0.34753965     -21.47076183      -0.02415282 </v>
   <v>       0.06890946      -0.02415297      -7.06563485 </v>
  </varray>
  <energy>
   <i name="e_fr_energy">   -204.00449429 </i>
   <i name="e_wo_entrp">   -198.76792247 </i>
   <i name="e_0_energy">   -201.38620838 </i>
  </energy>
  <time name="totalsc">  182.86  183.61</time>
 </calculation>
 <calculation>
  <scstep>
   <time name="dav">   13.41   13.49</time>
   <time name="total">   13.87   13.96</time>
   <energy>
    <i name="alphaZ">    918.22725072 </i>
    <i name="ewald">  20115.09250642 </i>
    <i name="hartreedc"> -52693.54996484 </i>
    <i name="XCdc">   -999.24937240 </i>
    <i name="pawpsdc">  35523.23350354 </i>
    <i name="pawaedc"> -33368.82578549 </i>
    <i name="eentropy">     -5.23668068 </i>
    <i name="bandstr">    144.44040337 </i>
    <i name="atom">  30161.86332653 </i>
    <i name="e_fr_energy">   -204.00481283 </i>
    <i name="e_wo_entrp">   -198.76813215 </i>
    <i name="e_0_energy">   -201.38647249 </i>
   </energy>
  </scstep>
  <scstep>
   <time name="dav">   13.89   13.98</time>
   <time name="total">   14.36   14.45</time>
   <energy>
    <i name="e_fr_energy">   -204.00486641 </i>
    <i name="e_wo_entrp">   -198.76839530 </i>
    <i name="e_0_energy">   -201.38663086 </i>
   </energy>
  </scstep>
  <scstep>
   <time name="dav">   11.42   11.50</time>
   <time name="total">   11.89   11.96</time>
   <energy>
    <i name="e_fr_energy">   -204.00484501 </i>
    <i name="e_wo_entrp">   -198.76819346 </i>
    <i name="e_0_energy">   -201.38651924 </i>
   </energy>
  </scstep>
  <scstep>
   <time name="dav">    9.65    9.72</time>
   <time name="total">    9.76    9.82</time>
   <energy>
    <i name="alphaZ">    918.22725072 </i>
    <i name="ewald">  20115.09250642 </i>
    <i name="hartreedc"> -52693.55537893 </i>
    <i name="XCdc">   -999.24954751 </i>
    <i name="pawpsdc">  35523.44503190 </i>
    <i name="pawaedc"> -33369.04024661 </i>
    <i name="eentropy">     -5.23665773 </i>
    <i name="bandstr">    144.44886980 </i>
    <i name="atom">  30161.86332653 </i>
    <i name="e_fr_energy">   -204.00484542 </i>
    <i name="e_wo_entrp">   -198.76818769 </i>
    <i name="e_0_energy">   -201.38651656 </i>
   </energy>
  </scstep>
  <structure>
   <crystal>
    <varray name="basis" >
     <v>       8.30990028       0.00000000       0.00000000 </v>
     <v>      -4.15495014       7.19658475       0.00000000 </v>
     <v>       0.00000000       0.00000000      16.52350044 </v>
    </varray>
    <i name="volume">    988.15327180 </i>
    <varray name="rec_basis" >
     <v>       0.12033839       0.06947740       0.00000000 </v>
     <v>       0.00000000       0.13895480       0.00000000 </v>
     <v>       0.00000000       0.00000000       0.06051986 </v>
    </varray>
   </crystal>
   <varray name="positions" >
    <v>       0.99960904       0.00041869       0.43741985 </v>
    <v>       0.11093000       0.22330000       0.16024000 </v>
    <v>       0.22194094       0.11226666       0.29861436 </v>
    <v>       0.33297186       0.00071921       0.43724285 </v>
    <v>       0.44426000       0.22330000       0.16024000 </v>
    <v>       0.55512754       0.11196794       0.29824798 </v>
    <v>       0.66626747       0.00073803       0.43688949 </v>
    <v>       0.77760000       0.22330000       0.16024000 </v>
    <v>       0.88867934       0.11203798       0.29842461 </v>
    <v>       0.99914396       0.33384642       0.43728982 </v>
    <v>       0.11093000       0.55664000       0.16024000 </v>
    <v>       0.22193174       0.44528406       0.29853582 </v>
    <v>       0.33279881       0.33385188       0.43820217 </v>
    <v>       0.44426000       0.55664000       0.16024000 </v>
    <v>       0.55483174       0.44521183       0.29842855 </v>
    <v>       0.66607001       0.33402773       0.43681616 </v>
    <v>       0.77760000       0.55664000       0.16024000 </v>
    <v>       0.88853775       0.44527605       0.29823559 </v>
    <v>       0.99942440       0.66726816       0.43676970 </v>
    <v>       0.11093000       0.88997000       0.16024000 </v>
    <v>       0.22196875       0.77872974       0.29829743 </v>
    <v>       0.33319399       0.66768796       0.43716219 </v>
    <v>       0.44426000       0.88997000       0.16024000 </v>
    <v>       0.55507125       0.77858607       0.29825266 </v>
    <v>       0.66629271       0.66737962       0.43683753 </v>
    <v>       0.77760000       0.88997000       0.16024000 </v>
    <v>       0.88857724       0.77881506       0.29822210 </v>
    <v>       0.99982000       0.00108000       0.02337000 </v>
    <v>       0.33315000       0.00108000       0.02337000 </v>
    <v>       0.66649000       0.00108000       0.02337000 </v>
    <v>       0.99982000       0.33441000       0.02337000 </v>
    <v>       0.33315000       0.33441000       0.02337000 </v>
    <v>       0.66649000       0.33441000       0.02337000 </v>
    <v>       0.99982000       0.66775000       0.02337000 </v>
    <v>       0.33315000       0.66775000       0.02337000 </v>
    <v>       0.66649000       0.66775000       0.02337000 </v>
    <v>       0.24724858       0.13313633       0.70664828 </v>
    <v>       0.26402608       0.28169362       0.69949716 </v>
    <v>       0.22991524       0.98458107       0.71477053 </v>
   </varray>
  </structure>
  <varray name="forces" >
   <v>       0.00061384       0.00852609      -0.02484387 </v>
   <v>       0.00193013      -0.00186092       0.16747589 </v>
   <v>       0.00163605      -0.00226542       0.00041439 </v>
   <v>      -0.00386409       0.00076072      -0.01583054 </v>
   <v>      -0.00422567       0.00035840       0.15493065 </v>
   <v>       0.00070995       0.00144826       0.00143174 </v>
   <v>       0.00134162      -0.00060366      -0.00229061 </v>
   <v>      -0.00063685      -0.00128836       0.15301063 </v>
   <v>       0.00115189       0.00024033      -0.00771028 </v>
   <v>       0.02090188       0.00719411      -0.02264188 </v>
   <v>       0.00465089      -0.00120307       0.15361001 </v>
   <v>       0.00181613       0.00166262       0.00652981 </v>
   <v>      -0.00714641       0.00919410      -0.06666973 </v>
   <v>      -0.00335129      -0.00705361       0.15945068 </v>
   <v>       0.00317198       0.00164301      -0.00149379 </v>
   <v>       0.00110266      -0.00266063       0.00828835 </v>
   <v>      -0.00293019      -0.00698732       0.14864614 </v>
   <v>      -0.00017540       0.00065005       0.00072058 </v>
   <v>       0.00795646       0.00422103       0.00547735 </v>
   <v>       0.00023585       0.00606593       0.16103448 </v>
   <v>      -0.00046753      -0.00036917      -0.00242322 </v>
   <v>      -0.00714962      -0.01551339      -0.00944832 </v>
   <v>      -0.00235035      -0.00046434       0.14930382 </v>
   <v>       0.00130858      -0.00008312      -0.00451873 </v>
   <v>      -0.00589142      -0.00303530       0.00453275 </v>
   <v>      -0.00132464       0.00281598       0.15831858 </v>
   <v>       0.00052111      -0.00189798       0.00258392 </v>
   <v>       0.00268093      -0.00648762      -0.13426455 </v>
   <v>      -0.00296813       0.00156592      -0.14405043 </v>
   <v>       0.00148567       0.00069429      -0.14049868 </v>
   <v>      -0.00088085      -0.00008873      -0.13887216 </v>
   <v>      -0.00040188      -0.00029623      -0.14173989 </v>
   <v>      -0.00102788       0.00031687      -0.14211043 </v>
   <v>      -0.00140890       0.00197682      -0.14551549 </v>
   <v>      -0.00160101      -0.00050670      -0.14421338 </v>
   <v>       0.00013215      -0.00025855      -0.14287606 </v>
   <v>      -0.03371796       0.00647128       0.09613109 </v>
   <v>       0.01325378      -0.00084670      -0.05315251 </v>
   <v>       0.01491851      -0.00203497      -0.04672632 </v>
  </varray>
  <varray name="stress" >
   <v>     -22.00525017      -0.34522094       0.06656149 </v>
   <v>      -0.34522119     -21.44455723      -0.02668126 </v>
   <v>       0.06656189      -0.02668114      -6.99545542 </v>
  </varray>
  <energy>
   <i name="e_fr_energy">   -204.00484542 </i>
   <i name="e_wo_entrp">   -198.76818769 </i>
   <i name="e_0_energy">   -201.38651656 </i>
  </energy>
  <time name="totalsc">  193.67  194.42</time>
 </calculation>
 <calculation>
  <scstep>
   <time name="dav">   13.41   13.50</time>
   <time name="total">   13.87   13.96</time>
   <energy>
    <i name="alphaZ">    918.22725072 </i>
    <i name="ewald">  20118.68481526 </i>
    <i name="hartreedc"> -52697.16869642 </i>
    <i name="XCdc">   -999.24693867 </i>
    <i name="pawpsdc">  35523.50107782 </i>
    <i name="pawaedc"> -33369.09708217 </i>
    <i name="eentropy">     -5.23670472 </i>
    <i name="bandstr">    144.46783659 </i>
    <i name="atom">  30161.86332653 </i>
    <i name="e_fr_energy">   -204.00511507 </i>
    <i name="e_wo_entrp">   -198.76841035 </i>
    <i name="e_0_energy">   -201.38676271 </i>
   </energy>
  </scstep>
  <scstep>
   <time name="dav">   14.31   14.40</time>
   <time name="total">   14.77   14.86</time>
   <energy>
    <i name="e_fr_energy">   -204.00517406 </i>
    <i name="e_wo_entrp">   -198.76848411 </i>
    <i name="e_0_energy">   -201.38682908 </i>
   </energy>
  </scstep>
  <scstep>
   <time name="dav">   12.19   12.27</time>
   <time name="total">   12.65   12.73</time>
   <energy>
    <i name="e_fr_energy">   -204.00516757 </i>
    <i name="e_wo_entrp">   -198.76850714 </i>
    <i name="e_0_energy">   -201.38683736 </i>
   </energy>
  </scstep>
  <scstep>
   <time name="dav">    9.70    9.76</time>
   <time name="total">    9.80    9.87</time>
   <energy>
    <i name="alphaZ">    918.22725072 </i>
    <i name="ewald">  20118.68481526 </i>
    <i name="hartreedc"> -52697.17963906 </i>
    <i name="XCdc">   -999.24734376 </i>
    <i name="pawpsdc">  35523.80380601 </i>
    <i name="pawaedc"> -33369.40388681 </i>
    <i name="eentropy">     -5.23665698 </i>
    <i name="bandstr">    144.48316906 </i>
    <i name="atom">  30161.86332653 </i>
    <i name="e_fr_energy">   -204.00515903 </i>
    <i name="e_wo_entrp">   -198.76850205 </i>
    <i name="e_0_energy">   -201.38683054 </i>
   </energy>
  </scstep>
  <structure>
   <crystal>
    <varray name="basis" >
     <v>       8.30990028       0.00000000       0.00000000 </v>
     <v>      -4.15495014       7.19658475       0.00000000 </v>
     <v>       0.00000000       0.00000000      16.52350044 </v>
    </varray>
    <i name="volume">    988.15327180 </i>
    <varray name="rec_basis" >
     <v>       0.12033839       0.06947740       0.00000000 </v>
     <v>       0.00000000       0.13895480       0.00000000 </v>
     <v>       0.00000000       0.00000000       0.06051986 </v>
    </varray>
   </crystal>
   <varray name="positions" >
    <v>       0.99961846       0.00043544       0.43739752 </v>
    <v>       0.11093000       0.22330000       0.16024000 </v>
    <v>       0.22194136       0.11226186       0.29861543 </v>
    <v>       0.33296516       0.00071981       0.43722880 </v>
    <v>       0.44426000       0.22330000       0.16024000 </v>
    <v>       0.55512979       0.11197051       0.29824917 </v>
[...]
    <v>       0.44426000       0.88997000       0.16024000 </v>
    <v>       0.55525960       0.77864856       0.29815078 </v>
    <v>       0.66637323       0.66743417       0.43677602 </v>
    <v>       0.77760000       0.88997000       0.16024000 </v>
    <v>       0.88864442       0.77870764       0.29816806 </v>
    <v>       0.99982000       0.00108000       0.02337000 </v>
    <v>       0.33315000       0.00108000       0.02337000 </v>
    <v>       0.66649000       0.00108000       0.02337000 </v>
    <v>       0.99982000       0.33441000       0.02337000 </v>
    <v>       0.33315000       0.33441000       0.02337000 </v>
    <v>       0.66649000       0.33441000       0.02337000 </v>
    <v>       0.99982000       0.66775000       0.02337000 </v>
    <v>       0.33315000       0.66775000       0.02337000 </v>
    <v>       0.66649000       0.66775000       0.02337000 </v>
    <v>       0.24462857       0.13772979       0.69690342 </v>
    <v>       0.26032097       0.28516435       0.68702163 </v>
    <v>       0.22896364       0.99031031       0.70684077 </v>
   </varray>
  </structure>
  <varray name="forces" >
   <v>       0.00023718       0.00025456       0.00012542 </v>
   <v>       0.00058815      -0.00147338       0.14511926 </v>
   <v>       0.00006058       0.00026321       0.00001382 </v>
   <v>       0.00011620       0.00019356       0.00009229 </v>
   <v>       0.00254270       0.00144883       0.13847790 </v>
   <v>       0.00004787       0.00020945       0.00013503 </v>
   <v>       0.00019842       0.00025637       0.00038990 </v>
   <v>      -0.00194117       0.00142234       0.14358706 </v>
   <v>       0.00008655       0.00018389       0.00013858 </v>
   <v>      -0.00015916       0.00074940      -0.00098401 </v>
   <v>      -0.00056601       0.00095600       0.13947040 </v>
   <v>       0.00029080      -0.00035729       0.00314731 </v>
   <v>       0.00013115       0.00030506      -0.00006564 </v>
   <v>       0.00064039      -0.00287701       0.14387422 </v>
   <v>       0.00042435      -0.00165500       0.00032166 </v>
   <v>       0.00019086       0.00023558       0.00004977 </v>
   <v>       0.00218711      -0.00433631       0.13809062 </v>
   <v>       0.00010412       0.00013416       0.00008560 </v>
   <v>      -0.00068836       0.00073567       0.00032513 </v>
   <v>      -0.00077674      -0.00018609       0.14583161 </v>
   <v>       0.00008335       0.00019285       0.00006059 </v>
   <v>       0.00018211       0.00018317       0.00002242 </v>
   <v>      -0.00033070       0.00127556       0.14193686 </v>
   <v>       0.00011994       0.00020815       0.00017129 </v>
   <v>      -0.00107319       0.00012279      -0.00087554 </v>
   <v>       0.00088568      -0.00000039       0.14856106 </v>
   <v>       0.00014913       0.00021614       0.00011128 </v>
   <v>       0.00248764      -0.00596767      -0.13523710 </v>
   <v>      -0.00269505       0.00206579      -0.14474771 </v>
   <v>       0.00124792       0.00084577      -0.14119584 </v>
   <v>      -0.00065972       0.00021415      -0.13948153 </v>
   <v>      -0.00041473       0.00043728      -0.14222430 </v>
   <v>      -0.00113341       0.00026808      -0.14238433 </v>
   <v>      -0.00124753       0.00225812      -0.14575479 </v>
   <v>      -0.00128612      -0.00019441      -0.14496136 </v>
   <v>      -0.00043237       0.00022032      -0.14337688 </v>
   <v>       0.00810224      -0.01706893      -0.00039204 </v>
   <v>      -0.00489883       0.00833378      -0.00540536 </v>
   <v>      -0.00280136       0.00992644      -0.00305264 </v>
  </varray>
  <varray name="stress" >
   <v>     -21.55037948      -0.32117676       0.05279745 </v>
   <v>      -0.32117661     -21.01025385      -0.07311681 </v>
   <v>       0.05279771      -0.07311679      -6.00311664 </v>
  </varray>
  <energy>
   <i name="e_fr_energy">   -204.00824264 </i>
   <i name="e_wo_entrp">   -198.77246771 </i>
   <i name="e_0_energy">   -201.39035518 </i>
  </energy>
  <time name="totalsc">  162.01  162.68</time>
 </calculation>
 <calculation>
  <scstep>
   <time name="dav">    9.45    9.51</time>
   <time name="total">    9.91    9.97</time>
   <energy>
    <i name="alphaZ">    918.22725072 </i>
    <i name="ewald">  20313.72977166 </i>
    <i name="hartreedc"> -52892.05215879 </i>
    <i name="XCdc">   -999.16564882 </i>
    <i name="pawpsdc">  35536.45408835 </i>
    <i name="pawaedc"> -33382.22947903 </i>
    <i name="eentropy">     -5.23576068 </i>
    <i name="bandstr">    144.40036763 </i>
    <i name="atom">  30161.86332653 </i>
    <i name="e_fr_energy">   -204.00824243 </i>
    <i name="e_wo_entrp">   -198.77248174 </i>
    <i name="e_0_energy">   -201.39036209 </i>
   </energy>
  </scstep>
  <scstep>
   <time name="dav">    9.18    9.24</time>
   <time name="total">    9.64    9.70</time>
   <energy>
    <i name="e_fr_energy">   -204.00824525 </i>
    <i name="e_wo_entrp">   -198.77243888 </i>
    <i name="e_0_energy">   -201.39034207 </i>
   </energy>
  </scstep>
  <scstep>
   <time name="dav">    8.44    8.49</time>
   <time name="total">    8.90    8.96</time>
   <energy>
    <i name="e_fr_energy">   -204.00824366 </i>
    <i name="e_wo_entrp">   -198.77248581 </i>
    <i name="e_0_energy">   -201.39036473 </i>
   </energy>
  </scstep>
  <scstep>
   <time name="dav">    8.44    8.49</time>
   <time name="total">    8.54    8.60</time>
   <energy>
    <i name="alphaZ">    918.22725072 </i>
    <i name="ewald">  20313.72977166 </i>
    <i name="hartreedc"> -52892.05158704 </i>
    <i name="XCdc">   -999.16568411 </i>
    <i name="pawpsdc">  35536.46388300 </i>
    <i name="pawaedc"> -33382.23929461 </i>
    <i name="eentropy">     -5.23576084 </i>
    <i name="bandstr">    144.39985067 </i>
    <i name="atom">  30161.86332653 </i>
    <i name="e_fr_energy">   -204.00824403 </i>
    <i name="e_wo_entrp">   -198.77248318 </i>
    <i name="e_0_energy">   -201.39036361 </i>
   </energy>
  </scstep>
  <structure>
   <crystal>
    <varray name="basis" >
     <v>       8.30990028       0.00000000       0.00000000 </v>
     <v>      -4.15495014       7.19658475       0.00000000 </v>
     <v>       0.00000000       0.00000000      16.52350044 </v>
    </varray>
    <i name="volume">    988.15327180 </i>
    <varray name="rec_basis" >
     <v>       0.12033839       0.06947740       0.00000000 </v>
     <v>       0.00000000       0.13895480       0.00000000 </v>
     <v>       0.00000000       0.00000000       0.06051986 </v>
    </varray>
   </crystal>
   <varray name="positions" >
    <v>       0.99972418       0.00070100       0.43684633 </v>
    <v>       0.11093000       0.22330000       0.16024000 </v>
    <v>       0.22202121       0.11212261       0.29818503 </v>
    <v>       0.33301680       0.00082298       0.43680943 </v>
    <v>       0.44426000       0.22330000       0.16024000 </v>
    <v>       0.55535794       0.11206729       0.29816579 </v>
    <v>       0.66640466       0.00082255       0.43673151 </v>
    <v>       0.77760000       0.22330000       0.16024000 </v>
    <v>       0.88875865       0.11203824       0.29816980 </v>
    <v>       0.99974029       0.33413095       0.43674835 </v>
    <v>       0.11093000       0.55664000       0.16024000 </v>
    <v>       0.22204079       0.44551141       0.29815962 </v>
    <v>       0.33305893       0.33416919       0.43685225 </v>
    <v>       0.44426000       0.55664000       0.16024000 </v>
    <v>       0.55530026       0.44538643       0.29817793 </v>
    <v>       0.66628678       0.33405146       0.43680808 </v>
    <v>       0.77760000       0.55664000       0.16024000 </v>
    <v>       0.88861837       0.44535241       0.29817758 </v>
    <v>       0.99969698       0.66747072       0.43677421 </v>
    <v>       0.11093000       0.88997000       0.16024000 </v>
    <v>       0.22202901       0.77875819       0.29813983 </v>
    <v>       0.33306038       0.66755271       0.43681048 </v>
    <v>       0.44426000       0.88997000       0.16024000 </v>
    <v>       0.55525987       0.77864881       0.29815084 </v>
    <v>       0.66637205       0.66743427       0.43677547 </v>
    <v>       0.77760000       0.88997000       0.16024000 </v>
    <v>       0.88864472       0.77870789       0.29816810 </v>
    <v>       0.99982000       0.00108000       0.02337000 </v>
    <v>       0.33315000       0.00108000       0.02337000 </v>
    <v>       0.66649000       0.00108000       0.02337000 </v>
    <v>       0.99982000       0.33441000       0.02337000 </v>
    <v>       0.33315000       0.33441000       0.02337000 </v>
    <v>       0.66649000       0.33441000       0.02337000 </v>
    <v>       0.99982000       0.66775000       0.02337000 </v>
    <v>       0.33315000       0.66775000       0.02337000 </v>
    <v>       0.66649000       0.66775000       0.02337000 </v>
    <v>       0.24462486       0.13771010       0.69689640 </v>
    <v>       0.26031834       0.28517776       0.68701031 </v>
    <v>       0.22896613       0.99032703       0.70683362 </v>
   </varray>
  </structure>
  <varray name="forces" >
   <v>       0.00012280       0.00017886       0.00039701 </v>
   <v>       0.00056633      -0.00149263       0.14504308 </v>
   <v>      -0.00003670       0.00001587      -0.00019146 </v>
   <v>       0.00010188       0.00013092       0.00044537 </v>
   <v>       0.00255714       0.00140961       0.13839353 </v>
   <v>       0.00005088      -0.00003710      -0.00004149 </v>
   <v>       0.00010029       0.00019626       0.00051069 </v>
   <v>      -0.00202793       0.00134599       0.14348261 </v>
   <v>      -0.00007275      -0.00002040      -0.00004329 </v>
   <v>       0.00058639      -0.00028441       0.00157769 </v>
   <v>      -0.00056629       0.00099739       0.13940795 </v>
   <v>      -0.00061551       0.00031524      -0.00210616 </v>
   <v>       0.00019001       0.00023381       0.00050319 </v>
   <v>       0.00063575      -0.00282685       0.14386264 </v>
   <v>      -0.00021454       0.00154286      -0.00027950 </v>
   <v>       0.00011180       0.00020362       0.00034315 </v>
   <v>       0.00210241      -0.00431883       0.13802111 </v>
   <v>       0.00000156       0.00010077      -0.00010504 </v>
   <v>       0.00019817       0.00012306       0.00029501 </v>
   <v>      -0.00079886      -0.00019677       0.14575649 </v>
   <v>      -0.00044044      -0.00080407      -0.00039307 </v>
   <v>       0.00011050       0.00038466       0.00033966 </v>
   <v>      -0.00032190       0.00128730       0.14188855 </v>
   <v>       0.00005307       0.00008665      -0.00010619 </v>
   <v>       0.00079098       0.00034114       0.00104837 </v>
   <v>       0.00080639      -0.00004242       0.14849788 </v>
   <v>      -0.00000391       0.00004957      -0.00012193 </v>
   <v>       0.00242680      -0.00603079      -0.13504952 </v>
   <v>      -0.00267325       0.00204828      -0.14440759 </v>
   <v>       0.00118619       0.00079135      -0.14081229 </v>
   <v>      -0.00072392       0.00018348      -0.13943902 </v>
   <v>      -0.00039820       0.00044700      -0.14208551 </v>
   <v>      -0.00118560       0.00023365      -0.14218367 </v>
   <v>      -0.00130724       0.00229096      -0.14564801 </v>
   <v>      -0.00127530      -0.00011284      -0.14472198 </v>
   <v>      -0.00048427       0.00025831      -0.14314557 </v>
   <v>      -0.00991130       0.02247008      -0.00626746 </v>
   <v>       0.00416242      -0.01155722      -0.00249617 </v>
   <v>       0.00619615      -0.00994239      -0.00016907 </v>
  </varray>
  <varray name="stress" >
   <v>     -21.55313365      -0.32247769       0.05602990 </v>
   <v>      -0.32247791     -21.01887181      -0.07601831 </v>
   <v>       0.05603007      -0.07601860      -6.01584492 </v>
  </varray>
  <energy>
   <i name="e_fr_energy">   -204.00824403 </i>
   <i name="e_wo_entrp">   -198.77248318 </i>
   <i name="e_0_energy">   -201.39036361 </i>
  </energy>
  <time name="totalsc">  167.35  168.02</time>
 </calculation>
 <calculation>
  <scstep>
   <time name="dav">    9.09    9.15</time>
   <time name="total">    9.54    9.61</time>
   <energy>
    <i name="alphaZ">    918.22725072 </i>
    <i name="ewald">  20313.73546511 </i>
    <i name="hartreedc"> -52892.04995619 </i>
    <i name="XCdc">   -999.16567759 </i>
    <i name="pawpsdc">  35536.45906006 </i>
    <i name="pawaedc"> -33382.23447381 </i>
    <i name="eentropy">     -5.23577132 </i>
    <i name="bandstr">    144.39253109 </i>
    <i name="atom">  30161.86332653 </i>
    <i name="e_fr_energy">   -204.00824540 </i>
    <i name="e_wo_entrp">   -198.77247409 </i>
    <i name="e_0_energy">   -201.39035974 </i>
   </energy>
  </scstep>
  <scstep>
   <time name="dav">    8.87    8.93</time>
   <time name="total">    9.33    9.39</time>
   <energy>
    <i name="e_fr_energy">   -204.00824829 </i>
    <i name="e_wo_entrp">   -198.77250290 </i>
    <i name="e_0_energy">   -201.39037560 </i>
   </energy>
  </scstep>
  <scstep>
   <time name="dav">    8.61    8.66</time>
   <time name="total">    9.07    9.12</time>
   <energy>
    <i name="e_fr_energy">   -204.00824573 </i>
    <i name="e_wo_entrp">   -198.77248288 </i>
    <i name="e_0_energy">   -201.39036431 </i>
   </energy>
  </scstep>
  <scstep>
   <time name="dav">    8.44    8.50</time>
   <time name="total">    8.55    8.61</time>
   <energy>
    <i name="alphaZ">    918.22725072 </i>
    <i name="ewald">  20313.73546511 </i>
    <i name="hartreedc"> -52892.05247999 </i>
    <i name="XCdc">   -999.16566096 </i>
    <i name="pawpsdc">  35536.45543232 </i>
    <i name="pawaedc"> -33382.23081624 </i>
    <i name="eentropy">     -5.23577068 </i>
    <i name="bandstr">    144.39500766 </i>
    <i name="atom">  30161.86332653 </i>
    <i name="e_fr_energy">   -204.00824553 </i>
    <i name="e_wo_entrp">   -198.77247485 </i>
    <i name="e_0_energy">   -201.39036019 </i>
   </energy>
  </scstep>
  <structure>
   <crystal>
    <varray name="basis" >
     <v>       8.30990028       0.00000000       0.00000000 </v>
     <v>      -4.15495014       7.19658475       0.00000000 </v>
     <v>       0.00000000       0.00000000      16.52350044 </v>
    </varray>
    <i name="volume">    988.15327180 </i>
    <varray name="rec_basis" >
     <v>       0.12033839       0.06947740       0.00000000 </v>
     <v>       0.00000000       0.13895480       0.00000000 </v>
     <v>       0.00000000       0.00000000       0.06051986 </v>
    </varray>
   </crystal>
   <varray name="positions" >
    <v>       0.99972424       0.00070105       0.43684637 </v>
    <v>       0.11093000       0.22330000       0.16024000 </v>
    <v>       0.22202120       0.11212260       0.29818499 </v>
    <v>       0.33301684       0.00082301       0.43680949 </v>
    <v>       0.44426000       0.22330000       0.16024000 </v>
    <v>       0.55535795       0.11206727       0.29816577 </v>
    <v>       0.66640472       0.00082260       0.43673157 </v>
    <v>       0.77760000       0.22330000       0.16024000 </v>
    <v>       0.88875862       0.11203823       0.29816979 </v>
    <v>       0.99974041       0.33413084       0.43674857 </v>
    <v>       0.11093000       0.55664000       0.16024000 </v>
    <v>       0.22204066       0.44551152       0.29815929 </v>
    <v>       0.33305902       0.33416926       0.43685232 </v>
    <v>       0.44426000       0.55664000       0.16024000 </v>
    <v>       0.55530046       0.44538696       0.29817789 </v>
    <v>       0.66628684       0.33405151       0.43680812 </v>
    <v>       0.77760000       0.55664000       0.16024000 </v>
    <v>       0.88861839       0.44535244       0.29817756 </v>
    <v>       0.99969706       0.66747076       0.43677424 </v>
    <v>       0.11093000       0.88997000       0.16024000 </v>
    <v>       0.22202874       0.77875790       0.29813976 </v>
    <v>       0.33306047       0.66755283       0.43681052 </v>
    <v>       0.44426000       0.88997000       0.16024000 </v>
    <v>       0.55525990       0.77864884       0.29815082 </v>
    <v>       0.66637234       0.66743437       0.43677561 </v>
    <v>       0.77760000       0.88997000       0.16024000 </v>
    <v>       0.88864473       0.77870789       0.29816807 </v>
    <v>       0.99982000       0.00108000       0.02337000 </v>
    <v>       0.33315000       0.00108000       0.02337000 </v>
    <v>       0.66649000       0.00108000       0.02337000 </v>
    <v>       0.99982000       0.33441000       0.02337000 </v>
    <v>       0.33315000       0.33441000       0.02337000 </v>
    <v>       0.66649000       0.33441000       0.02337000 </v>
    <v>       0.99982000       0.66775000       0.02337000 </v>
    <v>       0.33315000       0.66775000       0.02337000 </v>
    <v>       0.66649000       0.66775000       0.02337000 </v>
    <v>       0.24462536       0.13771862       0.69689381 </v>
    <v>       0.26031697       0.28517432       0.68700794 </v>
    <v>       0.22896605       0.99032444       0.70683229 </v>
   </varray>
  </structure>
  <varray name="forces" >
   <v>       0.00017666       0.00022566       0.00012679 </v>
   <v>       0.00054259      -0.00150560       0.14510422 </v>
   <v>      -0.00002282       0.00012392       0.00011790 </v>
   <v>       0.00009442       0.00015659       0.00016623 </v>
   <v>       0.00253143       0.00140180       0.13845915 </v>
   <v>       0.00003284       0.00006208       0.00029563 </v>
   <v>       0.00014345       0.00024461       0.00038441 </v>
   <v>      -0.00205408       0.00133349       0.14355054 </v>
   <v>      -0.00002855       0.00006502       0.00029099 </v>
   <v>      -0.00007226       0.00055692      -0.00039644 </v>
   <v>      -0.00059383       0.00098699       0.13946863 </v>
   <v>       0.00033140      -0.00025756       0.00067970 </v>
   <v>       0.00016610       0.00028444       0.00007528 </v>
   <v>       0.00061081      -0.00283408       0.14392416 </v>
   <v>       0.00019442      -0.00064330       0.00031788 </v>
   <v>       0.00015210       0.00023123       0.00008275 </v>
   <v>       0.00207699      -0.00432751       0.13809303 </v>
   <v>       0.00002788       0.00011247       0.00022613 </v>
   <v>      -0.00013365       0.00035897       0.00017146 </v>
   <v>      -0.00082407      -0.00020528       0.14582295 </v>
   <v>       0.00022772       0.00048260       0.00029073 </v>
   <v>       0.00013025       0.00032340       0.00005509 </v>
   <v>      -0.00034680       0.00127875       0.14195037 </v>
   <v>       0.00007145       0.00014637       0.00026515 </v>
   <v>       0.00008966       0.00027707       0.00021035 </v>
   <v>       0.00077971      -0.00005274       0.14856412 </v>
   <v>       0.00004959       0.00012236       0.00023062 </v>
   <v>       0.00240285      -0.00603458      -0.13523878 </v>
   <v>      -0.00269747       0.00203896      -0.14463946 </v>
   <v>       0.00116138       0.00078330      -0.14101718 </v>
   <v>      -0.00074541       0.00017344      -0.13959703 </v>
   <v>      -0.00042709       0.00043560      -0.14225808 </v>
   <v>      -0.00120903       0.00022091      -0.14237952 </v>
   <v>      -0.00132692       0.00227907      -0.14583043 </v>
   <v>      -0.00130109      -0.00012621      -0.14491395 </v>
   <v>      -0.00051218       0.00024711      -0.14335673 </v>
   <v>      -0.00476062       0.01103334      -0.00483912 </v>
   <v>       0.00148905      -0.00578405      -0.00342139 </v>
   <v>       0.00357314      -0.00421555      -0.00103612 </v>
  </varray>
  <varray name="stress" >
   <v>     -21.55113981      -0.32087881       0.05427650 </v>
   <v>      -0.32087867     -21.01284063      -0.07392783 </v>
   <v>       0.05427649      -0.07392797      -6.00946866 </v>
  </varray>
  <energy>
   <i name="e_fr_energy">   -204.00824553 </i>
   <i name="e_wo_entrp">   -198.77247485 </i>
   <i name="e_0_energy">   -201.39036019 </i>
  </energy>
