PBE-grap                                
           1
     8.309900    0.000000    0.000000
    -4.154950    7.196585    0.000000
     0.000000    0.000000   16.523500
   Pd   C    O 
    36     1     2
Direct configuration=     1
   0.99958969  0.00038857  0.43745991
   0.11093000  0.22330000  0.16024000
   0.22193957  0.11227118  0.29860754
   0.33298968  0.00071964  0.43726782
   0.44426000  0.22330000  0.16024000
   0.55512482  0.11196331  0.29824570
   0.66626614  0.00074366  0.43689377
   0.77760000  0.22330000  0.16024000
   0.88867326  0.11203680  0.29843503
   0.99906031  0.33381923  0.43732500
   0.11093000  0.55664000  0.16024000
   0.22192251  0.44528119  0.29851835
   0.33280997  0.33381593  0.43830492
   0.44426000  0.55664000  0.16024000
   0.55482406  0.44521080  0.29842897
   0.66607753  0.33404172  0.43680334
   0.77760000  0.55664000  0.16024000
   0.88853727  0.44527472  0.29823501
   0.99938941  0.66725493  0.43676234
   0.11093000  0.88997000  0.16024000
   0.22197105  0.77873091  0.29830023
   0.33324916  0.66775236  0.43717719
   0.44426000  0.88997000  0.16024000
   0.55506838  0.77858789  0.29826042
   0.66632064  0.66739402  0.43683124
   0.77760000  0.88997000  0.16024000
   0.88857877  0.77882064  0.29821829
   0.99982000  0.00108000  0.02337000
   0.33315000  0.00108000  0.02337000
   0.66649000  0.00108000  0.02337000
   0.99982000  0.33441000  0.02337000
   0.33315000  0.33441000  0.02337000
   0.66649000  0.33441000  0.02337000
   0.99982000  0.66775000  0.02337000
   0.33315000  0.66775000  0.02337000
   0.66649000  0.66775000  0.02337000
   0.24740157  0.13311386  0.70653846
   0.26400076  0.28164388  0.69971573
   0.22986951  0.98452448  0.71494267
Direct configuration=     2
   0.99959446  0.00039546  0.43745099
   0.11093000  0.22330000  0.16024000
   0.22193987  0.11227062  0.29860962
   0.33298542  0.00071947  0.43726211
   0.44426000  0.22330000  0.16024000
   0.55512529  0.11196430  0.29824629
   0.66626645  0.00074243  0.43689286
   0.77760000  0.22330000  0.16024000
   0.88867482  0.11203712  0.29843293
   0.99907938  0.33382549  0.43731729
   0.11093000  0.55664000  0.16024000
   0.22192461  0.44528162  0.29852285
   0.33280697  0.33382447  0.43828227
   0.44426000  0.55664000  0.16024000
   0.55482530  0.44521086  0.29842913
   0.66607565  0.33403857  0.43680611
   0.77760000  0.55664000  0.16024000
   0.88853747  0.44527500  0.29823518
   0.99939749  0.66725761  0.43676388
   0.11093000  0.88997000  0.16024000
   0.22197054  0.77873068  0.29829977
   0.33323659  0.66773750  0.43717383
   0.44426000  0.88997000  0.16024000
   0.55506895  0.77858740  0.29825874
   0.66631422  0.66739068  0.43683260
   0.77760000  0.88997000  0.16024000
   0.88857853  0.77881958  0.29821920
   0.99982000  0.00108000  0.02337000
   0.33315000  0.00108000  0.02337000
   0.66649000  0.00108000  0.02337000
   0.99982000  0.33441000  0.02337000
   0.33315000  0.33441000  0.02337000
   0.66649000  0.33441000  0.02337000
   0.99982000  0.66775000  0.02337000
   0.33315000  0.66775000  0.02337000
   0.66649000  0.66775000  0.02337000
   0.24736369  0.13310671  0.70656857
   0.26400872  0.28166072  0.69966586
   0.22988179  0.98454216  0.71490257
Direct configuration=     3
   0.99960129  0.00040541  0.43743747
   0.11093000  0.22330000  0.16024000
   0.22194029  0.11226957  0.29861230
   0.33297923  0.00071930  0.43725374
   0.44426000  0.22330000  0.16024000
   0.55512612  0.11196579  0.29824719
   0.66626690  0.00074060  0.43689134
   0.77760000  0.22330000  0.16024000
   0.88867694  0.11203754  0.29842975
   0.99910701  0.33383455  0.43730564
   0.11093000  0.55664000  0.16024000
   0.22192766  0.44528245  0.29852898
   0.33280260  0.33383656  0.43824842
   0.44426000  0.55664000  0.16024000
   0.55482759  0.44521112  0.29842923
   0.66607315  0.33403402  0.43681010
   0.77760000  0.55664000  0.16024000
   0.88853770  0.44527543  0.29823551
   0.99940910  0.66726148  0.43676610
   0.11093000  0.88997000  0.16024000
   0.22196980  0.77873030  0.29829907
   0.33321843  0.66771620  0.43716877
   0.44426000  0.88997000  0.16024000
   0.55506986  0.77858674  0.29825636
   0.66630505  0.66738592  0.43683447
   0.77760000  0.88997000  0.16024000
   0.88857811  0.77881785  0.29822058
   0.99982000  0.00108000  0.02337000
   0.33315000  0.00108000  0.02337000
   0.66649000  0.00108000  0.02337000
   0.99982000  0.33441000  0.02337000
   0.33315000  0.33441000  0.02337000
   0.66649000  0.33441000  0.02337000
   0.99982000  0.66775000  0.02337000
   0.33315000  0.66775000  0.02337000
   0.66649000  0.66775000  0.02337000
   0.24731291  0.13312549  0.70660698
   0.26401742  0.28167136  0.69959299
   0.22989707  0.98455471  0.71484495
Direct configuration=     4
   0.99960904  0.00041869  0.43741985
   0.11093000  0.22330000  0.16024000
   0.22194094  0.11226666  0.29861436
   0.33297186  0.00071921  0.43724285
   0.44426000  0.22330000  0.16024000
   0.55512754  0.11196794  0.29824798
   0.66626747  0.00073803  0.43688949
   0.77760000  0.22330000  0.16024000
   0.88867934  0.11203798  0.29842461
   0.99914396  0.33384642  0.43728982
   0.11093000  0.55664000  0.16024000
   0.22193174  0.44528406  0.29853582
   0.33279881  0.33385188  0.43820217
   0.44426000  0.55664000  0.16024000
   0.55483174  0.44521183  0.29842855
   0.66607001  0.33402773  0.43681616
   0.77760000  0.55664000  0.16024000
   0.88853775  0.44527605  0.29823559
   0.99942440  0.66726816  0.43676970
   0.11093000  0.88997000  0.16024000
   0.22196875  0.77872974  0.29829743
   0.33319399  0.66768796  0.43716219
   0.44426000  0.88997000  0.16024000
   0.55507125  0.77858607  0.29825266
   0.66629271  0.66737962  0.43683753
   0.77760000  0.88997000  0.16024000
   0.88857724  0.77881506  0.29822210
   0.99982000  0.00108000  0.02337000
   0.33315000  0.00108000  0.02337000
   0.66649000  0.00108000  0.02337000
   0.99982000  0.33441000  0.02337000
   0.33315000  0.33441000  0.02337000
   0.66649000  0.33441000  0.02337000
   0.99982000  0.66775000  0.02337000
   0.33315000  0.66775000  0.02337000
   0.66649000  0.66775000  0.02337000
   0.24724858  0.13313633  0.70664828
   0.26402608  0.28169362  0.69949716
   0.22991524  0.98458107  0.71477053
Direct configuration=     5
   0.99961846  0.00043544  0.43739752
   0.11093000  0.22330000  0.16024000
   0.22194136  0.11226186  0.29861543
   0.33296516  0.00071981  0.43722880
   0.44426000  0.22330000  0.16024000
   0.55512979  0.11197051  0.29824917
   0.66626856  0.00073580  0.43688701
   0.77760000  0.22330000  0.16024000
   0.88868163  0.11203829  0.29841770
   0.99918816  0.33386044  0.43726947
   0.11093000  0.55664000  0.16024000
   0.22193658  0.44528685  0.29854239
   0.33279438  0.33386982  0.43814353
   0.44426000  0.55664000  0.16024000
   0.55483798  0.44521443  0.29842761
   0.66606823  0.33402109  0.43682348
   0.77760000  0.55664000  0.16024000
   0.88853765  0.44527680  0.29823607
   0.99944253  0.66727596  0.43677413
   0.11093000  0.88997000  0.16024000
   0.22196732  0.77872860  0.29829525
   0.33316463  0.66765478  0.43715376
   0.44426000  0.88997000  0.16024000
   0.55507303  0.77858542  0.29824836
   0.66627813  0.66737223  0.43684134
   0.77760000  0.88997000  0.16024000
   0.88857581  0.77881080  0.29822424
   0.99982000  0.00108000  0.02337000
   0.33315000  0.00108000  0.02337000
   0.66649000  0.00108000  0.02337000
   0.99982000  0.33441000  0.02337000
   0.33315000  0.33441000  0.02337000
   0.66649000  0.33441000  0.02337000
   0.99982000  0.66775000  0.02337000
   0.33315000  0.66775000  0.02337000
   0.66649000  0.66775000  0.02337000
   0.24717969  0.13317398  0.70667972
   0.26402843  0.28171140  0.69938089
   0.22993226  0.98460500  0.71468265
Direct configuration=     6
   0.99962892  0.00045454  0.43736989
   0.11093000  0.22330000  0.16024000
   0.22194159  0.11225664  0.29861426
   0.33295582  0.00071806  0.43721313
   0.44426000  0.22330000  0.16024000
   0.55513337  0.11197388  0.29824969
   0.66627001  0.00073297  0.43688379
   0.77760000  0.22330000  0.16024000
   0.88868350  0.11203836  0.29840789
   0.99923825  0.33387578  0.43724466
   0.11093000  0.55664000  0.16024000
   0.22194226  0.44529122  0.29854630
   0.33278949  0.33388955  0.43807256
   0.44426000  0.55664000  0.16024000
   0.55484711  0.44521780  0.29842582
   0.66606740  0.33401342  0.43683280
   0.77760000  0.55664000  0.16024000
   0.88853727  0.44527783  0.29823599
   0.99946302  0.66728528  0.43678004
   0.11093000  0.88997000  0.16024000
   0.22196580  0.77872712  0.29829134
   0.33313164  0.66761825  0.43714378
   0.44426000  0.88997000  0.16024000
   0.55507567  0.77858519  0.29824262
   0.66626199  0.66736421  0.43684628
   0.77760000  0.88997000  0.16024000
   0.88857375  0.77880493  0.29822604
   0.99982000  0.00108000  0.02337000
   0.33315000  0.00108000  0.02337000
   0.66649000  0.00108000  0.02337000
   0.99982000  0.33441000  0.02337000
   0.33315000  0.33441000  0.02337000
   0.66649000  0.33441000  0.02337000
   0.99982000  0.66775000  0.02337000
   0.33315000  0.66775000  0.02337000
   0.66649000  0.66775000  0.02337000
   0.24710423  0.13315817  0.70669144
   0.26402478  0.28176155  0.69924946
   0.22994883  0.98467152  0.71458654
Direct configuration=     7
   0.99963432  0.00046322  0.43734752
   0.11093000  0.22330000  0.16024000
   0.22194158  0.11225117  0.29861087
   0.33294955  0.00071622  0.43719905
   0.44426000  0.22330000  0.16024000
   0.55513696  0.11197748  0.29825075
   0.66627096  0.00073068  0.43687984
   0.77760000  0.22330000  0.16024000
   0.88868343  0.11203789  0.29840033
   0.99927220  0.33388476  0.43722402
   0.11093000  0.55664000  0.16024000
   0.22194660  0.44529597  0.29854652
   0.33278765  0.33390481  0.43801748
   0.44426000  0.55664000  0.16024000
   0.55485721  0.44522161  0.29842368
   0.66606903  0.33400824  0.43683923
   0.77760000  0.55664000  0.16024000
   0.88853679  0.44527910  0.29823680
   0.99947791  0.66729240  0.43678384
   0.11093000  0.88997000  0.16024000
   0.22196436  0.77872582  0.29828835
   0.33310687  0.66759257  0.43713439
   0.44426000  0.88997000  0.16024000
   0.55507817  0.77858516  0.29823881
   0.66625096  0.66735898  0.43684917
   0.77760000  0.88997000  0.16024000
   0.88857188  0.77879959  0.29822819
   0.99982000  0.00108000  0.02337000
   0.33315000  0.00108000  0.02337000
   0.66649000  0.00108000  0.02337000
   0.99982000  0.33441000  0.02337000
   0.33315000  0.33441000  0.02337000
   0.66649000  0.33441000  0.02337000
   0.99982000  0.66775000  0.02337000
   0.33315000  0.66775000  0.02337000
   0.66649000  0.66775000  0.02337000
   0.24707866  0.13334122  0.70666513
   0.26400304  0.28170746  0.69915795
   0.22994350  0.98462833  0.71452518
Direct configuration=     8
   0.99963469  0.00046430  0.43734437
   0.11093000  0.22330000  0.16024000
   0.22194161  0.11225027  0.29861009
   0.33294879  0.00071597  0.43719709
   0.44426000  0.22330000  0.16024000
   0.55513757  0.11197800  0.29825086
   0.66627109  0.00073032  0.43687913
   0.77760000  0.22330000  0.16024000
   0.88868338  0.11203742  0.29839937
   0.99927672  0.33388622  0.43722111
   0.11093000  0.55664000  0.16024000
   0.22194722  0.44529676  0.29854617
   0.33278693  0.33390659  0.43800999
   0.44426000  0.55664000  0.16024000
   0.55485894  0.44522225  0.29842322
   0.66606941  0.33400756  0.43684015
   0.77760000  0.55664000  0.16024000
   0.88853669  0.44527933  0.29823691
   0.99947991  0.66729338  0.43678422
   0.11093000  0.88997000  0.16024000
   0.22196415  0.77872561  0.29828787
   0.33310361  0.66758927  0.43713315
   0.44426000  0.88997000  0.16024000
   0.55507860  0.77858522  0.29823827
   0.66624970  0.66735861  0.43684953
   0.77760000  0.88997000  0.16024000
   0.88857156  0.77879868  0.29822845
   0.99982000  0.00108000  0.02337000
   0.33315000  0.00108000  0.02337000
   0.66649000  0.00108000  0.02337000
   0.99982000  0.33441000  0.02337000
   0.33315000  0.33441000  0.02337000
   0.66649000  0.33441000  0.02337000
   0.99982000  0.66775000  0.02337000
   0.33315000  0.66775000  0.02337000
   0.66649000  0.66775000  0.02337000
   0.24706418  0.13326644  0.70666402
   0.26400479  0.28175070  0.69914188
   0.22994788  0.98467328  0.71451378
Direct configuration=     9
   0.99963577  0.00046720  0.43733647
   0.11093000  0.22330000  0.16024000
   0.22194166  0.11224810  0.29860793
   0.33294683  0.00071545  0.43719224
   0.44426000  0.22330000  0.16024000
   0.55513905  0.11197937  0.29825079
   0.66627145  0.00072944  0.43687781
   0.77760000  0.22330000  0.16024000
   0.88868323  0.11203590  0.29839694
   0.99928817  0.33388979  0.43721394
   0.11093000  0.55664000  0.16024000
   0.22194879  0.44529871  0.29854506
   0.33278506  0.33391098  0.43799155
   0.44426000  0.55664000  0.16024000
   0.55486316  0.44522379  0.29842181
   0.66607021  0.33400577  0.43684265
   0.77760000  0.55664000  0.16024000
   0.88853644  0.44527982  0.29823680
   0.99948494  0.66729586  0.43678569
   0.11093000  0.88997000  0.16024000
   0.22196371  0.77872515  0.29828629
   0.33309539  0.66758086  0.43713012
   0.44426000  0.88997000  0.16024000
   0.55507963  0.77858533  0.29823655
   0.66624639  0.66735758  0.43685069
   0.77760000  0.88997000  0.16024000
   0.88857076  0.77879652  0.29822875
   0.99982000  0.00108000  0.02337000
   0.33315000  0.00108000  0.02337000
   0.66649000  0.00108000  0.02337000
   0.99982000  0.33441000  0.02337000
   0.33315000  0.33441000  0.02337000
   0.66649000  0.33441000  0.02337000
   0.99982000  0.66775000  0.02337000
   0.33315000  0.66775000  0.02337000
   0.66649000  0.66775000  0.02337000
   0.24704113  0.13320217  0.70665145
   0.26400066  0.28179824  0.69910052
   0.22995136  0.98472702  0.71448565
Direct configuration=    10
   0.99963608  0.00046914  0.43732975
   0.11093000  0.22330000  0.16024000
   0.22194172  0.11224624  0.29860624
   0.33294567  0.00071512  0.43718802
   0.44426000  0.22330000  0.16024000
   0.55514034  0.11198050  0.29825104
   0.66627176  0.00072871  0.43687642
   0.77760000  0.22330000  0.16024000
   0.88868309  0.11203469  0.29839515
   0.99929736  0.33389260  0.43720762
   0.11093000  0.55664000  0.16024000
   0.22195006  0.44530035  0.29854417
   0.33278372  0.33391453  0.43797569
   0.44426000  0.55664000  0.16024000
   0.55486679  0.44522509  0.29842086
   0.66607097  0.33400435  0.43684449
   0.77760000  0.55664000  0.16024000
   0.88853625  0.44528021  0.29823702
   0.99948896  0.66729788  0.43678666
   0.11093000  0.88997000  0.16024000
   0.22196336  0.77872474  0.29828526
   0.33308884  0.66757421  0.43712729
   0.44426000  0.88997000  0.16024000
   0.55508021  0.77858532  0.29823580
   0.66624377  0.66735675  0.43685139
   0.77760000  0.88997000  0.16024000
   0.88857011  0.77879470  0.29822930
   0.99982000  0.00108000  0.02337000
   0.33315000  0.00108000  0.02337000
   0.66649000  0.00108000  0.02337000
   0.99982000  0.33441000  0.02337000
   0.33315000  0.33441000  0.02337000
   0.66649000  0.33441000  0.02337000
   0.99982000  0.66775000  0.02337000
   0.33315000  0.66775000  0.02337000
   0.66649000  0.66775000  0.02337000
   0.24703498  0.13325596  0.70663531
   0.26399119  0.28178447  0.69906986
   0.22994800  0.98471813  0.71446608
Direct configuration=    11
   0.99963589  0.00047150  0.43732088
   0.11093000  0.22330000  0.16024000
   0.22194177  0.11224346  0.29860328
   0.33294408  0.00071461  0.43718235
   0.44426000  0.22330000  0.16024000
   0.55514224  0.11198213  0.29825108
   0.66627213  0.00072764  0.43687457
   0.77760000  0.22330000  0.16024000
   0.88868278  0.11203294  0.29839221
   0.99930993  0.33389645  0.43719908
   0.11093000  0.55664000  0.16024000
   0.22195181  0.44530276  0.29854229
   0.33278208  0.33391943  0.43795409
   0.44426000  0.55664000  0.16024000
   0.55487218  0.44522701  0.29841913
   0.66607221  0.33400241  0.43684718
   0.77760000  0.55664000  0.16024000
   0.88853594  0.44528078  0.29823707
   0.99949447  0.66730067  0.43678811
   0.11093000  0.88997000  0.16024000
   0.22196282  0.77872411  0.29828347
   0.33307979  0.66756518  0.43712354
   0.44426000  0.88997000  0.16024000
   0.55508111  0.77858534  0.29823442
   0.66624071  0.66735605  0.43685228
   0.77760000  0.88997000  0.16024000
   0.88856913  0.77879194  0.29822977
   0.99982000  0.00108000  0.02337000
   0.33315000  0.00108000  0.02337000
   0.66649000  0.00108000  0.02337000
   0.99982000  0.33441000  0.02337000
   0.33315000  0.33441000  0.02337000
   0.66649000  0.33441000  0.02337000
   0.99982000  0.66775000  0.02337000
   0.33315000  0.66775000  0.02337000
   0.66649000  0.66775000  0.02337000
   0.24701881  0.13325815  0.70661558
   0.26398200  0.28180161  0.69902611
   0.22994714  0.98474214  0.71443786
Direct configuration=    12
   0.99963569  0.00047439  0.43730913
   0.11093000  0.22330000  0.16024000
   0.22194184  0.11223975  0.29859926
   0.33294219  0.00071405  0.43717484
   0.44426000  0.22330000  0.16024000
   0.55514479  0.11198421  0.29825129
   0.66627262  0.00072631  0.43687212
   0.77760000  0.22330000  0.16024000
   0.88868233  0.11203072  0.29838848
   0.99932551  0.33390112  0.43718782
   0.11093000  0.55664000  0.16024000
   0.22195402  0.44530593  0.29853949
   0.33278039  0.33392560  0.43792550
   0.44426000  0.55664000  0.16024000
   0.55487964  0.44523007  0.29841755
   0.66607397  0.33400006  0.43685058
   0.77760000  0.55664000  0.16024000
   0.88853559  0.44528149  0.29823731
   0.99950124  0.66730416  0.43679001
   0.11093000  0.88997000  0.16024000
   0.22196217  0.77872327  0.29828130
   0.33306868  0.66755421  0.43711856
   0.44426000  0.88997000  0.16024000
   0.55508231  0.77858536  0.29823289
   0.66623696  0.66735515  0.43685337
   0.77760000  0.88997000  0.16024000
   0.88856789  0.77878833  0.29823052
   0.99982000  0.00108000  0.02337000
   0.33315000  0.00108000  0.02337000
   0.66649000  0.00108000  0.02337000
   0.99982000  0.33441000  0.02337000
   0.33315000  0.33441000  0.02337000
   0.66649000  0.33441000  0.02337000
   0.99982000  0.66775000  0.02337000
   0.33315000  0.66775000  0.02337000
   0.66649000  0.66775000  0.02337000
   0.24700188  0.13328824  0.70658790
   0.26396830  0.28181029  0.69897080
   0.22994416  0.98475975  0.71440307
Direct configuration=    13
   0.99963537  0.00047790  0.43729469
   0.11093000  0.22330000  0.16024000
   0.22194192  0.11223491  0.29859315
   0.33294003  0.00071355  0.43716570
   0.44426000  0.22330000  0.16024000
   0.55514820  0.11198693  0.29825106
   0.66627320  0.00072471  0.43686930
   0.77760000  0.22330000  0.16024000
   0.88868154  0.11202800  0.29838308
   0.99934428  0.33390667  0.43717402
   0.11093000  0.55664000  0.16024000
   0.22195669  0.44531018  0.29853468
   0.33277884  0.33393314  0.43788996
   0.44426000  0.55664000  0.16024000
   0.55488954  0.44523406  0.29841477
   0.66607656  0.33399735  0.43685521
   0.77760000  0.55664000  0.16024000
   0.88853513  0.44528248  0.29823719
   0.99950807  0.66730684  0.43679254
   0.11093000  0.88997000  0.16024000
   0.22196133  0.77872224  0.29827801
   0.33305531  0.66754135  0.43711263
   0.44426000  0.88997000  0.16024000
   0.55508390  0.77858556  0.29823055
   0.66623347  0.66735426  0.43685445
   0.77760000  0.88997000  0.16024000
   0.88856628  0.77878363  0.29823094
   0.99982000  0.00108000  0.02337000
   0.33315000  0.00108000  0.02337000
   0.66649000  0.00108000  0.02337000
   0.99982000  0.33441000  0.02337000
   0.33315000  0.33441000  0.02337000
   0.66649000  0.33441000  0.02337000
   0.99982000  0.66775000  0.02337000
   0.33315000  0.66775000  0.02337000
   0.66649000  0.66775000  0.02337000
   0.24697889  0.13328875  0.70655479
   0.26395363  0.28183864  0.69890503
   0.22994194  0.98479854  0.71436227
Direct configuration=    14
   0.99963647  0.00048164  0.43727904
   0.11093000  0.22330000  0.16024000
   0.22194000  0.11222870  0.29858616
   0.33293808  0.00071308  0.43715529
   0.44426000  0.22330000  0.16024000
   0.55515230  0.11199009  0.29825132
   0.66627388  0.00072309  0.43686600
   0.77760000  0.22330000  0.16024000
   0.88868058  0.11202516  0.29837736
   0.99936190  0.33391156  0.43715896
   0.11093000  0.55664000  0.16024000
   0.22195965  0.44531527  0.29852876
   0.33277826  0.33394129  0.43784985
   0.44426000  0.55664000  0.16024000
   0.55490123  0.44523874  0.29841185
   0.66607890  0.33399285  0.43685926
   0.77760000  0.55664000  0.16024000
   0.88853476  0.44528370  0.29823764
   0.99951296  0.66730755  0.43679496
   0.11093000  0.88997000  0.16024000
   0.22196056  0.77872117  0.29827487
   0.33304173  0.66752876  0.43710590
   0.44426000  0.88997000  0.16024000
   0.55508586  0.77858598  0.29822862
   0.66623020  0.66735357  0.43685567
   0.77760000  0.88997000  0.16024000
   0.88856464  0.77877838  0.29823188
   0.99982000  0.00108000  0.02337000
   0.33315000  0.00108000  0.02337000
   0.66649000  0.00108000  0.02337000
   0.99982000  0.33441000  0.02337000
   0.33315000  0.33441000  0.02337000
   0.66649000  0.33441000  0.02337000
   0.99982000  0.66775000  0.02337000
   0.33315000  0.66775000  0.02337000
   0.66649000  0.66775000  0.02337000
   0.24696554  0.13336786  0.70651427
   0.26393323  0.28182982  0.69883965
   0.22993475  0.98480101  0.71432389
Direct configuration=    15
   0.99963713  0.00048400  0.43727111
   0.11093000  0.22330000  0.16024000
   0.22194013  0.11222631  0.29858146
   0.33293731  0.00071254  0.43714985
   0.44426000  0.22330000  0.16024000
   0.55515459  0.11199185  0.29825113
   0.66627410  0.00072211  0.43686397
   0.77760000  0.22330000  0.16024000
   0.88867978  0.11202358  0.29837371
   0.99937071  0.33391394  0.43715079
   0.11093000  0.55664000  0.16024000
   0.22196108  0.44531821  0.29852444
   0.33277814  0.33394543  0.43782862
   0.44426000  0.55664000  0.16024000
   0.55490804  0.44524140  0.29840967
   0.66608099  0.33399162  0.43686105
   0.77760000  0.55664000  0.16024000
   0.88853449  0.44528441  0.29823760
   0.99951528  0.66730790  0.43679600
   0.11093000  0.88997000  0.16024000
   0.22195994  0.77872046  0.29827282
   0.33303478  0.66752266  0.43710215
   0.44426000  0.88997000  0.16024000
   0.55508694  0.77858622  0.29822734
   0.66622904  0.66735277  0.43685588
   0.77760000  0.88997000  0.16024000
   0.88856363  0.77877522  0.29823205
   0.99982000  0.00108000  0.02337000
   0.33315000  0.00108000  0.02337000
   0.66649000  0.00108000  0.02337000
   0.99982000  0.33441000  0.02337000
   0.33315000  0.33441000  0.02337000
   0.66649000  0.33441000  0.02337000
   0.99982000  0.66775000  0.02337000
   0.33315000  0.66775000  0.02337000
   0.66649000  0.66775000  0.02337000
   0.24694546  0.13329262  0.70649667
   0.26392853  0.28188470  0.69880179
   0.22993701  0.98486140  0.71430086
Direct configuration=    16
   0.99963750  0.00048495  0.43726864
   0.11093000  0.22330000  0.16024000
   0.22194004  0.11222556  0.29858022
   0.33293709  0.00071230  0.43714823
   0.44426000  0.22330000  0.16024000
   0.55515530  0.11199240  0.29825118
   0.66627418  0.00072181  0.43686334
   0.77760000  0.22330000  0.16024000
   0.88867959  0.11202311  0.29837267
   0.99937337  0.33391465  0.43714818
   0.11093000  0.55664000  0.16024000
   0.22196153  0.44531912  0.29852314
   0.33277814  0.33394668  0.43782193
   0.44426000  0.55664000  0.16024000
   0.55491014  0.44524221  0.29840908
   0.66608164  0.33399122  0.43686162
   0.77760000  0.55664000  0.16024000
   0.88853442  0.44528462  0.29823770
   0.99951598  0.66730801  0.43679637
   0.11093000  0.88997000  0.16024000
   0.22195976  0.77872026  0.29827228
   0.33303267  0.66752083  0.43710093
   0.44426000  0.88997000  0.16024000
   0.55508727  0.77858627  0.29822706
   0.66622869  0.66735254  0.43685595
   0.77760000  0.88997000  0.16024000
   0.88856334  0.77877429  0.29823221
   0.99982000  0.00108000  0.02337000
   0.33315000  0.00108000  0.02337000
   0.66649000  0.00108000  0.02337000
   0.99982000  0.33441000  0.02337000
   0.33315000  0.33441000  0.02337000
   0.66649000  0.33441000  0.02337000
   0.99982000  0.66775000  0.02337000
   0.33315000  0.66775000  0.02337000
   0.66649000  0.66775000  0.02337000
   0.24694596  0.13332778  0.70648794
   0.26392361  0.28187222  0.69879151
   0.22993425  0.98485081  0.71429528
Direct configuration=    17
   0.99963821  0.00048681  0.43726365
   0.11093000  0.22330000  0.16024000
   0.22193983  0.11222397  0.29857758
   0.33293663  0.00071177  0.43714494
   0.44426000  0.22330000  0.16024000
   0.55515675  0.11199355  0.29825124
   0.66627431  0.00072115  0.43686200
   0.77760000  0.22330000  0.16024000
   0.88867917  0.11202214  0.29837048
   0.99937876  0.33391605  0.43714289
   0.11093000  0.55664000  0.16024000
   0.22196242  0.44532099  0.29852039
   0.33277817  0.33394920  0.43780850
   0.44426000  0.55664000  0.16024000
   0.55491450  0.44524389  0.29840782
   0.66608297  0.33399037  0.43686268
   0.77760000  0.55664000  0.16024000
   0.88853426  0.44528503  0.29823786
   0.99951738  0.66730821  0.43679702
   0.11093000  0.88997000  0.16024000
   0.22195937  0.77871981  0.29827115
   0.33302833  0.66751709  0.43709842
   0.44426000  0.88997000  0.16024000
   0.55508793  0.77858637  0.29822645
   0.66622797  0.66735206  0.43685602
   0.77760000  0.88997000  0.16024000
   0.88856273  0.77877233  0.29823250
   0.99982000  0.00108000  0.02337000
   0.33315000  0.00108000  0.02337000
   0.66649000  0.00108000  0.02337000
   0.99982000  0.33441000  0.02337000
   0.33315000  0.33441000  0.02337000
   0.66649000  0.33441000  0.02337000
   0.99982000  0.66775000  0.02337000
   0.33315000  0.66775000  0.02337000
   0.66649000  0.66775000  0.02337000
   0.24694267  0.13336350  0.70646999
   0.26391483  0.28186571  0.69876733
   0.22993045  0.98484864  0.71428158
Direct configuration=    18
   0.99963916  0.00048914  0.43725726
   0.11093000  0.22330000  0.16024000
   0.22193958  0.11222191  0.29857397
   0.33293604  0.00071114  0.43714076
   0.44426000  0.22330000  0.16024000
   0.55515860  0.11199496  0.29825115
   0.66627450  0.00072029  0.43686031
   0.77760000  0.22330000  0.16024000
   0.88867863  0.11202090  0.29836751
   0.99938547  0.33391770  0.43713613
   0.11093000  0.55664000  0.16024000
   0.22196355  0.44532336  0.29851660
   0.33277825  0.33395228  0.43779125
   0.44426000  0.55664000  0.16024000
   0.55492007  0.44524600  0.29840601
   0.66608464  0.33398928  0.43686407
   0.77760000  0.55664000  0.16024000
   0.88853409  0.44528553  0.29823789
   0.99951910  0.66730844  0.43679790
   0.11093000  0.88997000  0.16024000
   0.22195890  0.77871925  0.29826955
   0.33302301  0.66751246  0.43709523
   0.44426000  0.88997000  0.16024000
   0.55508878  0.77858648  0.29822552
   0.66622708  0.66735142  0.43685612
   0.77760000  0.88997000  0.16024000
   0.88856198  0.77876984  0.29823268
   0.99982000  0.00108000  0.02337000
   0.33315000  0.00108000  0.02337000
   0.66649000  0.00108000  0.02337000
   0.99982000  0.33441000  0.02337000
   0.33315000  0.33441000  0.02337000
   0.66649000  0.33441000  0.02337000
   0.99982000  0.66775000  0.02337000
   0.33315000  0.66775000  0.02337000
   0.66649000  0.66775000  0.02337000
   0.24693245  0.13336127  0.70644746
   0.26390558  0.28188276  0.69873267
   0.22992805  0.98487153  0.71426131
Direct configuration=    19
   0.99964030  0.00049199  0.43724904
   0.11093000  0.22330000  0.16024000
   0.22193927  0.11221904  0.29856878
   0.33293537  0.00071027  0.43713537
   0.44426000  0.22330000  0.16024000
   0.55516110  0.11199680  0.29825086
   0.66627473  0.00071914  0.43685810
   0.77760000  0.22330000  0.16024000
   0.88867779  0.11201922  0.29836334
   0.99939396  0.33391978  0.43712740
   0.11093000  0.55664000  0.16024000
   0.22196501  0.44532659  0.29851112
   0.33277864  0.33395631  0.43776878
   0.44426000  0.55664000  0.16024000
   0.55492765  0.44524886  0.29840333
   0.66608699  0.33398792  0.43686598
   0.77760000  0.55664000  0.16024000
   0.88853388  0.44528623  0.29823777
   0.99952126  0.66730875  0.43679906
   0.11093000  0.88997000  0.16024000
   0.22195826  0.77871850  0.29826725
   0.33301626  0.66750674  0.43709114
   0.44426000  0.88997000  0.16024000
   0.55508997  0.77858668  0.29822416
   0.66622607  0.66735067  0.43685635
   0.77760000  0.88997000  0.16024000
   0.88856102  0.77876651  0.29823275
   0.99982000  0.00108000  0.02337000
   0.33315000  0.00108000  0.02337000
   0.66649000  0.00108000  0.02337000
   0.99982000  0.33441000  0.02337000
   0.33315000  0.33441000  0.02337000
   0.66649000  0.33441000  0.02337000
   0.99982000  0.66775000  0.02337000
   0.33315000  0.66775000  0.02337000
   0.66649000  0.66775000  0.02337000
   0.24692300  0.13338956  0.70641647
   0.26389179  0.28188929  0.69868879
   0.22992312  0.98488591  0.71423615
Direct configuration=    20
   0.99964177  0.00049545  0.43723858
   0.11093000  0.22330000  0.16024000
   0.22193888  0.11221546  0.29856252
   0.33293456  0.00070941  0.43712843
   0.44426000  0.22330000  0.16024000
   0.55516412  0.11199905  0.29825082
   0.66627507  0.00071782  0.43685517
   0.77760000  0.22330000  0.16024000
   0.88867749  0.11201671  0.29835912
   0.99940394  0.33392211  0.43711636
   0.11093000  0.55664000  0.16024000
   0.22196672  0.44533065  0.29850442
   0.33277933  0.33396107  0.43774068
   0.44426000  0.55664000  0.16024000
   0.55493699  0.44525241  0.29840026
   0.66609046  0.33398609  0.43686748
   0.77760000  0.55664000  0.16024000
   0.88853368  0.44528711  0.29823793
   0.99952376  0.66730923  0.43680034
   0.11093000  0.88997000  0.16024000
   0.22195749  0.77871767  0.29826480
   0.33300840  0.66750018  0.43708580
   0.44426000  0.88997000  0.16024000
   0.55509142  0.77858698  0.29822289
   0.66622489  0.66734984  0.43685638
   0.77760000  0.88997000  0.16024000
   0.88855990  0.77876255  0.29823313
   0.99982000  0.00108000  0.02337000