 vasp.6.3.2 27Jun22 (build Aug 05 2024 15:42:26) complex                        
  
 executed on             LinuxIFC date 2025.06.04  20:33:56
 running  294 mpi-ranks, with    1 threads/rank
 each image running on   42 cores
 distrk:  each k-point on   42 cores,    1 groups
 distr:  one band on NCORE=   1 cores,   42 groups


--------------------------------------------------------------------------------------------------------


 INCAR:
   ADDGRID = True
   ALGO = Fast
   EDIFF = 1e-06
   EDIFFG = -0.05
   ENCUT = 520.0
   IBRION = 1
   ISIF = 2
   ISMEAR = 0
   ISPIN = 2
   ISYM = 0
   LASPH = True
   LDAU = True
   LDAUJ = 0 0 0 0
   LDAUL = 0 0 2 0
   LDAUPRINT = 1
   LDAUTYPE = 2
   LDAUU = 0 0 4.38 0
   LMAXMIX = 4
   LORBIT = 11
   LREAL = False
   LWAVE = False
   MAGMOM = 93*0.6
   NELM = 100
   NELMIN = 3
   NSW = 450
   POTIM = 0.2
   PREC = Accurate
   SIGMA = 0.05
   IMAGES = 7
   SPRING = -5.0
   ICHAIN = 0
   LCLIMB = .TRUE.
   LNEBCELL = .FALSE.
   IOPT = 3

 POTCAR:   PAW_PBE Li_sv 23Jan2001                
 POTCAR:   PAW_PBE Nb_pv 08Apr2002                
 POTCAR:   PAW_PBE Mo_pv 08Apr2002                
 POTCAR:   PAW_PBE O 08Apr2002                    
 POTCAR:   PAW_PBE Li_sv 23Jan2001                
   VRHFIN =Li: 1s2s2p                                                                               
   LEXCH  = PE                                                                                      
   EATOM  =   202.7858 eV,   14.9043 Ry                                                             
                                                                                                    
   TITEL  = PAW_PBE Li_sv 23Jan2001                                                                 
   LULTRA =        F    use ultrasoft PP ?                                                          
   IUNSCR =        0    unscreen: 0-lin 1-nonlin 2-no                                               
   RPACOR =     .000    partial core radius                                                         
   POMASS =    7.010; ZVAL   =    3.000    mass and valenz                                          
   RCORE  =    2.050    outmost cutoff radius                                                       
   RWIGS  =    2.050; RWIGS  =    1.085    wigner-seitz radius (au A)                               
   ENMAX  =  271.649; ENMIN  =  203.737 eV                                                          
   ICORE  =        2    local potential                                                             
   LCOR   =        T    correct aug charges                                                         
   LPAW   =        T    paw PP                                                                      
   EAUG   =  428.394                                                                                
   RMAX   =    2.797    core radius for proj-oper                                                   
   RAUG   =    1.300    factor for augmentation sphere                                              
   RDEP   =    2.094    radius for radial grids                                                     
   RDEPT  =    1.550    core radius for aug-charge                                                  
   QCUT   =   -4.468; QGAM   =    8.937    optimization parameters                                  
                                                                                                    
   Description                                                                                      
     l     E      TYP  RCUT    TYP  RCUT                                                            
     0   .000     23  1.550                                                                         
     0   .000     23  2.050                                                                         
     0   .000     23  1.550                                                                         
     0   .000     23  2.050                                                                         
     1  -.200     23  2.050                                                                         
     1  1.500     23  2.050                                                                         
     2   .000      7  1.550                                                                         
  local pseudopotential read in
  atomic valenz-charges read in
  non local Contribution for L=           0  read in
    real space projection operators read in
  non local Contribution for L=           0  read in
    real space projection operators read in
  non local Contribution for L=           1  read in
    real space projection operators read in
  non local Contribution for L=           1  read in
    real space projection operators read in
    PAW grid and wavefunctions read in
 
   number of l-projection  operators is LMAX  =           4
   number of lm-projection operators is LMMAX =           8
 
 POTCAR:   PAW_PBE Nb_pv 08Apr2002                
   VRHFIN =Nb: 4p5s4d                                                                               
   LEXCH  = PE                                                                                      
   EATOM  =  1043.3919 eV,   76.6871 Ry                                                             
                                                                                                    
   TITEL  = PAW_PBE Nb_pv 08Apr2002                                                                 
   LULTRA =        F    use ultrasoft PP ?                                                          
   IUNSCR =        1    unscreen: 0-lin 1-nonlin 2-no                                               
   RPACOR =    2.200    partial core radius                                                         
   POMASS =   92.000; ZVAL   =   11.000    mass and valenz                                          
   RCORE  =    2.750    outmost cutoff radius                                                       
   RWIGS  =    2.840; RWIGS  =    1.503    wigner-seitz radius (au A)                               
   ENMAX  =  208.608; ENMIN  =  156.456 eV                                                          
   RCLOC  =    2.201    cutoff for local pot                                                        
   LCOR   =        T    correct aug charges                                                         
   LPAW   =        T    paw PP                                                                      
   EAUG   =  355.067                                                                                
   DEXC   =    -.005                                                                                
   RMAX   =    3.192    core radius for proj-oper                                                   
   RAUG   =    1.300    factor for augmentation sphere                                              
   RDEP   =    2.776    radius for radial grids                                                     
   QCUT   =   -3.916; QGAM   =    7.831    optimization parameters                                  
                                                                                                    
   Description                                                                                      
     l     E      TYP  RCUT    TYP  RCUT                                                            
     1   .000     23  2.600                                                                         
     1  -.100     23  2.600                                                                         
     2   .000     23  2.600                                                                         
     2   .000     23  2.600                                                                         
     0   .000     23  2.750                                                                         
     0  1.500     23  2.750                                                                         
     3   .000      7   .000                                                                         
  local pseudopotential read in
  partial core-charges read in
  atomic valenz-charges read in
  non local Contribution for L=           1  read in
    real space projection operators read in
  non local Contribution for L=           1  read in
    real space projection operators read in
  non local Contribution for L=           2  read in
    real space projection operators read in
  non local Contribution for L=           2  read in
    real space projection operators read in
  non local Contribution for L=           0  read in
    real space projection operators read in
  non local Contribution for L=           0  read in
    real space projection operators read in
    PAW grid and wavefunctions read in
 
   number of l-projection  operators is LMAX  =           6
   number of lm-projection operators is LMMAX =          18
 
 POTCAR:   PAW_PBE Mo_pv 08Apr2002                
   VRHFIN =Mo: 4p5s4d                                                                               
   LEXCH  = PE                                                                                      
   EATOM  =  1284.3009 eV,   94.3935 Ry                                                             
                                                                                                    
   TITEL  = PAW_PBE Mo_pv 08Apr2002                                                                 
   LULTRA =        F    use ultrasoft PP ?                                                          
   IUNSCR =        1    unscreen: 0-lin 1-nonlin 2-no                                               
   RPACOR =    2.200    partial core radius                                                         
   POMASS =   95.940; ZVAL   =   12.000    mass and valenz                                          
   RCORE  =    2.600    outmost cutoff radius                                                       
   RWIGS  =    2.750; RWIGS  =    1.455    wigner-seitz radius (au A)                               
   ENMAX  =  224.584; ENMIN  =  168.438 eV                                                          
   RCLOC  =    1.902    cutoff for local pot                                                        
   LCOR   =        T    correct aug charges                                                         
   LPAW   =        T    paw PP                                                                      
   EAUG   =  392.427                                                                                
   DEXC   =    -.006                                                                                
   RMAX   =    3.077    core radius for proj-oper                                                   
   RAUG   =    1.300    factor for augmentation sphere                                              
   RDEP   =    2.641    radius for radial grids                                                     
   QCUT   =   -4.063; QGAM   =    8.126    optimization parameters                                  
                                                                                                    
   Description                                                                                      
     l     E      TYP  RCUT    TYP  RCUT                                                            
     1   .000     23  2.500                                                                         
     1  -.200     23  2.500                                                                         
     2   .000     23  2.500                                                                         
     2   .000     23  2.500                                                                         
     0   .000     23  2.600                                                                         
     0  1.000     23  2.600                                                                         
     3   .000      7   .000                                                                         
  local pseudopotential read in
  partial core-charges read in
  atomic valenz-charges read in
  non local Contribution for L=           1  read in
    real space projection operators read in
  non local Contribution for L=           1  read in
    real space projection operators read in
  non local Contribution for L=           2  read in
    real space projection operators read in
  non local Contribution for L=           2  read in
    real space projection operators read in
  non local Contribution for L=           0  read in
    real space projection operators read in
  non local Contribution for L=           0  read in
    real space projection operators read in
    PAW grid and wavefunctions read in
 
   number of l-projection  operators is LMAX  =           6
   number of lm-projection operators is LMMAX =          18
 
 POTCAR:   PAW_PBE O 08Apr2002                    
   VRHFIN =O: s2p4                                                                                  
   LEXCH  = PE                                                                                      
   EATOM  =   432.3788 eV,   31.7789 Ry                                                             
                                                                                                    
   TITEL  = PAW_PBE O 08Apr2002                                                                     
   LULTRA =        F    use ultrasoft PP ?                                                          
   IUNSCR =        0    unscreen: 0-lin 1-nonlin 2-no                                               
   RPACOR =     .000    partial core radius                                                         
   POMASS =   16.000; ZVAL   =    6.000    mass and valenz                                          
   RCORE  =    1.520    outmost cutoff radius                                                       
   RWIGS  =    1.550; RWIGS  =     .820    wigner-seitz radius (au A)                               
   ENMAX  =  400.000; ENMIN  =  300.000 eV                                                          
   ICORE  =        2    local potential                                                             
   LCOR   =        T    correct aug charges                                                         
   LPAW   =        T    paw PP                                                                      
   EAUG   =  605.392                                                                                
   DEXC   =     .000                                                                                
   RMAX   =    2.264    core radius for proj-oper                                                   
   RAUG   =    1.300    factor for augmentation sphere                                              
   RDEP   =    1.550    radius for radial grids                                                     
   QCUT   =   -5.520; QGAM   =   11.041    optimization parameters                                  
                                                                                                    
   Description                                                                                      
     l     E      TYP  RCUT    TYP  RCUT                                                            
     0   .000     23  1.200                                                                         
     0  -.700     23  1.200                                                                         
     1   .000     23  1.520                                                                         
     1   .600     23  1.520                                                                         
     2   .000      7  1.500                                                                         
  local pseudopotential read in
  atomic valenz-charges read in
  non local Contribution for L=           0  read in
    real space projection operators read in
  non local Contribution for L=           0  read in
    real space projection operators read in
  non local Contribution for L=           1  read in
    real space projection operators read in
  non local Contribution for L=           1  read in
    real space projection operators read in
    PAW grid and wavefunctions read in
 
   number of l-projection  operators is LMAX  =           4
   number of lm-projection operators is LMMAX =           8
 
 -----------------------------------------------------------------------------
|                                                                             |
|               ----> ADVICE to this user running VASP <----                  |
|                                                                             |
|     You have a (more or less) 'large supercell' and for larger cells it     |
|     might be more efficient to use real-space projection operators.         |
|     Therefore, try LREAL= Auto in the INCAR file.                           |
|     Mind: If you want to do very accurate calculations, keep the            |
|     reciprocal projection scheme (i.e. LREAL=.FALSE.).                      |
|                                                                             |
 -----------------------------------------------------------------------------

 PAW_PBE Li_sv 23Jan2001                :
 energy of atom  1       EATOM= -202.7858
 kinetic energy error for atom=    0.0020 (will be added to EATOM!!)
 PAW_PBE Nb_pv 08Apr2002                :
 energy of atom  2       EATOM=-1043.3919
 kinetic energy error for atom=    0.0011 (will be added to EATOM!!)
 PAW_PBE Mo_pv 08Apr2002                :
 energy of atom  3       EATOM=-1284.3009
 kinetic energy error for atom=    0.0019 (will be added to EATOM!!)
 PAW_PBE O 08Apr2002                    :
 energy of atom  4       EATOM= -432.3788
 kinetic energy error for atom=    0.0208 (will be added to EATOM!!)
 
 
 POSCAR: Li   Nb   Mo   O
  positions in direct lattice
  No initial velocities read in
 exchange correlation table for  LEXCH =        8
   RHO(1)=    0.500       N(1)  =     2000
   RHO(2)=  100.500       N(2)  =     4000
 
 POSCAR: Li   Nb   Mo   O
  positions in direct lattice
  No initial velocities read in
 
 POSCAR: Li   Nb   Mo   O
  positions in direct lattice
  No initial velocities read in
 


--------------------------------------------------------------------------------------------------------


 ion  position               nearest neighbor table
   1  0.317  0.938  0.636-  74 1.80  65 1.84  70 1.99  82 2.04  13 2.73  18 2.82  21 2.89  22 2.90
                            13 3.04
   2  0.367  0.007  0.046-  42 1.84  34 1.89  33 2.00  33 2.03  90 2.20  86 2.33   9 3.46   9 3.48

   3  0.634  0.008  0.954-  43 1.86  35 1.87  32 2.00  32 2.03  91 2.21  87 2.32   8 3.46   8 3.48

   4  0.864  0.508  0.044-  44 1.87  36 1.87  31 2.00  31 2.03  92 2.19  88 2.30   7 3.44   7 3.46

   5  0.131  0.510  0.955-  45 1.83  37 1.91  30 2.00  30 2.03  93 2.15  89 2.34   6 3.46   6 3.49

   6  0.249  0.004  0.138-  54 1.81  34 1.99  89 2.01  89 2.02  46 2.06  30 2.36   5 3.46   5 3.49

   7  0.752  0.003  0.861-  55 1.81  35 2.02  88 2.02  88 2.02  47 2.02  31 2.35   4 3.44   4 3.46

   8  0.747  0.503  0.138-  56 1.81  36 2.02  87 2.02  87 2.02  48 2.02  32 2.36   3 3.46   3 3.48

   9  0.250  0.503  0.865-  57 1.81  37 1.95  86 2.02  86 2.02  49 2.09  33 2.35   2 3.46   2 3.48

  10  0.130  0.998  0.231-  46 1.85  62 1.88  85 2.01  85 2.03  38 2.18  50 2.32  25 3.45  25 3.46

  11  0.869  0.999  0.767-  63 1.85  47 1.87  84 2.01  84 2.03  39 2.21  51 2.30  24 3.43  24 3.44

  12  0.632  0.498  0.233-  64 1.85  48 1.86  83 2.01  83 2.03  40 2.21  52 2.29  23 3.41  23 3.43

  13  0.372  0.496  0.776-  49 1.83  65 1.92  82 2.00  82 2.03  41 2.11  53 2.38   1 2.73   1 3.04
                            22 3.52  22 3.54
  14  0.419  0.967  0.379-  81 1.85  29 1.93  58 2.01  81 2.05  66 2.08  54 2.13
  15  0.584  0.967  0.617-  80 1.85  29 1.93  67 2.01  80 2.05  59 2.09  55 2.14
  16  0.917  0.467  0.382-  79 1.85  28 1.93  68 2.03  79 2.05  60 2.07  56 2.15
  17  0.082  0.468  0.620-  78 1.85  28 1.94  61 2.04  78 2.05  69 2.05  57 2.14
  18  0.298  0.003  0.469-  66 1.82  62 2.01  74 2.01  73 2.02  73 2.03  70 2.40   1 2.82  21 3.51
                            21 3.51
  19  0.702  0.003  0.526-  67 1.86  75 1.95  72 2.01  72 2.01  63 2.06  71 2.29  20 3.44  20 3.44

  20  0.799  0.504  0.473-  68 1.85  76 1.95  71 2.01  71 2.02  64 2.06  72 2.30  19 3.44  19 3.44

  21  0.197  0.503  0.522-  69 1.84  77 1.87  70 2.02  70 2.02  65 2.21  73 2.35   1 2.89  18 3.51
                            18 3.51
  22  0.467  0.001  0.713-  59 1.82  74 1.98  53 2.02  53 2.02  43 2.06  82 2.40   1 2.90  13 3.52
                            13 3.54
  23  0.537  0.002  0.287-  58 1.86  75 1.93  52 2.01  52 2.01  42 2.10  83 2.28  12 3.41  12 3.43

  24  0.964  0.502  0.713-  61 1.86  76 1.93  51 2.01  51 2.02  45 2.10  84 2.30  11 3.43  11 3.44

  25  0.032  0.502  0.282-  60 1.84  50 2.01  50 2.01  77 2.01  44 2.03  85 2.31  10 3.45  10 3.46

  26  0.999  0.252  0.000-  39 1.79  92 1.79  38 1.79  93 1.80
  27  0.501  0.753  0.001-  40 1.78  91 1.79  90 1.79  41 1.81
  28  0.000  0.491  0.500-  16 1.93  17 1.94
  29  0.501  0.991  0.499-  15 1.93  14 1.93
  30  0.149  0.004  0.991-   5 2.00   5 2.03   6 2.36
  31  0.850  0.004  0.008-   4 2.00   4 2.03   7 2.35
  32  0.649  0.504  0.990-   3 2.00   3 2.03   8 2.36
  33  0.351  0.504  0.010-   2 2.00   2 2.03   9 2.35
  34  0.303  0.003  0.082-   2 1.89   6 1.99
  35  0.696  0.004  0.917-   3 1.87   7 2.02
  36  0.803  0.503  0.081-   4 1.87   8 2.02
  37  0.196  0.502  0.920-   5 1.91   9 1.95
  38  0.034  0.999  0.099-  26 1.79  10 2.18
  39  0.966  1.000  0.902-  26 1.79  11 2.21
  40  0.534  0.502  0.099-  27 1.78  12 2.21
  41  0.467  0.501  0.902-  27 1.81  13 2.11
  42  0.450  0.004  0.156-   2 1.84  23 2.10
  43  0.550  0.003  0.844-   3 1.86  22 2.06
  44  0.949  0.503  0.155-   4 1.87  25 2.03
  45  0.050  0.505  0.845-   5 1.83  24 2.10
  46  0.180  0.002  0.178-  10 1.85   6 2.06
  47  0.820  0.003  0.822-  11 1.87   7 2.02
  48  0.680  0.503  0.177-  12 1.86   8 2.02
  49  0.321  0.501  0.826-  13 1.83   9 2.09
  50  0.048  0.001  0.270-  25 2.01  25 2.01  10 2.32
  51  0.951  0.002  0.730-  24 2.01  24 2.02  11 2.30
  52  0.550  0.502  0.270-  23 2.01  23 2.01  12 2.29
  53  0.451  0.501  0.730-  22 2.02  22 2.02  13 2.38
  54  0.325  1.000  0.250-   6 1.81  14 2.13
  55  0.674  1.000  0.750-   7 1.81  15 2.14
  56  0.825  0.499  0.249-   8 1.81  16 2.15
  57  0.175  0.500  0.751-   9 1.81  17 2.14
  58  0.476  0.998  0.326-  23 1.86  14 2.01
  59  0.522  0.999  0.670-  22 1.82  15 2.09
  60  0.976  0.500  0.326-  25 1.84  16 2.07
  61  0.024  0.499  0.674-  24 1.86  17 2.04
  62  0.207  0.002  0.350-  10 1.88  18 2.01
  63  0.793  0.002  0.651-  11 1.85  19 2.06
  64  0.708  0.502  0.349-  12 1.85  20 2.06
  65  0.296  0.501  0.654-   1 1.84  13 1.92  21 2.21
  66  0.355  0.001  0.427-  18 1.82  14 2.08
  67  0.648  0.999  0.574-  19 1.86  15 2.01
  68  0.853  0.500  0.425-  20 1.85  16 2.03
  69  0.147  0.500  0.575-  21 1.84  17 2.05
  70  0.223  0.002  0.524-   1 1.99  21 2.02  21 2.02  18 2.40
  71  0.779  0.003  0.481-  20 2.01  20 2.02  19 2.29
  72  0.722  0.503  0.519-  19 2.01  19 2.01  20 2.30
  73  0.279  0.503  0.481-  18 2.02  18 2.03  21 2.35
  74  0.375  0.002  0.598-   1 1.80  22 1.98  18 2.01
  75  0.622  0.003  0.404-  23 1.93  19 1.95
  76  0.879  0.503  0.596-  24 1.93  20 1.95
  77  0.121  0.502  0.403-  21 1.87  25 2.01
  78  0.091  0.993  0.631-  17 1.85  17 2.05
  79  0.910  0.993  0.369-  16 1.85  16 2.05
  80  0.590  0.493  0.631-  15 1.85  15 2.05
  81  0.409  0.493  0.369-  14 1.85  14 2.05
  82  0.391  1.000  0.767-  13 2.00  13 2.03   1 2.04  22 2.40
  83  0.606  0.001  0.232-  12 2.01  12 2.03  23 2.28
  84  0.895  0.501  0.768-  11 2.01  11 2.03  24 2.30
  85  0.106  0.500  0.232-  10 2.01  10 2.03  25 2.31
  86  0.275  0.003  0.897-   9 2.02   9 2.02   2 2.33
  87  0.724  0.004  0.103-   8 2.02   8 2.02   3 2.32
  88  0.775  0.504  0.896-   7 2.02   7 2.02   4 2.30
  89  0.224  0.504  0.104-   6 2.01   6 2.02   5 2.34
  90  0.430  0.004  0.988-  27 1.79   2 2.20
  91  0.572  0.005  0.014-  27 1.79   3 2.21
  92  0.928  0.502  0.987-  26 1.79   4 2.19
  93  0.071  0.504  0.014-  26 1.80   5 2.15
 

IMPORTANT INFORMATION: All symmetrisations will be switched off!
NOSYMM: (Re-)initialisation of all symmetry stuff for point group C_1.


----------------------------------------------------------------------------------------

                                     Primitive cell                                     

  volume of cell :    1336.3476

  direct lattice vectors                    reciprocal lattice vectors
    22.785142899  0.000000000  0.000000000     0.043888248  0.000000000  0.028932614
     0.000000000  3.876850367  0.000000000     0.000000000  0.257941346 -0.000000041
    -9.973051630  0.000002413 15.128248185     0.000000000  0.000000000  0.066101507

  length of vectors
    22.785142899  3.876850367 18.119758606     0.052566857  0.257941346  0.066101507

  position of ions in fractional coordinates (direct lattice)
     0.316684020  0.938123487  0.635723302
     0.367001332  0.007432303  0.046310899
     0.633787056  0.007611706  0.953906197
     0.864404417  0.507729744  0.043635358
     0.131456211  0.509551580  0.955313580
     0.248545061  0.003660468  0.137639992
     0.751820744  0.003261088  0.861148512
     0.747460624  0.503087591  0.137806177
     0.249761525  0.503324425  0.864915158
     0.130231975  0.997634189  0.231256875
     0.869086936  0.998515245  0.767334673
     0.631593442  0.498379963  0.233377282
     0.371814117  0.496218779  0.776198612
     0.418877899  0.966564530  0.379381565
     0.583787412  0.967257747  0.617191446
     0.917277095  0.467367643  0.381529425
     0.082348092  0.467664352  0.619876370
     0.297688202  0.003284993  0.468867651
     0.702496137  0.003480000  0.526365526
     0.798812240  0.503691897  0.473442639
     0.197129896  0.502640567  0.521728768
     0.466536589  0.000896508  0.713023875
     0.536731552  0.001681584  0.287134688
     0.963942660  0.501649607  0.712521788
     0.031680646  0.501502108  0.282171491
     0.999433287  0.251693436  0.000395004
     0.501024409  0.752895475  0.001470955
     0.000094259  0.490789364  0.500270155
     0.500964915  0.991382960  0.498782421
     0.148818116  0.004473487  0.991495740
     0.849566519  0.003867349  0.007969764
     0.648957575  0.504360342  0.990313876
     0.350943220  0.504019963  0.009728081
     0.303407456  0.003201521  0.082187101
     0.696115350  0.003825779  0.917294915
     0.802647745  0.503245643  0.080982657
     0.196219764  0.501953643  0.919831181
     0.034036373  0.999419173  0.099038718
     0.965513521  0.999659962  0.902441754
     0.534419146  0.501636360  0.099120282
     0.466894346  0.500537399  0.901612757
     0.449821655  0.003701713  0.155869196
     0.549782453  0.002937826  0.843697457
     0.948568724  0.503249258  0.154671998
     0.050177315  0.505198180  0.844706658
     0.179984524  0.002162421  0.178119031
     0.819760765  0.003040143  0.822341507
     0.679764000  0.502888281  0.177149666
     0.320602556  0.500541436  0.825974922
     0.048485627  0.001328922  0.270039622
     0.950594724  0.001827112  0.730238818
     0.550001515  0.501601175  0.269940423
     0.451331984  0.500849615  0.729691254
     0.325331627  0.999792160  0.250181249
     0.674143150  0.999610125  0.749516191
     0.825190619  0.499225715  0.249349999
     0.174860173  0.499726657  0.751077285
     0.476155591  0.998375128  0.325908865
     0.522125778  0.999449830  0.669620025
     0.975910495  0.499570228  0.326422971
     0.024199526  0.498692997  0.673728628
     0.206856882  0.001659204  0.349545008
     0.793031003  0.001890481  0.651153112
     0.707711353  0.502047675  0.349226768
     0.295806186  0.501353563  0.654216428
     0.354642210  0.000811577  0.427295345
     0.648268566  0.999231253  0.574495478
     0.852663810  0.500254606  0.425374350
     0.147389726  0.499830106  0.574603807
     0.223189481  0.002301869  0.523862664
     0.778796401  0.003047630  0.481285540
     0.721970171  0.502910987  0.518568757
     0.278595772  0.502539929  0.480696625
     0.374586136  0.001831464  0.598158847
     0.621797773  0.002520339  0.404085040
     0.878618842  0.502741003  0.596032613
     0.121229985  0.502105033  0.403370975
     0.091138517  0.992982111  0.631343512
     0.909949130  0.993041503  0.368535362
     0.589770021  0.492911261  0.631004057
     0.409237790  0.492547805  0.369084295
     0.391190503  0.999636228  0.767329061
     0.605950967  0.001014658  0.232111206
     0.894515651  0.500954731  0.768319830
     0.105680632  0.500495366  0.232215250
     0.275484356  0.003029939  0.897419594
     0.723923353  0.003557762  0.102606878
     0.775271554  0.503607357  0.896314803
     0.224243013  0.503748844  0.104266188
     0.429609009  0.004429570  0.987625042
     0.571595541  0.005320474  0.013899220
     0.928152469  0.502239689  0.987173939
     0.071078424  0.503588159  0.013547262

  ion indices of the primitive-cell ions
   primitive index   ion index
                 1           1
                 2           2
                 3           3
                 4           4
                 5           5
                 6           6
                 7           7
                 8           8
                 9           9
                10          10
                11          11
                12          12
                13          13
                14          14
                15          15
                16          16
                17          17
                18          18
                19          19
                20          20
                21          21
                22          22
                23          23
                24          24
                25          25
                26          26
                27          27
                28          28
                29          29
                30          30
                31          31
                32          32
                33          33
                34          34
                35          35
                36          36
                37          37
                38          38
                39          39
                40          40
                41          41
                42          42
                43          43
                44          44
                45          45
                46          46
                47          47
                48          48
                49          49
                50          50
                51          51
                52          52
                53          53
                54          54
                55          55
                56          56
                57          57
                58          58
                59          59
                60          60
                61          61
                62          62
                63          63
                64          64
                65          65
                66          66
                67          67
                68          68
                69          69
                70          70
                71          71
                72          72
                73          73
                74          74
                75          75
                76          76
                77          77
                78          78
                79          79
                80          80
                81          81
                82          82
                83          83
                84          84
                85          85
                86          86
                87          87
                88          88
                89          89
                90          90
                91          91
                92          92
                93          93

----------------------------------------------------------------------------------------

 
 
 KPOINTS: pymatgen with grid density = 1000 / numb

Automatic generation of k-mesh.
 Grid dimensions read from file:
 generate k-points for:    1    6    1

 Generating k-lattice:

  Cartesian coordinates                     Fractional coordinates (reciprocal lattice)
     0.043888248  0.000000000  0.028932614     1.000000000  0.000000000 -0.000000000
     0.000000000  0.042990224 -0.000000007     0.000000000  0.166666667  0.000000000
     0.000000000  0.000000000  0.066101507     0.000000000  0.000000000  1.000000000

  Length of vectors
     0.052566857  0.042990224  0.066101507

  Shift w.r.t. Gamma in fractional coordinates (k-lattice)
     0.000000000  0.000000000  0.000000000

 
 Subroutine IBZKPT returns following result:
 ===========================================
 
 Found      4 irreducible k-points:
 
 Following reciprocal coordinates:
            Coordinates               Weight
  0.000000  0.000000  0.000000      1.000000
  0.000000  0.166667  0.000000      2.000000
  0.000000  0.333333  0.000000      2.000000
  0.000000  0.500000  0.000000      1.000000
 
 Following cartesian coordinates:
            Coordinates               Weight
  0.000000  0.000000  0.000000      1.000000
  0.000000  0.042990 -0.000000      2.000000
  0.000000  0.085980 -0.000000      2.000000
  0.000000  0.128971 -0.000000      1.000000
 


--------------------------------------------------------------------------------------------------------




 Dimension of arrays:
   k-points           NKPTS =      4   k-points in BZ     NKDIM =      4   number of bands    NBANDS=    462
   number of dos      NEDOS =    301   number of ions     NIONS =     93
   non local maximal  LDIM  =      6   non local SUM 2l+1 LMDIM =     18
   total plane-waves  NPLWV = 756000
   max r-space proj   IRMAX =      1   max aug-charges    IRDMAX= 278808
   dimension x,y,z NGX =   180 NGY =   30 NGZ =  140
   dimension x,y,z NGXF=   360 NGYF=   60 NGZF=  280
   support grid    NGXF=   720 NGYF=  120 NGZF=  560
   ions per type =               1  24   2  66
   NGX,Y,Z   is equivalent  to a cutoff of  13.13, 12.86, 12.84 a.u.
   NGXF,Y,Z  is equivalent  to a cutoff of  26.27, 25.73, 25.69 a.u.

 SYSTEM =  unknown system                          
 POSCAR =  Li   Nb   Mo   O                        

 Startparameter for this run:
   NWRITE =      2    write-flag & timer
   PREC   = accura    normal or accurate (medium, high low for compatibility)
   ISTART =      0    job   : 0-new  1-cont  2-samecut
   ICHARG =      2    charge: 1-file 2-atom 10-const
   ISPIN  =      2    spin polarized calculation?
   LNONCOLLINEAR =      F non collinear calculations
   LSORBIT =      F    spin-orbit coupling
   INIWAV =      1    electr: 0-lowe 1-rand  2-diag
   LASPH  =      T    aspherical Exc in radial PAW
 Electronic Relaxation 1
   ENCUT  =  520.0 eV  38.22 Ry    6.18 a.u.  42.37  7.21 33.69*2*pi/ulx,y,z
   ENINI  =  520.0     initial cutoff
   ENAUG  =  605.4 eV  augmentation charge cutoff
   NELM   =    100;   NELMIN=  3; NELMDL= -5     # of ELM steps 
   EDIFF  = 0.1E-05   stopping-criterion for ELM
   LREAL  =      F    real-space projection
   NLSPLINE    = F    spline interpolate recip. space projectors
   LCOMPAT=      F    compatible to vasp.4.4
   GGA_COMPAT  = T    GGA compatible to vasp.4.4-vasp.4.6
   LMAXPAW     = -100 max onsite density
   LMAXMIX     =    4 max onsite mixed and CHGCAR
   VOSKOWN=      0    Vosko Wilk Nusair interpolation
   ROPT   =    0.00000   0.00000   0.00000   0.00000
 Ionic relaxation
   EDIFFG = -.5E-01   stopping-criterion for IOM
   NSW    =    450    number of steps for IOM
   NBLOCK =      1;   KBLOCK =    450    inner block; outer block 
   IBRION =      1    ionic relax: 0-MD 1-quasi-New 2-CG
   NFREE  =      0    steps in history (QN), initial steepest desc. (CG)
   ISIF   =      2    stress and relaxation
   IWAVPR =     11    prediction:  0-non 1-charg 2-wave 3-comb
   ISYM   =      0    0-nonsym 1-usesym 2-fastsym
   LCORR  =      T    Harris-Foulkes like correction to forces

   POTIM  = 0.2000    time-step for ionic-motion
   TEIN   =    0.0    initial temperature
   TEBEG  =    0.0;   TEEND  =   0.0 temperature during run
   SMASS  =  -3.00    Nose mass-parameter (am)
   estimated Nose-frequenzy (Omega)   =  0.10E-29 period in steps = 0.31E+47 mass=  -0.119E-25a.u.
   SCALEE = 1.0000    scale energy and forces
   NPACO  =    256;   APACO  = 10.0  distance and # of slots for P.C.
   PSTRESS=    0.0 pullay stress

  Mass of Ions in am
   POMASS =   7.01 92.00 95.94 16.00
  Ionic Valenz
   ZVAL   =   3.00 11.00 12.00  6.00
  Atomic Wigner-Seitz radii
   RWIGS  =  -1.00 -1.00 -1.00 -1.00
  virtual crystal weights 
   VCA    =   1.00  1.00  1.00  1.00
   NELECT =     687.0000    total number of electrons
   NUPDOWN=      -1.0000    fix difference up-down

 DOS related values:
   EMIN   =  10.00;   EMAX   =-10.00  energy-range for DOS
   EFERMI =   0.00
   ISMEAR =     0;   SIGMA  =   0.05  broadening in eV -4-tet -1-fermi 0-gaus

 Electronic relaxation 2 (details)
   IALGO  =     68    algorithm
   LDIAG  =      T    sub-space diagonalisation (order eigenvalues)
   LSUBROT=      F    optimize rotation matrix (better conditioning)
   TURBO    =      0    0=normal 1=particle mesh
   IRESTART =      0    0=no restart 2=restart with 2 vectors
   NREBOOT  =      0    no. of reboots
   NMIN     =      0    reboot dimension
   EREF     =   0.00    reference energy to select bands
   IMIX   =      4    mixing-type and parameters
     AMIX     =   0.40;   BMIX     =  1.00
     AMIX_MAG =   1.60;   BMIX_MAG =  1.00
     AMIN     =   0.10
     WC   =   100.;   INIMIX=   1;  MIXPRE=   1;  MAXMIX= -45

 Intra band minimization:
   WEIMIN = 0.0010     energy-eigenvalue tresh-hold
   EBREAK =  0.54E-09  absolut break condition
   DEPER  =   0.30     relativ break condition  

   TIME   =   0.40     timestep for ELM

  volume/ion in A,a.u.               =      14.37        96.97
  Fermi-wavevector in a.u.,A,eV,Ry     =   1.311457  2.478294 23.400912  1.719918
  Thomas-Fermi vector in A             =   2.441917
 
 Write flags
   LWAVE        =      F    write WAVECAR
   LDOWNSAMPLE  =      F    k-point downsampling of WAVECAR
   LCHARG       =      T    write CHGCAR
   LVTOT        =      F    write LOCPOT, total local potential
   LVHAR        =      F    write LOCPOT, Hartree potential only
   LELF         =      F    write electronic localiz. function (ELF)
   LORBIT       =     11    0 simple, 1 ext, 2 COOP (PROOUT), +10 PAW based schemes


 Dipole corrections
   LMONO  =      F    monopole corrections only (constant potential shift)
   LDIPOL =      F    correct potential (dipole corrections)
   IDIPOL =      0    1-x, 2-y, 3-z, 4-all directions 
   EPSILON=  1.0000000 bulk dielectric constant

 LDA+U is selected, type is set to LDAUTYPE =  2
   angular momentum for each species LDAUL =     0    0    2    0
   U (eV)           for each species LDAUU =   0.0  0.0  4.4  0.0
   J (eV)           for each species LDAUJ =   0.0  0.0  0.0  0.0
 Exchange correlation treatment:
   GGA     =    --    GGA type
   LEXCH   =     8    internal setting for exchange type
   LIBXC   =     F    Libxc                    
   VOSKOWN =     0    Vosko Wilk Nusair interpolation
   LHFCALC =     F    Hartree Fock is set to
   LHFONE  =     F    Hartree Fock one center treatment
   AEXX    =    0.0000 exact exchange contribution

 Linear response parameters
   LEPSILON=     F    determine dielectric tensor
   LRPA    =     F    only Hartree local field effects (RPA)
   LNABLA  =     F    use nabla operator in PAW spheres
   LVEL    =     F    velocity operator in full k-point grid
   CSHIFT  =0.1000    complex shift for real part using Kramers Kronig
   OMEGAMAX=  -1.0    maximum frequency
   DEG_THRESHOLD= 0.2000000E-02 threshold for treating states as degnerate
   RTIME   =   -0.100 relaxation time in fs
  (WPLASMAI=    0.000 imaginary part of plasma frequency in eV, 0.658/RTIME)
   DFIELD  = 0.0000000 0.0000000 0.0000000 field for delta impulse in time
 
  Optional k-point grid parameters
   LKPOINTS_OPT  =     F    use optional k-point grid
   KPOINTS_OPT_MODE=     1    mode for optional k-point grid
 
 Orbital magnetization related:
   ORBITALMAG=     F  switch on orbital magnetization
   LCHIMAG   =     F  perturbation theory with respect to B field
   DQ        =  0.001000  dq finite difference perturbation B field
   LLRAUG    =     F  two centre corrections for induced B field



--------------------------------------------------------------------------------------------------------


 quasi-Newton-method for relaxation of ions
 charge density and potential will be updated during run
 spin polarized calculation
 RMM-DIIS sequential band-by-band and
  variant of blocked Davidson during initial phase
 perform sub-space diagonalisation
    before iterative eigenvector-optimisation
 modified Broyden-mixing scheme, WC =      100.0
 initial mixing is a Kerker type mixing with AMIX =  0.4000 and BMIX =      1.0000
 Hartree-type preconditioning will be used
 using additional bands          118
 reciprocal scheme for non local part
 use partial core corrections
 calculate Harris-corrections to forces 
   (improved forces if not selfconsistent)
 use gradient corrections 
 use of overlap-Matrix (Vanderbilt PP)
 Gauss-broadening in eV      SIGMA  =   0.05


--------------------------------------------------------------------------------------------------------


  energy-cutoff  :      520.00
  volume of cell :     1336.35
      direct lattice vectors                 reciprocal lattice vectors
    22.785142899  0.000000000  0.000000000     0.043888248  0.000000000  0.028932614
     0.000000000  3.876850367  0.000000000     0.000000000  0.257941346 -0.000000041
    -9.973051630  0.000002413 15.128248185     0.000000000  0.000000000  0.066101507

  length of vectors
    22.785142899  3.876850367 18.119758606     0.052566857  0.257941346  0.066101507


 
 k-points in units of 2pi/SCALE and weight: pymatgen with grid density = 1000 / numb
   0.00000000  0.00000000  0.00000000       0.167
   0.00000000  0.04299022 -0.00000001       0.333
   0.00000000  0.08598045 -0.00000001       0.333
   0.00000000  0.12897067 -0.00000002       0.167
 
 k-points in reciprocal lattice and weights: pymatgen with grid density = 1000 / numb
   0.00000000  0.00000000  0.00000000       0.167
   0.00000000  0.16666667  0.00000000       0.333
   0.00000000  0.33333333  0.00000000       0.333
   0.00000000  0.50000000  0.00000000       0.167
 
 position of ions in fractional coordinates (direct lattice) 
   0.31668402  0.93812349  0.63572330
   0.36700133  0.00743230  0.04631090
   0.63378706  0.00761171  0.95390620
   0.86440442  0.50772974  0.04363536
   0.13145621  0.50955158  0.95531358
   0.24854506  0.00366047  0.13763999
   0.75182074  0.00326109  0.86114851
   0.74746062  0.50308759  0.13780618
   0.24976153  0.50332442  0.86491516
   0.13023198  0.99763419  0.23125688
   0.86908694  0.99851525  0.76733467
   0.63159344  0.49837996  0.23337728
   0.37181412  0.49621878  0.77619861
   0.41887790  0.96656453  0.37938156
   0.58378741  0.96725775  0.61719145
   0.91727709  0.46736764  0.38152943
   0.08234809  0.46766435  0.61987637
   0.29768820  0.00328499  0.46886765
   0.70249614  0.00348000  0.52636553
   0.79881224  0.50369190  0.47344264
   0.19712990  0.50264057  0.52172877
   0.46653659  0.00089651  0.71302388
   0.53673155  0.00168158  0.28713469
   0.96394266  0.50164961  0.71252179
   0.03168065  0.50150211  0.28217149
   0.99943329  0.25169344  0.00039500
   0.50102441  0.75289547  0.00147095
   0.00009426  0.49078936  0.50027016
   0.50096491  0.99138296  0.49878242
   0.14881812  0.00447349  0.99149574
   0.84956652  0.00386735  0.00796976
   0.64895757  0.50436034  0.99031388
   0.35094322  0.50401996  0.00972808
   0.30340746  0.00320152  0.08218710
   0.69611535  0.00382578  0.91729491
   0.80264774  0.50324564  0.08098266
   0.19621976  0.50195364  0.91983118
   0.03403637  0.99941917  0.09903872
   0.96551352  0.99965996  0.90244175
   0.53441915  0.50163636  0.09912028
   0.46689435  0.50053740  0.90161276
   0.44982166  0.00370171  0.15586920
   0.54978245  0.00293783  0.84369746
   0.94856872  0.50324926  0.15467200
   0.05017732  0.50519818  0.84470666
   0.17998452  0.00216242  0.17811903
   0.81976076  0.00304014  0.82234151
   0.67976400  0.50288828  0.17714967
   0.32060256  0.50054144  0.82597492
   0.04848563  0.00132892  0.27003962
   0.95059472  0.00182711  0.73023882
   0.55000151  0.50160117  0.26994042
   0.45133198  0.50084961  0.72969125
   0.32533163  0.99979216  0.25018125
   0.67414315  0.99961013  0.74951619
   0.82519062  0.49922571  0.24935000
   0.17486017  0.49972666  0.75107729
   0.47615559  0.99837513  0.32590887
   0.52212578  0.99944983  0.66962003
   0.97591050  0.49957023  0.32642297
   0.02419953  0.49869300  0.67372863
   0.20685688  0.00165920  0.34954501
   0.79303100  0.00189048  0.65115311
   0.70771135  0.50204768  0.34922677
   0.29580619  0.50135356  0.65421643
   0.35464221  0.00081158  0.42729534
   0.64826857  0.99923125  0.57449548
   0.85266381  0.50025461  0.42537435
   0.14738973  0.49983011  0.57460381
   0.22318948  0.00230187  0.52386266
   0.77879640  0.00304763  0.48128554
   0.72197017  0.50291099  0.51856876
   0.27859577  0.50253993  0.48069663
   0.37458614  0.00183146  0.59815885
   0.62179777  0.00252034  0.40408504
   0.87861884  0.50274100  0.59603261
   0.12122998  0.50210503  0.40337097
   0.09113852  0.99298211  0.63134351
   0.90994913  0.99304150  0.36853536
   0.58977002  0.49291126  0.63100406
   0.40923779  0.49254780  0.36908430
   0.39119050  0.99963623  0.76732906
   0.60595097  0.00101466  0.23211121
   0.89451565  0.50095473  0.76831983
   0.10568063  0.50049537  0.23221525
   0.27548436  0.00302994  0.89741959
   0.72392335  0.00355776  0.10260688
   0.77527155  0.50360736  0.89631480
   0.22424301  0.50374884  0.10426619
   0.42960901  0.00442957  0.98762504
   0.57159554  0.00532047  0.01389922
   0.92815247  0.50223969  0.98717394
   0.07107842  0.50358816  0.01354726
 
 position of ions in cartesian coordinates  (Angst):
   0.87558933  3.63696592  9.61737989
   7.90031681  0.02881404  0.70060277
   4.92757288  0.02951175 14.43092969
  19.26040048  1.96839235  0.66012653
  -6.53214310  1.97545753 14.45222093
   4.29044399  0.01419142  2.08225196
   8.54206451  0.01264483 13.02766841
  15.65664901  1.95039564  2.08476604
  -2.93499148  1.95131557 13.08465117
   0.66101741  3.86767903  3.49851140
  12.14960172  3.87109605 11.60842938
  12.06346315  1.93214511  3.53058945
   0.73076896  1.92376783 11.74252524
   5.76060086  3.74722697  5.73937847
   7.14639745  3.74991504  9.33702538
  17.09527702  1.81191534  5.77187184
  -4.30574600  1.81306621  9.37764358
   2.10682694  0.01273656  7.09314619
  10.75700430  0.01349271  7.96298832
  13.47938315  1.95273926  7.16235775
  -0.71159509  1.94866353  7.89284229
   3.51907892  0.00347735 10.78680214
   9.36589605  0.00651994  4.34384482
  14.85755467  1.94482218 10.77920644
  -2.09226281  1.94424931  4.26876035
  22.76829087  0.97577779  0.00597572
  11.40124284  2.91886310  0.02225297
  -4.98707239  1.90271813  7.56821107
   6.44017434  3.84344459  7.54570425
  -6.49739616  0.01734543 14.99959363
  19.27801166  0.01499315  0.12056857
   4.91013966  1.95533197 14.98171410
   7.89927276  1.95401000  0.14716882
   6.09352603  0.01241202  1.24334686
   6.71285818  0.01483419 13.87706513
  17.48079935  1.95100825  1.22512573
  -4.70262849  1.94600138 13.91543440
  -0.21219464  3.87459883  1.49828231
  12.99926535  3.87553427 13.65236282
  11.18828491  1.94476935  1.49951622
   1.64642382  1.94051077 13.63982156
   8.69475916  0.01435136  2.35802788
   4.11263347  0.01139155 12.76366452
  20.07072210  1.95102244  2.33991637
  -7.28100582  1.95857979 12.77893197
   2.32458280  0.00838381  2.69462891
  10.47711186  0.01178817 12.44058641
  13.72179710  1.94962304  2.67996412
  -0.93251548  1.94052624 12.49555362
  -1.58836715  0.00515268  4.08522642
  14.37672720  0.00708520 11.04723408
   9.83973333  1.94463335  4.08372572
   3.00641521  1.94172077 11.03895039
   4.91765709  3.87604520  3.78480402
   7.88548434  3.87534069 11.33886696
  16.31530577  1.93542400  3.77222866
  -3.50631850  1.93736728 11.36248357
   7.59896725  3.87055177  4.93043020
   5.21855539  3.87471906 10.13017793
  18.98082695  1.93675981  4.93820772
  -6.16774074  1.93335976 10.19233389
   1.22723321  0.00643333  5.28800363
  11.57534111  0.00733068  9.85080589
  12.64244772  1.94636456  5.28318922
   0.21545201  1.94367432  9.89714849
   3.81913490  0.00314739  6.46423003
   9.04141884  3.87387143  8.69111018
  15.18578639  1.93941328  6.43516874
  -2.37225746  1.93776791  8.69274900
  -0.13910518  0.00892527  7.92512439
  12.94510175  0.01181637  7.28100709
  11.27848052  1.94971190  7.84503686
   1.55383222  1.94827327  7.27209785
   2.56952958  0.00710176  9.04909549
  10.13779015  0.00977195  6.11309877
  14.07519183  1.94905308  9.01692930
  -1.26059703  1.94658706  6.10229621
  -4.21981730  3.84964459  9.55112134
  17.05789877  3.84987420  5.57529443
   7.14495818  1.91094473  9.54598598
   5.64364480  1.90953503  5.58359882
   1.26071916  3.87544193 11.60834448
  11.49182233  0.00393424  3.51143594
  12.71917360  1.94212838 11.62333308
   0.09205362  1.94034620  3.51300994
  -2.67306153  0.01174879 13.57638634
  15.47139335  0.01379316  1.55226231
   8.72567932  1.95241253 13.55967280
   4.06955703  1.95295914  1.57736476
  -0.06093286  0.01717516 14.94103674
  12.88526845  0.02062671  0.21027085
  11.30294997  1.94711051 14.93421235
   1.48442452  1.95233597  0.20494633
 


--------------------------------------------------------------------------------------------------------


 k-point   1 :   0.0000 0.0000 0.0000  plane waves:   36029
 k-point   2 :   0.0000 0.1667 0.0000  plane waves:   35947
 k-point   3 :   0.0000 0.3333 0.0000  plane waves:   35982
 k-point   4 :   0.0000 0.5000 0.0000  plane waves:   36018

 maximum and minimum number of plane-waves per node :     36029    35947

 maximum number of plane-waves:     36029
 maximum index in each direction: 
   IXMAX=   42   IYMAX=    7   IZMAX=   33
   IXMIN=  -42   IYMIN=   -7   IZMIN=  -33


 serial   3D FFT for wavefunctions
 parallel 3D FFT for charge:
    minimum data exchange during FFTs selected (reduces bandwidth)


 total amount of memory used by VASP MPI-rank0   321868. kBytes
=======================================================================

   base      :      30000. kBytes
   nonl-proj :     136648. kBytes
   fftplans  :      24917. kBytes
   grid      :      75254. kBytes
   one-center:       2892. kBytes
   wavefun   :      52157. kBytes
 
     INWAV:  cpu time      0.0001: real time      0.0005
 Broyden mixing: mesh for mixing (old mesh)
   NGX = 85   NGY = 15   NGZ = 67
  (NGX  =360   NGY  = 60   NGZ  =280)
  gives a total of  85425 points

 initial charge density was supplied:
 charge density of overlapping atoms calculated
 number of electron     687.0000000 magnetization      55.8000000
 keeping initial charge density in first step


--------------------------------------------------------------------------------------------------------


 Maximum index for augmentation-charges         9971 (set IRDMAX)


--------------------------------------------------------------------------------------------------------


 First call to EWALD:  gamma=   0.161
 Maximum number of real-space cells 2x 7x 2
 Maximum number of reciprocal cells 5x 1x 4

    FEWALD:  cpu time      0.0032: real time      0.0032


--------------------------------------- Iteration      1(   1)  ---------------------------------------


    POTLOK:  cpu time      0.2405: real time      0.2427
    SETDIJ:  cpu time      0.9427: real time      0.9485
atom =   1  type =  1  l = 0
 
 onsite density matrix
 
spin component  1
 
  1.2642
 
spin component  2
 
  0.8428
 
 occupancies and eigenvectors
 
  o =  0.8428  v =  0.0000  1.0000      0.0000  0.0000
  o =  1.2642  v =  1.0000  0.0000      0.0000  0.0000
 
atom =   2  type =  2  l = 0
 
 onsite density matrix
 
spin component  1
 
  0.1347
 
spin component  2
 
  0.1207
 
 occupancies and eigenvectors
 
  o =  0.1207  v =  0.0000  1.0000      0.0000  0.0000
  o =  0.1347  v =  1.0000  0.0000      0.0000  0.0000
 
atom =   3  type =  2  l = 0
 
 onsite density matrix
 
spin component  1
 
  0.1347
 
spin component  2
 
  0.1207
 
 occupancies and eigenvectors
 
  o =  0.1207  v =  0.0000  1.0000      0.0000  0.0000
  o =  0.1347  v =  1.0000  0.0000      0.0000  0.0000
 
atom =   4  type =  2  l = 0
 
 onsite density matrix
 
spin component  1
 
  0.1347
 
spin component  2
 
  0.1207
 
 occupancies and eigenvectors
 
  o =  0.1207  v =  0.0000  1.0000      0.0000  0.0000
  o =  0.1347  v =  1.0000  0.0000      0.0000  0.0000
 
atom =   5  type =  2  l = 0
 
 onsite density matrix
 
spin component  1
 
  0.1347
 
spin component  2
 
  0.1207
 
 occupancies and eigenvectors
 
  o =  0.1207  v =  0.0000  1.0000      0.0000  0.0000
  o =  0.1347  v =  1.0000  0.0000      0.0000  0.0000
 
atom =   6  type =  2  l = 0
 
 onsite density matrix
 
spin component  1
 
  0.1347
 
spin component  2
 
  0.1207
 
 occupancies and eigenvectors
 
  o =  0.1207  v =  0.0000  1.0000      0.0000  0.0000
  o =  0.1347  v =  1.0000  0.0000      0.0000  0.0000
 
atom =   7  type =  2  l = 0
 
 onsite density matrix
 
spin component  1
 
  0.1347
 
spin component  2
 
  0.1207
 
 occupancies and eigenvectors
 
  o =  0.1207  v =  0.0000  1.0000      0.0000  0.0000
  o =  0.1347  v =  1.0000  0.0000      0.0000  0.0000
 
atom =   8  type =  2  l = 0
 
 onsite density matrix
 
spin component  1
 
  0.1347
 
spin component  2
 
  0.1207
 
 occupancies and eigenvectors
 
  o =  0.1207  v =  0.0000  1.0000      0.0000  0.0000
  o =  0.1347  v =  1.0000  0.0000      0.0000  0.0000
 
atom =   9  type =  2  l = 0
 
 onsite density matrix
 
spin component  1
 
  0.1347
 
spin component  2
 
  0.1207
 
 occupancies and eigenvectors
 
  o =  0.1207  v =  0.0000  1.0000      0.0000  0.0000
  o =  0.1347  v =  1.0000  0.0000      0.0000  0.0000
 
atom =  10  type =  2  l = 0
 
 onsite density matrix
 
spin component  1
 
  0.1347
 
spin component  2
 
  0.1207
 
 occupancies and eigenvectors
 
  o =  0.1207  v =  0.0000  1.0000      0.0000  0.0000
  o =  0.1347  v =  1.0000  0.0000      0.0000  0.0000
 
atom =  11  type =  2  l = 0
 
 onsite density matrix
 
spin component  1
 
  0.1347
 
spin component  2
 
  0.1207
 
 occupancies and eigenvectors
 
  o =  0.1207  v =  0.0000  1.0000      0.0000  0.0000
  o =  0.1347  v =  1.0000  0.0000      0.0000  0.0000
 
atom =  12  type =  2  l = 0
 
 onsite density matrix
 
spin component  1
 
  0.1347
 
spin component  2
 
  0.1207
 
 occupancies and eigenvectors
 
  o =  0.1207  v =  0.0000  1.0000      0.0000  0.0000
  o =  0.1347  v =  1.0000  0.0000      0.0000  0.0000
 
atom =  13  type =  2  l = 0
 
 onsite density matrix
 
spin component  1
 
  0.1347
 
spin component  2
 
  0.1207
 
 occupancies and eigenvectors
 
  o =  0.1207  v =  0.0000  1.0000      0.0000  0.0000
  o =  0.1347  v =  1.0000  0.0000      0.0000  0.0000
 
atom =  14  type =  2  l = 0
 
 onsite density matrix
 
spin component  1
 
  0.1347
 
spin component  2
 
  0.1207
 
 occupancies and eigenvectors
 
  o =  0.1207  v =  0.0000  1.0000      0.0000  0.0000
  o =  0.1347  v =  1.0000  0.0000      0.0000  0.0000
 
atom =  15  type =  2  l = 0
 
 onsite density matrix
 
spin component  1
 
  0.1347
 
spin component  2
 
  0.1207
 
 occupancies and eigenvectors
 
  o =  0.1207  v =  0.0000  1.0000      0.0000  0.0000
  o =  0.1347  v =  1.0000  0.0000      0.0000  0.0000
 
atom =  16  type =  2  l = 0
 
 onsite density matrix
 
spin component  1
 
  0.1347
 
spin component  2
 
  0.1207
 
 occupancies and eigenvectors
 
  o =  0.1207  v =  0.0000  1.0000      0.0000  0.0000
  o =  0.1347  v =  1.0000  0.0000      0.0000  0.0000
 
atom =  17  type =  2  l = 0
 
 onsite density matrix
 
spin component  1
 
  0.1347
 
spin component  2
 
  0.1207
 
 occupancies and eigenvectors
 
  o =  0.1207  v =  0.0000  1.0000      0.0000  0.0000
  o =  0.1347  v =  1.0000  0.0000      0.0000  0.0000
 
atom =  18  type =  2  l = 0
 
 onsite density matrix
 
spin component  1
 
  0.1347
 
spin component  2
 
  0.1207
 
 occupancies and eigenvectors
 
  o =  0.1207  v =  0.0000  1.0000      0.0000  0.0000
  o =  0.1347  v =  1.0000  0.0000      0.0000  0.0000
 
atom =  19  type =  2  l = 0
 
 onsite density matrix
 
spin component  1
 
  0.1347
 
spin component  2
 
  0.1207
 
 occupancies and eigenvectors
 
  o =  0.1207  v =  0.0000  1.0000      0.0000  0.0000
  o =  0.1347  v =  1.0000  0.0000      0.0000  0.0000
 
atom =  20  type =  2  l = 0
 
 onsite density matrix
 
spin component  1
 
  0.1347
 
spin component  2
 
  0.1207
 
 occupancies and eigenvectors
 
  o =  0.1207  v =  0.0000  1.0000      0.0000  0.0000
  o =  0.1347  v =  1.0000  0.0000      0.0000  0.0000
 
atom =  21  type =  2  l = 0
 
 onsite density matrix
 
spin component  1
 
  0.1347
 
spin component  2
 
  0.1207
 
 occupancies and eigenvectors
 
  o =  0.1207  v =  0.0000  1.0000      0.0000  0.0000
  o =  0.1347  v =  1.0000  0.0000      0.0000  0.0000
 
atom =  22  type =  2  l = 0
 
 onsite density matrix
 
spin component  1
 
  0.1347
 
spin component  2
 
  0.1207
 
 occupancies and eigenvectors
 
  o =  0.1207  v =  0.0000  1.0000      0.0000  0.0000
  o =  0.1347  v =  1.0000  0.0000      0.0000  0.0000
 
atom =  23  type =  2  l = 0
 
 onsite density matrix
 
spin component  1
 
  0.1347
 
spin component  2
 
  0.1207
 
 occupancies and eigenvectors
 
  o =  0.1207  v =  0.0000  1.0000      0.0000  0.0000
  o =  0.1347  v =  1.0000  0.0000      0.0000  0.0000
 
atom =  24  type =  2  l = 0
 
 onsite density matrix
 
spin component  1
 
  0.1347
 
spin component  2
 
  0.1207
 
 occupancies and eigenvectors
 
  o =  0.1207  v =  0.0000  1.0000      0.0000  0.0000
  o =  0.1347  v =  1.0000  0.0000      0.0000  0.0000
 
atom =  25  type =  2  l = 0
 
 onsite density matrix
 
spin component  1
 
  0.1347
 
spin component  2
 
  0.1207
 
 occupancies and eigenvectors
 
  o =  0.1207  v =  0.0000  1.0000      0.0000  0.0000
  o =  0.1347  v =  1.0000  0.0000      0.0000  0.0000
 
atom =  26  type =  3  l = 2
 
 onsite density matrix
 
spin component  1
 
  0.4151  0.0000  0.0000  0.0000  0.0000
  0.0000  0.4151  0.0000  0.0000  0.0000
  0.0000  0.0000  0.4151  0.0000 -0.0000
  0.0000  0.0000  0.0000  0.4151  0.0000
  0.0000  0.0000 -0.0000  0.0000  0.4151
 
spin component  2
 
  0.3756  0.0000  0.0000  0.0000  0.0000
  0.0000  0.3756  0.0000  0.0000  0.0000
  0.0000  0.0000  0.3756  0.0000 -0.0000
  0.0000  0.0000  0.0000  0.3756  0.0000
  0.0000  0.0000 -0.0000  0.0000  0.3756
 
 occupancies and eigenvectors
 
  o =  0.3756  v =  0.0000  0.0000  0.0000  0.0000  0.0000  0.0000  0.0000  1.0000  0.0000  0.0000      0.0000  0.0000  0.0000  0.0000  0.0000  0.0000  0.0000  0.0000  0.0000  0.0000
  o =  0.3756  v =  0.0000  0.0000  0.0000  0.0000  0.0000  1.0000  0.0000  0.0000  0.0000  0.0000      0.0000  0.0000  0.0000  0.0000  0.0000  0.0000  0.0000  0.0000  0.0000  0.0000
  o =  0.3756  v =  0.0000  0.0000  0.0000  0.0000  0.0000  0.0000  1.0000  0.0000  0.0000  0.0000      0.0000  0.0000  0.0000  0.0000  0.0000  0.0000  0.0000  0.0000  0.0000  0.0000
  o =  0.3756  v =  0.0000  0.0000  0.0000  0.0000  0.0000  0.0000  0.0000  0.0000  1.0000  0.0000      0.0000  0.0000  0.0000  0.0000  0.0000  0.0000  0.0000  0.0000  0.0000  0.0000
  o =  0.3756  v =  0.0000  0.0000  0.0000  0.0000  0.0000  0.0000  0.0000  0.0000  0.0000  1.0000      0.0000  0.0000  0.0000  0.0000  0.0000  0.0000  0.0000  0.0000  0.0000  0.0000
  o =  0.4151  v =  0.0000  0.0000  1.0000  0.0000  0.0000  0.0000  0.0000  0.0000  0.0000  0.0000      0.0000  0.0000  0.0000  0.0000  0.0000  0.0000  0.0000  0.0000  0.0000  0.0000
  o =  0.4151  v =  0.0000  1.0000  0.0000  0.0000  0.0000  0.0000  0.0000  0.0000  0.0000  0.0000      0.0000  0.0000  0.0000  0.0000  0.0000  0.0000  0.0000  0.0000  0.0000  0.0000
  o =  0.4151  v =  1.0000  0.0000  0.0000  0.0000  0.0000  0.0000  0.0000  0.0000  0.0000  0.0000      0.0000  0.0000  0.0000  0.0000  0.0000  0.0000  0.0000  0.0000  0.0000  0.0000
  o =  0.4151  v =  0.0000  0.0000  0.0000  1.0000  0.0000  0.0000  0.0000  0.0000  0.0000  0.0000      0.0000  0.0000  0.0000  0.0000  0.0000  0.0000  0.0000  0.0000  0.0000  0.0000
  o =  0.4151  v =  0.0000  0.0000  0.0000  0.0000  1.0000  0.0000  0.0000  0.0000  0.0000  0.0000      0.0000  0.0000  0.0000  0.0000  0.0000  0.0000  0.0000  0.0000  0.0000  0.0000
 
atom =  27  type =  3  l = 2
 
 onsite density matrix
 
spin component  1
 
  0.4151  0.0000  0.0000  0.0000  0.0000
  0.0000  0.4151  0.0000  0.0000  0.0000
  0.0000  0.0000  0.4151  0.0000 -0.0000
  0.0000  0.0000  0.0000  0.4151  0.0000
  0.0000  0.0000 -0.0000  0.0000  0.4151
 
spin component  2
 
  0.3756  0.0000  0.0000  0.0000  0.0000
  0.0000  0.3756  0.0000  0.0000  0.0000
  0.0000  0.0000  0.3756  0.0000 -0.0000
  0.0000  0.0000  0.0000  0.3756  0.0000
  0.0000  0.0000 -0.0000  0.0000  0.3756
 
 occupancies and eigenvectors
 
  o =  0.3756  v =  0.0000  0.0000  0.0000  0.0000  0.0000  0.0000  0.0000  1.0000  0.0000  0.0000      0.0000  0.0000  0.0000  0.0000  0.0000  0.0000  0.0000  0.0000  0.0000  0.0000
  o =  0.3756  v =  0.0000  0.0000  0.0000  0.0000  0.0000  1.0000  0.0000  0.0000  0.0000  0.0000      0.0000  0.0000  0.0000  0.0000  0.0000  0.0000  0.0000  0.0000  0.0000  0.0000
  o =  0.3756  v =  0.0000  0.0000  0.0000  0.0000  0.0000  0.0000  1.0000  0.0000  0.0000  0.0000      0.0000  0.0000  0.0000  0.0000  0.0000  0.0000  0.0000  0.0000  0.0000  0.0000
  o =  0.3756  v =  0.0000  0.0000  0.0000  0.0000  0.0000  0.0000  0.0000  0.0000  1.0000  0.0000      0.0000  0.0000  0.0000  0.0000  0.0000  0.0000  0.0000  0.0000  0.0000  0.0000
  o =  0.3756  v =  0.0000  0.0000  0.0000  0.0000  0.0000  0.0000  0.0000  0.0000  0.0000  1.0000      0.0000  0.0000  0.0000  0.0000  0.0000  0.0000  0.0000  0.0000  0.0000  0.0000
  o =  0.4151  v =  0.0000  0.0000  1.0000  0.0000  0.0000  0.0000  0.0000  0.0000  0.0000  0.0000      0.0000  0.0000  0.0000  0.0000  0.0000  0.0000  0.0000  0.0000  0.0000  0.0000
  o =  0.4151  v =  0.0000  1.0000  0.0000  0.0000  0.0000  0.0000  0.0000  0.0000  0.0000  0.0000      0.0000  0.0000  0.0000  0.0000  0.0000  0.0000  0.0000  0.0000  0.0000  0.0000
  o =  0.4151  v =  1.0000  0.0000  0.0000  0.0000  0.0000  0.0000  0.0000  0.0000  0.0000  0.0000      0.0000  0.0000  0.0000  0.0000  0.0000  0.0000  0.0000  0.0000  0.0000  0.0000
  o =  0.4151  v =  0.0000  0.0000  0.0000  1.0000  0.0000  0.0000  0.0000  0.0000  0.0000  0.0000      0.0000  0.0000  0.0000  0.0000  0.0000  0.0000  0.0000  0.0000  0.0000  0.0000
  o =  0.4151  v =  0.0000  0.0000  0.0000  0.0000  1.0000  0.0000  0.0000  0.0000  0.0000  0.0000      0.0000  0.0000  0.0000  0.0000  0.0000  0.0000  0.0000  0.0000  0.0000  0.0000
 
atom =  28  type =  4  l = 0
 
 onsite density matrix
 
spin component  1
 
  0.8936
 
spin component  2
 
  0.7311
 
 occupancies and eigenvectors
 
  o =  0.7311  v =  0.0000  1.0000      0.0000  0.0000
  o =  0.8936  v =  1.0000  0.0000      0.0000  0.0000
 
atom =  29  type =  4  l = 0
 
 onsite density matrix
 
spin component  1
 
  0.8936
 
spin component  2
 
  0.7311
 
 occupancies and eigenvectors
 
  o =  0.7311  v =  0.0000  1.0000      0.0000  0.0000
  o =  0.8936  v =  1.0000  0.0000      0.0000  0.0000
 
atom =  30  type =  4  l = 0
 
 onsite density matrix
 
spin component  1
 
  0.8936
 
spin component  2
 
  0.7311
 
 occupancies and eigenvectors
 
  o =  0.7311  v =  0.0000  1.0000      0.0000  0.0000
  o =  0.8936  v =  1.0000  0.0000      0.0000  0.0000
 
atom =  31  type =  4  l = 0
 
 onsite density matrix
 
spin component  1
 
  0.8936
 
spin component  2
 
  0.7311
 
 occupancies and eigenvectors
 
  o =  0.7311  v =  0.0000  1.0000      0.0000  0.0000
  o =  0.8936  v =  1.0000  0.0000      0.0000  0.0000
 
atom =  32  type =  4  l = 0
 
 onsite density matrix
 
spin component  1
 
  0.8936
 
spin component  2
 
  0.7311
 
 occupancies and eigenvectors
 
  o =  0.7311  v =  0.0000  1.0000      0.0000  0.0000
  o =  0.8936  v =  1.0000  0.0000      0.0000  0.0000
 
atom =  33  type =  4  l = 0
 
 onsite density matrix
 
spin component  1
 
  0.8936
 
spin component  2
 
  0.7311
 
 occupancies and eigenvectors
 
  o =  0.7311  v =  0.0000  1.0000      0.0000  0.0000
  o =  0.8936  v =  1.0000  0.0000      0.0000  0.0000
 
atom =  34  type =  4  l = 0
 
 onsite density matrix
 
spin component  1
 
  0.8936
 
spin component  2
 
  0.7311
 
 occupancies and eigenvectors
 
  o =  0.7311  v =  0.0000  1.0000      0.0000  0.0000
  o =  0.8936  v =  1.0000  0.0000      0.0000  0.0000
 
atom =  35  type =  4  l = 0
 
 onsite density matrix
 
spin component  1
 
  0.8936
 
spin component  2
 
  0.7311
 
 occupancies and eigenvectors
 
  o =  0.7311  v =  0.0000  1.0000      0.0000  0.0000
  o =  0.8936  v =  1.0000  0.0000      0.0000  0.0000
 
atom =  36  type =  4  l = 0
 
 onsite density matrix
 
spin component  1
 
  0.8936
 
spin component  2
 
  0.7311
 
 occupancies and eigenvectors
 
  o =  0.7311  v =  0.0000  1.0000      0.0000  0.0000
  o =  0.8936  v =  1.0000  0.0000      0.0000  0.0000
 
atom =  37  type =  4  l = 0
 
 onsite density matrix
 
spin component  1
 
  0.8936
 
spin component  2
 
  0.7311
 
 occupancies and eigenvectors
 
  o =  0.7311  v =  0.0000  1.0000      0.0000  0.0000
  o =  0.8936  v =  1.0000  0.0000      0.0000  0.0000
 
atom =  38  type =  4  l = 0
 
 onsite density matrix
 
spin component  1
 
  0.8936
 
spin component  2
 
  0.7311
 
 occupancies and eigenvectors
 
  o =  0.7311  v =  0.0000  1.0000      0.0000  0.0000
  o =  0.8936  v =  1.0000  0.0000      0.0000  0.0000
 
atom =  39  type =  4  l = 0
 
 onsite density matrix
 
spin component  1
 
  0.8936
 
spin component  2
 
  0.7311
 
 occupancies and eigenvectors
 
  o =  0.7311  v =  0.0000  1.0000      0.0000  0.0000
  o =  0.8936  v =  1.0000  0.0000      0.0000  0.0000
 
atom =  40  type =  4  l = 0
 
 onsite density matrix
 
spin component  1
 
  0.8936
 
spin component  2
 
  0.7311
 
 occupancies and eigenvectors
 
  o =  0.7311  v =  0.0000  1.0000      0.0000  0.0000
  o =  0.8936  v =  1.0000  0.0000      0.0000  0.0000
 
atom =  41  type =  4  l = 0
 
 onsite density matrix
 
spin component  1
 
  0.8936
 
spin component  2
 
  0.7311
 
 occupancies and eigenvectors
 
  o =  0.7311  v =  0.0000  1.0000      0.0000  0.0000
  o =  0.8936  v =  1.0000  0.0000      0.0000  0.0000
 
atom =  42  type =  4  l = 0
 
 onsite density matrix
 
spin component  1
 
  0.8936
 
spin component  2
 
  0.7311
 
 occupancies and eigenvectors
 
  o =  0.7311  v =  0.0000  1.0000      0.0000  0.0000
  o =  0.8936  v =  1.0000  0.0000      0.0000  0.0000
 
atom =  43  type =  4  l = 0
 
 onsite density matrix
 
spin component  1
 
  0.8936
 
spin component  2
 
  0.7311
 
 occupancies and eigenvectors
 
  o =  0.7311  v =  0.0000  1.0000      0.0000  0.0000
  o =  0.8936  v =  1.0000  0.0000      0.0000  0.0000
 
atom =  44  type =  4  l = 0
 
 onsite density matrix
 
spin component  1
 
  0.8936
 
spin component  2
 
  0.7311
 
 occupancies and eigenvectors
 
  o =  0.7311  v =  0.0000  1.0000      0.0000  0.0000
  o =  0.8936  v =  1.0000  0.0000      0.0000  0.0000
 
atom =  45  type =  4  l = 0
 
 onsite density matrix
 
spin component  1
 
  0.8936
 
spin component  2
 
  0.7311
 
 occupancies and eigenvectors
 
  o =  0.7311  v =  0.0000  1.0000      0.0000  0.0000
  o =  0.8936  v =  1.0000  0.0000      0.0000  0.0000
 
atom =  46  type =  4  l = 0
 
 onsite density matrix
 
spin component  1
 
  0.8936
 
spin component  2
 
  0.7311
 
 occupancies and eigenvectors
 
  o =  0.7311  v =  0.0000  1.0000      0.0000  0.0000
  o =  0.8936  v =  1.0000  0.0000      0.0000  0.0000
 
atom =  47  type =  4  l = 0
 
 onsite density matrix
 
spin component  1
 
  0.8936
 
spin component  2
 
  0.7311
 
 occupancies and eigenvectors
 
  o =  0.7311  v =  0.0000  1.0000      0.0000  0.0000
  o =  0.8936  v =  1.0000  0.0000      0.0000  0.0000
 
atom =  48  type =  4  l = 0
 
 onsite density matrix
 
spin component  1
 
  0.8936
 
spin component  2
 
  0.7311
 
 occupancies and eigenvectors
 
  o =  0.7311  v =  0.0000  1.0000      0.0000  0.0000
  o =  0.8936  v =  1.0000  0.0000      0.0000  0.0000
 
atom =  49  type =  4  l = 0
 
 onsite density matrix
 
spin component  1
 
  0.8936
 
spin component  2
 
  0.7311
 
 occupancies and eigenvectors
 
  o =  0.7311  v =  0.0000  1.0000      0.0000  0.0000
  o =  0.8936  v =  1.0000  0.0000      0.0000  0.0000
 
atom =  50  type =  4  l = 0
 
 onsite density matrix
 
spin component  1
 
  0.8936
 
spin component  2
 
  0.7311
 
 occupancies and eigenvectors
 
  o =  0.7311  v =  0.0000  1.0000      0.0000  0.0000
  o =  0.8936  v =  1.0000  0.0000      0.0000  0.0000
 
atom =  51  type =  4  l = 0
 
 onsite density matrix
 
spin component  1
 
  0.8936
 
spin component  2
 
  0.7311
 
 occupancies and eigenvectors
 
  o =  0.7311  v =  0.0000  1.0000      0.0000  0.0000
  o =  0.8936  v =  1.0000  0.0000      0.0000  0.0000
 
atom =  52  type =  4  l = 0
 
 onsite density matrix
 
spin component  1
 
  0.8936
 
spin component  2
 
  0.7311
 
 occupancies and eigenvectors
 
  o =  0.7311  v =  0.0000  1.0000      0.0000  0.0000
  o =  0.8936  v =  1.0000  0.0000      0.0000  0.0000
 
atom =  53  type =  4  l = 0
 
 onsite density matrix
 
spin component  1
 
  0.8936
 
spin component  2
 
  0.7311
 
 occupancies and eigenvectors
 
  o =  0.7311  v =  0.0000  1.0000      0.0000  0.0000
  o =  0.8936  v =  1.0000  0.0000      0.0000  0.0000
 
atom =  54  type =  4  l = 0
 
 onsite density matrix
 
spin component  1
 
  0.8936
 
spin component  2
 
  0.7311
 
 occupancies and eigenvectors
 
  o =  0.7311  v =  0.0000  1.0000      0.0000  0.0000
  o =  0.8936  v =  1.0000  0.0000      0.0000  0.0000
 
atom =  55  type =  4  l = 0
 
 onsite density matrix
 
spin component  1
 
  0.8936
 
spin component  2
 
  0.7311
 
 occupancies and eigenvectors
 
  o =  0.7311  v =  0.0000  1.0000      0.0000  0.0000
  o =  0.8936  v =  1.0000  0.0000      0.0000  0.0000
 
atom =  56  type =  4  l = 0
 
 onsite density matrix
 
spin component  1
 
  0.8936
 
spin component  2
 
  0.7311
 
 occupancies and eigenvectors
 
  o =  0.7311  v =  0.0000  1.0000      0.0000  0.0000
  o =  0.8936  v =  1.0000  0.0000      0.0000  0.0000
 
atom =  57  type =  4  l = 0
 
 onsite density matrix
 
spin component  1
 
  0.8936
 
spin component  2
 
  0.7311
 
 occupancies and eigenvectors
 
  o =  0.7311  v =  0.0000  1.0000      0.0000  0.0000
  o =  0.8936  v =  1.0000  0.0000      0.0000  0.0000
 
atom =  58  type =  4  l = 0
 
 onsite density matrix
 
spin component  1
 
  0.8936
 
spin component  2
 
  0.7311
 
 occupancies and eigenvectors
 
  o =  0.7311  v =  0.0000  1.0000      0.0000  0.0000
  o =  0.8936  v =  1.0000  0.0000      0.0000  0.0000
 
atom =  59  type =  4  l = 0
 
 onsite density matrix
 
spin component  1
 
  0.8936
 
spin component  2
 
  0.7311
 
 occupancies and eigenvectors
 
  o =  0.7311  v =  0.0000  1.0000      0.0000  0.0000
  o =  0.8936  v =  1.0000  0.0000      0.0000  0.0000
 
atom =  60  type =  4  l = 0
 
 onsite density matrix
 
spin component  1
 
  0.8936
 
spin component  2
 
  0.7311
 
 occupancies and eigenvectors
 
  o =  0.7311  v =  0.0000  1.0000      0.0000  0.0000
  o =  0.8936  v =  1.0000  0.0000      0.0000  0.0000
 
atom =  61  type =  4  l = 0
 
 onsite density matrix
 
spin component  1
 
  0.8936
 
spin component  2
 
  0.7311
 
 occupancies and eigenvectors
 
  o =  0.7311  v =  0.0000  1.0000      0.0000  0.0000
  o =  0.8936  v =  1.0000  0.0000      0.0000  0.0000
 
atom =  62  type =  4  l = 0
 
 onsite density matrix
 
spin component  1
 
  0.8936
 
spin component  2
 
  0.7311
 
 occupancies and eigenvectors
 
  o =  0.7311  v =  0.0000  1.0000      0.0000  0.0000
  o =  0.8936  v =  1.0000  0.0000      0.0000  0.0000
 
atom =  63  type =  4  l = 0
 
 onsite density matrix
 
spin component  1
 
  0.8936
 
spin component  2
 
  0.7311
 
 occupancies and eigenvectors
 
  o =  0.7311  v =  0.0000  1.0000      0.0000  0.0000
  o =  0.8936  v =  1.0000  0.0000      0.0000  0.0000
 
atom =  64  type =  4  l = 0
 
 onsite density matrix
 
spin component  1
 
  0.8936
 
spin component  2
 
  0.7311
 
 occupancies and eigenvectors
 
  o =  0.7311  v =  0.0000  1.0000      0.0000  0.0000
  o =  0.8936  v =  1.0000  0.0000      0.0000  0.0000
 
atom =  65  type =  4  l = 0
 
 onsite density matrix
 
spin component  1
 
  0.8936
 
spin component  2
 
  0.7311
 
 occupancies and eigenvectors
 
  o =  0.7311  v =  0.0000  1.0000      0.0000  0.0000
  o =  0.8936  v =  1.0000  0.0000      0.0000  0.0000
 
atom =  66  type =  4  l = 0
 
 onsite density matrix
 
spin component  1
 
  0.8936
 
spin component  2
 
  0.7311
 
 occupancies and eigenvectors
 
  o =  0.7311  v =  0.0000  1.0000      0.0000  0.0000
  o =  0.8936  v =  1.0000  0.0000      0.0000  0.0000
 
atom =  67  type =  4  l = 0
 
 onsite density matrix
 
spin component  1
 
  0.8936
 
spin component  2
 
  0.7311
 
 occupancies and eigenvectors
 
  o =  0.7311  v =  0.0000  1.0000      0.0000  0.0000
  o =  0.8936  v =  1.0000  0.0000      0.0000  0.0000
 
atom =  68  type =  4  l = 0
 
 onsite density matrix
 
spin component  1
 
  0.8936
 
spin component  2
 
  0.7311
 
 occupancies and eigenvectors
 
  o =  0.7311  v =  0.0000  1.0000      0.0000  0.0000
  o =  0.8936  v =  1.0000  0.0000      0.0000  0.0000
 
atom =  69  type =  4  l = 0
 
 onsite density matrix
 
spin component  1
 
  0.8936
 
spin component  2
 
  0.7311
 
 occupancies and eigenvectors
 
  o =  0.7311  v =  0.0000  1.0000      0.0000  0.0000
  o =  0.8936  v =  1.0000  0.0000      0.0000  0.0000
 
atom =  70  type =  4  l = 0
 
 onsite density matrix
 
spin component  1
 
  0.8936
 
spin component  2
 
  0.7311
 
 occupancies and eigenvectors
 
  o =  0.7311  v =  0.0000  1.0000      0.0000  0.0000
  o =  0.8936  v =  1.0000  0.0000      0.0000  0.0000
 
atom =  71  type =  4  l = 0
 
 onsite density matrix
 
spin component  1
 
  0.8936
 
spin component  2
 
  0.7311
 
 occupancies and eigenvectors
 
  o =  0.7311  v =  0.0000  1.0000      0.0000  0.0000
  o =  0.8936  v =  1.0000  0.0000      0.0000  0.0000
 
atom =  72  type =  4  l = 0
 
 onsite density matrix
 
spin component  1
 
  0.8936
 
spin component  2
 
  0.7311
 
 occupancies and eigenvectors
 
  o =  0.7311  v =  0.0000  1.0000      0.0000  0.0000
  o =  0.8936  v =  1.0000  0.0000      0.0000  0.0000
 
atom =  73  type =  4  l = 0
 
 onsite density matrix
 
spin component  1
 
  0.8936
 
spin component  2
 
  0.7311
 
 occupancies and eigenvectors
 
  o =  0.7311  v =  0.0000  1.0000      0.0000  0.0000
  o =  0.8936  v =  1.0000  0.0000      0.0000  0.0000
 
atom =  74  type =  4  l = 0
 
 onsite density matrix
 
spin component  1
 
  0.8936
 
spin component  2
 
  0.7311
 
 occupancies and eigenvectors
 
  o =  0.7311  v =  0.0000  1.0000      0.0000  0.0000
  o =  0.8936  v =  1.0000  0.0000      0.0000  0.0000
 
atom =  75  type =  4  l = 0
 
 onsite density matrix
 
spin component  1
 
  0.8936
 
spin component  2
 
  0.7311
 
 occupancies and eigenvectors
 
  o =  0.7311  v =  0.0000  1.0000      0.0000  0.0000
  o =  0.8936  v =  1.0000  0.0000      0.0000  0.0000
 
atom =  76  type =  4  l = 0
 
 onsite density matrix
 
spin component  1
 
  0.8936
 
spin component  2
 
  0.7311
 
 occupancies and eigenvectors
 
  o =  0.7311  v =  0.0000  1.0000      0.0000  0.0000
  o =  0.8936  v =  1.0000  0.0000      0.0000  0.0000
 
atom =  77  type =  4  l = 0
 
 onsite density matrix
 
spin component  1
 
  0.8936
 
spin component  2
 
  0.7311
 
 occupancies and eigenvectors
 
  o =  0.7311  v =  0.0000  1.0000      0.0000  0.0000
  o =  0.8936  v =  1.0000  0.0000      0.0000  0.0000
 
atom =  78  type =  4  l = 0
 
 onsite density matrix
 
spin component  1
 
  0.8936
 
spin component  2
 
  0.7311
 
 occupancies and eigenvectors
 
  o =  0.7311  v =  0.0000  1.0000      0.0000  0.0000
  o =  0.8936  v =  1.0000  0.0000      0.0000  0.0000
 
atom =  79  type =  4  l = 0
 
 onsite density matrix
 
spin component  1
 
  0.8936
 
spin component  2
 
  0.7311
 
 occupancies and eigenvectors
 
  o =  0.7311  v =  0.0000  1.0000      0.0000  0.0000
  o =  0.8936  v =  1.0000  0.0000      0.0000  0.0000
 
atom =  80  type =  4  l = 0
 
 onsite density matrix
 
spin component  1
 
  0.8936
 
spin component  2
 
  0.7311
 
 occupancies and eigenvectors
 
  o =  0.7311  v =  0.0000  1.0000      0.0000  0.0000
  o =  0.8936  v =  1.0000  0.0000      0.0000  0.0000
 
atom =  81  type =  4  l = 0
 
 onsite density matrix
 
spin component  1
 
  0.8936
 
spin component  2
 
  0.7311
 
 occupancies and eigenvectors
 
  o =  0.7311  v =  0.0000  1.0000      0.0000  0.0000
  o =  0.8936  v =  1.0000  0.0000      0.0000  0.0000
 
atom =  82  type =  4  l = 0
 
 onsite density matrix
 
spin component  1
 
  0.8936
 
spin component  2
 
  0.7311
 
 occupancies and eigenvectors
 
  o =  0.7311  v =  0.0000  1.0000      0.0000  0.0000
  o =  0.8936  v =  1.0000  0.0000      0.0000  0.0000
 
atom =  83  type =  4  l = 0
 
 onsite density matrix
 
spin component  1
 
  0.8936
 
spin component  2
 
  0.7311
 
 occupancies and eigenvectors
 
  o =  0.7311  v =  0.0000  1.0000      0.0000  0.0000
  o =  0.8936  v =  1.0000  0.0000      0.0000  0.0000
 
atom =  84  type =  4  l = 0
 
 onsite density matrix
 
spin component  1
 
  0.8936
 
spin component  2
 
  0.7311
 
 occupancies and eigenvectors
 
  o =  0.7311  v =  0.0000  1.0000      0.0000  0.0000
  o =  0.8936  v =  1.0000  0.0000      0.0000  0.0000
 
atom =  85  type =  4  l = 0
 
 onsite density matrix
 
spin component  1
 
  0.8936
 
spin component  2
 
  0.7311
 
 occupancies and eigenvectors
 
  o =  0.7311  v =  0.0000  1.0000      0.0000  0.0000
  o =  0.8936  v =  1.0000  0.0000      0.0000  0.0000
 
atom =  86  type =  4  l = 0
 
 onsite density matrix
 
spin component  1
 
  0.8936
 
spin component  2
 
  0.7311
 
 occupancies and eigenvectors
 
  o =  0.7311  v =  0.0000  1.0000      0.0000  0.0000
  o =  0.8936  v =  1.0000  0.0000      0.0000  0.0000
 
atom =  87  type =  4  l = 0
 
 onsite density matrix
 
spin component  1
 
  0.8936
 
spin component  2
 
  0.7311
 
 occupancies and eigenvectors
 
  o =  0.7311  v =  0.0000  1.0000      0.0000  0.0000
  o =  0.8936  v =  1.0000  0.0000      0.0000  0.0000
 
atom =  88  type =  4  l = 0
 
 onsite density matrix
 
spin component  1
 
  0.8936
 
spin component  2
 
  0.7311
 
 occupancies and eigenvectors
 
  o =  0.7311  v =  0.0000  1.0000      0.0000  0.0000
  o =  0.8936  v =  1.0000  0.0000      0.0000  0.0000
 
atom =  89  type =  4  l = 0
 
 onsite density matrix
 
spin component  1
 
  0.8936
 
spin component  2
 
  0.7311
 
 occupancies and eigenvectors
 
  o =  0.7311  v =  0.0000  1.0000      0.0000  0.0000
  o =  0.8936  v =  1.0000  0.0000      0.0000  0.0000
 
[...]
      0.02888      0.01226     -0.00619         0.008477      0.003601     -0.001817
     -0.02707     -0.00024      0.00350        -0.007948     -0.000071      0.001027
      0.01900      0.00366      0.05538         0.005576      0.001076      0.016256
     -0.01042      0.00251      0.00252        -0.003059      0.000737      0.000741
     -0.00263     -0.03271     -0.03645        -0.000772     -0.009602     -0.010700
     -0.04637     -0.00669      0.02198        -0.013613     -0.001963      0.006452
     -0.05454      0.01237      0.02502        -0.016011      0.003630      0.007346
     -0.02540     -0.00327      0.00135        -0.007457     -0.000959      0.000397
      0.00924      0.00534      0.02920         0.002712      0.001567      0.008571
      0.00098      0.01076      0.00475         0.000289      0.003160      0.001395
     -0.00332     -0.01774     -0.00051        -0.000973     -0.005207     -0.000151
     -0.00013     -0.01330     -0.02301        -0.000039     -0.003906     -0.006756
     -0.00679      0.00647     -0.00701        -0.001993      0.001898     -0.002059
      0.00439      0.01008      0.01145         0.001290      0.002960      0.003363
     -0.02027     -0.02313     -0.00296        -0.005952     -0.006790     -0.000868
     -0.02400      0.00753      0.00988        -0.007047      0.002210      0.002902
      0.00602      0.00741      0.00382         0.001768      0.002175      0.001121
      0.00671     -0.01280     -0.02484         0.001970     -0.003758     -0.007293
     -0.00929     -0.04567     -0.03425        -0.002729     -0.013406     -0.010054
      0.00488     -0.00310     -0.00603         0.001431     -0.000909     -0.001770
     -0.01558      0.02504      0.01431        -0.004573      0.007350      0.004201
      0.00460     -0.00530      0.03232         0.001351     -0.001556      0.009487
     -0.03137      0.00155      0.01061        -0.009210      0.000454      0.003114
      0.00308     -0.00605      0.00782         0.000905     -0.001777      0.002297
      0.00996      0.00476      0.02900         0.002925      0.001398      0.008514
      0.00748      0.01137     -0.01068         0.002194      0.003337     -0.003134
     -0.00570     -0.10922      0.02176        -0.001675     -0.032063      0.006388
      0.00206     -0.00448      0.02439         0.000605     -0.001316      0.007160
     -0.02002      0.00103      0.00510        -0.005876      0.000303      0.001499
      0.01852      0.00700     -0.01662         0.005438      0.002055     -0.004880
      0.00761     -0.01317     -0.06108         0.002234     -0.003865     -0.017930
      0.03926      0.01314     -0.02766         0.011525      0.003859     -0.008120
      0.05229      0.00475      0.00216         0.015350      0.001394      0.000634
      0.00248      0.00445      0.00693         0.000729      0.001306      0.002033
     -0.00579     -0.00127      0.00137        -0.001699     -0.000373      0.000402
      0.03317      0.03482      0.00182         0.009738      0.010222      0.000534
      0.11235      0.04449      0.12834         0.032982      0.013061      0.037678
      0.01602      0.00731      0.04775         0.004704      0.002145      0.014019
     -0.01878     -0.01013      0.02389        -0.005513     -0.002973      0.007013
     -0.02997      0.03771     -0.00303        -0.008798      0.011071     -0.000891
     -0.01198      0.00197      0.00361        -0.003517      0.000578      0.001060
      0.00046      0.00200     -0.01086         0.000136      0.000587     -0.003187
     -0.06455     -0.16562      0.00273        -0.018949     -0.048620      0.000801
      0.00557      0.10110     -0.17742         0.001635      0.029679     -0.052084
      0.00764      0.02030     -0.02754         0.002243      0.005958     -0.008085
     -0.00569      0.00016     -0.00859        -0.001670      0.000047     -0.002523
     -0.03568     -0.04091     -0.03477        -0.010474     -0.012010     -0.010207
      0.06654     -0.07749      0.04836         0.019534     -0.022748      0.014198
      0.00529      0.00262     -0.00417         0.001554      0.000770     -0.001223
      0.00699      0.00433     -0.00401         0.002052      0.001273     -0.001178
      0.06614      0.04147      0.04609         0.019416      0.012175      0.013532
      0.27278      0.02072     -0.10548         0.080081      0.006083     -0.030965
      0.02828      0.00202     -0.01309         0.008303      0.000593     -0.003842
     -0.00623      0.00223     -0.00164        -0.001828      0.000654     -0.000480
      0.04871     -0.05558      0.02204         0.014301     -0.016317      0.006470
     -0.02765     -0.01366      0.01397        -0.008116     -0.004009      0.004102
      0.00830      0.00005     -0.00100         0.002438      0.000016     -0.000294
      0.06212      0.01458     -0.01968         0.018237      0.004280     -0.005777
      0.07408      0.03253     -0.02679         0.021747      0.009551     -0.007864
      0.03008     -0.13728     -0.09679         0.008830     -0.040300     -0.028415
      0.01201      0.00454     -0.02086         0.003527      0.001333     -0.006123
     -0.01365      0.00235      0.00430        -0.004007      0.000690      0.001263
      0.00601      0.00716     -0.00601         0.001764      0.002103     -0.001766
     -0.02432     -0.02635      0.00251        -0.007140     -0.007735      0.000736
      0.00135      0.01174      0.00144         0.000396      0.003445      0.000423
      0.00122      0.00440      0.01964         0.000359      0.001291      0.005765
     -0.00657     -0.00269     -0.00499        -0.001929     -0.000791     -0.001466
     -0.00625     -0.03236     -0.02401        -0.001835     -0.009499     -0.007049
     -0.01227     -0.02066     -0.02343        -0.003601     -0.006066     -0.006877
     -0.00111      0.01300     -0.00275        -0.000326      0.003818     -0.000808
     -0.01954      0.00664      0.01844        -0.005738      0.001949      0.005412
 -----------------------------------------------------------------------------------
 CHAIN + TOTAL  (eV/Angst)
 ----------------------------------------------
     -0.00828      0.00986      0.00266
      0.00134     -0.00766     -0.00045
      0.00183     -0.00296     -0.00147
      0.00251     -0.00146     -0.00137
      0.00083     -0.00277     -0.00022
      0.00238     -0.00092     -0.00146
      0.00227     -0.00100     -0.00076
      0.00444     -0.00261     -0.00174
      0.00146     -0.00846     -0.00203
      0.00306     -0.00484      0.00049
      0.00227     -0.00122     -0.00021
      0.00418     -0.00052     -0.00160
      0.00256     -0.00047     -0.00072
      0.00314      0.00533     -0.00122
      0.00290     -0.00062     -0.00048
      0.00375     -0.00388     -0.00114
      0.00088     -0.00767     -0.00135
      0.00232     -0.00232      0.00135
      0.00500     -0.00066     -0.00089
      0.00501     -0.00064     -0.00099
      0.00080     -0.00010     -0.00236
      0.00056     -0.00555     -0.00068
      0.00579      0.00050     -0.00140
      0.00278     -0.00215      0.00009
      0.00233     -0.00364     -0.00119
      0.00508     -0.00300      0.00213
      0.00547     -0.00523     -0.00137
     -0.00073     -0.00682      0.00004
      0.00229      0.00211     -0.00085
      0.00407     -0.00483     -0.00013
      0.00354     -0.00235     -0.00292
      0.00300     -0.00369     -0.00417
      0.00360     -0.01030     -0.00193
      0.00360     -0.00933     -0.00152
      0.00155     -0.00314     -0.00518
      0.00311     -0.00219     -0.00454
      0.00191     -0.00852     -0.00514
      0.00441     -0.00451     -0.00023
      0.00325     -0.00204      0.00059
      0.00437     -0.00609     -0.00235
      0.00549     -0.00560     -0.00178
      0.00363     -0.00636     -0.00107
      0.00081     -0.00737     -0.00225
      0.00117     -0.00448     -0.00132
     -0.00034     -0.00173      0.00157
      0.00566     -0.00721      0.00264
      0.00255     -0.00168      0.00175
      0.00348     -0.00072     -0.00309
      0.00378     -0.00792      0.00123
      0.00450     -0.00444     -0.00261
      0.00281     -0.00101     -0.00056
      0.00742     -0.00132     -0.00311
      0.00244     -0.00595     -0.00142
      0.00693      0.00288     -0.00024
      0.00534     -0.00181     -0.00393
      0.00558     -0.00447     -0.00372
      0.00825     -0.00988     -0.00223
      0.00780      0.00461      0.00416
      0.00111     -0.00925     -0.00498
      0.00635     -0.00469      0.00225
      0.00402     -0.00637      0.00449
      0.00202     -0.00736      0.00069
      0.00060     -0.00072     -0.00022
      0.00578     -0.00103     -0.00245
      0.00067      0.00150     -0.00070
      0.00557      0.00006      0.00272
      0.00148     -0.00216     -0.00729
      0.00314     -0.00179     -0.00298
      0.00111     -0.00595     -0.00670
      0.00001     -0.00080     -0.00353
      0.00647     -0.00037     -0.00083
      0.00640     -0.00038     -0.00098
      0.00308     -0.00426     -0.00123
     -0.00583     -0.00675      0.00127
      0.01100     -0.00100     -0.00361
      0.00705     -0.00067     -0.00186
      0.00718     -0.00244     -0.00337
      0.00267     -0.00234     -0.00136
      0.00572     -0.00124     -0.00329
      0.00592      0.00042     -0.00228
      0.00895      0.00283     -0.00321
      0.00114     -0.00203      0.00071
      0.00700     -0.00132     -0.00361
      0.00248     -0.00162     -0.00072
      0.00442     -0.00600     -0.00021
      0.00360     -0.00971     -0.00167
      0.00471     -0.00323     -0.00416
      0.00320     -0.00226     -0.00217
      0.00496     -0.00506      0.00004
      0.00129     -0.00776     -0.00261
      0.00195     -0.00528     -0.00124
      0.00217     -0.00188      0.00225
      0.00328     -0.00479      0.00262
 ----------------------------------------------
 Quasi-Newton relaxation of ions (Broydens 2nd method)
  g(Force)  = 0.733E-03   g(Stress)= 0.000E+00

 retain information from N=  4 steps
 eigenvalues of (default step * inverse Hessian matrix)
  average eigenvalue of G=   5.2160
 eigenvalue spectrum of G is  6.2957  6.2957  6.2562  2.0167


--------------------------------------------------------------------------------------------------------


  
 reached required accuracy - stopping structural energy minimisation
     LOOP+:  cpu time    431.2034: real time    435.5747
    4ORBIT:  cpu time      0.0000: real time      0.0000



 total charge

# of ion       s       p       d       tot
------------------------------------------
    1        2.102   0.306   0.000   2.407
    2        0.424   6.569   2.839   9.832
    3        0.423   6.567   2.832   9.822
    4        0.424   6.575   2.824   9.823
    5        0.424   6.576   2.824   9.825
    6        0.422   6.576   2.807   9.805
    7        0.422   6.577   2.808   9.806
    8        0.422   6.577   2.809   9.808
    9        0.423   6.578   2.819   9.820
   10        0.423   6.570   2.838   9.830
   11        0.424   6.569   2.845   9.838
   12        0.426   6.575   2.861   9.862
   13        0.430   6.586   2.867   9.883
   14        0.422   6.614   2.752   9.788
   15        0.421   6.612   2.749   9.782
   16        0.419   6.608   2.742   9.769
   17        0.418   6.606   2.734   9.757
   18        0.420   6.568   2.818   9.806
   19        0.418   6.580   2.778   9.777
   20        0.420   6.581   2.789   9.789
   21        0.422   6.568   2.853   9.843
   22        0.418   6.561   2.810   9.789
   23        0.419   6.579   2.784   9.782
   24        0.418   6.574   2.787   9.779
   25        0.417   6.574   2.783   9.775
   26        0.489   6.631   3.924  11.044
   27        0.489   6.630   3.927  11.045
   28        1.574   3.476   0.000   5.049
   29        1.574   3.477   0.000   5.051
   30        1.565   3.490   0.000   5.055
   31        1.565   3.492   0.000   5.057
   32        1.565   3.489   0.000   5.054
   33        1.565   3.490   0.000   5.055
   34        1.574   3.477   0.000   5.051
   35        1.575   3.474   0.000   5.049
   36        1.575   3.476   0.000   5.051
   37        1.574   3.481   0.000   5.055
   38        1.582   3.450   0.000   5.032
   39        1.583   3.446   0.000   5.029
   40        1.585   3.445   0.000   5.030
   41        1.580   3.464   0.000   5.043
   42        1.577   3.461   0.000   5.037
   43        1.575   3.464   0.000   5.039
   44        1.575   3.470   0.000   5.045
   45        1.577   3.461   0.000   5.039
   46        1.576   3.468   0.000   5.044
   47        1.575   3.473   0.000   5.047
   48        1.575   3.475   0.000   5.050
   49        1.577   3.464   0.000   5.041
   50        1.566   3.489   0.000   5.055
   51        1.565   3.492   0.000   5.057
   52        1.565   3.496   0.000   5.061
   53        1.565   3.477   0.000   5.042
   54        1.580   3.454   0.000   5.034
   55        1.580   3.454   0.000   5.033
   56        1.580   3.451   0.000   5.031
   57        1.580   3.453   0.000   5.032
   58        1.576   3.474   0.000   5.050
   59        1.578   3.467   0.000   5.044
   60        1.577   3.465   0.000   5.041
   61        1.575   3.466   0.000   5.042
   62        1.575   3.473   0.000   5.048
   63        1.577   3.467   0.000   5.044
   64        1.577   3.469   0.000   5.046
   65        1.565   3.486   0.000   5.051
   66        1.578   3.469   0.000   5.046
   67        1.576   3.475   0.000   5.051
   68        1.576   3.472   0.000   5.047
   69        1.576   3.464   0.000   5.039
   70        1.562   3.515   0.000   5.076
   71        1.565   3.495   0.000   5.061
   72        1.566   3.495   0.000   5.061
   73        1.564   3.481   0.000   5.045
   74        1.567   3.485   0.000   5.052
   75        1.575   3.471   0.000   5.046
   76        1.575   3.474   0.000   5.048
   77        1.575   3.472   0.000   5.047
   78        1.580   3.469   0.000   5.049
   79        1.580   3.469   0.000   5.049
   80        1.580   3.469   0.000   5.050
   81        1.581   3.470   0.000   5.051
   82        1.563   3.514   0.000   5.077
   83        1.564   3.498   0.000   5.062
   84        1.564   3.494   0.000   5.058
   85        1.564   3.493   0.000   5.057
   86        1.565   3.489   0.000   5.054
   87        1.565   3.488   0.000   5.053
   88        1.565   3.490   0.000   5.055
   89        1.565   3.488   0.000   5.053
   90        1.582   3.446   0.000   5.029
   91        1.583   3.445   0.000   5.028
   92        1.583   3.450   0.000   5.033
   93        1.581   3.456   0.000   5.037
--------------------------------------------------
tot        117.038 400.775  75.203 593.016



 magnetization (x)

# of ion       s       p       d       tot
------------------------------------------
    1        0.000  -0.000   0.000  -0.000
    2        0.000   0.000   0.000   0.000
    3        0.000  -0.000  -0.000  -0.000
    4        0.000  -0.000   0.000   0.000
    5       -0.000   0.000  -0.000  -0.000
    6       -0.000   0.000   0.000   0.000
    7        0.000   0.000  -0.000   0.000
    8        0.000   0.000  -0.000  -0.000
    9        0.000  -0.000   0.000   0.000
   10        0.000   0.000   0.000   0.000
   11        0.000  -0.000  -0.000  -0.000
   12        0.000   0.000   0.000   0.000
   13        0.000   0.000  -0.000  -0.000
   14        0.000   0.000  -0.000  -0.000
   15        0.000  -0.000   0.000   0.000
   16        0.000  -0.000   0.000  -0.000
   17        0.000  -0.000   0.000   0.000
   18       -0.000  -0.000   0.000   0.000
   19       -0.000  -0.000  -0.000  -0.000
   20        0.000   0.000   0.000   0.000
   21        0.000  -0.000  -0.000  -0.000
   22        0.000   0.000   0.000   0.000
   23       -0.000  -0.000  -0.000  -0.000
   24        0.000  -0.000   0.000   0.000
   25       -0.000   0.000  -0.000  -0.000
   26       -0.000  -0.000  -0.000  -0.000
   27       -0.000  -0.000  -0.000  -0.000
   28       -0.000   0.000   0.000   0.000
   29       -0.000  -0.000   0.000  -0.000
   30        0.000   0.000   0.000   0.000
   31        0.000  -0.000   0.000  -0.000
   32        0.000   0.000   0.000   0.000
   33       -0.000   0.000   0.000  -0.000
   34       -0.000  -0.000   0.000  -0.000
   35        0.000   0.000   0.000   0.000
   36        0.000   0.000   0.000   0.000
   37        0.000   0.000   0.000   0.000
   38        0.000   0.000   0.000   0.000
   39        0.000   0.000   0.000   0.000
   40        0.000  -0.000   0.000  -0.000
   41        0.000   0.000   0.000   0.000
   42        0.000   0.000   0.000   0.000
   43        0.000   0.000   0.000   0.000
   44        0.000  -0.000   0.000  -0.000
   45       -0.000  -0.000   0.000  -0.000
   46        0.000   0.000   0.000   0.000
   47       -0.000  -0.000   0.000  -0.000
   48        0.000   0.000   0.000   0.000
   49       -0.000  -0.000   0.000  -0.000
   50        0.000  -0.000   0.000  -0.000
   51       -0.000  -0.000   0.000  -0.000
   52       -0.000   0.000   0.000  -0.000
   53       -0.000   0.000   0.000   0.000
   54       -0.000   0.000   0.000   0.000
   55       -0.000   0.000   0.000  -0.000
   56       -0.000   0.000   0.000   0.000
   57       -0.000   0.000   0.000   0.000
   58       -0.000   0.000   0.000   0.000
   59        0.000   0.000   0.000   0.000
   60       -0.000  -0.000   0.000  -0.000
   61        0.000   0.000   0.000   0.000
   62        0.000   0.000   0.000   0.000
   63       -0.000  -0.000   0.000  -0.000
   64        0.000   0.000   0.000   0.000
   65       -0.000  -0.000   0.000  -0.000
   66        0.000   0.000   0.000   0.000
   67        0.000   0.000   0.000   0.000
   68       -0.000  -0.000   0.000  -0.000
   69       -0.000  -0.000   0.000  -0.000
   70        0.000   0.000   0.000   0.000
   71       -0.000  -0.000   0.000  -0.000
   72       -0.000  -0.000   0.000  -0.000
   73        0.000   0.000   0.000   0.000
   74        0.000   0.000   0.000   0.000
   75       -0.000  -0.000   0.000  -0.000
   76        0.000   0.000   0.000   0.000
   77       -0.000  -0.000   0.000  -0.000
   78        0.000  -0.000   0.000  -0.000
   79       -0.000  -0.000   0.000  -0.000
   80        0.000   0.000   0.000   0.000
   81        0.000   0.000   0.000   0.000
   82        0.000  -0.000   0.000  -0.000
   83       -0.000  -0.000   0.000  -0.000
   84        0.000   0.000   0.000   0.000
   85       -0.000   0.000   0.000   0.000
   86       -0.000   0.000   0.000  -0.000
   87       -0.000   0.000   0.000   0.000
   88        0.000   0.000   0.000   0.000
   89       -0.000  -0.000   0.000  -0.000
   90       -0.000  -0.000   0.000  -0.000
   91       -0.000  -0.000   0.000  -0.000
   92        0.000  -0.000   0.000   0.000
   93       -0.000   0.000   0.000   0.000
--------------------------------------------------
tot          0.000  -0.000   0.000   0.000
 

 total amount of memory used by VASP MPI-rank0   321868. kBytes
=======================================================================

   base      :      30000. kBytes
   nonl-proj :     136648. kBytes
   fftplans  :      24917. kBytes
   grid      :      75254. kBytes
   one-center:       2892. kBytes
   wavefun   :      52157. kBytes
 
  
  
 General timing and accounting informations for this job:
 ========================================================
  
                  Total CPU time used (sec):    25577.230
                            User time (sec):    25465.272
                          System time (sec):      111.958
                         Elapsed time (sec):    25832.338
  
                   Maximum memory used (kb):      697788.
                   Average memory used (kb):          N/A
  
                          Minor page faults:       872643
                          Major page faults:         2213
                 Voluntary context switches:         8875
