<?xml version="1.0" encoding="ISO-8859-1"?>
<modeling>
 <generator>
  <i name="program" type="string">vasp </i>
  <i name="version" type="string">6.3.2  </i>
  <i name="subversion" type="string">27Jun22 (build Aug 05 2024 15:42:26) complex                          parallel </i>
  <i name="platform" type="string">LinuxIFC </i>
  <i name="date" type="string">2025 06 04 </i>
  <i name="time" type="string">20:33:56 </i>
 </generator>
 <incar>
  <i type="string" name="PREC">Accurate</i>
  <i type="string" name="ALGO">Fast</i>
  <i type="logical" name="ADDGRID"> T  </i>
  <i type="int" name="ISPIN">     2</i>
  <i type="int" name="NELM">   100</i>
  <i type="int" name="NELMIN">     3</i>
  <i type="int" name="IBRION">     1</i>
  <i name="EDIFF">      0.00000100</i>
  <i name="EDIFFG">     -0.05000000</i>
  <i type="int" name="NSW">   450</i>
  <i type="int" name="ISIF">     2</i>
  <i type="int" name="ISYM">     0</i>
  <i name="ENCUT">    520.00000000</i>
  <i name="POTIM">      0.20000000</i>
  <v name="MAGMOM">      0.60000000      0.60000000      0.60000000      0.60000000      0.60000000      0.60000000      0.60000000      0.60000000      0.60000000      0.60000000      0.60000000      0.60000000      0.60000000      0.60000000      0.60000000      0.60000000      0.60000000      0.60000000      0.60000000      0.60000000
      0.60000000      0.60000000      0.60000000      0.60000000      0.60000000      0.60000000      0.60000000      0.60000000      0.60000000      0.60000000      0.60000000      0.60000000      0.60000000      0.60000000      0.60000000      0.60000000      0.60000000      0.60000000      0.60000000      0.60000000
      0.60000000      0.60000000      0.60000000      0.60000000      0.60000000      0.60000000      0.60000000      0.60000000      0.60000000      0.60000000      0.60000000      0.60000000      0.60000000      0.60000000      0.60000000      0.60000000      0.60000000      0.60000000      0.60000000      0.60000000
      0.60000000      0.60000000      0.60000000      0.60000000      0.60000000      0.60000000      0.60000000      0.60000000      0.60000000      0.60000000      0.60000000      0.60000000      0.60000000      0.60000000      0.60000000      0.60000000      0.60000000      0.60000000      0.60000000      0.60000000
      0.60000000      0.60000000      0.60000000      0.60000000      0.60000000      0.60000000      0.60000000      0.60000000      0.60000000      0.60000000      0.60000000      0.60000000      0.60000000</v>
  <i type="logical" name="LREAL"> F  </i>
  <i type="int" name="ISMEAR">     0</i>
  <i name="SIGMA">      0.05000000</i>
  <i type="int" name="LMAXMIX">     4</i>
  <i type="logical" name="LWAVE"> F  </i>
  <i type="int" name="LORBIT">    11</i>
  <i type="logical" name="LASPH"> T  </i>
  <i type="logical" name="LDAU"> T  </i>
  <i type="int" name="LDAUTYPE">     2</i>
  <v type="int" name="LDAUL">     0     0     2     0</v>
  <v name="LDAUU">      0.00000000      0.00000000      4.38000000      0.00000000</v>
  <v name="LDAUJ">      0.00000000      0.00000000      0.00000000      0.00000000</v>
  <i type="int" name="LDAUPRINT">     1</i>
  <i name="SPRING">     -5.00000000</i>
 </incar>
 <primitive_cell>
  <structure name="primitive_cell" >
   <crystal>
    <varray name="basis" >
     <v>      22.78514290       0.00000000       0.00000000 </v>
     <v>       0.00000000       3.87685037       0.00000000 </v>
     <v>      -9.97305163       0.00000241      15.12824818 </v>
    </varray>
    <i name="volume">   1336.34759474 </i>
    <varray name="rec_basis" >
     <v>       0.04388825       0.00000000       0.02893261 </v>
     <v>       0.00000000       0.25794135      -0.00000004 </v>
     <v>       0.00000000       0.00000000       0.06610151 </v>
    </varray>
   </crystal>
   <varray name="positions" >
    <v>       0.31668402       0.93812349       0.63572330 </v>
    <v>       0.36700133       0.00743230       0.04631090 </v>
    <v>       0.63378706       0.00761171       0.95390620 </v>
    <v>       0.86440442       0.50772974       0.04363536 </v>
    <v>       0.13145621       0.50955158       0.95531358 </v>
    <v>       0.24854506       0.00366047       0.13763999 </v>
    <v>       0.75182074       0.00326109       0.86114851 </v>
    <v>       0.74746062       0.50308759       0.13780618 </v>
    <v>       0.24976153       0.50332442       0.86491516 </v>
    <v>       0.13023198       0.99763419       0.23125688 </v>
    <v>       0.86908694       0.99851525       0.76733467 </v>
    <v>       0.63159344       0.49837996       0.23337728 </v>
    <v>       0.37181412       0.49621878       0.77619861 </v>
    <v>       0.41887790       0.96656453       0.37938156 </v>
    <v>       0.58378741       0.96725775       0.61719145 </v>
    <v>       0.91727709       0.46736764       0.38152943 </v>
    <v>       0.08234809       0.46766435       0.61987637 </v>
    <v>       0.29768820       0.00328499       0.46886765 </v>
    <v>       0.70249614       0.00348000       0.52636553 </v>
    <v>       0.79881224       0.50369190       0.47344264 </v>
    <v>       0.19712990       0.50264057       0.52172877 </v>
    <v>       0.46653659       0.00089651       0.71302388 </v>
    <v>       0.53673155       0.00168158       0.28713469 </v>
    <v>       0.96394266       0.50164961       0.71252179 </v>
    <v>       0.03168065       0.50150211       0.28217149 </v>
    <v>       0.99943329       0.25169344       0.00039500 </v>
    <v>       0.50102441       0.75289547       0.00147095 </v>
    <v>       0.00009426       0.49078936       0.50027016 </v>
    <v>       0.50096491       0.99138296       0.49878242 </v>
    <v>       0.14881812       0.00447349       0.99149574 </v>
    <v>       0.84956652       0.00386735       0.00796976 </v>
    <v>       0.64895757       0.50436034       0.99031388 </v>
    <v>       0.35094322       0.50401996       0.00972808 </v>
    <v>       0.30340746       0.00320152       0.08218710 </v>
    <v>       0.69611535       0.00382578       0.91729491 </v>
    <v>       0.80264774       0.50324564       0.08098266 </v>
    <v>       0.19621976       0.50195364       0.91983118 </v>
    <v>       0.03403637       0.99941917       0.09903872 </v>
    <v>       0.96551352       0.99965996       0.90244175 </v>
    <v>       0.53441915       0.50163636       0.09912028 </v>
    <v>       0.46689435       0.50053740       0.90161276 </v>
    <v>       0.44982166       0.00370171       0.15586920 </v>
    <v>       0.54978245       0.00293783       0.84369746 </v>
    <v>       0.94856872       0.50324926       0.15467200 </v>
    <v>       0.05017732       0.50519818       0.84470666 </v>
    <v>       0.17998452       0.00216242       0.17811903 </v>
    <v>       0.81976076       0.00304014       0.82234151 </v>
    <v>       0.67976400       0.50288828       0.17714967 </v>
    <v>       0.32060256       0.50054144       0.82597492 </v>
    <v>       0.04848563       0.00132892       0.27003962 </v>
    <v>       0.95059472       0.00182711       0.73023882 </v>
    <v>       0.55000151       0.50160117       0.26994042 </v>
    <v>       0.45133198       0.50084961       0.72969125 </v>
    <v>       0.32533163       0.99979216       0.25018125 </v>
    <v>       0.67414315       0.99961013       0.74951619 </v>
    <v>       0.82519062       0.49922571       0.24935000 </v>
    <v>       0.17486017       0.49972666       0.75107729 </v>
    <v>       0.47615559       0.99837513       0.32590887 </v>
    <v>       0.52212578       0.99944983       0.66962003 </v>
    <v>       0.97591050       0.49957023       0.32642297 </v>
    <v>       0.02419953       0.49869300       0.67372863 </v>
    <v>       0.20685688       0.00165920       0.34954501 </v>
    <v>       0.79303100       0.00189048       0.65115311 </v>
    <v>       0.70771135       0.50204768       0.34922677 </v>
    <v>       0.29580619       0.50135356       0.65421643 </v>
    <v>       0.35464221       0.00081158       0.42729534 </v>
    <v>       0.64826857       0.99923125       0.57449548 </v>
    <v>       0.85266381       0.50025461       0.42537435 </v>
    <v>       0.14738973       0.49983011       0.57460381 </v>
    <v>       0.22318948       0.00230187       0.52386266 </v>
    <v>       0.77879640       0.00304763       0.48128554 </v>
    <v>       0.72197017       0.50291099       0.51856876 </v>
    <v>       0.27859577       0.50253993       0.48069663 </v>
    <v>       0.37458614       0.00183146       0.59815885 </v>
    <v>       0.62179777       0.00252034       0.40408504 </v>
    <v>       0.87861884       0.50274100       0.59603261 </v>
    <v>       0.12122998       0.50210503       0.40337097 </v>
    <v>       0.09113852       0.99298211       0.63134351 </v>
    <v>       0.90994913       0.99304150       0.36853536 </v>
    <v>       0.58977002       0.49291126       0.63100406 </v>
    <v>       0.40923779       0.49254780       0.36908430 </v>
    <v>       0.39119050       0.99963623       0.76732906 </v>
    <v>       0.60595097       0.00101466       0.23211121 </v>
    <v>       0.89451565       0.50095473       0.76831983 </v>
    <v>       0.10568063       0.50049537       0.23221525 </v>
    <v>       0.27548436       0.00302994       0.89741959 </v>
    <v>       0.72392335       0.00355776       0.10260688 </v>
    <v>       0.77527155       0.50360736       0.89631480 </v>
    <v>       0.22424301       0.50374884       0.10426619 </v>
    <v>       0.42960901       0.00442957       0.98762504 </v>
    <v>       0.57159554       0.00532047       0.01389922 </v>
    <v>       0.92815247       0.50223969       0.98717394 </v>
    <v>       0.07107842       0.50358816       0.01354726 </v>
   </varray>
  </structure>
  <varray name="primitive_index" >
   <v type="int" >        1 </v>
   <v type="int" >        2 </v>
   <v type="int" >        3 </v>
   <v type="int" >        4 </v>
   <v type="int" >        5 </v>
   <v type="int" >        6 </v>
   <v type="int" >        7 </v>
   <v type="int" >        8 </v>
   <v type="int" >        9 </v>
   <v type="int" >       10 </v>
   <v type="int" >       11 </v>
   <v type="int" >       12 </v>
   <v type="int" >       13 </v>
   <v type="int" >       14 </v>
   <v type="int" >       15 </v>
   <v type="int" >       16 </v>
   <v type="int" >       17 </v>
   <v type="int" >       18 </v>
   <v type="int" >       19 </v>
   <v type="int" >       20 </v>
   <v type="int" >       21 </v>
   <v type="int" >       22 </v>
   <v type="int" >       23 </v>
   <v type="int" >       24 </v>
   <v type="int" >       25 </v>
   <v type="int" >       26 </v>
   <v type="int" >       27 </v>
   <v type="int" >       28 </v>
   <v type="int" >       29 </v>
   <v type="int" >       30 </v>
   <v type="int" >       31 </v>
   <v type="int" >       32 </v>
   <v type="int" >       33 </v>
   <v type="int" >       34 </v>
   <v type="int" >       35 </v>
   <v type="int" >       36 </v>
   <v type="int" >       37 </v>
   <v type="int" >       38 </v>
   <v type="int" >       39 </v>
   <v type="int" >       40 </v>
   <v type="int" >       41 </v>
   <v type="int" >       42 </v>
   <v type="int" >       43 </v>
   <v type="int" >       44 </v>
   <v type="int" >       45 </v>
   <v type="int" >       46 </v>
   <v type="int" >       47 </v>
   <v type="int" >       48 </v>
   <v type="int" >       49 </v>
   <v type="int" >       50 </v>
   <v type="int" >       51 </v>
   <v type="int" >       52 </v>
   <v type="int" >       53 </v>
   <v type="int" >       54 </v>
   <v type="int" >       55 </v>
   <v type="int" >       56 </v>
   <v type="int" >       57 </v>
   <v type="int" >       58 </v>
   <v type="int" >       59 </v>
   <v type="int" >       60 </v>
   <v type="int" >       61 </v>
   <v type="int" >       62 </v>
   <v type="int" >       63 </v>
   <v type="int" >       64 </v>
   <v type="int" >       65 </v>
   <v type="int" >       66 </v>
   <v type="int" >       67 </v>
   <v type="int" >       68 </v>
   <v type="int" >       69 </v>
   <v type="int" >       70 </v>
   <v type="int" >       71 </v>
   <v type="int" >       72 </v>
   <v type="int" >       73 </v>
   <v type="int" >       74 </v>
   <v type="int" >       75 </v>
   <v type="int" >       76 </v>
   <v type="int" >       77 </v>
   <v type="int" >       78 </v>
   <v type="int" >       79 </v>
   <v type="int" >       80 </v>
   <v type="int" >       81 </v>
   <v type="int" >       82 </v>
   <v type="int" >       83 </v>
   <v type="int" >       84 </v>
   <v type="int" >       85 </v>
   <v type="int" >       86 </v>
   <v type="int" >       87 </v>
   <v type="int" >       88 </v>
   <v type="int" >       89 </v>
   <v type="int" >       90 </v>
   <v type="int" >       91 </v>
   <v type="int" >       92 </v>
   <v type="int" >       93 </v>
  </varray>
 </primitive_cell>
 <kpoints>
  <generation param="Gamma">
   <v type="int" name="divisions">       1        6        1 </v>
   <v name="usershift">      0.00000000       0.00000000       0.00000000 </v>
   <v name="genvec1">      1.00000000       0.00000000      -0.00000000 </v>
   <v name="genvec2">      0.00000000       0.16666667       0.00000000 </v>
   <v name="genvec3">      0.00000000       0.00000000       1.00000000 </v>
   <v name="shift">      0.00000000       0.00000000       0.00000000 </v>
  </generation>
  <varray name="kpointlist" >
   <v>       0.00000000       0.00000000       0.00000000 </v>
   <v>       0.00000000       0.16666667       0.00000000 </v>
   <v>       0.00000000       0.33333333       0.00000000 </v>
   <v>       0.00000000       0.50000000       0.00000000 </v>
  </varray>
  <varray name="weights" >
   <v>       0.16666667 </v>
   <v>       0.33333333 </v>
   <v>       0.33333333 </v>
   <v>       0.16666667 </v>
  </varray>
 </kpoints>
 <parameters>
  <separator name="general" >
   <i type="string" name="SYSTEM">unknown system</i>
   <i type="logical" name="LCOMPAT"> F  </i>
  </separator>
  <separator name="electronic" >
   <i type="string" name="PREC">accura</i>
   <i name="ENMAX">    520.00000000</i>
   <i name="ENAUG">    605.39200000</i>
   <i name="EDIFF">      0.00000100</i>
   <i type="int" name="IALGO">    68</i>
   <i type="int" name="IWAVPR">    11</i>
   <i type="int" name="NBANDS">   462</i>
   <i type="int" name="NBANDSLOW">    -1</i>
   <i type="int" name="NBANDSHIGH">    -1</i>
   <i name="NELECT">    687.00000000</i>
   <i type="int" name="TURBO">     0</i>
   <i type="int" name="IRESTART">     0</i>
   <i type="int" name="NREBOOT">     0</i>
   <i type="int" name="NMIN">     0</i>
   <i name="EREF">      0.00000000</i>
   <separator name="electronic smearing" >
    <i type="int" name="ISMEAR">     0</i>
    <i name="SIGMA">      0.05000000</i>
    <i name="KSPACING">      0.50000000</i>
    <i type="logical" name="KGAMMA"> T  </i>
    <i type="logical" name="KBLOWUP"> T  </i>
   </separator>
   <separator name="electronic projectors" >
    <i type="logical" name="LREAL"> F  </i>
    <v name="ROPT">      0.00000000      0.00000000      0.00000000      0.00000000</v>
    <i type="int" name="LMAXPAW">  -100</i>
    <i type="int" name="LMAXMIX">     4</i>
    <i type="logical" name="NLSPLINE"> F  </i>
   </separator>
   <separator name="electronic startup" >
    <i type="int" name="ISTART">     0</i>
    <i type="int" name="ICHARG">     2</i>
    <i type="int" name="INIWAV">     1</i>
   </separator>
   <separator name="electronic spin" >
    <i type="int" name="ISPIN">     2</i>
    <i type="logical" name="LNONCOLLINEAR"> F  </i>
    <v name="MAGMOM">      0.60000000      0.60000000      0.60000000      0.60000000      0.60000000      0.60000000      0.60000000      0.60000000      0.60000000      0.60000000      0.60000000      0.60000000      0.60000000      0.60000000      0.60000000      0.60000000      0.60000000      0.60000000      0.60000000      0.60000000
      0.60000000      0.60000000      0.60000000      0.60000000      0.60000000      0.60000000      0.60000000      0.60000000      0.60000000      0.60000000      0.60000000      0.60000000      0.60000000      0.60000000      0.60000000      0.60000000      0.60000000      0.60000000      0.60000000      0.60000000
      0.60000000      0.60000000      0.60000000      0.60000000      0.60000000      0.60000000      0.60000000      0.60000000      0.60000000      0.60000000      0.60000000      0.60000000      0.60000000      0.60000000      0.60000000      0.60000000      0.60000000      0.60000000      0.60000000      0.60000000
      0.60000000      0.60000000      0.60000000      0.60000000      0.60000000      0.60000000      0.60000000      0.60000000      0.60000000      0.60000000      0.60000000      0.60000000      0.60000000      0.60000000      0.60000000      0.60000000      0.60000000      0.60000000      0.60000000      0.60000000
      0.60000000      0.60000000      0.60000000      0.60000000      0.60000000      0.60000000      0.60000000      0.60000000      0.60000000      0.60000000      0.60000000      0.60000000      0.60000000</v>
    <i name="NUPDOWN">     -1.00000000</i>
    <i type="logical" name="LSORBIT"> F  </i>
    <v name="SAXIS">      0.00000000      0.00000000      1.00000000</v>
    <i type="logical" name="LSPIRAL"> F  </i>
    <v name="QSPIRAL">      0.00000000      0.00000000      0.00000000</v>
    <i type="logical" name="LZEROZ"> F  </i>
   </separator>
   <separator name="electronic exchange-correlation" >
    <i type="logical" name="LASPH"> T  </i>
    <i type="logical" name="LMETAGGA"> F  </i>
   </separator>
   <separator name="electronic convergence" >
    <i type="int" name="NELM">   100</i>
    <i type="int" name="NELMDL">    -5</i>
    <i type="int" name="NELMIN">     3</i>
    <i name="ENINI">    520.00000000</i>
    <separator name="electronic convergence detail" >
     <i type="logical" name="LDIAG"> T  </i>
     <i type="logical" name="LSUBROT"> F  </i>
     <i name="WEIMIN">      0.00100000</i>
     <i name="EBREAK">      0.00000000</i>
     <i name="DEPER">      0.30000000</i>
     <i type="int" name="NRMM">     4</i>
     <i name="TIME">      0.40000000</i>
    </separator>
   </separator>
   <separator name="electronic mixer" >
    <i name="AMIX">      0.40000000</i>
    <i name="BMIX">      1.00000000</i>
    <i name="AMIN">      0.10000000</i>
    <i name="AMIX_MAG">      1.60000000</i>
    <i name="BMIX_MAG">      1.00000000</i>
    <separator name="electronic mixer details" >
     <i type="int" name="IMIX">     4</i>
     <i type="logical" name="MIXFIRST"> F  </i>
     <i type="int" name="MAXMIX">   -45</i>
     <i name="WC">    100.00000000</i>
     <i type="int" name="INIMIX">     1</i>
     <i type="int" name="MIXPRE">     1</i>
     <i type="int" name="MREMOVE">     5</i>
    </separator>
   </separator>
   <separator name="electronic dipolcorrection" >
    <i type="logical" name="LDIPOL"> F  </i>
    <i type="logical" name="LMONO"> F  </i>
    <i type="int" name="IDIPOL">     0</i>
    <i name="EPSILON">      1.00000000</i>
    <v name="DIPOL">   -100.00000000   -100.00000000   -100.00000000</v>
    <i name="EFIELD">      0.00000000</i>
   </separator>
  </separator>
  <separator name="grids" >
   <i type="int" name="NGX">   180</i>
   <i type="int" name="NGY">    30</i>
   <i type="int" name="NGZ">   140</i>
   <i type="int" name="NGXF">   360</i>
   <i type="int" name="NGYF">    60</i>
   <i type="int" name="NGZF">   280</i>
   <i type="logical" name="ADDGRID"> T  </i>
  </separator>
  <separator name="ionic" >
   <i type="int" name="NSW">   450</i>
   <i type="int" name="IBRION">     1</i>
   <i type="int" name="MDALGO">     0</i>
   <i type="int" name="ISIF">     2</i>
   <i name="PSTRESS">      0.00000000</i>
   <i name="EDIFFG">     -0.05000000</i>
   <i type="int" name="NFREE">     0</i>
   <i name="POTIM">      0.20000000</i>
   <i name="SMASS">     -3.00000000</i>
   <i name="SCALEE">      1.00000000</i>
  </separator>
  <separator name="ionic md" >
   <i name="TEBEG">      0.00010000</i>
   <i name="TEEND">      0.00010000</i>
   <i type="int" name="NBLOCK">     1</i>
   <i type="int" name="KBLOCK">   450</i>
   <i type="int" name="NPACO">   256</i>
   <i name="APACO">     10.00000000</i>
  </separator>
  <separator name="symmetry" >
   <i type="int" name="ISYM">     0</i>
   <i name="SYMPREC">      0.00001000</i>
  </separator>
  <separator name="dos" >
   <i type="int" name="LORBIT">    11</i>
   <v name="RWIGS">     -1.00000000     -1.00000000     -1.00000000     -1.00000000</v>
   <i type="int" name="NEDOS">   301</i>
   <i name="EMIN">     10.00000000</i>
   <i name="EMAX">    -10.00000000</i>
   <i name="EFERMI">      0.00000000</i>
  </separator>
  <separator name="writing" >
   <i type="int" name="NWRITE">     2</i>
   <i type="logical" name="LWAVE"> F  </i>
   <i type="logical" name="LDOWNSAMPLE"> F  </i>
   <i type="logical" name="LCHARG"> T  </i>
   <i type="logical" name="LPARD"> F  </i>
   <i type="logical" name="LVTOT"> F  </i>
   <i type="logical" name="LVHAR"> F  </i>
   <i type="logical" name="LELF"> F  </i>
   <i type="logical" name="LOPTICS"> F  </i>
   <v name="STM">      0.00000000      0.00000000      0.00000000      0.00000000      0.00000000      0.00000000      0.00000000</v>
  </separator>
  <separator name="performance" >
   <i type="int" name="NPAR">    42</i>
   <i type="int" name="NSIM">     4</i>
   <i type="int" name="NBLK">    -1</i>
   <i type="logical" name="LPLANE"> T  </i>
   <i type="logical" name="LSCALAPACK"> T  </i>
   <i type="logical" name="LSCAAWARE"> F  </i>
   <i type="logical" name="LSCALU"> F  </i>
   <i type="logical" name="LASYNC"> F  </i>
   <i type="logical" name="LORBITALREAL"> F  </i>
  </separator>
  <separator name="miscellaneous" >
   <i type="int" name="IDIOT">     3</i>
   <i type="int" name="PHON_NSTRUCT">    -1</i>
   <i type="logical" name="LMUSIC"> F  </i>
   <v name="POMASS">      7.01000000     92.00000000     95.94000000     16.00000000</v>
   <v name="DARWINR">      0.00000000      0.00000000      0.00000000      0.00000000</v>
   <v name="DARWINV">      1.00000000      1.00000000      1.00000000      1.00000000</v>
   <i type="logical" name="LCORR"> T  </i>
  </separator>
  <i type="logical" name="GGA_COMPAT"> T  </i>
  <i type="logical" name="LBERRY"> F  </i>
  <i type="int" name="ICORELEVEL">     0</i>
  <i type="logical" name="LDAU"> T  </i>
  <v type="int" name="LDAUTYPE">     2</v>
  <v type="int" name="LDAUL">     0</v>
  <v name="LDAUU">      0.00000000</v>
  <v name="LDAUJ">      0.00000000</v>
  <i type="int" name="LDAUPRINT">     1</i>
  <i type="int" name="I_CONSTRAINED_M">     0</i>
  <separator name="electronic exchange-correlation" >
   <i type="string" name="GGA">--</i>
   <i type="int" name="VOSKOWN">     0</i>
   <i type="logical" name="LHFCALC"> F  </i>
   <i type="string" name="PRECFOCK"></i>
   <i type="logical" name="LSYMGRAD"> F  </i>
   <i type="logical" name="LHFONE"> F  </i>
   <i type="logical" name="LRHFCALC"> F  </i>
   <i type="logical" name="LTHOMAS"> F  </i>
   <i type="logical" name="LMODELHF"> F  </i>
   <i type="logical" name="LFOCKACE"> F  </i>
   <i name="ENCUT4O">     -1.00000000</i>
   <i type="int" name="EXXOEP">     0</i>
   <i type="int" name="FOURORBIT">     0</i>
   <i name="AEXX">      0.00000000</i>
   <i name="HFALPHA">      0.00000000</i>
   <i name="MCALPHA">      0.00000000</i>
   <i name="ALDAX">      1.00000000</i>
   <i name="AGGAX">      1.00000000</i>
   <i name="ALDAC">      1.00000000</i>
   <i name="AGGAC">      1.00000000</i>
   <i type="int" name="NKREDX">     1</i>
   <i type="int" name="NKREDY">     1</i>
   <i type="int" name="NKREDZ">     1</i>
   <i type="logical" name="SHIFTRED"> F  </i>
   <i type="logical" name="ODDONLY"> F  </i>
   <i type="logical" name="EVENONLY"> F  </i>
   <i type="int" name="LMAXFOCK">     0</i>
   <i type="int" name="NMAXFOCKAE">     0</i>
   <i type="logical" name="LFOCKAEDFT"> F  </i>
   <i name="HFSCREEN">      0.00000000</i>
   <i name="HFSCREENC">      0.00000000</i>
   <i type="int" name="NBANDSGWLOW">     0</i>
  </separator>
  <separator name="vdW DFT" >
   <i type="logical" name="LUSE_VDW"> F  </i>
   <i name="Zab_VDW">     -0.84910000</i>
   <i name="PARAM1">      0.12340000</i>
   <i name="PARAM2">      1.00000000</i>
   <i name="PARAM3">      0.00000000</i>
  </separator>
  <separator name="model GW" >
   <i type="int" name="MODEL_GW">     0</i>
   <i name="MODEL_EPS0">      8.62159739</i>
   <i name="MODEL_ALPHA">      1.00000000</i>
  </separator>
  <separator name="linear response parameters" >
   <i type="logical" name="LEPSILON"> F  </i>
   <i type="logical" name="LRPA"> F  </i>
   <i type="logical" name="LNABLA"> F  </i>
   <i type="logical" name="LVEL"> F  </i>
   <i name="CSHIFT">      0.10000000</i>
   <i name="OMEGAMAX">     -1.00000000</i>
   <i name="DEG_THRESHOLD">      0.00200000</i>
   <i name="RTIME">     -0.10000000</i>
   <i name="WPLASMAI">      0.00000000</i>
   <v name="DFIELD">      0.00000000      0.00000000      0.00000000</v>
   <v name="WPLASMA">      0.00000000      0.00000000      0.00000000      0.00000000      0.00000000      0.00000000      0.00000000      0.00000000      0.00000000</v>
  </separator>
  <separator name="orbital magnetization" >
   <i type="logical" name="NUCIND"> F  </i>
   <v name="MAGPOS">      0.00000000      0.00000000      0.00000000</v>
   <i type="logical" name="LNICSALL"> T  </i>
   <i type="logical" name="ORBITALMAG"> F  </i>
   <i type="logical" name="LMAGBLOCH"> F  </i>
   <i type="logical" name="LCHIMAG"> F  </i>
   <i type="logical" name="LGAUGE"> T  </i>
   <i type="int" name="MAGATOM">     0</i>
   <v name="MAGDIPOL">      0.00000000      0.00000000      0.00000000</v>
   <v name="AVECCONST">      0.00000000      0.00000000      0.00000000</v>
  </separator>
  <separator name="response functions" >
   <i type="logical" name="LFINITE_TEMPERATURE"> F  </i>
   <i type="logical" name="LADDER"> F  </i>
   <i type="logical" name="LRPAFORCE"> F  </i>
   <i type="logical" name="LFXC"> F  </i>
   <i type="logical" name="LHARTREE"> T  </i>
   <i type="int" name="IBSE">     0</i>
   <v type="int" name="KPOINT">    -1     0     0     0</v>
   <i type="logical" name="LTCTC"> F  </i>
   <i type="logical" name="LTCTE"> F  </i>
   <i type="logical" name="LTETE"> F  </i>
   <i type="logical" name="LTRIPLET"> F  </i>
   <i type="logical" name="LFXCEPS"> F  </i>
   <i type="logical" name="LFXHEG"> F  </i>
   <i type="int" name="NATURALO">     2</i>
   <i type="logical" name="LHOLEGF"> F  </i>
   <i type="logical" name="L2ORDER"> F  </i>
   <i type="logical" name="LDMP1"> F  </i>
   <i type="logical" name="LMP2LT"> F  </i>
   <i type="logical" name="LSMP2LT"> F  </i>
   <i type="logical" name="LGWLF"> F  </i>
   <i name="ENCUTGW">     -2.00000000</i>
   <i name="ENCUTGWSOFT">     -2.00000000</i>
   <i name="ENCUTLF">     -1.00000000</i>
   <i type="logical" name="LESF_SPLINES"> F  </i>
   <i type="int" name="LMAXMP2">    -1</i>
   <i name="SCISSOR">      0.00000000</i>
   <i type="int" name="NOMEGA">     0</i>
   <i type="int" name="NOMEGAR">     0</i>
   <i type="int" name="NBANDSGW">    -1</i>
   <i type="int" name="NBANDSO">    -1</i>
   <i type="int" name="NBANDSV">    -1</i>
   <i type="int" name="NELMGW">     1</i>
   <i type="int" name="NELMHF">     1</i>
   <i type="int" name="DIM">     3</i>
   <i type="int" name="IESPILON">     4</i>
   <i type="int" name="ANTIRES">     0</i>
   <i name="OMEGAMAX">    -30.00000000</i>
   <i name="OMEGAMIN">    -30.00000000</i>
   <i name="OMEGATL">   -200.00000000</i>
   <i type="int" name="OMEGAGRID">     0</i>
   <i name="CSHIFT">     -0.10000000</i>
   <i type="logical" name="LSELFENERGY"> F  </i>
   <i type="logical" name="LSPECTRAL"> F  </i>
   <i type="logical" name="LSPECTRALGW"> F  </i>
   <i type="logical" name="LSINGLES"> F  </i>
   <i type="logical" name="LFERMIGW"> F  </i>
   <i type="logical" name="ODDONLYGW"> F  </i>
   <i type="logical" name="EVENONLYGW"> F  </i>
   <i type="int" name="NKREDLFX">     1</i>
   <i type="int" name="NKREDLFY">     1</i>
   <i type="int" name="NKREDLFZ">     1</i>
   <i type="int" name="MAXMEM">  2800</i>
   <i type="int" name="TELESCOPE">     0</i>
   <i type="int" name="NTAUPAR">    -1</i>
   <i type="int" name="NOMEGAPAR">    -1</i>
   <i name="DAMP_NEWTON">      0.80000001</i>
   <i name="LAMBDA">      1.00000000</i>
  </separator>
  <separator name="External order field" >
   <i name="OFIELD_KAPPA">      0.00000000</i>
   <v name="OFIELD_K">      0.00000000      0.00000000      0.00000000</v>
   <i name="OFIELD_Q6_NEAR">      0.00000000</i>
   <i name="OFIELD_Q6_FAR">      0.00000000</i>
   <i name="OFIELD_A">      0.00000000</i>
  </separator>
  <separator name="optional k-points parameters" >
   <i type="int" name="KPOINTS_OPT_MODE">     1</i>
   <i type="logical" name="LKPOINTS_OPT"> F  </i>
  </separator>
 </parameters>
 <atominfo>
  <atoms>      93 </atoms>
  <types>       4 </types>
  <array name="atoms" >
   <dimension dim="1">ion</dimension>
   <field type="string">element</field>
   <field type="int">atomtype</field>
   <set>
    <rc><c>Li</c><c>   1</c></rc>
    <rc><c>Nb</c><c>   2</c></rc>
    <rc><c>Nb</c><c>   2</c></rc>
    <rc><c>Nb</c><c>   2</c></rc>
    <rc><c>Nb</c><c>   2</c></rc>
    <rc><c>Nb</c><c>   2</c></rc>
    <rc><c>Nb</c><c>   2</c></rc>
    <rc><c>Nb</c><c>   2</c></rc>
    <rc><c>Nb</c><c>   2</c></rc>
    <rc><c>Nb</c><c>   2</c></rc>
    <rc><c>Nb</c><c>   2</c></rc>
    <rc><c>Nb</c><c>   2</c></rc>
    <rc><c>Nb</c><c>   2</c></rc>
    <rc><c>Nb</c><c>   2</c></rc>
    <rc><c>Nb</c><c>   2</c></rc>
    <rc><c>Nb</c><c>   2</c></rc>
    <rc><c>Nb</c><c>   2</c></rc>
    <rc><c>Nb</c><c>   2</c></rc>
    <rc><c>Nb</c><c>   2</c></rc>
    <rc><c>Nb</c><c>   2</c></rc>
    <rc><c>Nb</c><c>   2</c></rc>
    <rc><c>Nb</c><c>   2</c></rc>
    <rc><c>Nb</c><c>   2</c></rc>
    <rc><c>Nb</c><c>   2</c></rc>
    <rc><c>Nb</c><c>   2</c></rc>
    <rc><c>Mo</c><c>   3</c></rc>
    <rc><c>Mo</c><c>   3</c></rc>
    <rc><c>O </c><c>   4</c></rc>
    <rc><c>O </c><c>   4</c></rc>
    <rc><c>O </c><c>   4</c></rc>
    <rc><c>O </c><c>   4</c></rc>
    <rc><c>O </c><c>   4</c></rc>
    <rc><c>O </c><c>   4</c></rc>
    <rc><c>O </c><c>   4</c></rc>
    <rc><c>O </c><c>   4</c></rc>
    <rc><c>O </c><c>   4</c></rc>
    <rc><c>O </c><c>   4</c></rc>
    <rc><c>O </c><c>   4</c></rc>
    <rc><c>O </c><c>   4</c></rc>
    <rc><c>O </c><c>   4</c></rc>
    <rc><c>O </c><c>   4</c></rc>
    <rc><c>O </c><c>   4</c></rc>
    <rc><c>O </c><c>   4</c></rc>
    <rc><c>O </c><c>   4</c></rc>
    <rc><c>O </c><c>   4</c></rc>
    <rc><c>O </c><c>   4</c></rc>
    <rc><c>O </c><c>   4</c></rc>
    <rc><c>O </c><c>   4</c></rc>
    <rc><c>O </c><c>   4</c></rc>
    <rc><c>O </c><c>   4</c></rc>
    <rc><c>O </c><c>   4</c></rc>
    <rc><c>O </c><c>   4</c></rc>
    <rc><c>O </c><c>   4</c></rc>
    <rc><c>O </c><c>   4</c></rc>
    <rc><c>O </c><c>   4</c></rc>
    <rc><c>O </c><c>   4</c></rc>
    <rc><c>O </c><c>   4</c></rc>
    <rc><c>O </c><c>   4</c></rc>
    <rc><c>O </c><c>   4</c></rc>
    <rc><c>O </c><c>   4</c></rc>
    <rc><c>O </c><c>   4</c></rc>
    <rc><c>O </c><c>   4</c></rc>
    <rc><c>O </c><c>   4</c></rc>
    <rc><c>O </c><c>   4</c></rc>
    <rc><c>O </c><c>   4</c></rc>
    <rc><c>O </c><c>   4</c></rc>
    <rc><c>O </c><c>   4</c></rc>
    <rc><c>O </c><c>   4</c></rc>
    <rc><c>O </c><c>   4</c></rc>
    <rc><c>O </c><c>   4</c></rc>
    <rc><c>O </c><c>   4</c></rc>
    <rc><c>O </c><c>   4</c></rc>
    <rc><c>O </c><c>   4</c></rc>
    <rc><c>O </c><c>   4</c></rc>
    <rc><c>O </c><c>   4</c></rc>
    <rc><c>O </c><c>   4</c></rc>
    <rc><c>O </c><c>   4</c></rc>
    <rc><c>O </c><c>   4</c></rc>
    <rc><c>O </c><c>   4</c></rc>
    <rc><c>O </c><c>   4</c></rc>
    <rc><c>O </c><c>   4</c></rc>
    <rc><c>O </c><c>   4</c></rc>
    <rc><c>O </c><c>   4</c></rc>
    <rc><c>O </c><c>   4</c></rc>
    <rc><c>O </c><c>   4</c></rc>
    <rc><c>O </c><c>   4</c></rc>
    <rc><c>O </c><c>   4</c></rc>
    <rc><c>O </c><c>   4</c></rc>
    <rc><c>O </c><c>   4</c></rc>
    <rc><c>O </c><c>   4</c></rc>
    <rc><c>O </c><c>   4</c></rc>
    <rc><c>O </c><c>   4</c></rc>
    <rc><c>O </c><c>   4</c></rc>
   </set>
  </array>
  <array name="atomtypes" >
   <dimension dim="1">type</dimension>
   <field type="int">atomspertype</field>
   <field type="string">element</field>
   <field>mass</field>
   <field>valence</field>
   <field type="string">pseudopotential</field>
   <set>
    <rc><c>   1</c><c>Li</c><c>      7.01000000</c><c>      3.00000000</c><c> PAW_PBE Li_sv 23Jan2001                </c></rc>
    <rc><c>  24</c><c>Nb</c><c>     92.00000000</c><c>     11.00000000</c><c> PAW_PBE Nb_pv 08Apr2002                </c></rc>
    <rc><c>   2</c><c>Mo</c><c>     95.94000000</c><c>     12.00000000</c><c> PAW_PBE Mo_pv 08Apr2002                </c></rc>
    <rc><c>  66</c><c>O </c><c>     16.00000000</c><c>      6.00000000</c><c> PAW_PBE O 08Apr2002                    </c></rc>
   </set>
  </array>
 </atominfo>
 <structure name="initialpos" >
  <crystal>
   <varray name="basis" >
    <v>      22.78514290       0.00000000       0.00000000 </v>
    <v>       0.00000000       3.87685037       0.00000000 </v>
    <v>      -9.97305163       0.00000241      15.12824818 </v>
   </varray>
   <i name="volume">   1336.34759474 </i>
   <varray name="rec_basis" >
    <v>       0.04388825       0.00000000       0.02893261 </v>
    <v>       0.00000000       0.25794135      -0.00000004 </v>
    <v>       0.00000000       0.00000000       0.06610151 </v>
   </varray>
  </crystal>
  <varray name="positions" >
   <v>       0.31668402       0.93812349       0.63572330 </v>
   <v>       0.36700133       0.00743230       0.04631090 </v>
   <v>       0.63378706       0.00761171       0.95390620 </v>
   <v>       0.86440442       0.50772974       0.04363536 </v>
   <v>       0.13145621       0.50955158       0.95531358 </v>
   <v>       0.24854506       0.00366047       0.13763999 </v>
   <v>       0.75182074       0.00326109       0.86114851 </v>
   <v>       0.74746062       0.50308759       0.13780618 </v>
   <v>       0.24976153       0.50332442       0.86491516 </v>
   <v>       0.13023198       0.99763419       0.23125688 </v>
   <v>       0.86908694       0.99851525       0.76733467 </v>
   <v>       0.63159344       0.49837996       0.23337728 </v>
   <v>       0.37181412       0.49621878       0.77619861 </v>
   <v>       0.41887790       0.96656453       0.37938156 </v>
   <v>       0.58378741       0.96725775       0.61719145 </v>
   <v>       0.91727709       0.46736764       0.38152943 </v>
   <v>       0.08234809       0.46766435       0.61987637 </v>
   <v>       0.29768820       0.00328499       0.46886765 </v>
   <v>       0.70249614       0.00348000       0.52636553 </v>
   <v>       0.79881224       0.50369190       0.47344264 </v>
   <v>       0.19712990       0.50264057       0.52172877 </v>
   <v>       0.46653659       0.00089651       0.71302388 </v>
   <v>       0.53673155       0.00168158       0.28713469 </v>
   <v>       0.96394266       0.50164961       0.71252179 </v>
   <v>       0.03168065       0.50150211       0.28217149 </v>
   <v>       0.99943329       0.25169344       0.00039500 </v>
   <v>       0.50102441       0.75289547       0.00147095 </v>
   <v>       0.00009426       0.49078936       0.50027016 </v>
   <v>       0.50096491       0.99138296       0.49878242 </v>
   <v>       0.14881812       0.00447349       0.99149574 </v>
   <v>       0.84956652       0.00386735       0.00796976 </v>
   <v>       0.64895757       0.50436034       0.99031388 </v>
   <v>       0.35094322       0.50401996       0.00972808 </v>
   <v>       0.30340746       0.00320152       0.08218710 </v>
   <v>       0.69611535       0.00382578       0.91729491 </v>
   <v>       0.80264774       0.50324564       0.08098266 </v>
   <v>       0.19621976       0.50195364       0.91983118 </v>
   <v>       0.03403637       0.99941917       0.09903872 </v>
   <v>       0.96551352       0.99965996       0.90244175 </v>
   <v>       0.53441915       0.50163636       0.09912028 </v>
   <v>       0.46689435       0.50053740       0.90161276 </v>
   <v>       0.44982166       0.00370171       0.15586920 </v>
   <v>       0.54978245       0.00293783       0.84369746 </v>
   <v>       0.94856872       0.50324926       0.15467200 </v>
   <v>       0.05017732       0.50519818       0.84470666 </v>
   <v>       0.17998452       0.00216242       0.17811903 </v>
   <v>       0.81976076       0.00304014       0.82234151 </v>
   <v>       0.67976400       0.50288828       0.17714967 </v>
   <v>       0.32060256       0.50054144       0.82597492 </v>
   <v>       0.04848563       0.00132892       0.27003962 </v>
   <v>       0.95059472       0.00182711       0.73023882 </v>
   <v>       0.55000151       0.50160117       0.26994042 </v>
   <v>       0.45133198       0.50084961       0.72969125 </v>
   <v>       0.32533163       0.99979216       0.25018125 </v>
   <v>       0.67414315       0.99961013       0.74951619 </v>
   <v>       0.82519062       0.49922571       0.24935000 </v>
   <v>       0.17486017       0.49972666       0.75107729 </v>
   <v>       0.47615559       0.99837513       0.32590887 </v>
   <v>       0.52212578       0.99944983       0.66962003 </v>
   <v>       0.97591050       0.49957023       0.32642297 </v>
   <v>       0.02419953       0.49869300       0.67372863 </v>
   <v>       0.20685688       0.00165920       0.34954501 </v>
   <v>       0.79303100       0.00189048       0.65115311 </v>
   <v>       0.70771135       0.50204768       0.34922677 </v>
   <v>       0.29580619       0.50135356       0.65421643 </v>
   <v>       0.35464221       0.00081158       0.42729534 </v>
   <v>       0.64826857       0.99923125       0.57449548 </v>
   <v>       0.85266381       0.50025461       0.42537435 </v>
   <v>       0.14738973       0.49983011       0.57460381 </v>
   <v>       0.22318948       0.00230187       0.52386266 </v>
   <v>       0.77879640       0.00304763       0.48128554 </v>
   <v>       0.72197017       0.50291099       0.51856876 </v>
   <v>       0.27859577       0.50253993       0.48069663 </v>
   <v>       0.37458614       0.00183146       0.59815885 </v>
   <v>       0.62179777       0.00252034       0.40408504 </v>
   <v>       0.87861884       0.50274100       0.59603261 </v>
   <v>       0.12122998       0.50210503       0.40337097 </v>
   <v>       0.09113852       0.99298211       0.63134351 </v>
   <v>       0.90994913       0.99304150       0.36853536 </v>
   <v>       0.58977002       0.49291126       0.63100406 </v>
   <v>       0.40923779       0.49254780       0.36908430 </v>
   <v>       0.39119050       0.99963623       0.76732906 </v>
   <v>       0.60595097       0.00101466       0.23211121 </v>
   <v>       0.89451565       0.50095473       0.76831983 </v>
   <v>       0.10568063       0.50049537       0.23221525 </v>
   <v>       0.27548436       0.00302994       0.89741959 </v>
   <v>       0.72392335       0.00355776       0.10260688 </v>
   <v>       0.77527155       0.50360736       0.89631480 </v>
   <v>       0.22424301       0.50374884       0.10426619 </v>
   <v>       0.42960901       0.00442957       0.98762504 </v>
   <v>       0.57159554       0.00532047       0.01389922 </v>
   <v>       0.92815247       0.50223969       0.98717394 </v>
   <v>       0.07107842       0.50358816       0.01354726 </v>
  </varray>
 </structure>
 <calculation>
  <scstep>
   <time name="dav">   44.59   44.99</time>
   <time name="total">   45.79   46.19</time>
   <energy>
    <i name="alphaZ">   3514.54571391 </i>
    <i name="ewald"> -37004.27808054 </i>
    <i name="hartreedc"> -17977.78099824 </i>
    <i name="XCdc">   2526.86100684 </i>
    <i name="pawpsdc">  35089.64318688 </i>
    <i name="pawaedc"> -34806.48135010 </i>
    <i name="eentropy">     -0.01954736 </i>
    <i name="bandstr">   2058.37145123 </i>
    <i name="atom">  56348.38862387 </i>
    <i name="e_fr_energy">   9749.25000650 </i>
    <i name="e_wo_entrp">   9749.26955386 </i>
    <i name="e_0_energy">   9749.25978018 </i>
   </energy>
  </scstep>
  <scstep>
   <time name="dav">   44.62   45.02</time>
   <time name="total">   44.62   45.02</time>
   <energy>
    <i name="e_fr_energy">    829.45476532 </i>
    <i name="e_wo_entrp">    829.48721274 </i>
    <i name="e_0_energy">    829.47098903 </i>
   </energy>
  </scstep>
  <scstep>
   <time name="dav">   66.90   67.50</time>
   <time name="total">   66.90   67.50</time>
   <energy>
    <i name="e_fr_energy">   -920.04737132 </i>
    <i name="e_wo_entrp">   -920.03534107 </i>
    <i name="e_0_energy">   -920.04135620 </i>
   </energy>
  </scstep>
  <scstep>
   <time name="dav">   62.60   63.16</time>
   <time name="total">   62.61   63.16</time>
   <energy>
    <i name="e_fr_energy">  -1017.45748881 </i>
    <i name="e_wo_entrp">  -1017.44465076 </i>
    <i name="e_0_energy">  -1017.45106979 </i>
   </energy>
  </scstep>
  <scstep>
   <time name="dav">   66.47   67.05</time>
   <time name="total">   68.57   69.18</time>
   <energy>
    <i name="e_fr_energy">  -1019.05708112 </i>
    <i name="e_wo_entrp">  -1019.04484846 </i>
    <i name="e_0_energy">  -1019.05096479 </i>
   </energy>
  </scstep>
  <scstep>
   <time name="diag">    4.70    4.75</time>
   <time name="diis">   48.05   48.53</time>
   <time name="orth">    0.45    0.46</time>
   <time name="total">   56.44   57.00</time>
   <energy>
    <i name="e_fr_energy">   -754.79988038 </i>
    <i name="e_wo_entrp">   -754.78796608 </i>
    <i name="e_0_energy">   -754.79392323 </i>
   </energy>
  </scstep>
  <scstep>
   <time name="diag">    4.45    4.48</time>
   <time name="diis">   43.27   43.66</time>
   <time name="orth">    0.45    0.45</time>
   <time name="total">   51.17   51.62</time>
   <energy>
    <i name="e_fr_energy">   -750.63187510 </i>
    <i name="e_wo_entrp">   -750.62257394 </i>
    <i name="e_0_energy">   -750.62722452 </i>
   </energy>
  </scstep>
  <scstep>
   <time name="diag">    4.54    4.57</time>
   <time name="diis">   44.94   45.36</time>
   <time name="orth">    0.47    0.47</time>
   <time name="total">   52.99   53.47</time>
   <energy>
    <i name="e_fr_energy">   -762.03914550 </i>
    <i name="e_wo_entrp">   -762.02827367 </i>
    <i name="e_0_energy">   -762.03370959 </i>
   </energy>
  </scstep>
  <scstep>
   <time name="diag">    4.48    4.52</time>
   <time name="diis">   41.58   41.96</time>
   <time name="orth">    0.52    0.52</time>
   <time name="total">   49.66   50.11</time>
   <energy>
    <i name="e_fr_energy">   -782.79587913 </i>
    <i name="e_wo_entrp">   -782.78363287 </i>
    <i name="e_0_energy">   -782.78975600 </i>
   </energy>
  </scstep>
  <scstep>
   <time name="diag">    4.47    4.50</time>
   <time name="diis">   42.41   42.79</time>
   <time name="orth">    0.53    0.53</time>
   <time name="total">   50.39   50.83</time>
   <energy>
    <i name="e_fr_energy">   -795.18891994 </i>
    <i name="e_wo_entrp">   -795.17449969 </i>
    <i name="e_0_energy">   -795.18170982 </i>
   </energy>
  </scstep>
  <scstep>
   <time name="diag">    4.61    4.65</time>
   <time name="diis">   43.59   43.99</time>
   <time name="orth">    0.53    0.54</time>
   <time name="total">   51.81   52.28</time>
   <energy>
    <i name="e_fr_energy">   -804.98550146 </i>
    <i name="e_wo_entrp">   -804.97012113 </i>
    <i name="e_0_energy">   -804.97781129 </i>
   </energy>
  </scstep>
  <scstep>
   <time name="diag">    4.73    4.77</time>
   <time name="diis">   44.00   44.40</time>
   <time name="orth">    0.54    0.54</time>
   <time name="total">   52.51   52.98</time>
   <energy>
    <i name="e_fr_energy">   -812.79075520 </i>
    <i name="e_wo_entrp">   -812.77652321 </i>
    <i name="e_0_energy">   -812.78363920 </i>
   </energy>
  </scstep>
  <scstep>
   <time name="diag">    4.66    4.70</time>
   <time name="diis">   43.83   44.23</time>
   <time name="orth">    0.53    0.54</time>
   <time name="total">   52.28   52.75</time>
   <energy>
    <i name="e_fr_energy">   -813.72457739 </i>
    <i name="e_wo_entrp">   -813.70862478 </i>
    <i name="e_0_energy">   -813.71660108 </i>
   </energy>
  </scstep>
  <scstep>
   <time name="diag">    4.65    4.69</time>
   <time name="diis">   43.83   44.25</time>
   <time name="orth">    0.54    0.54</time>
   <time name="total">   52.32   52.80</time>
   <energy>
    <i name="e_fr_energy">   -813.86168005 </i>
    <i name="e_wo_entrp">   -813.84443098 </i>
    <i name="e_0_energy">   -813.85305552 </i>
   </energy>
  </scstep>
  <scstep>
   <time name="diag">    4.67    4.70</time>
   <time name="diis">   46.41   46.95</time>
   <time name="orth">    0.52    0.52</time>
   <time name="total">   54.79   55.40</time>
   <energy>
    <i name="e_fr_energy">   -813.87179359 </i>
    <i name="e_wo_entrp">   -813.85271450 </i>
    <i name="e_0_energy">   -813.86225405 </i>
   </energy>
  </scstep>
  <scstep>
   <time name="diag">    4.58    4.61</time>
   <time name="diis">   45.55   45.97</time>
   <time name="orth">    0.53    0.53</time>
   <time name="total">   53.92   54.40</time>
   <energy>
    <i name="e_fr_energy">   -813.86840652 </i>
    <i name="e_wo_entrp">   -813.84884989 </i>
    <i name="e_0_energy">   -813.85862821 </i>
   </energy>
  </scstep>
  <scstep>
   <time name="diag">    4.69    4.73</time>
   <time name="diis">   47.24   47.67</time>
   <time name="orth">    0.53    0.54</time>
   <time name="total">   55.79   56.28</time>
   <energy>
    <i name="e_fr_energy">   -813.86766357 </i>
    <i name="e_wo_entrp">   -813.84774227 </i>
    <i name="e_0_energy">   -813.85770292 </i>
   </energy>
  </scstep>
  <scstep>
   <time name="diag">    4.56    4.60</time>
   <time name="diis">   46.66   47.10</time>
   <time name="orth">    0.53    0.54</time>
   <time name="total">   55.12   55.62</time>
   <energy>
    <i name="e_fr_energy">   -813.86785931 </i>
    <i name="e_wo_entrp">   -813.84768493 </i>
    <i name="e_0_energy">   -813.85777212 </i>
   </energy>
  </scstep>
  <scstep>
   <time name="diag">    4.60    4.63</time>
   <time name="diis">   47.74   48.17</time>
   <time name="orth">    0.54    0.54</time>
   <time name="total">   56.18   56.67</time>
   <energy>
    <i name="e_fr_energy">   -813.86804500 </i>
    <i name="e_wo_entrp">   -813.84764902 </i>
    <i name="e_0_energy">   -813.85784701 </i>
   </energy>
  </scstep>
  <scstep>
   <time name="diag">    4.61    4.65</time>
   <time name="diis">   46.20   46.61</time>
   <time name="orth">    0.53    0.53</time>
   <time name="total">   54.73   55.20</time>
   <energy>
    <i name="e_fr_energy">   -813.86813973 </i>
    <i name="e_wo_entrp">   -813.84762479 </i>
    <i name="e_0_energy">   -813.85788226 </i>
   </energy>
  </scstep>
  <scstep>
   <time name="diag">    4.59    4.63</time>
   <time name="diis">   44.72   45.09</time>
   <time name="orth">    0.53    0.54</time>
   <time name="total">   53.31   53.75</time>
   <energy>
    <i name="e_fr_energy">   -813.86818756 </i>
    <i name="e_wo_entrp">   -813.84755057 </i>
    <i name="e_0_energy">   -813.85786906 </i>
   </energy>
  </scstep>
  <scstep>
   <time name="diag">    4.57    4.60</time>
   <time name="diis">   44.96   45.70</time>
   <time name="orth">    0.54    0.54</time>
   <time name="total">   53.47   54.27</time>
   <energy>
    <i name="e_fr_energy">   -813.86820790 </i>
    <i name="e_wo_entrp">   -813.84753043 </i>
    <i name="e_0_energy">   -813.85786917 </i>
   </energy>
  </scstep>
  <scstep>
   <time name="diag">    4.72    4.75</time>
   <time name="diis">   43.65   44.02</time>
   <time name="orth">    0.52    0.53</time>
   <time name="total">   52.04   52.48</time>
   <energy>
    <i name="e_fr_energy">   -813.86821616 </i>
    <i name="e_wo_entrp">   -813.84752140 </i>
    <i name="e_0_energy">   -813.85786878 </i>
   </energy>
  </scstep>
  <scstep>
   <time name="diag">    4.77    4.81</time>
   <time name="diis">   43.02   43.38</time>
   <time name="orth">    0.49    0.49</time>
   <time name="total">   51.06   51.47</time>
   <energy>
    <i name="e_fr_energy">   -813.86822263 </i>
    <i name="e_wo_entrp">   -813.84751275 </i>
    <i name="e_0_energy">   -813.85786769 </i>
   </energy>
  </scstep>
  <scstep>
   <time name="diag">    4.49    4.52</time>
   <time name="diis">   37.25   37.57</time>
   <time name="orth">    0.45    0.45</time>
   <time name="total">   45.35   45.72</time>
   <energy>
    <i name="e_fr_energy">   -813.86822524 </i>
    <i name="e_wo_entrp">   -813.84751670 </i>
    <i name="e_0_energy">   -813.85787097 </i>
   </energy>
  </scstep>
  <scstep>
   <time name="diag">    4.45    4.48</time>
   <time name="diis">   29.59   29.83</time>
   <time name="orth">    0.48    0.49</time>
   <time name="total">   35.72   36.00</time>
   <energy>
    <i name="alphaZ">   3514.54571391 </i>
    <i name="ewald"> -37004.27808054 </i>
    <i name="hartreedc"> -18338.41382987 </i>
    <i name="XCdc">   2568.46662356 </i>
    <i name="pawpsdc">  39641.17010390 </i>
    <i name="pawaedc"> -39522.84527181 </i>
    <i name="eentropy">     -0.02071023 </i>
    <i name="bandstr">  -8020.88139856 </i>
    <i name="atom">  56348.38862387 </i>
    <i name="e_fr_energy">   -813.86822576 </i>
    <i name="e_wo_entrp">   -813.84751553 </i>
    <i name="e_0_energy">   -813.85787065 </i>
   </energy>
  </scstep>
  <structure>
   <crystal>
    <varray name="basis" >
     <v>      22.78514290       0.00000000       0.00000000 </v>
     <v>       0.00000000       3.87685037       0.00000000 </v>
     <v>      -9.97305163       0.00000241      15.12824818 </v>
    </varray>
    <i name="volume">   1336.34759474 </i>
    <varray name="rec_basis" >
     <v>       0.04388825       0.00000000       0.02893261 </v>
     <v>       0.00000000       0.25794135      -0.00000004 </v>
     <v>       0.00000000       0.00000000       0.06610151 </v>
    </varray>
   </crystal>
   <varray name="positions" >
    <v>       0.31668402       0.93812349       0.63572330 </v>
    <v>       0.36700133       0.00743230       0.04631090 </v>
    <v>       0.63378706       0.00761171       0.95390620 </v>
    <v>       0.86440442       0.50772974       0.04363536 </v>
    <v>       0.13145621       0.50955158       0.95531358 </v>
    <v>       0.24854506       0.00366047       0.13763999 </v>
    <v>       0.75182074       0.00326109       0.86114851 </v>
    <v>       0.74746062       0.50308759       0.13780618 </v>
    <v>       0.24976153       0.50332442       0.86491516 </v>
    <v>       0.13023198       0.99763419       0.23125688 </v>
    <v>       0.86908694       0.99851525       0.76733467 </v>
    <v>       0.63159344       0.49837996       0.23337728 </v>
    <v>       0.37181412       0.49621878       0.77619861 </v>
    <v>       0.41887790       0.96656453       0.37938156 </v>
    <v>       0.58378741       0.96725775       0.61719145 </v>
    <v>       0.91727709       0.46736764       0.38152943 </v>
    <v>       0.08234809       0.46766435       0.61987637 </v>
    <v>       0.29768820       0.00328499       0.46886765 </v>
    <v>       0.70249614       0.00348000       0.52636553 </v>
    <v>       0.79881224       0.50369190       0.47344264 </v>
    <v>       0.19712990       0.50264057       0.52172877 </v>
    <v>       0.46653659       0.00089651       0.71302388 </v>
    <v>       0.53673155       0.00168158       0.28713469 </v>
    <v>       0.96394266       0.50164961       0.71252179 </v>
    <v>       0.03168065       0.50150211       0.28217149 </v>
    <v>       0.99943329       0.25169344       0.00039500 </v>
    <v>       0.50102441       0.75289547       0.00147095 </v>
    <v>       0.00009426       0.49078936       0.50027016 </v>
    <v>       0.50096491       0.99138296       0.49878242 </v>
    <v>       0.14881812       0.00447349       0.99149574 </v>
    <v>       0.84956652       0.00386735       0.00796976 </v>
    <v>       0.64895757       0.50436034       0.99031388 </v>
    <v>       0.35094322       0.50401996       0.00972808 </v>
    <v>       0.30340746       0.00320152       0.08218710 </v>
    <v>       0.69611535       0.00382578       0.91729491 </v>
    <v>       0.80264774       0.50324564       0.08098266 </v>
    <v>       0.19621976       0.50195364       0.91983118 </v>
    <v>       0.03403637       0.99941917       0.09903872 </v>
    <v>       0.96551352       0.99965996       0.90244175 </v>
    <v>       0.53441915       0.50163636       0.09912028 </v>
    <v>       0.46689435       0.50053740       0.90161276 </v>
    <v>       0.44982166       0.00370171       0.15586920 </v>
    <v>       0.54978245       0.00293783       0.84369746 </v>
    <v>       0.94856872       0.50324926       0.15467200 </v>
    <v>       0.05017732       0.50519818       0.84470666 </v>
    <v>       0.17998452       0.00216242       0.17811903 </v>
    <v>       0.81976076       0.00304014       0.82234151 </v>
    <v>       0.67976400       0.50288828       0.17714967 </v>
    <v>       0.32060256       0.50054144       0.82597492 </v>
    <v>       0.04848563       0.00132892       0.27003962 </v>
    <v>       0.95059472       0.00182711       0.73023882 </v>
    <v>       0.55000151       0.50160117       0.26994042 </v>
    <v>       0.45133198       0.50084961       0.72969125 </v>
    <v>       0.32533163       0.99979216       0.25018125 </v>
    <v>       0.67414315       0.99961013       0.74951619 </v>
    <v>       0.82519062       0.49922571       0.24935000 </v>
    <v>       0.17486017       0.49972666       0.75107729 </v>
    <v>       0.47615559       0.99837513       0.32590887 </v>
    <v>       0.52212578       0.99944983       0.66962003 </v>
    <v>       0.97591050       0.49957023       0.32642297 </v>
    <v>       0.02419953       0.49869300       0.67372863 </v>
    <v>       0.20685688       0.00165920       0.34954501 </v>
    <v>       0.79303100       0.00189048       0.65115311 </v>
    <v>       0.70771135       0.50204768       0.34922677 </v>
    <v>       0.29580619       0.50135356       0.65421643 </v>
    <v>       0.35464221       0.00081158       0.42729534 </v>
    <v>       0.64826857       0.99923125       0.57449548 </v>
    <v>       0.85266381       0.50025461       0.42537435 </v>
    <v>       0.14738973       0.49983011       0.57460381 </v>
    <v>       0.22318948       0.00230187       0.52386266 </v>
    <v>       0.77879640       0.00304763       0.48128554 </v>
    <v>       0.72197017       0.50291099       0.51856876 </v>
    <v>       0.27859577       0.50253993       0.48069663 </v>
    <v>       0.37458614       0.00183146       0.59815885 </v>
    <v>       0.62179777       0.00252034       0.40408504 </v>
    <v>       0.87861884       0.50274100       0.59603261 </v>
    <v>       0.12122998       0.50210503       0.40337097 </v>
    <v>       0.09113852       0.99298211       0.63134351 </v>
    <v>       0.90994913       0.99304150       0.36853536 </v>
    <v>       0.58977002       0.49291126       0.63100406 </v>
    <v>       0.40923779       0.49254780       0.36908430 </v>
    <v>       0.39119050       0.99963623       0.76732906 </v>
    <v>       0.60595097       0.00101466       0.23211121 </v>
    <v>       0.89451565       0.50095473       0.76831983 </v>
    <v>       0.10568063       0.50049537       0.23221525 </v>
    <v>       0.27548436       0.00302994       0.89741959 </v>
    <v>       0.72392335       0.00355776       0.10260688 </v>
    <v>       0.77527155       0.50360736       0.89631480 </v>
    <v>       0.22424301       0.50374884       0.10426619 </v>
    <v>       0.42960901       0.00442957       0.98762504 </v>
    <v>       0.57159554       0.00532047       0.01389922 </v>
    <v>       0.92815247       0.50223969       0.98717394 </v>
    <v>       0.07107842       0.50358816       0.01354726 </v>
   </varray>
  </structure>
  <varray name="forces" >
   <v>      -0.68388986       0.82105659       0.20648082 </v>
   <v>      -0.00415842       0.00108595       0.00043110 </v>
   <v>      -0.00553840       0.00105884      -0.01615125 </v>
   <v>       0.00455083       0.00136776       0.01305669 </v>
   <v>      -0.00199682       0.00178267       0.00156902 </v>
   <v>      -0.00461851       0.00144725       0.00240504 </v>
   <v>      -0.00241228       0.00072272      -0.00240864 </v>
   <v>       0.00147448      -0.00000250      -0.00254781 </v>
   <v>      -0.00155033      -0.00103739      -0.00907530 </v>
   <v>       0.00552632       0.00136196       0.01870547 </v>
   <v>       0.00076545       0.00144174       0.00047402 </v>
   <v>       0.00232729       0.00161135       0.00376480 </v>
   <v>      -0.09973990      -0.19257353       0.00961309 </v>
   <v>       0.00204203      -0.00455851       0.00138861 </v>
   <v>      -0.00548885      -0.00427566      -0.00447008 </v>
   <v>       0.00110296      -0.00334556       0.00571935 </v>
   <v>       0.01654891      -0.00533350       0.00720173 </v>
   <v>       0.13588056       0.05906421      -0.18734405 </v>
   <v>       0.00185340      -0.00157420       0.00416508 </v>
   <v>       0.00293860      -0.00121626       0.00463845 </v>
   <v>      -0.08914230      -0.12527972      -0.01693439 </v>
   <v>       0.17937185       0.04091087       0.03816751 </v>
   <v>       0.00232918       0.00066995       0.00277868 </v>
   <v>       0.00491263       0.00096096       0.00148927 </v>
   <v>       0.00004142       0.00076793      -0.00492235 </v>
   <v>      -0.00453342       0.00006367       0.00436017 </v>
   <v>      -0.00050747       0.00150044       0.00155276 </v>
   <v>      -0.00138923      -0.00266791      -0.00574717 </v>
   <v>       0.00413751      -0.00233515      -0.00421764 </v>
   <v>      -0.00402863       0.00123410       0.00291006 </v>
   <v>      -0.00157161       0.00099473      -0.00285113 </v>
   <v>       0.00015048       0.00145509       0.00344911 </v>
   <v>      -0.00076200       0.00089350       0.00303350 </v>
   <v>      -0.00004269       0.00168731       0.00370457 </v>
   <v>       0.00025898       0.00184812       0.00025839 </v>
   <v>      -0.00305830       0.00153123      -0.00252595 </v>
   <v>      -0.00952771       0.00184944       0.00583364 </v>
   <v>      -0.00741918       0.00167076       0.00281223 </v>
   <v>      -0.00260286       0.00077080       0.00168538 </v>
   <v>       0.00019020       0.00433403      -0.00278751 </v>
   <v>      -0.00621763      -0.00949557      -0.00938439 </v>
   <v>       0.00424582       0.00078762      -0.00045734 </v>
   <v>       0.00357208       0.00104650       0.00774178 </v>
   <v>      -0.00306789       0.00099918      -0.00071605 </v>
   <v>      -0.00562058       0.00163220       0.00360904 </v>
   <v>      -0.00176455       0.00122428      -0.00650024 </v>
   <v>      -0.00109830       0.00160238      -0.00177676 </v>
   <v>       0.00236653       0.00178123      -0.00310725 </v>
   <v>       0.01396810      -0.00137319      -0.00136510 </v>
   <v>      -0.00319832       0.00012519       0.00033091 </v>
   <v>       0.00272097       0.00054141       0.00033868 </v>
   <v>       0.00432165       0.00067887       0.00036839 </v>
   <v>      -0.00739427       0.02271633       0.03748810 </v>
   <v>      -0.00546461      -0.00063981       0.00011278 </v>
   <v>       0.00155491      -0.00140730      -0.00059819 </v>
   <v>       0.00031696      -0.00185476      -0.00002131 </v>
   <v>      -0.00926703      -0.00148501       0.00692136 </v>
   <v>       0.00163983      -0.00161710      -0.00583379 </v>
   <v>      -0.01539777       0.00190817       0.00143601 </v>
   <v>      -0.00441900      -0.00105119       0.00316247 </v>
   <v>      -0.00162911      -0.00061528       0.00399599 </v>
   <v>      -0.00000127       0.00157538      -0.00744125 </v>
   <v>       0.00531384       0.00064674      -0.00088535 </v>
   <v>       0.00213347       0.00031981      -0.00232049 </v>
   <v>      -0.04382575      -0.37026178       0.03382792 </v>
   <v>      -0.01506161       0.00039987       0.00845143 </v>
   <v>       0.00578819      -0.00269217       0.00293417 </v>
   <v>       0.00313627      -0.00217486      -0.00071662 </v>
   <v>       0.00651725       0.00118811      -0.00926285 </v>
   <v>       0.15738695      -0.11607422       0.12695662 </v>
   <v>       0.00344566      -0.00069857      -0.00118011 </v>
   <v>       0.00246007      -0.00032384      -0.00185166 </v>
   <v>      -0.03456488       0.03363613       0.00122542 </v>
   <v>       0.45318227       0.00260333      -0.16997517 </v>
   <v>       0.00015522       0.00009815       0.00008653 </v>
   <v>       0.00083343       0.00065749      -0.00010477 </v>
   <v>       0.01104437      -0.00903825       0.04607085 </v>
   <v>      -0.00314521       0.00008799       0.00034550 </v>
   <v>       0.00119124      -0.00171891      -0.00046013 </v>
   <v>       0.00484042      -0.00125372      -0.00654241 </v>
   <v>       0.00618175      -0.00086316      -0.00511648 </v>
   <v>       0.04915500      -0.17087870      -0.14045088 </v>
   <v>       0.00189779       0.00072505       0.00057845 </v>
   <v>      -0.00064891       0.00064582       0.00082182 </v>
   <v>      -0.00393568       0.00025509      -0.00458814 </v>
   <v>      -0.00333601       0.00018969       0.00708582 </v>
   <v>      -0.00168466       0.00113871       0.00115003 </v>
   <v>       0.00024054       0.00105415      -0.00082163 </v>
   <v>      -0.00179694       0.00140566       0.00011444 </v>
   <v>      -0.00018308       0.00060150      -0.00110679 </v>
   <v>      -0.00336527       0.00077635      -0.00273439 </v>
   <v>      -0.00149687       0.00111471      -0.00269478 </v>
   <v>      -0.00444970       0.00041021       0.00319453 </v>
  </varray>
  <varray name="stress" >
   <v>       8.64173591       1.02960928      -1.55760233 </v>
   <v>       1.02960838       6.38050675      -0.60610980 </v>
   <v>      -1.55757863      -0.60611150       7.28978422 </v>
  </varray>
  <energy>
   <i name="e_fr_energy">   -813.86822576 </i>
   <i name="e_wo_entrp">   -813.84751553 </i>
   <i name="e_0_energy">   -813.85787065 </i>
  </energy>
  <time name="totalsc"> 1469.08 1483.08</time>
 </calculation>
 <calculation>
  <scstep>
   <time name="dav">   50.51   50.96</time>
   <time name="total">   53.63   54.10</time>
   <energy>
    <i name="alphaZ">   3514.54571391 </i>
    <i name="ewald"> -37008.39484425 </i>
    <i name="hartreedc"> -18334.27142992 </i>
    <i name="XCdc">   2568.46313682 </i>
    <i name="pawpsdc">  39641.18004193 </i>
    <i name="pawaedc"> -39522.85494704 </i>
    <i name="eentropy">     -0.02086606 </i>
    <i name="bandstr">  -8020.90976772 </i>
    <i name="atom">  56348.38862387 </i>
    <i name="e_fr_energy">   -813.87433846 </i>
    <i name="e_wo_entrp">   -813.85347240 </i>
    <i name="e_0_energy">   -813.86390543 </i>
   </energy>
  </scstep>
  <scstep>
   <time name="diag">    4.51    4.55</time>
   <time name="diis">   48.33   48.80</time>
   <time name="orth">    0.45    0.45</time>
   <time name="total">   56.22   56.75</time>
   <energy>
    <i name="e_fr_energy">   -813.87927786 </i>
    <i name="e_wo_entrp">   -813.85829911 </i>
    <i name="e_0_energy">   -813.86878849 </i>
   </energy>
  </scstep>
  <scstep>
   <time name="diag">    4.47    4.51</time>
   <time name="diis">   47.94   48.39</time>
   <time name="orth">    0.48    0.48</time>
   <time name="total">   55.83   56.33</time>
   <energy>
    <i name="e_fr_energy">   -813.88042288 </i>
    <i name="e_wo_entrp">   -813.85941538 </i>
    <i name="e_0_energy">   -813.86991913 </i>
   </energy>
  </scstep>
  <scstep>
   <time name="diag">    4.73    4.77</time>
   <time name="diis">   51.78   52.25</time>
   <time name="orth">    0.46    0.47</time>
   <time name="total">   59.98   60.51</time>
   <energy>
    <i name="e_fr_energy">   -813.88047057 </i>
    <i name="e_wo_entrp">   -813.85950644 </i>
    <i name="e_0_energy">   -813.86998850 </i>
   </energy>
  </scstep>
  <scstep>
   <time name="diag">    4.58    4.61</time>
   <time name="diis">   48.01   48.44</time>
   <time name="orth">    0.48    0.48</time>
   <time name="total">   55.90   56.38</time>
   <energy>
    <i name="e_fr_energy">   -813.88044257 </i>
    <i name="e_wo_entrp">   -813.85944409 </i>
    <i name="e_0_energy">   -813.86994333 </i>
   </energy>
  </scstep>
  <scstep>
   <time name="diag">    4.56    4.60</time>
   <time name="diis">   44.32   44.88</time>
   <time name="orth">    0.52    0.52</time>
   <time name="total">   52.57   53.20</time>
   <energy>
    <i name="e_fr_energy">   -813.88043178 </i>
    <i name="e_wo_entrp">   -813.85945285 </i>
    <i name="e_0_energy">   -813.86994232 </i>
   </energy>
  </scstep>
  <scstep>
   <time name="diag">    4.70    4.73</time>
   <time name="diis">   42.79   43.17</time>
   <time name="orth">    0.54    0.54</time>
   <time name="total">   51.23   51.67</time>
   <energy>
    <i name="e_fr_energy">   -813.88043221 </i>
    <i name="e_wo_entrp">   -813.85945340 </i>
    <i name="e_0_energy">   -813.86994280 </i>
   </energy>
  </scstep>
  <scstep>
   <time name="diag">    3.94    3.97</time>
   <time name="diis">   35.03   35.47</time>
   <time name="orth">    0.54    0.54</time>
   <time name="total">   42.90   43.40</time>
   <energy>
    <i name="e_fr_energy">   -813.88043029 </i>
    <i name="e_wo_entrp">   -813.85944342 </i>
    <i name="e_0_energy">   -813.86993686 </i>
   </energy>
  </scstep>
  <scstep>
   <time name="diag">    4.96    4.99</time>
   <time name="diis">   29.48   29.71</time>
   <time name="orth">    0.54    0.54</time>
   <time name="total">   36.31   36.59</time>
   <energy>
    <i name="alphaZ">   3514.54571391 </i>
    <i name="ewald"> -37008.39484425 </i>
    <i name="hartreedc"> -18334.67814839 </i>
    <i name="XCdc">   2568.47655740 </i>
    <i name="pawpsdc">  39643.15915077 </i>
    <i name="pawaedc"> -39524.84320950 </i>
    <i name="eentropy">     -0.02098237 </i>
    <i name="bandstr">  -8020.51329253 </i>
    <i name="atom">  56348.38862387 </i>
    <i name="e_fr_energy">   -813.88043108 </i>
    <i name="e_wo_entrp">   -813.85944870 </i>
    <i name="e_0_energy">   -813.86993989 </i>
   </energy>
  </scstep>
  <structure>
   <crystal>
    <varray name="basis" >
     <v>      22.78514290       0.00000000       0.00000000 </v>
     <v>       0.00000000       3.87685037       0.00000000 </v>
     <v>      -9.97305163       0.00000241      15.12824818 </v>
    </varray>
    <i name="volume">   1336.34759474 </i>
    <varray name="rec_basis" >
     <v>       0.04388825       0.00000000       0.02893261 </v>
     <v>       0.00000000       0.25794135      -0.00000004 </v>
     <v>       0.00000000       0.00000000       0.06610151 </v>
    </varray>
   </crystal>
   <varray name="positions" >
    <v>       0.31662121       0.93816904       0.63571141 </v>
    <v>       0.36700014       0.00744227       0.04630316 </v>
    <v>       0.63378453       0.00762374       0.95390017 </v>
    <v>       0.86443895       0.50773964       0.04368093 </v>
    <v>       0.13145428       0.50955689       0.95531058 </v>
    <v>       0.24854675       0.00366584       0.13763532 </v>
    <v>       0.75182694       0.00326296       0.86115565 </v>
    <v>       0.74747054       0.50308911       0.13780734 </v>
    <v>       0.24975282       0.50332111       0.86489858 </v>
    <v>       0.13022911       0.99763127       0.23124716 </v>
    <v>       0.86908551       0.99852494       0.76733106 </v>
    <v>       0.63159456       0.49839165       0.23337163 </v>
    <v>       0.37171573       0.49525304       0.77617885 </v>
    <v>       0.41888200       0.96654321       0.37938749 </v>
    <v>       0.58378612       0.96723453       0.61719316 </v>
    <v>       0.91728813       0.46734460       0.38153864 </v>
    <v>       0.08236244       0.46762248       0.61989349 </v>
    <v>       0.29766722       0.00357955       0.46858198 </v>
    <v>       0.70249750       0.00347303       0.52636511 </v>
    <v>       0.79881225       0.50368518       0.47343697 </v>
    <v>       0.19707933       0.50202321       0.52176682 </v>
    <v>       0.46672954       0.00110869       0.71309927 </v>
    <v>       0.53673329       0.00168781       0.28713417 </v>
    <v>       0.96393869       0.50165446       0.71251722 </v>
    <v>       0.03171831       0.50150241       0.28222122 </v>
    <v>       0.99942781       0.25170123       0.00039293 </v>
    <v>       0.50101832       0.75290452       0.00145888 </v>
    <v>       0.00009612       0.49078036       0.50026546 </v>
    <v>       0.50095974       0.99136535       0.49878749 </v>
    <v>       0.14881159       0.00447953       0.99149490 </v>
    <v>       0.84957333       0.00387545       0.00798279 </v>
    <v>       0.64896366       0.50436747       0.99032267 </v>
    <v>       0.35094223       0.50402452       0.00972141 </v>
    <v>       0.30340634       0.00320593       0.08217921 </v>
    <v>       0.69611914       0.00383443       0.91730188 </v>
    <v>       0.80264998       0.50325514       0.08099047 </v>
    <v>       0.19621761       0.50196493       0.91984194 </v>
    <v>       0.03402350       0.99941952       0.09903540 </v>
    <v>       0.96551402       0.99967296       0.90243905 </v>
    <v>       0.53441728       0.50165819       0.09910603 </v>
    <v>       0.46687395       0.50047987       0.90159393 </v>
    <v>       0.44982261       0.00371029       0.15586422 </v>
    <v>       0.54979496       0.00294815       0.84371162 </v>
    <v>       0.94857879       0.50325818       0.15468915 </v>
    <v>       0.05017282       0.50520468       0.84470804 </v>
    <v>       0.17997462       0.00216121       0.17809877 </v>
    <v>       0.81976589       0.00305061       0.82234591 </v>
    <v>       0.67976638       0.50289891       0.17714412 </v>
    <v>       0.32058218       0.50052776       0.82592357 </v>
    <v>       0.04849278       0.00132682       0.27004765 </v>
    <v>       0.95059416       0.00183017       0.73023753 </v>
    <v>       0.55000236       0.50160744       0.26993504 </v>
    <v>       0.45132638       0.50097006       0.72969205 </v>
    <v>       0.32532888       0.99978465       0.25017313 </v>
    <v>       0.67415490       0.99959819       0.74952295 </v>
    <v>       0.82519506       0.49921603       0.24935852 </v>
    <v>       0.17484119       0.49972143       0.75108977 </v>
    <v>       0.47615706       0.99837140       0.32590335 </v>
    <v>       0.52214187       0.99945973       0.66965715 </v>
    <v>       0.97591604       0.49956074       0.32643867 </v>
    <v>       0.02419606       0.49868242       0.67373043 </v>
    <v>       0.20684510       0.00166940       0.34951951 </v>
    <v>       0.79303227       0.00189452       0.65115041 </v>
    <v>       0.70770940       0.50205148       0.34921888 </v>
    <v>       0.29580906       0.49951874       0.65422314 </v>
    <v>       0.35461125       0.00081023       0.42726640 </v>
    <v>       0.64827269       0.99921923       0.57449420 </v>
    <v>       0.85266976       0.50024327       0.42537658 </v>
    <v>       0.14741139       0.49984003       0.57462536 </v>
    <v>       0.22338145       0.00172967       0.52398735 </v>
    <v>       0.77879827       0.00304477       0.48128094 </v>
    <v>       0.72197045       0.50290995       0.51856480 </v>
    <v>       0.27859853       0.50271178       0.48071595 </v>
    <v>       0.37490589       0.00185148       0.59791961 </v>
    <v>       0.62179899       0.00252295       0.40408090 </v>
    <v>       0.87861560       0.50274500       0.59603083 </v>
    <v>       0.12127861       0.50206274       0.40344831 </v>
    <v>       0.09113447       0.99297526       0.63133869 </v>
    <v>       0.90995192       0.99302995       0.36854123 </v>
    <v>       0.58977591       0.49290238       0.63099651 </v>
    <v>       0.40924777       0.49254239       0.36907530 </v>
    <v>       0.39118865       0.99879061       0.76717959 </v>
    <v>       0.60595149       0.00102140       0.23210598 </v>
    <v>       0.89451533       0.50095954       0.76831940 </v>
    <v>       0.10567615       0.50049144       0.23220213 </v>
    <v>       0.27548301       0.00303111       0.89742115 </v>
    <v>       0.72392412       0.00356495       0.10261046 </v>
    <v>       0.77527501       0.50361309       0.89631962 </v>
    <v>       0.22424117       0.50375333       0.10426229 </v>
    <v>       0.42960169       0.00443010       0.98761661 </v>
    <v>       0.57158805       0.00531112       0.01388396 </v>
    <v>       0.92814668       0.50225565       0.98716375 </v>
    <v>       0.07107298       0.50359683       0.01355030 </v>
   </varray>
  </structure>
  <varray name="forces" >
   <v>      -0.61441095       0.80167268       0.18956825 </v>
   <v>       0.00166883       0.00072794       0.00480041 </v>
   <v>      -0.00029997       0.00118739       0.00315081 </v>
   <v>      -0.00513081       0.00103699       0.00020029 </v>
   <v>      -0.00672378       0.00131052       0.00306544 </v>
   <v>       0.00093028       0.00128652      -0.00602301 </v>
   <v>       0.00069948       0.00059599       0.00235352 </v>
   <v>       0.00073632      -0.00013360      -0.00138752 </v>
   <v>      -0.00989502      -0.00053422       0.01156890 </v>
   <v>       0.00048492       0.00070000      -0.00893848 </v>
   <v>      -0.00017452       0.00118678       0.00156153 </v>
   <v>       0.00436600       0.00139884      -0.00047097 </v>
   <v>       0.00847908      -0.18186992      -0.01935332 </v>
   <v>       0.02495590      -0.00364376      -0.00801580 </v>
   <v>       0.00870286      -0.00375583      -0.00308788 </v>
   <v>      -0.00662321      -0.00303321      -0.00001542 </v>
   <v>      -0.00334239      -0.00280759       0.00087770 </v>
   <v>       0.02558053       0.05393855      -0.02661998 </v>
   <v>       0.00370201      -0.00149586       0.00260073 </v>
   <v>       0.00366684      -0.00118627       0.00274884 </v>
   <v>       0.01153363      -0.11674021      -0.01452548 </v>
   <v>       0.02530141       0.03614091       0.00388263 </v>
   <v>       0.00712545       0.00061891       0.00013454 </v>
   <v>       0.00034961       0.00085293       0.00280333 </v>
   <v>      -0.01261051       0.00089407      -0.01020617 </v>
   <v>      -0.00380700      -0.00026951      -0.00051083 </v>
   <v>       0.00078789      -0.00668734      -0.01274399 </v>
   <v>       0.00483992      -0.00279611       0.00703309 </v>
   <v>       0.00020444      -0.00213568      -0.00701841 </v>
   <v>      -0.00352777       0.00139730       0.00305367 </v>
   <v>       0.00036427       0.00113239      -0.00062736 </v>
   <v>       0.00104899       0.00115515       0.00086615 </v>
   <v>      -0.00170044       0.00087780       0.00041773 </v>
   <v>      -0.00342486       0.00163229       0.00526413 </v>
   <v>      -0.00147309       0.00176120      -0.00052379 </v>
   <v>       0.00098356       0.00154455      -0.00290981 </v>
   <v>       0.00105470       0.00171959       0.00058543 </v>
   <v>      -0.00616277       0.00027658       0.00821612 </v>
   <v>      -0.00246982       0.00166276       0.00360122 </v>
   <v>      -0.00017104       0.00286607       0.00030947 </v>
   <v>      -0.01021819      -0.00778775      -0.00064044 </v>
   <v>       0.00207722       0.00075951      -0.00221544 </v>
   <v>       0.01022656       0.00145910       0.01596209 </v>
   <v>       0.00268278       0.00080795       0.01195628 </v>
   <v>      -0.00470199       0.00156155       0.00308700 </v>
   <v>      -0.01029310       0.00109445      -0.00051965 </v>
   <v>      -0.00017480       0.00151358      -0.00273479 </v>
   <v>      -0.00096190       0.00166133      -0.00120845 </v>
   <v>      -0.04882666      -0.00478367       0.02697222 </v>
   <v>      -0.00107661      -0.00037635       0.00390697 </v>
   <v>       0.00330776       0.00052549       0.00018590 </v>
   <v>       0.00369894       0.00058876       0.00078047 </v>
   <v>       0.01003212       0.00767305       0.03871155 </v>
   <v>      -0.00545785      -0.00070921       0.00609803 </v>
   <v>      -0.00161361      -0.00149930      -0.00550680 </v>
   <v>       0.00084992      -0.00187833      -0.00004217 </v>
   <v>      -0.00832722      -0.00138005      -0.00085286 </v>
   <v>      -0.00683880      -0.00198658      -0.00165358 </v>
   <v>       0.09223075       0.00271978      -0.02256420 </v>
   <v>       0.00903069      -0.00073233      -0.00032631 </v>
   <v>       0.00614168      -0.00093529       0.00097872 </v>
   <v>      -0.00424962       0.00239539      -0.02543594 </v>
   <v>       0.00489500       0.00062066      -0.00094502 </v>
   <v>       0.00323611       0.00029281      -0.00003224 </v>
   <v>      -0.04527643      -0.32355844       0.02302409 </v>
   <v>       0.09243319       0.00203322      -0.04959777 </v>
   <v>      -0.00031666      -0.00290585       0.00387927 </v>
   <v>       0.00125228      -0.00214507       0.00081129 </v>
   <v>      -0.03677761      -0.00162305       0.00993680 </v>
   <v>       0.11530964      -0.11028210       0.11598415 </v>
   <v>       0.00352564      -0.00074700      -0.00140283 </v>
   <v>       0.00257899      -0.00053529      -0.00141268 </v>
   <v>      -0.01874194       0.02127230      -0.01755407 </v>
   <v>       0.37142219      -0.00522666      -0.14610168 </v>
   <v>      -0.00069898       0.00009265       0.00086007 </v>
   <v>       0.00189609       0.00058097       0.00038596 </v>
   <v>      -0.00162407      -0.01386135       0.01553349 </v>
   <v>      -0.00003026      -0.00177996       0.00085681 </v>
   <v>       0.00202420      -0.00232865      -0.00028314 </v>
   <v>       0.00214811      -0.00175210      -0.00585464 </v>
   <v>       0.00162874      -0.00190248      -0.00339339 </v>
   <v>       0.02305960      -0.16080408      -0.12479747 </v>
   <v>       0.00183453       0.00089227       0.00099592 </v>
   <v>      -0.00035964       0.00072757       0.00061350 </v>
   <v>      -0.00213221       0.00061612      -0.00226967 </v>
   <v>      -0.00299071       0.00020658       0.00155439 </v>
   <v>      -0.00141902       0.00108598       0.00104244 </v>
   <v>       0.00006640       0.00104182      -0.00108919 </v>
   <v>      -0.00212614       0.00135343       0.00151590 </v>
   <v>      -0.00329948       0.00152786      -0.00145307 </v>
   <v>       0.00026657       0.00200189      -0.00294650 </v>
   <v>      -0.00057230       0.00132096      -0.00211397 </v>
   <v>      -0.00436888       0.00060830       0.00362895 </v>
  </varray>
  <varray name="stress" >
   <v>       9.19501140       0.92937369      -1.69227154 </v>
   <v>       0.92937276       6.00340818      -0.58442617 </v>
   <v>      -1.69224734      -0.58442864       7.52938484 </v>
  </varray>
  <energy>
   <i name="e_fr_energy">   -813.88043108 </i>
   <i name="e_wo_entrp">   -813.85944870 </i>
   <i name="e_0_energy">   -813.86993989 </i>
  </energy>
  <time name="totalsc">  696.57  702.59</time>
 </calculation>
 <calculation>
  <scstep>
   <time name="dav">   50.91   51.37</time>
   <time name="total">   53.84   54.32</time>
   <energy>
    <i name="alphaZ">   3514.54571391 </i>
    <i name="ewald"> -37013.88971834 </i>
    <i name="hartreedc"> -18329.53760644 </i>
    <i name="XCdc">   2568.45589804 </i>
    <i name="pawpsdc">  39643.15639800 </i>
    <i name="pawaedc"> -39524.84091218 </i>
[...]
        <r>  0.0000  0.0001  0.0000  0.0000  0.0000  0.0000  0.0000  0.0000  0.0000 </r>
        <r>  0.0017  0.0001  0.0132  0.0022  0.0000  0.0000  0.0000  0.0000  0.0000 </r>
        <r>  0.0016  0.0001  0.0138  0.0017  0.0000  0.0000  0.0000  0.0000  0.0000 </r>
        <r>  0.0000  0.0000  0.0000  0.0000  0.0000  0.0000  0.0000  0.0000  0.0000 </r>
        <r>  0.0000  0.0002  0.0000  0.0000  0.0000  0.0000  0.0000  0.0000  0.0000 </r>
        <r>  0.0006  0.0000  0.0049  0.0002  0.0000  0.0000  0.0000  0.0000  0.0000 </r>
        <r>  0.0004  0.0000  0.0038  0.0000  0.0000  0.0000  0.0000  0.0000  0.0000 </r>
        <r>  0.0000  0.0001  0.0000  0.0000  0.0000  0.0000  0.0000  0.0000  0.0000 </r>
        <r>  0.0000  0.0001  0.0000  0.0000  0.0000  0.0000  0.0000  0.0000  0.0000 </r>
        <r>  0.0002  0.0000  0.0043  0.0019  0.0000  0.0000  0.0000  0.0000  0.0000 </r>
        <r>  0.0004  0.0000  0.0049  0.0014  0.0000  0.0000  0.0000  0.0000  0.0000 </r>
        <r>  0.0000  0.0001  0.0000  0.0000  0.0000  0.0000  0.0000  0.0000  0.0000 </r>
        <r>  0.0000  0.0007  0.0000  0.0000  0.0000  0.0000  0.0000  0.0000  0.0000 </r>
        <r>  0.0003  0.0002  0.0001  0.0011  0.0000  0.0000  0.0000  0.0000  0.0000 </r>
        <r>  0.0003  0.0001  0.0002  0.0011  0.0000  0.0000  0.0000  0.0000  0.0000 </r>
        <r>  0.0000  0.0001  0.0000  0.0000  0.0000  0.0000  0.0000  0.0000  0.0000 </r>
        <r>  0.0000  0.0000  0.0000  0.0000  0.0000  0.0000  0.0000  0.0000  0.0000 </r>
        <r>  0.0009  0.0000  0.0052  0.0012  0.0000  0.0000  0.0000  0.0000  0.0000 </r>
        <r>  0.0006  0.0000  0.0052  0.0001  0.0000  0.0000  0.0000  0.0000  0.0000 </r>
        <r>  0.0000  0.0000  0.0000  0.0000  0.0000  0.0000  0.0000  0.0000  0.0000 </r>
        <r>  0.0000  0.0002  0.0000  0.0000  0.0000  0.0000  0.0000  0.0000  0.0000 </r>
        <r>  0.0008  0.0002  0.0039  0.0168  0.0000  0.0000  0.0000  0.0000  0.0000 </r>
        <r>  0.0019  0.0003  0.0043  0.0152  0.0000  0.0000  0.0000  0.0000  0.0000 </r>
        <r>  0.0000  0.0000  0.0000  0.0000  0.0000  0.0000  0.0000  0.0000  0.0000 </r>
        <r>  0.0000  0.0001  0.0000  0.0000  0.0000  0.0000  0.0000  0.0000  0.0000 </r>
        <r>  0.0006  0.0000  0.0197  0.0007  0.0000  0.0000  0.0000  0.0000  0.0000 </r>
        <r>  0.0004  0.0000  0.0205  0.0008  0.0000  0.0000  0.0000  0.0000  0.0000 </r>
        <r>  0.0000  0.0000  0.0000  0.0000  0.0000  0.0000  0.0000  0.0000  0.0000 </r>
        <r>  0.0000  0.0007  0.0000  0.0000  0.0000  0.0000  0.0000  0.0000  0.0000 </r>
        <r>  0.0028  0.0006  0.0014  0.0077  0.0000  0.0000  0.0000  0.0000  0.0000 </r>
        <r>  0.0029  0.0003  0.0007  0.0104  0.0000  0.0000  0.0000  0.0000  0.0000 </r>
        <r>  0.0000  0.0004  0.0000  0.0000  0.0000  0.0000  0.0000  0.0000  0.0000 </r>
        <r>  0.0000  0.0000  0.0000  0.0000  0.0000  0.0000  0.0000  0.0000  0.0000 </r>
        <r>  0.0001  0.0000  0.0000  0.0004  0.0000  0.0000  0.0000  0.0000  0.0000 </r>
        <r>  0.0006  0.0000  0.0000  0.0002  0.0000  0.0000  0.0000  0.0000  0.0000 </r>
        <r>  0.0000  0.0103  0.0000  0.0000  0.0000  0.0000  0.0000  0.0000  0.0000 </r>
        <r>  0.0000  0.0075  0.0000  0.0000  0.0000  0.0000  0.0000  0.0000  0.0000 </r>
        <r>  0.0017  0.0000  0.0000  0.0006  0.0000  0.0000  0.0000  0.0000  0.0000 </r>
        <r>  0.0014  0.0000  0.0000  0.0002  0.0000  0.0000  0.0000  0.0000  0.0000 </r>
        <r>  0.0000  0.0007  0.0000  0.0000  0.0000  0.0000  0.0000  0.0000  0.0000 </r>
        <r>  0.0000  0.0002  0.0000  0.0000  0.0000  0.0000  0.0000  0.0000  0.0000 </r>
        <r>  0.0001  0.0000  0.0000  0.0000  0.0000  0.0000  0.0000  0.0000  0.0000 </r>
        <r>  0.0000  0.0000  0.0000  0.0000  0.0000  0.0000  0.0000  0.0000  0.0000 </r>
        <r>  0.0000  0.0011  0.0000  0.0000  0.0000  0.0000  0.0000  0.0000  0.0000 </r>
        <r>  0.0000  0.0005  0.0001  0.0000  0.0000  0.0000  0.0000  0.0000  0.0000 </r>
        <r>  0.0012  0.0000  0.0001  0.0002  0.0000  0.0000  0.0000  0.0000  0.0000 </r>
        <r>  0.0007  0.0000  0.0004  0.0012  0.0000  0.0000  0.0000  0.0000  0.0000 </r>
        <r>  0.0000  0.0109  0.0000  0.0000  0.0000  0.0000  0.0000  0.0000  0.0000 </r>
        <r>  0.0000  0.0101  0.0000  0.0000  0.0000  0.0000  0.0000  0.0000  0.0000 </r>
        <r>  0.0000  0.0000  0.0007  0.0000  0.0000  0.0000  0.0000  0.0000  0.0000 </r>
        <r>  0.0001  0.0000  0.0002  0.0000  0.0000  0.0000  0.0000  0.0000  0.0000 </r>
        <r>  0.0000  0.0024  0.0000  0.0000  0.0000  0.0000  0.0000  0.0000  0.0000 </r>
        <r>  0.0000  0.0033  0.0000  0.0000  0.0000  0.0000  0.0000  0.0000  0.0000 </r>
        <r>  0.0001  0.0000  0.0000  0.0000  0.0000  0.0000  0.0000  0.0000  0.0000 </r>
        <r>  0.0001  0.0000  0.0000  0.0000  0.0000  0.0000  0.0000  0.0000  0.0000 </r>
        <r>  0.0000  0.0000  0.0005  0.0003  0.0000  0.0000  0.0000  0.0000  0.0000 </r>
        <r>  0.0000  0.0000  0.0005  0.0003  0.0000  0.0000  0.0000  0.0000  0.0000 </r>
       </set>
       <set comment="band 462">
        <r>  0.0025  0.0003  0.0032  0.0251  0.0000  0.0000  0.0000  0.0000  0.0000 </r>
        <r>  0.0001  0.0000  0.0002  0.0003  0.0000  0.0000  0.0008  0.0002  0.0041 </r>
        <r>  0.0000  0.0000  0.0001  0.0003  0.0000  0.0000  0.0001  0.0003  0.0014 </r>
        <r>  0.0000  0.0000  0.0001  0.0000  0.0000  0.0000  0.0000  0.0000  0.0004 </r>
        <r>  0.0000  0.0000  0.0000  0.0000  0.0001  0.0000  0.0001  0.0001  0.0002 </r>
        <r>  0.0000  0.0000  0.0000  0.0000  0.0000  0.0000  0.0003  0.0011  0.0015 </r>
        <r>  0.0003  0.0000  0.0004  0.0001  0.0000  0.0000  0.0000  0.0003  0.0029 </r>
        <r>  0.0000  0.0000  0.0000  0.0000  0.0000  0.0001  0.0000  0.0000  0.0003 </r>
        <r>  0.0000  0.0006  0.0000  0.0000  0.0012  0.0039  0.0000  0.0000  0.0003 </r>
        <r>  0.0002  0.0000  0.0000  0.0003  0.0000  0.0000  0.0006  0.0000  0.0004 </r>
        <r>  0.0000  0.0000  0.0003  0.0001  0.0000  0.0000  0.0008  0.0008  0.0003 </r>
        <r>  0.0000  0.0001  0.0000  0.0000  0.0000  0.0000  0.0000  0.0000  0.0000 </r>
        <r>  0.0000  0.0020  0.0001  0.0000  0.0173  0.0017  0.0006  0.0004  0.0001 </r>
        <r>  0.0016  0.0001  0.0001  0.0002  0.0000  0.0000  0.0001  0.0036  0.0083 </r>
        <r>  0.0004  0.0000  0.0004  0.0000  0.0000  0.0000  0.0036  0.0024  0.0004 </r>
        <r>  0.0000  0.0000  0.0001  0.0000  0.0000  0.0000  0.0006  0.0007  0.0004 </r>
        <r>  0.0000  0.0004  0.0001  0.0000  0.0003  0.0000  0.0007  0.0000  0.0000 </r>
        <r>  0.0002  0.0000  0.0001  0.0005  0.0000  0.0000  0.0009  0.0001  0.0013 </r>
        <r>  0.0000  0.0000  0.0001  0.0000  0.0000  0.0000  0.0001  0.0000  0.0003 </r>
        <r>  0.0000  0.0000  0.0000  0.0001  0.0002  0.0000  0.0000  0.0001  0.0002 </r>
        <r>  0.0000  0.0015  0.0001  0.0000  0.0011  0.0055  0.0000  0.0000  0.0000 </r>
        <r>  0.0000  0.0000  0.0000  0.0006  0.0000  0.0000  0.0006  0.0010  0.0053 </r>
        <r>  0.0004  0.0000  0.0000  0.0011  0.0000  0.0000  0.0003  0.0003  0.0011 </r>
        <r>  0.0000  0.0000  0.0000  0.0000  0.0000  0.0001  0.0001  0.0000  0.0000 </r>
        <r>  0.0000  0.0000  0.0000  0.0001  0.0001  0.0001  0.0005  0.0004  0.0001 </r>
        <r>  0.0000  0.0000  0.0000  0.0000  0.0000  0.0001  0.0000  0.0000  0.0000 </r>
        <r>  0.0000  0.0000  0.0000  0.0000  0.0000  0.0000  0.0002  0.0000  0.0000 </r>
        <r>  0.0000  0.0017  0.0003  0.0001  0.0000  0.0000  0.0000  0.0000  0.0000 </r>
        <r>  0.0003  0.0002  0.0012  0.0000  0.0000  0.0000  0.0000  0.0000  0.0000 </r>
        <r>  0.0000  0.0000  0.0000  0.0000  0.0000  0.0000  0.0000  0.0000  0.0000 </r>
        <r>  0.0000  0.0001  0.0000  0.0000  0.0000  0.0000  0.0000  0.0000  0.0000 </r>
        <r>  0.0000  0.0004  0.0000  0.0000  0.0000  0.0000  0.0000  0.0000  0.0000 </r>
        <r>  0.0000  0.0023  0.0000  0.0000  0.0000  0.0000  0.0000  0.0000  0.0000 </r>
        <r>  0.0001  0.0000  0.0001  0.0005  0.0000  0.0000  0.0000  0.0000  0.0000 </r>
        <r>  0.0000  0.0000  0.0001  0.0006  0.0000  0.0000  0.0000  0.0000  0.0000 </r>
        <r>  0.0000  0.0001  0.0000  0.0001  0.0000  0.0000  0.0000  0.0000  0.0000 </r>
        <r>  0.0000  0.0009  0.0000  0.0001  0.0000  0.0000  0.0000  0.0000  0.0000 </r>
        <r>  0.0000  0.0000  0.0001  0.0000  0.0000  0.0000  0.0000  0.0000  0.0000 </r>
        <r>  0.0001  0.0000  0.0002  0.0000  0.0000  0.0000  0.0000  0.0000  0.0000 </r>
        <r>  0.0000  0.0000  0.0000  0.0000  0.0000  0.0000  0.0000  0.0000  0.0000 </r>
        <r>  0.0001  0.0012  0.0001  0.0001  0.0000  0.0000  0.0000  0.0000  0.0000 </r>
        <r>  0.0001  0.0000  0.0000  0.0000  0.0000  0.0000  0.0000  0.0000  0.0000 </r>
        <r>  0.0001  0.0000  0.0000  0.0000  0.0000  0.0000  0.0000  0.0000  0.0000 </r>
        <r>  0.0000  0.0000  0.0001  0.0000  0.0000  0.0000  0.0000  0.0000  0.0000 </r>
        <r>  0.0000  0.0000  0.0000  0.0000  0.0000  0.0000  0.0000  0.0000  0.0000 </r>
        <r>  0.0001  0.0000  0.0000  0.0003  0.0000  0.0000  0.0000  0.0000  0.0000 </r>
        <r>  0.0000  0.0000  0.0003  0.0004  0.0000  0.0000  0.0000  0.0000  0.0000 </r>
        <r>  0.0000  0.0001  0.0000  0.0000  0.0000  0.0000  0.0000  0.0000  0.0000 </r>
        <r>  0.0000  0.0160  0.0001  0.0001  0.0000  0.0000  0.0000  0.0000  0.0000 </r>
        <r>  0.0000  0.0000  0.0000  0.0000  0.0000  0.0000  0.0000  0.0000  0.0000 </r>
        <r>  0.0000  0.0000  0.0000  0.0004  0.0000  0.0000  0.0000  0.0000  0.0000 </r>
        <r>  0.0000  0.0001  0.0000  0.0000  0.0000  0.0000  0.0000  0.0000  0.0000 </r>
        <r>  0.0000  0.0025  0.0000  0.0000  0.0000  0.0000  0.0000  0.0000  0.0000 </r>
        <r>  0.0000  0.0000  0.0001  0.0000  0.0000  0.0000  0.0000  0.0000  0.0000 </r>
        <r>  0.0004  0.0000  0.0008  0.0001  0.0000  0.0000  0.0000  0.0000  0.0000 </r>
        <r>  0.0000  0.0001  0.0001  0.0000  0.0000  0.0000  0.0000  0.0000  0.0000 </r>
        <r>  0.0000  0.0126  0.0001  0.0001  0.0000  0.0000  0.0000  0.0000  0.0000 </r>
        <r>  0.0004  0.0001  0.0005  0.0024  0.0000  0.0000  0.0000  0.0000  0.0000 </r>
        <r>  0.0001  0.0000  0.0000  0.0009  0.0000  0.0000  0.0000  0.0000  0.0000 </r>
        <r>  0.0000  0.0002  0.0001  0.0003  0.0000  0.0000  0.0000  0.0000  0.0000 </r>
        <r>  0.0000  0.0013  0.0000  0.0000  0.0000  0.0000  0.0000  0.0000  0.0000 </r>
        <r>  0.0001  0.0000  0.0004  0.0000  0.0000  0.0000  0.0000  0.0000  0.0000 </r>
        <r>  0.0000  0.0000  0.0003  0.0000  0.0000  0.0000  0.0000  0.0000  0.0000 </r>
        <r>  0.0000  0.0001  0.0000  0.0000  0.0000  0.0000  0.0000  0.0000  0.0000 </r>
        <r>  0.0000  0.0318  0.0001  0.0000  0.0000  0.0000  0.0000  0.0000  0.0000 </r>
        <r>  0.0010  0.0002  0.0001  0.0011  0.0000  0.0000  0.0000  0.0000  0.0000 </r>
        <r>  0.0000  0.0000  0.0000  0.0001  0.0000  0.0000  0.0000  0.0000  0.0000 </r>
        <r>  0.0000  0.0006  0.0000  0.0003  0.0000  0.0000  0.0000  0.0000  0.0000 </r>
        <r>  0.0000  0.0203  0.0000  0.0000  0.0000  0.0000  0.0000  0.0000  0.0000 </r>
        <r>  0.0030  0.0000  0.0017  0.0057  0.0000  0.0000  0.0000  0.0000  0.0000 </r>
        <r>  0.0000  0.0001  0.0000  0.0001  0.0000  0.0000  0.0000  0.0000  0.0000 </r>
        <r>  0.0000  0.0002  0.0000  0.0000  0.0000  0.0000  0.0000  0.0000  0.0000 </r>
        <r>  0.0000  0.0001  0.0000  0.0000  0.0000  0.0000  0.0000  0.0000  0.0000 </r>
        <r>  0.0007  0.0001  0.0003  0.0007  0.0000  0.0000  0.0000  0.0000  0.0000 </r>
        <r>  0.0001  0.0000  0.0000  0.0002  0.0000  0.0000  0.0000  0.0000  0.0000 </r>
        <r>  0.0000  0.0002  0.0000  0.0000  0.0000  0.0000  0.0000  0.0000  0.0000 </r>
        <r>  0.0000  0.0023  0.0001  0.0001  0.0000  0.0000  0.0000  0.0000  0.0000 </r>
        <r>  0.0024  0.0001  0.0002  0.0036  0.0000  0.0000  0.0000  0.0000  0.0000 </r>
        <r>  0.0001  0.0000  0.0001  0.0000  0.0000  0.0000  0.0000  0.0000  0.0000 </r>
        <r>  0.0000  0.0004  0.0000  0.0000  0.0000  0.0000  0.0000  0.0000  0.0000 </r>
        <r>  0.0000  0.0011  0.0000  0.0000  0.0000  0.0000  0.0000  0.0000  0.0000 </r>
        <r>  0.0029  0.0002  0.0006  0.0069  0.0000  0.0000  0.0000  0.0000  0.0000 </r>
        <r>  0.0001  0.0000  0.0000  0.0001  0.0000  0.0000  0.0000  0.0000  0.0000 </r>
        <r>  0.0000  0.0000  0.0000  0.0000  0.0000  0.0000  0.0000  0.0000  0.0000 </r>
        <r>  0.0000  0.0004  0.0000  0.0000  0.0000  0.0000  0.0000  0.0000  0.0000 </r>
        <r>  0.0011  0.0001  0.0025  0.0001  0.0000  0.0000  0.0000  0.0000  0.0000 </r>
        <r>  0.0000  0.0001  0.0000  0.0000  0.0000  0.0000  0.0000  0.0000  0.0000 </r>
        <r>  0.0000  0.0009  0.0000  0.0000  0.0000  0.0000  0.0000  0.0000  0.0000 </r>
        <r>  0.0000  0.0002  0.0000  0.0000  0.0000  0.0000  0.0000  0.0000  0.0000 </r>
        <r>  0.0000  0.0000  0.0001  0.0000  0.0000  0.0000  0.0000  0.0000  0.0000 </r>
        <r>  0.0000  0.0000  0.0000  0.0001  0.0000  0.0000  0.0000  0.0000  0.0000 </r>
        <r>  0.0000  0.0000  0.0000  0.0000  0.0000  0.0000  0.0000  0.0000  0.0000 </r>
        <r>  0.0000  0.0000  0.0000  0.0000  0.0000  0.0000  0.0000  0.0000  0.0000 </r>
       </set>
      </set>
     </set>
    </set>
   </array>
  </projected>
 </calculation>
 <structure name="finalpos" >
  <crystal>
   <varray name="basis" >
    <v>      22.78514290       0.00000000       0.00000000 </v>
    <v>       0.00000000       3.87685037       0.00000000 </v>
    <v>      -9.97305163       0.00000241      15.12824818 </v>
   </varray>
   <i name="volume">   1336.34759474 </i>
   <varray name="rec_basis" >
    <v>       0.04388825       0.00000000       0.02893261 </v>
    <v>       0.00000000       0.25794135      -0.00000004 </v>
    <v>       0.00000000       0.00000000       0.06610151 </v>
   </varray>
  </crystal>
  <varray name="positions" >
   <v>       0.31475765       0.96475568       0.63713233 </v>
   <v>       0.36716214       0.00374721       0.04589736 </v>
   <v>       0.63404903       0.00456957       0.95373185 </v>
   <v>       0.86529731       0.50664704       0.04426704 </v>
   <v>       0.13147479       0.50863332       0.95525580 </v>
   <v>       0.24876779       0.00287076       0.13731121 </v>
   <v>       0.75239898       0.00222698       0.86140983 </v>
   <v>       0.74803306       0.50147206       0.13764695 </v>
   <v>       0.24983701       0.49995638       0.86479050 </v>
   <v>       0.13035674       0.99364396       0.23082529 </v>
   <v>       0.86938923       0.99872080       0.76727657 </v>
   <v>       0.63214763       0.49908253       0.23290221 </v>
   <v>       0.37230159       0.47262641       0.77568369 </v>
   <v>       0.42005601       0.96654242       0.37868311 </v>
   <v>       0.58486168       0.96455847       0.61680466 </v>
   <v>       0.91775971       0.46540418       0.38141876 </v>
   <v>       0.08276947       0.46394366       0.61974033 </v>
   <v>       0.29872467      -0.00167249       0.46728861 </v>
   <v>       0.70329233       0.00339760       0.52585187 </v>
   <v>       0.79935755       0.50349029       0.47320391 </v>
   <v>       0.19834587       0.48544721       0.52204071 </v>
   <v>       0.46784958      -0.01083484       0.71214095 </v>
   <v>       0.53769465       0.00274938       0.28646972 </v>
   <v>       0.96424271       0.50078796       0.71240202 </v>
   <v>       0.03270791       0.49792707       0.28295396 </v>
   <v>       0.99959272       0.25083438       0.00049097 </v>
   <v>       0.50066812       0.74512622       0.00016790 </v>
   <v>       0.00039875       0.48832420       0.50054775 </v>
   <v>       0.50086339       0.98976607       0.49902751 </v>
   <v>       0.14871094       0.00287834       0.99125109 </v>
   <v>       0.85034006       0.00318943       0.00863006 </v>
   <v>       0.64927935       0.50186474       0.99032637 </v>
   <v>       0.35110823       0.49954645       0.00909655 </v>
   <v>       0.30335306      -0.00008250       0.08128761 </v>
   <v>       0.69631788       0.00316932       0.91696970 </v>
   <v>       0.80312034       0.50330203       0.08108226 </v>
   <v>       0.19617197       0.49685799       0.91946518 </v>
   <v>       0.03379138       0.99760917       0.09893240 </v>
   <v>       0.96589471       0.99982689       0.90246735 </v>
   <v>       0.53438239       0.49827039       0.09837392 </v>
   <v>       0.46654629       0.48935149       0.90042260 </v>
   <v>       0.45014042       0.00236167       0.15519675 </v>
   <v>       0.55014208      -0.00554051       0.84378191 </v>
   <v>       0.94918733       0.49917820       0.15542827 </v>
   <v>       0.05008856       0.50558433       0.84482239 </v>
   <v>       0.18015238      -0.00022350       0.17769349 </v>
   <v>       0.82056892       0.00336933       0.82282992 </v>
   <v>       0.67991033       0.50346613       0.17631179 </v>
   <v>       0.32032305       0.48310495       0.82434529 </v>
   <v>       0.04921917      -0.00375794       0.27066906 </v>
   <v>       0.95083223       0.00159106       0.73010778 </v>
   <v>       0.55062604       0.50206063       0.26905561 </v>
   <v>       0.45256161       0.48649968       0.72910173 </v>
   <v>       0.32594937       0.99950697       0.24930760 </v>
   <v>       0.67538151       0.99756765       0.74931502 </v>
   <v>       0.82563328       0.49737044       0.24943192 </v>
   <v>       0.17491336       0.49782995       0.75101448 </v>
   <v>       0.47731232       1.00043499       0.32545751 </v>
   <v>       0.52558001       0.99458766       0.67185478 </v>
   <v>       0.97716215       0.49844825       0.32755860 </v>
   <v>       0.02465686       0.49500293       0.67390397 </v>
   <v>       0.20679511      -0.00539025       0.34896867 </v>
   <v>       0.79328481       0.00216600       0.65097579 </v>
   <v>       0.70826397       0.50211787       0.34866926 </v>
   <v>       0.29672405       0.47760532       0.65306553 </v>
   <v>       0.35372219       0.00236470       0.42294436 </v>
   <v>       0.64862067       0.99864712       0.57322474 </v>
   <v>       0.85326258       0.49930752       0.42530289 </v>
   <v>       0.14814750       0.48914570       0.57437839 </v>
   <v>       0.22530268      -0.01422048       0.52441016 </v>
   <v>       0.77938813       0.00300519       0.48089958 </v>
   <v>       0.72258780       0.50294323       0.51800358 </v>
   <v>       0.27973744       0.49290432       0.47952437 </v>
   <v>       0.37737535      -0.01159478       0.59585921 </v>
   <v>       0.62268578       0.00272081       0.40325914 </v>
   <v>       0.87892401       0.50307999       0.59584818 </v>
   <v>       0.12258278       0.48893801       0.40369721 </v>
   <v>       0.09152002       0.98867627       0.63119397 </v>
   <v>       0.91047621       0.99126024       0.36843615 </v>
   <v>       0.59155144       0.49034507       0.62986213 </v>
   <v>       0.41111852       0.49276044       0.36753499 </v>
   <v>       0.39107796       0.97831253       0.76478254 </v>
   <v>       0.60640007       0.00113926       0.23121932 </v>
   <v>       0.89470600       0.50103217       0.76818160 </v>
   <v>       0.10569056       0.49630736       0.23165968 </v>
   <v>       0.27557414      -0.00270480       0.89699264 </v>
   <v>       0.72425568       0.00230876       0.10255375 </v>
   <v>       0.77584973       0.50298048       0.89672274 </v>
   <v>       0.22440655       0.50221201       0.10391563 </v>
   <v>       0.42932762      -0.00292736       0.98629828 </v>
   <v>       0.57096606      -0.00017040       0.01271848 </v>
   <v>       0.92834526       0.50246138       0.98708129 </v>
   <v>       0.07140346       0.50226719       0.01396653 </v>
  </varray>
 </structure>
</modeling>
