 running on   64 total cores
 each image running on   16 cores
 distrk:  each k-point on   16 cores,    1 groups
 distr:  one band on    2 cores,    8 groups
 vasp.5.4.4.18Apr17-6-g9f103f2a35 (build Aug 09 2024 17:42:55) complex          
  
 POSCAR found type information on POSCAR  Pd C  O 
 01/POSCAR found :  3 types and      39 ions
 scaLAPACK will be used
 LDA part: xc-table for Pade appr. of Perdew
 POSCAR found type information on POSCAR  Pd C  O 
 00/POSCAR found :  3 types and      39 ions
 POSCAR found type information on POSCAR  Pd C  O 
 05/POSCAR found :  3 types and      39 ions
 Jacobian:    18.3422329801906     
 POSCAR, INCAR and KPOINTS ok, starting setup
 FFT: planning ...
 WAVECAR not read
 entering main loop
       N       E                     dE             d eps       ncg     rms          rms(c)
DAV:   1     0.211073120238E+04    0.21107E+04   -0.15216E+05 11144   0.114E+03
DAV:   2    -0.896639810037E+02   -0.22004E+04   -0.20677E+04 12072   0.290E+02
DAV:   3    -0.205417822465E+03   -0.11575E+03   -0.10521E+03 12536   0.609E+01
DAV:   4    -0.209134884885E+03   -0.37171E+01   -0.36228E+01 12760   0.110E+01
DAV:   5    -0.209261452892E+03   -0.12657E+00   -0.12639E+00 12648   0.206E+00    0.471E+01
DAV:   6    -0.206994909050E+03    0.22665E+01   -0.43803E+01 12512   0.275E+01    0.398E+01
DAV:   7    -0.207862643843E+03   -0.86773E+00   -0.19878E+01 12688   0.227E+01    0.296E+01
DAV:   8    -0.232802920151E+03   -0.24940E+02   -0.36847E+01 12232   0.469E+01    0.485E+01
DAV:   9    -0.207978937238E+03    0.24824E+02   -0.35955E+01 12000   0.292E+01    0.311E+01
DAV:  10    -0.198994478471E+03    0.89845E+01   -0.23384E+01 11520   0.193E+01    0.125E+01
DAV:  11    -0.198785082049E+03    0.20940E+00   -0.79445E+00 11656   0.135E+01    0.141E+01
DAV:  12    -0.197447712640E+03    0.13374E+01   -0.41947E+00 11496   0.105E+01    0.733E+00
DAV:  13    -0.197127023628E+03    0.32069E+00   -0.19092E+00 11632   0.734E+00    0.565E+00
DAV:  14    -0.196816819485E+03    0.31020E+00   -0.60673E-01 12200   0.393E+00    0.303E+00
DAV:  15    -0.196757283288E+03    0.59536E-01   -0.17749E-01 11528   0.206E+00    0.248E+00
DAV:  16    -0.196753058235E+03    0.42251E-02   -0.10733E-01 11736   0.158E+00    0.239E+00
DAV:  17    -0.196758239337E+03   -0.51811E-02   -0.11296E-01 11592   0.166E+00    0.219E+00
DAV:  18    -0.196730211107E+03    0.28028E-01   -0.81077E-02 11600   0.153E+00    0.114E+00
DAV:  19    -0.196719181041E+03    0.11030E-01   -0.25035E-02 11672   0.873E-01    0.525E-01
DAV:  20    -0.196718257526E+03    0.92351E-03   -0.79407E-03 11584   0.418E-01    0.334E-01
DAV:  21    -0.196718336139E+03   -0.78613E-04   -0.23632E-03 11680   0.244E-01    0.194E-01
DAV:  22    -0.196719684764E+03   -0.13486E-02   -0.15667E-03 11552   0.183E-01    0.174E-01
DAV:  23    -0.196720566838E+03   -0.88207E-03   -0.92566E-04 11856   0.146E-01    0.107E-01
DAV:  24    -0.196720880361E+03   -0.31352E-03   -0.41135E-04 11728   0.951E-02    0.754E-02
DAV:  25    -0.196721145726E+03   -0.26537E-03   -0.19189E-04 11616   0.677E-02    0.582E-02
DAV:  26    -0.196721252760E+03   -0.10703E-03   -0.84915E-05 10576   0.461E-02    0.336E-02
DAV:  27    -0.196721372925E+03   -0.12016E-03   -0.44482E-05  8744   0.316E-02    0.304E-02
DAV:  28    -0.196721493656E+03   -0.12073E-03   -0.34208E-05  8760   0.256E-02    0.249E-02
DAV:  29    -0.196721573038E+03   -0.79382E-04   -0.19458E-05  7120   0.206E-02    0.134E-02
DAV:  30    -0.196721625532E+03   -0.52494E-04   -0.90296E-06  6968   0.120E-02    0.127E-02
DAV:  31    -0.196721663538E+03   -0.38006E-04   -0.54486E-06  6960   0.922E-03    0.789E-03
DAV:  32    -0.196721679607E+03   -0.16070E-04   -0.24000E-06  6896   0.568E-03    0.520E-03
DAV:  33    -0.196721694177E+03   -0.14570E-04   -0.22921E-06  6920   0.468E-03    0.297E-03
DAV:  34    -0.196721698868E+03   -0.46910E-05   -0.87311E-07  6744   0.292E-03
   1 F= -.19672170E+03 E0= -.19418323E+03  d E =-.196722E+03
quench:  g(F)=  0.000E+00 g(S)=  0.000E+00 dE (1.order)= 0.000E+00
 bond charge predicted
       N       E                     dE             d eps       ncg     rms          rms(c)
DAV:   1    -0.198117500223E+03   -0.13958E+01   -0.96244E+01 11136   0.190E+01    0.656E+00
DAV:   2    -0.198674934046E+03   -0.55743E+00   -0.32542E+00 11592   0.570E+00    0.911E+00
DAV:   3    -0.198374354951E+03    0.30058E+00   -0.93796E-01 11720   0.437E+00    0.538E+00
DAV:   4    -0.198859101454E+03   -0.48475E+00   -0.14476E+00 11864   0.604E+00    0.781E+00
DAV:   5    -0.198457296684E+03    0.40180E+00   -0.12314E+00 12264   0.574E+00    0.395E+00
DAV:   6    -0.198352424697E+03    0.10487E+00   -0.34329E-01 11832   0.337E+00    0.223E+00
DAV:   7    -0.198320309707E+03    0.32115E-01   -0.13925E-01 11624   0.197E+00    0.136E+00
DAV:   8    -0.198302659742E+03    0.17650E-01   -0.39966E-02 11496   0.109E+00    0.444E-01
DAV:   9    -0.198300928641E+03    0.17311E-02   -0.63938E-03 11496   0.361E-01    0.206E-01
DAV:  10    -0.198300902330E+03    0.26312E-04   -0.19037E-03 11576   0.181E-01    0.164E-01
DAV:  11    -0.198300876271E+03    0.26059E-04   -0.67218E-04 11736   0.130E-01    0.126E-01
DAV:  12    -0.198300900707E+03   -0.24437E-04   -0.39933E-04 11688   0.103E-01    0.960E-02
DAV:  13    -0.198300853773E+03    0.46934E-04   -0.15379E-04 11640   0.662E-02    0.404E-02
DAV:  14    -0.198300863782E+03   -0.10008E-04   -0.49698E-05  9032   0.340E-02    0.312E-02
DAV:  15    -0.198300876030E+03   -0.12248E-04   -0.20863E-05  6776   0.228E-02    0.145E-02
DAV:  16    -0.198300883099E+03   -0.70688E-05   -0.64562E-06  6720   0.127E-02
   2 F= -.19830088E+03 E0= -.19575266E+03  d E =-.157918E+01
quench:  g(F)=  0.000E+00 g(S)=  0.000E+00 dE (1.order)= 0.000E+00
 bond charge predicted
       N       E                     dE             d eps       ncg     rms          rms(c)
DAV:   1    -0.199843004414E+03   -0.15421E+01   -0.17893E+02 11136   0.288E+01    0.370E+00
DAV:   2    -0.200674972156E+03   -0.83197E+00   -0.74487E+00 11672   0.512E+00    0.547E+00
DAV:   3    -0.200635328142E+03    0.39644E-01   -0.94440E-01 11808   0.426E+00    0.426E+00
DAV:   4    -0.200576757671E+03    0.58570E-01   -0.76809E-01 12200   0.395E+00    0.362E+00
DAV:   5    -0.200512063138E+03    0.64695E-01   -0.30666E-01 12080   0.276E+00    0.272E+00
DAV:   6    -0.200493784155E+03    0.18279E-01   -0.13034E-01 11920   0.189E+00    0.210E+00
DAV:   7    -0.200465315816E+03    0.28468E-01   -0.73215E-02 11784   0.153E+00    0.115E+00
DAV:   8    -0.200462625339E+03    0.26905E-02   -0.38396E-02 11728   0.101E+00    0.847E-01
DAV:   9    -0.200456698949E+03    0.59264E-02   -0.17199E-02 11424   0.677E-01    0.312E-01
DAV:  10    -0.200456481434E+03    0.21752E-03   -0.38694E-03 11408   0.285E-01    0.223E-01
DAV:  11    -0.200456236189E+03    0.24524E-03   -0.91864E-04 11400   0.157E-01    0.108E-01
DAV:  12    -0.200456308998E+03   -0.72809E-04   -0.43790E-04 11648   0.105E-01    0.869E-02
DAV:  13    -0.200456406074E+03   -0.97076E-04   -0.25461E-04 11576   0.775E-02    0.457E-02
DAV:  14    -0.200456460594E+03   -0.54520E-04   -0.94315E-05 11608   0.489E-02    0.322E-02
DAV:  15    -0.200456512400E+03   -0.51806E-04   -0.46228E-05  8304   0.334E-02    0.241E-02
DAV:  16    -0.200456554717E+03   -0.42318E-04   -0.18215E-05  7096   0.215E-02    0.120E-02
DAV:  17    -0.200456599807E+03   -0.45090E-04   -0.11285E-05  6920   0.150E-02    0.130E-02
DAV:  18    -0.200456668888E+03   -0.69081E-04   -0.11194E-05  7080   0.129E-02    0.731E-03
DAV:  19    -0.200456698088E+03   -0.29200E-04   -0.51982E-06  6912   0.934E-03    0.617E-03
DAV:  20    -0.200456727104E+03   -0.29016E-04   -0.37257E-06  6824   0.624E-03    0.460E-03
DAV:  21    -0.200456736195E+03   -0.90916E-05   -0.14372E-06  6752   0.452E-03
   3 F= -.20045674E+03 E0= -.19791040E+03  d E =-.215585E+01
quench:  g(F)=  0.000E+00 g(S)=  0.000E+00 dE (1.order)= 0.000E+00
 bond charge predicted
       N       E                     dE             d eps       ncg     rms          rms(c)
DAV:   1    -0.201457104449E+03   -0.10004E+01   -0.18517E+02 11136   0.276E+01    0.508E+00
DAV:   2    -0.202230785145E+03   -0.77368E+00   -0.79540E+00 11368   0.431E+00    0.414E+00
DAV:   3    -0.202554117094E+03   -0.32333E+00   -0.15987E+00 12224   0.539E+00    0.716E+00
DAV:   4    -0.202177483166E+03    0.37663E+00   -0.13285E+00 12112   0.520E+00    0.383E+00
DAV:   5    -0.202057075806E+03    0.12041E+00   -0.32968E-01 12208   0.289E+00    0.203E+00
DAV:   6    -0.202057023551E+03    0.52255E-04   -0.18022E-01 11728   0.212E+00    0.208E+00
DAV:   7    -0.202013412557E+03    0.43611E-01   -0.99674E-02 11592   0.178E+00    0.997E-01
DAV:   8    -0.202006480856E+03    0.69317E-02   -0.32529E-02 11744   0.952E-01    0.633E-01
DAV:   9    -0.202003724978E+03    0.27559E-02   -0.12200E-02 11776   0.559E-01    0.416E-01
DAV:  10    -0.202002330290E+03    0.13947E-02   -0.37384E-03 11688   0.329E-01    0.191E-01
DAV:  11    -0.202002328981E+03    0.13090E-05   -0.12470E-03 11688   0.179E-01    0.151E-01
DAV:  12    -0.202002250017E+03    0.78964E-04   -0.62722E-04 11792   0.135E-01    0.734E-02
DAV:  13    -0.202002388741E+03   -0.13872E-03   -0.29119E-04 11576   0.834E-02    0.664E-02
DAV:  14    -0.202002589536E+03   -0.20079E-03   -0.20355E-04 11360   0.690E-02    0.483E-02
DAV:  15    -0.202002661260E+03   -0.71724E-04   -0.80159E-05 10344   0.463E-02    0.267E-02
DAV:  16    -0.202002778030E+03   -0.11677E-03   -0.47450E-05  8608   0.307E-02    0.270E-02
DAV:  17    -0.202002870010E+03   -0.91980E-04   -0.25097E-05  7272   0.241E-02    0.148E-02
DAV:  18    -0.202002951315E+03   -0.81305E-04   -0.15771E-05  7176   0.170E-02    0.150E-02
DAV:  19    -0.202003021663E+03   -0.70348E-04   -0.11079E-05  7192   0.138E-02    0.599E-03
DAV:  20    -0.202003055983E+03   -0.34320E-04   -0.45767E-06  6928   0.748E-03    0.659E-03
DAV:  21    -0.202003082277E+03   -0.26294E-04   -0.32990E-06  6920   0.626E-03    0.349E-03
DAV:  22    -0.202003092279E+03   -0.10002E-04   -0.14432E-06  6760   0.411E-03    0.353E-03
DAV:  23    -0.202003097751E+03   -0.54716E-05   -0.78386E-07  6736   0.313E-03
   4 F= -.20200310E+03 E0= -.19945353E+03  d E =-.154636E+01
quench:  g(F)=  0.000E+00 g(S)=  0.000E+00 dE (1.order)= 0.000E+00
 bond charge predicted
       N       E                     dE             d eps       ncg     rms          rms(c)
DAV:   1    -0.202083726998E+03   -0.80635E-01   -0.12565E+01 11136   0.669E+00    0.886E-01
DAV:   2    -0.202111346137E+03   -0.27619E-01   -0.30118E-01 11408   0.125E+00    0.101E+00
DAV:   3    -0.202116001821E+03   -0.46557E-02   -0.48040E-02 11968   0.107E+00    0.119E+00
DAV:   4    -0.202108334735E+03    0.76671E-02   -0.37492E-02 11896   0.905E-01    0.677E-01
DAV:   5    -0.202105657920E+03    0.26768E-02   -0.11858E-02 11488   0.607E-01    0.469E-01
DAV:   6    -0.202105449070E+03    0.20885E-03   -0.79320E-03 11888   0.499E-01    0.439E-01
DAV:   7    -0.202104336630E+03    0.11124E-02   -0.46688E-03 11520   0.375E-01    0.272E-01
DAV:   8    -0.202103627349E+03    0.70928E-03   -0.15700E-03 11480   0.223E-01    0.766E-02
DAV:   9    -0.202103629900E+03   -0.25507E-05   -0.30807E-04 11440   0.821E-02    0.535E-02
DAV:  10    -0.202103643156E+03   -0.13256E-04   -0.79892E-05 10304   0.458E-02    0.270E-02
DAV:  11    -0.202103677440E+03   -0.34284E-04   -0.29735E-05  7120   0.299E-02    0.240E-02
DAV:  12    -0.202103726544E+03   -0.49103E-04   -0.20201E-05  7056   0.211E-02    0.109E-02
DAV:  13    -0.202103749130E+03   -0.22587E-04   -0.84033E-06  6984   0.135E-02    0.844E-03
DAV:  14    -0.202103769764E+03   -0.20634E-04   -0.39513E-06  6624   0.850E-03    0.588E-03
DAV:  15    -0.202103781548E+03   -0.11784E-04   -0.15911E-06  6760   0.541E-03    0.366E-03
DAV:  16    -0.202103799094E+03   -0.17546E-04   -0.17679E-06  6680   0.440E-03    0.373E-03
DAV:  17    -0.202103810431E+03   -0.11337E-04   -0.14182E-06  6800   0.388E-03    0.244E-03
DAV:  18    -0.202103815271E+03   -0.48404E-05   -0.62393E-07  6600   0.267E-03
   5 F= -.20210382E+03 E0= -.19955993E+03  d E =-.100718E+00
quench:  g(F)=  0.000E+00 g(S)=  0.000E+00 dE (1.order)= 0.000E+00
 bond charge predicted
       N       E                     dE             d eps       ncg     rms          rms(c)
DAV:   1    -0.202155602956E+03   -0.51793E-01   -0.17683E+01 11136   0.771E+00    0.115E+00
DAV:   2    -0.202197284798E+03   -0.41682E-01   -0.47157E-01 11416   0.127E+00    0.985E-01
DAV:   3    -0.202196096832E+03    0.11880E-02   -0.39019E-02 11920   0.102E+00    0.945E-01
DAV:   4    -0.202206827313E+03   -0.10730E-01   -0.60136E-02 11968   0.116E+00    0.146E+00
DAV:   5    -0.202188671517E+03    0.18156E-01   -0.46709E-02 12048   0.991E-01    0.538E-01
DAV:   6    -0.202187510297E+03    0.11612E-02   -0.11705E-02 11552   0.545E-01    0.418E-01
DAV:   7    -0.202185815202E+03    0.16951E-02   -0.46669E-03 11720   0.375E-01    0.165E-01
DAV:   8    -0.202185695272E+03    0.11993E-03   -0.11659E-03 11896   0.173E-01    0.115E-01
DAV:   9    -0.202185629712E+03    0.65560E-04   -0.44399E-04 11392   0.109E-01    0.784E-02
DAV:  10    -0.202185612195E+03    0.17517E-04   -0.15532E-04 11600   0.688E-02    0.534E-02
DAV:  11    -0.202185615546E+03   -0.33518E-05   -0.79936E-05  9440   0.480E-02
   6 F= -.20218562E+03 E0= -.19964460E+03  d E =-.818003E-01
quench:  g(F)=  0.000E+00 g(S)=  0.000E+00 dE (1.order)= 0.000E+00
 bond charge predicted
       N       E                     dE             d eps       ncg     rms          rms(c)
DAV:   1    -0.202237350526E+03   -0.51738E-01   -0.77918E+00 11136   0.420E+00    0.109E+00
DAV:   2    -0.202250117683E+03   -0.12767E-01   -0.19104E-01 11464   0.971E-01    0.993E-01
DAV:   3    -0.202267875885E+03   -0.17758E-01   -0.79880E-02 12296   0.132E+00    0.167E+00
DAV:   4    -0.202249313965E+03    0.18562E-01   -0.71999E-02 12096   0.126E+00    0.902E-01
DAV:   5    -0.202243629938E+03    0.56840E-02   -0.20574E-02 12056   0.810E-01    0.625E-01
DAV:   6    -0.202240884728E+03    0.27452E-02   -0.10087E-02 11864   0.536E-01    0.337E-01
DAV:   7    -0.202240039720E+03    0.84501E-03   -0.35401E-03 11800   0.327E-01    0.225E-01
DAV:   8    -0.202239573998E+03    0.46572E-03   -0.11401E-03 11968   0.188E-01    0.748E-02
DAV:   9    -0.202239597211E+03   -0.23213E-04   -0.28822E-04 11400   0.827E-02    0.623E-02
DAV:  10    -0.202239607246E+03   -0.10035E-04   -0.10578E-04 10776   0.527E-02    0.285E-02
DAV:  11    -0.202239666951E+03   -0.59706E-04   -0.54779E-05  9032   0.373E-02    0.318E-02
DAV:  12    -0.202239710163E+03   -0.43211E-04   -0.28808E-05  7312   0.283E-02    0.116E-02
DAV:  13    -0.202239746079E+03   -0.35916E-04   -0.10439E-05  7000   0.149E-02    0.105E-02
DAV:  14    -0.202239793180E+03   -0.47101E-04   -0.68809E-06  7000   0.109E-02    0.704E-03
DAV:  15    -0.202239818348E+03   -0.25168E-04   -0.33496E-06  6840   0.749E-03    0.488E-03
DAV:  16    -0.202239844327E+03   -0.25979E-04   -0.30253E-06  6816   0.577E-03    0.480E-03
DAV:  17    -0.202239859174E+03   -0.14847E-04   -0.18090E-06  6816   0.435E-03    0.242E-03
DAV:  18    -0.202239867814E+03   -0.86403E-05   -0.87645E-07  6672   0.252E-03
   7 F= -.20223987E+03 E0= -.19970305E+03  d E =-.542523E-01
quench:  g(F)=  0.000E+00 g(S)=  0.000E+00 dE (1.order)= 0.000E+00
 bond charge predicted
       N       E                     dE             d eps       ncg     rms          rms(c)
DAV:   1    -0.202299584049E+03   -0.59725E-01   -0.54583E+00 11136   0.431E+00    0.661E-01
DAV:   2    -0.202312547334E+03   -0.12963E-01   -0.14805E-01 11456   0.741E-01    0.581E-01
DAV:   3    -0.202312784839E+03   -0.23750E-03   -0.15059E-02 11880   0.639E-01    0.607E-01
DAV:   4    -0.202315371025E+03   -0.25862E-02   -0.22184E-02 12064   0.686E-01    0.817E-01
DAV:   5    -0.202309580693E+03    0.57903E-02   -0.13973E-02 12048   0.564E-01    0.296E-01
DAV:   6    -0.202309390290E+03    0.19040E-03   -0.39308E-03 11640   0.323E-01    0.270E-01
DAV:   7    -0.202308796967E+03    0.59332E-03   -0.18580E-03 12016   0.232E-01    0.139E-01
DAV:   8    -0.202308657422E+03    0.13955E-03   -0.62004E-04 11472   0.133E-01    0.819E-02
DAV:   9    -0.202308625676E+03    0.31746E-04   -0.17216E-04 11688   0.682E-02    0.465E-02
DAV:  10    -0.202308615822E+03    0.98538E-05   -0.60733E-05  8560   0.416E-02
   8 F= -.20230862E+03 E0= -.19977340E+03  d E =-.687480E-01
quench:  g(F)=  0.000E+00 g(S)=  0.000E+00 dE (1.order)= 0.000E+00
 bond charge predicted
       N       E                     dE             d eps       ncg     rms          rms(c)
DAV:   1    -0.202356684950E+03   -0.48059E-01   -0.63214E+00 11136   0.481E+00    0.697E-01
DAV:   2    -0.202375544143E+03   -0.18859E-01   -0.17264E-01 11352   0.101E+00    0.101E+00
DAV:   3    -0.202373200032E+03    0.23441E-02   -0.33828E-02 11896   0.863E-01    0.803E-01
DAV:   4    -0.202370835328E+03    0.23647E-02   -0.21228E-02 11728   0.707E-01    0.581E-01
DAV:   5    -0.202369799398E+03    0.10359E-02   -0.91434E-03 11568   0.536E-01    0.505E-01
DAV:   6    -0.202368173405E+03    0.16260E-02   -0.54259E-03 11832   0.406E-01    0.278E-01
DAV:   7    -0.202367881053E+03    0.29235E-03   -0.24707E-03 11640   0.277E-01    0.205E-01
DAV:   8    -0.202367470701E+03    0.41035E-03   -0.93224E-04 11816   0.170E-01    0.681E-02
DAV:   9    -0.202367444397E+03    0.26303E-04   -0.20012E-04 11512   0.676E-02    0.364E-02
DAV:  10    -0.202367444161E+03    0.23616E-06   -0.50368E-05  8104   0.348E-02
   9 F= -.20236744E+03 E0= -.19983761E+03  d E =-.588283E-01
quench:  g(F)=  0.000E+00 g(S)=  0.000E+00 dE (1.order)= 0.000E+00
 bond charge predicted
       N       E                     dE             d eps       ncg     rms          rms(c)
DAV:   1    -0.202414415823E+03   -0.46971E-01   -0.10600E+01 11136   0.613E+00    0.922E-01
DAV:   2    -0.202440478383E+03   -0.26063E-01   -0.28765E-01 11400   0.110E+00    0.899E-01
DAV:   3    -0.202441442985E+03   -0.96460E-03   -0.34086E-02 11888   0.949E-01    0.924E-01
DAV:   4    -0.202443848666E+03   -0.24057E-02   -0.45882E-02 12000   0.974E-01    0.106E+00
DAV:   5    -0.202434616090E+03    0.92326E-02   -0.23988E-02 11984   0.776E-01    0.475E-01
DAV:   6    -0.202434198354E+03    0.41774E-03   -0.88295E-03 11824   0.498E-01    0.440E-01
DAV:   7    -0.202432732246E+03    0.14661E-02   -0.44118E-03 11968   0.359E-01    0.220E-01
DAV:   8    -0.202432277849E+03    0.45440E-03   -0.13627E-03 11536   0.202E-01    0.963E-02
DAV:   9    -0.202432247514E+03    0.30335E-04   -0.34120E-04 11776   0.906E-02    0.654E-02
DAV:  10    -0.202432223924E+03    0.23590E-04   -0.12762E-04 11392   0.600E-02    0.356E-02
DAV:  11    -0.202432230179E+03   -0.62552E-05   -0.41864E-05  8392   0.354E-02
  10 F= -.20243223E+03 E0= -.19990529E+03  d E =-.647860E-01
quench:  g(F)=  0.000E+00 g(S)=  0.000E+00 dE (1.order)= 0.000E+00
 bond charge predicted
       N       E                     dE             d eps       ncg     rms          rms(c)
DAV:   1    -0.202469749712E+03   -0.37526E-01   -0.44914E+00 11136   0.332E+00    0.794E-01
DAV:   2    -0.202478481389E+03   -0.87317E-02   -0.11493E-01 11432   0.768E-01    0.784E-01
DAV:   3    -0.202485386824E+03   -0.69054E-02   -0.40517E-02 12256   0.941E-01    0.113E+00
DAV:   4    -0.202477607473E+03    0.77794E-02   -0.35599E-02 12064   0.892E-01    0.669E-01
DAV:   5    -0.202474891582E+03    0.27159E-02   -0.11989E-02 12032   0.613E-01    0.499E-01
DAV:   6    -0.202473065033E+03    0.18265E-02   -0.59342E-03 11976   0.413E-01    0.256E-01
DAV:   7    -0.202472573368E+03    0.49167E-03   -0.20467E-03 11896   0.251E-01    0.165E-01
DAV:   8    -0.202472313699E+03    0.25967E-03   -0.62815E-04 12008   0.140E-01    0.556E-02
DAV:   9    -0.202472322811E+03   -0.91126E-05   -0.16119E-04 11440   0.625E-02    0.463E-02
DAV:  10    -0.202472325872E+03   -0.30606E-05   -0.62257E-05  8472   0.407E-02
  11 F= -.20247233E+03 E0= -.19994909E+03  d E =-.400957E-01
quench:  g(F)=  0.000E+00 g(S)=  0.000E+00 dE (1.order)= 0.000E+00
 bond charge predicted
       N       E                     dE             d eps       ncg     rms          rms(c)
DAV:   1    -0.202514017091E+03   -0.41694E-01   -0.32429E+00 11136   0.337E+00    0.531E-01
DAV:   2    -0.202522174865E+03   -0.81578E-02   -0.89480E-02 11416   0.631E-01    0.533E-01
DAV:   3    -0.202522334479E+03   -0.15961E-03   -0.11198E-02 11904   0.542E-01    0.520E-01
DAV:   4    -0.202523421788E+03   -0.10873E-02   -0.15311E-02 12008   0.563E-01    0.623E-01
DAV:   5    -0.202520318689E+03    0.31031E-02   -0.82006E-03 12008   0.459E-01    0.292E-01
DAV:   6    -0.202520055045E+03    0.26364E-03   -0.29708E-03 11848   0.293E-01    0.248E-01
DAV:   7    -0.202519612466E+03    0.44258E-03   -0.14405E-03 11880   0.205E-01    0.129E-01
DAV:   8    -0.202519451679E+03    0.16079E-03   -0.45192E-04 11528   0.117E-01    0.533E-02
DAV:   9    -0.202519442199E+03    0.94801E-05   -0.11289E-04 11624   0.519E-02    0.379E-02
DAV:  10    -0.202519432721E+03    0.94774E-05   -0.41353E-05  7688   0.345E-02
  12 F= -.20251943E+03 E0= -.19999773E+03  d E =-.471068E-01
quench:  g(F)=  0.000E+00 g(S)=  0.000E+00 dE (1.order)= 0.000E+00
 bond charge predicted
       N       E                     dE             d eps       ncg     rms          rms(c)
DAV:   1    -0.202558748969E+03   -0.39307E-01   -0.34472E+00 11136   0.346E+00    0.511E-01
DAV:   2    -0.202568243564E+03   -0.94946E-02   -0.86871E-02 11424   0.725E-01    0.738E-01
DAV:   3    -0.202566957495E+03    0.12861E-02   -0.16700E-02 11872   0.603E-01    0.567E-01
DAV:   4    -0.202566065739E+03    0.89176E-03   -0.11336E-02 11768   0.516E-01    0.443E-01
DAV:   5    -0.202565447120E+03    0.61862E-03   -0.51610E-03 11616   0.397E-01    0.381E-01
DAV:   6    -0.202564529850E+03    0.91727E-03   -0.30854E-03 11752   0.305E-01    0.209E-01
DAV:   7    -0.202564345322E+03    0.18453E-03   -0.13763E-03 11688   0.205E-01    0.151E-01
DAV:   8    -0.202564132398E+03    0.21292E-03   -0.52696E-04 11848   0.127E-01    0.541E-02
DAV:   9    -0.202564114525E+03    0.17873E-04   -0.11604E-04 11536   0.531E-02    0.283E-02
DAV:  10    -0.202564114743E+03   -0.21786E-06   -0.30785E-05  7160   0.272E-02
  13 F= -.20256411E+03 E0= -.20004631E+03  d E =-.446820E-01
quench:  g(F)=  0.000E+00 g(S)=  0.000E+00 dE (1.order)= 0.000E+00
 bond charge predicted
       N       E                     dE             d eps       ncg     rms          rms(c)
DAV:   1    -0.202593870830E+03   -0.29756E-01   -0.53232E+00 11136   0.425E+00    0.691E-01
DAV:   2    -0.202606522599E+03   -0.12652E-01   -0.14402E-01 11464   0.808E-01    0.695E-01
DAV:   3    -0.202605913567E+03    0.60903E-03   -0.16172E-02 11896   0.655E-01    0.588E-01
DAV:   4    -0.202610633277E+03   -0.47197E-02   -0.27196E-02 12080   0.744E-01    0.927E-01
DAV:   5    -0.202603637225E+03    0.69961E-02   -0.17650E-02 12088   0.653E-01    0.399E-01
DAV:   6    -0.202603041400E+03    0.59582E-03   -0.52612E-03 11872   0.388E-01    0.322E-01
DAV:   7    -0.202602309829E+03    0.73157E-03   -0.24799E-03 11896   0.269E-01    0.170E-01
DAV:   8    -0.202602024432E+03    0.28540E-03   -0.75396E-04 11560   0.151E-01    0.673E-02
DAV:   9    -0.202602016928E+03    0.75040E-05   -0.19109E-04 11800   0.664E-02    0.503E-02
DAV:  10    -0.202602004230E+03    0.12698E-04   -0.76680E-05  9936   0.465E-02    0.273E-02
DAV:  11    -0.202602010627E+03   -0.63964E-05   -0.27658E-05  7256   0.288E-02
  14 F= -.20260201E+03 E0= -.20008600E+03  d E =-.378959E-01
quench:  g(F)=  0.000E+00 g(S)=  0.000E+00 dE (1.order)= 0.000E+00
 bond charge predicted
       N       E                     dE             d eps       ncg     rms          rms(c)
DAV:   1    -0.202628445306E+03   -0.26441E-01   -0.34212E+00 11136   0.282E+00    0.661E-01
DAV:   2    -0.202633760662E+03   -0.53154E-02   -0.81527E-02 11440   0.597E-01    0.544E-01
DAV:   3    -0.202641468369E+03   -0.77077E-02   -0.27952E-02 12256   0.790E-01    0.104E+00
DAV:   4    -0.202633556851E+03    0.79115E-02   -0.28012E-02 12104   0.771E-01    0.512E-01
DAV:   5    -0.202631801843E+03    0.17550E-02   -0.71843E-03 12032   0.472E-01    0.368E-01
DAV:   6    -0.202630896037E+03    0.90581E-03   -0.35547E-03 12000   0.313E-01    0.207E-01
DAV:   7    -0.202630596050E+03    0.29999E-03   -0.13687E-03 11736   0.205E-01    0.142E-01
DAV:   8    -0.202630406139E+03    0.18991E-03   -0.42581E-04 11960   0.115E-01    0.433E-02
DAV:   9    -0.202630416300E+03   -0.10161E-04   -0.98534E-05 11384   0.478E-02    0.372E-02
DAV:  10    -0.202630421349E+03   -0.50486E-05   -0.38924E-05  7168   0.332E-02
  15 F= -.20263042E+03 E0= -.20011675E+03  d E =-.284107E-01
quench:  g(F)=  0.000E+00 g(S)=  0.000E+00 dE (1.order)= 0.000E+00
 bond charge predicted
       N       E                     dE             d eps       ncg     rms          rms(c)
DAV:   1    -0.202654371622E+03   -0.23955E-01   -0.18442E+00 11136   0.235E+00    0.444E-01
DAV:   2    -0.202658395597E+03   -0.40240E-02   -0.50492E-02 11504   0.455E-01    0.377E-01
DAV:   3    -0.202657987532E+03    0.40807E-03   -0.49672E-03 11888   0.385E-01    0.282E-01
DAV:   4    -0.202657611236E+03    0.37630E-03   -0.39094E-03 11632   0.324E-01    0.260E-01
DAV:   5    -0.202657415541E+03    0.19569E-03   -0.24890E-03 11712   0.274E-01    0.230E-01
DAV:   6    -0.202657402098E+03    0.13443E-04   -0.19100E-03 12024   0.223E-01    0.234E-01
DAV:   7    -0.202656969180E+03    0.43292E-03   -0.12408E-03 11920   0.161E-01    0.101E-01
DAV:   8    -0.202656880554E+03    0.88627E-04   -0.28950E-04 11512   0.847E-02    0.453E-02
DAV:   9    -0.202656873286E+03    0.72675E-05   -0.69181E-05  9680   0.416E-02
  16 F= -.20265687E+03 E0= -.20014356E+03  d E =-.264519E-01
quench:  g(F)=  0.000E+00 g(S)=  0.000E+00 dE (1.order)= 0.000E+00
 bond charge predicted
       N       E                     dE             d eps       ncg     rms          rms(c)
DAV:   1    -0.202676826398E+03   -0.19946E-01   -0.16308E+00 11136   0.218E+00    0.316E-01
DAV:   2    -0.202679955585E+03   -0.31292E-02   -0.36382E-02 11448   0.398E-01    0.326E-01
DAV:   3    -0.202680937952E+03   -0.98237E-03   -0.65877E-03 12048   0.374E-01    0.449E-01
DAV:   4    -0.202679621664E+03    0.13163E-02   -0.50606E-03 11872   0.333E-01    0.241E-01
DAV:   5    -0.202679400602E+03    0.22106E-03   -0.17703E-03 11816   0.234E-01    0.207E-01
DAV:   6    -0.202679179612E+03    0.22099E-03   -0.12266E-03 11936   0.188E-01    0.135E-01
DAV:   7    -0.202679060390E+03    0.11922E-03   -0.55363E-04 11624   0.132E-01    0.886E-02
DAV:   8    -0.202678983266E+03    0.77123E-04   -0.17623E-04 11792   0.741E-02    0.258E-02
DAV:   9    -0.202678983618E+03   -0.35168E-06   -0.36526E-05  7296   0.297E-02
  17 F= -.20267898E+03 E0= -.20016709E+03  d E =-.221103E-01
quench:  g(F)=  0.000E+00 g(S)=  0.000E+00 dE (1.order)= 0.000E+00
 bond charge predicted
       N       E                     dE             d eps       ncg     rms          rms(c)
DAV:   1    -0.202695876105E+03   -0.16893E-01   -0.22028E+00 11136   0.258E+00    0.390E-01
DAV:   2    -0.202700170042E+03   -0.42939E-02   -0.52185E-02 11480   0.456E-01    0.341E-01
DAV:   3    -0.202699977429E+03    0.19261E-03   -0.41901E-03 11928   0.335E-01    0.282E-01
DAV:   4    -0.202701358387E+03   -0.13810E-02   -0.63109E-03 11984   0.387E-01    0.496E-01
DAV:   5    -0.202699511194E+03    0.18472E-02   -0.57095E-03 11936   0.350E-01    0.227E-01
DAV:   6    -0.202699288374E+03    0.22282E-03   -0.19386E-03 11808   0.218E-01    0.172E-01
DAV:   7    -0.202699057995E+03    0.23038E-03   -0.72980E-04 11952   0.145E-01    0.857E-02
DAV:   8    -0.202698997302E+03    0.60693E-04   -0.21989E-04 11592   0.798E-02    0.460E-02
DAV:   9    -0.202698989433E+03    0.78688E-05   -0.63862E-05  8944   0.416E-02
  18 F= -.20269899E+03 E0= -.20018717E+03  d E =-.200058E-01
quench:  g(F)=  0.000E+00 g(S)=  0.000E+00 dE (1.order)= 0.000E+00
 bond charge predicted
       N       E                     dE             d eps       ncg     rms          rms(c)
DAV:   1    -0.202712533206E+03   -0.13536E-01   -0.27045E+00 11136   0.270E+00    0.498E-01
DAV:   2    -0.202717149115E+03   -0.46159E-02   -0.63332E-02 11424   0.518E-01    0.414E-01
DAV:   3    -0.202720222528E+03   -0.30734E-02   -0.13489E-02 11952   0.561E-01    0.704E-01
DAV:   4    -0.202717268264E+03    0.29543E-02   -0.14588E-02 11920   0.553E-01    0.422E-01
DAV:   5    -0.202715920126E+03    0.13481E-02   -0.45854E-03 11744   0.366E-01    0.254E-01
DAV:   6    -0.202715547268E+03    0.37286E-03   -0.21388E-03 11896   0.247E-01    0.171E-01
DAV:   7    -0.202715381346E+03    0.16592E-03   -0.88402E-04 11600   0.165E-01    0.125E-01
DAV:   8    -0.202715236899E+03    0.14445E-03   -0.31839E-04 11944   0.973E-02    0.376E-02
DAV:   9    -0.202715238769E+03   -0.18695E-05   -0.68856E-05 10416   0.408E-02
  19 F= -.20271524E+03 E0= -.20020468E+03  d E =-.162493E-01
quench:  g(F)=  0.000E+00 g(S)=  0.000E+00 dE (1.order)= 0.000E+00
 bond charge predicted
       N       E                     dE             d eps       ncg     rms          rms(c)
DAV:   1    -0.202728376067E+03   -0.13139E-01   -0.13554E+00 11136   0.189E+00    0.389E-01
DAV:   2    -0.202731093466E+03   -0.27174E-02   -0.36157E-02 11480   0.380E-01    0.316E-01
DAV:   3    -0.202732655089E+03   -0.15616E-02   -0.70718E-03 11952   0.420E-01    0.508E-01
DAV:   4    -0.202731372555E+03    0.12825E-02   -0.88954E-03 12096   0.430E-01    0.365E-01
DAV:   5    -0.202730278546E+03    0.10940E-02   -0.33526E-03 11672   0.293E-01    0.179E-01
DAV:   6    -0.202730077234E+03    0.20131E-03   -0.12196E-03 11840   0.185E-01    0.120E-01
DAV:   7    -0.202729931792E+03    0.14544E-03   -0.36144E-04 11728   0.106E-01    0.437E-02
DAV:   8    -0.202729921655E+03    0.10137E-04   -0.80643E-05 11624   0.475E-02    0.301E-02
DAV:   9    -0.202729916750E+03    0.49047E-05   -0.25424E-05  6992   0.269E-02
  20 F= -.20272992E+03 E0= -.20021919E+03  d E =-.146780E-01
quench:  g(F)=  0.000E+00 g(S)=  0.000E+00 dE (1.order)= 0.000E+00
 bond charge predicted
       N       E                     dE             d eps       ncg     rms          rms(c)
DAV:   1    -0.202741430531E+03   -0.11509E-01   -0.12725E+00 11136   0.192E+00    0.294E-01
DAV:   2    -0.202743781376E+03   -0.23508E-02   -0.28988E-02 11416   0.353E-01    0.269E-01
DAV:   3    -0.202744876298E+03   -0.10949E-02   -0.50862E-03 12032   0.349E-01    0.433E-01
DAV:   4    -0.202743611982E+03    0.12643E-02   -0.47474E-03 11888   0.319E-01    0.227E-01
DAV:   5    -0.202743368964E+03    0.24302E-03   -0.18297E-03 11784   0.218E-01    0.177E-01
DAV:   6    -0.202743188266E+03    0.18070E-03   -0.11001E-03 11720   0.177E-01    0.125E-01
DAV:   7    -0.202743091168E+03    0.97098E-04   -0.40818E-04 11928   0.107E-01    0.787E-02
DAV:   8    -0.202743032485E+03    0.58684E-04   -0.13801E-04 11160   0.646E-02    0.258E-02
DAV:   9    -0.202743031926E+03    0.55883E-06   -0.29359E-05  7128   0.267E-02
  21 F= -.20274303E+03 E0= -.20023289E+03  d E =-.131152E-01
quench:  g(F)=  0.000E+00 g(S)=  0.000E+00 dE (1.order)= 0.000E+00
 bond charge predicted
       N       E                     dE             d eps       ncg     rms          rms(c)
DAV:   1    -0.202753403248E+03   -0.10371E-01   -0.13942E+00 11136   0.203E+00    0.292E-01
DAV:   2    -0.202756014775E+03   -0.26115E-02   -0.31631E-02 11480   0.350E-01    0.243E-01
DAV:   3    -0.202756421300E+03   -0.40652E-03   -0.31650E-03 11912   0.278E-01    0.312E-01
DAV:   4    -0.202756388876E+03    0.32424E-04   -0.44519E-03 12096   0.306E-01    0.320E-01
DAV:   5    -0.202755586843E+03    0.80203E-03   -0.23036E-03 11760   0.230E-01    0.142E-01
DAV:   6    -0.202755499672E+03    0.87172E-04   -0.82652E-04 11792   0.152E-01    0.109E-01
DAV:   7    -0.202755388321E+03    0.11135E-03   -0.32701E-04 11632   0.995E-02    0.465E-02
DAV:   8    -0.202755378155E+03    0.10166E-04   -0.80389E-05 11128   0.471E-02    0.316E-02
DAV:   9    -0.202755374208E+03    0.39470E-05   -0.30726E-05  6856   0.291E-02
  22 F= -.20275537E+03 E0= -.20024520E+03  d E =-.123423E-01
quench:  g(F)=  0.000E+00 g(S)=  0.000E+00 dE (1.order)= 0.000E+00
 bond charge predicted
       N       E                     dE             d eps       ncg     rms          rms(c)
DAV:   1    -0.202764113206E+03   -0.87351E-02   -0.19109E+00 11136   0.231E+00    0.414E-01
DAV:   2    -0.202767533912E+03   -0.34207E-02   -0.45226E-02 11424   0.449E-01    0.363E-01
DAV:   3    -0.202769786848E+03   -0.22529E-02   -0.10057E-02 12040   0.482E-01    0.606E-01
DAV:   4    -0.202767349273E+03    0.24376E-02   -0.10026E-02 11920   0.461E-01    0.326E-01
DAV:   5    -0.202766511741E+03    0.83753E-03   -0.29792E-03 11752   0.290E-01    0.195E-01
DAV:   6    -0.202766256001E+03    0.25574E-03   -0.14050E-03 11816   0.198E-01    0.124E-01
DAV:   7    -0.202766118297E+03    0.13770E-03   -0.40918E-04 11672   0.113E-01    0.559E-02
DAV:   8    -0.202766097539E+03    0.20758E-04   -0.11201E-04 11592   0.559E-02    0.287E-02
DAV:   9    -0.202766099359E+03   -0.18200E-05   -0.28502E-05  6832   0.276E-02
  23 F= -.20276610E+03 E0= -.20025697E+03  d E =-.107252E-01
quench:  g(F)=  0.000E+00 g(S)=  0.000E+00 dE (1.order)= 0.000E+00
 bond charge predicted
       N       E                     dE             d eps       ncg     rms          rms(c)
DAV:   1    -0.202776833237E+03   -0.10736E-01   -0.10566E+00 11136   0.168E+00    0.349E-01
DAV:   2    -0.202778948158E+03   -0.21149E-02   -0.28011E-02 11504   0.341E-01    0.288E-01
DAV:   3    -0.202779858170E+03   -0.91001E-03   -0.46916E-03 11920   0.367E-01    0.411E-01
DAV:   4    -0.202779538291E+03    0.31988E-03   -0.68789E-03 12120   0.388E-01    0.387E-01
DAV:   5    -0.202778542087E+03    0.99620E-03   -0.42622E-03 11992   0.295E-01    0.229E-01
DAV:   6    -0.202778170961E+03    0.37113E-03   -0.15698E-03 11808   0.206E-01    0.131E-01
DAV:   7    -0.202778033314E+03    0.13765E-03   -0.43064E-04 11856   0.115E-01    0.668E-02
DAV:   8    -0.202777989713E+03    0.43602E-04   -0.13145E-04 11616   0.631E-02    0.299E-02
DAV:   9    -0.202777987152E+03    0.25603E-05   -0.33532E-05  7240   0.296E-02
  24 F= -.20277799E+03 E0= -.20026860E+03  d E =-.118878E-01
quench:  g(F)=  0.000E+00 g(S)=  0.000E+00 dE (1.order)= 0.000E+00
 bond charge predicted
       N       E                     dE             d eps       ncg     rms          rms(c)
DAV:   1    -0.202792230257E+03   -0.14241E-01   -0.11022E+00 11136   0.182E+00    0.346E-01
DAV:   2    -0.202794953556E+03   -0.27233E-02   -0.29587E-02 11424   0.402E-01    0.407E-01
DAV:   3    -0.202795288616E+03   -0.33506E-03   -0.70244E-03 12080   0.391E-01    0.420E-01
DAV:   4    -0.202794538691E+03    0.74993E-03   -0.59560E-03 11880   0.367E-01    0.303E-01
DAV:   5    -0.202794064432E+03    0.47426E-03   -0.24193E-03 11704   0.272E-01    0.235E-01
DAV:   6    -0.202793705594E+03    0.35884E-03   -0.13232E-03 11936   0.196E-01    0.134E-01
DAV:   7    -0.202793580768E+03    0.12483E-03   -0.52437E-04 11656   0.129E-01    0.799E-02
DAV:   8    -0.202793519535E+03    0.61233E-04   -0.15337E-04 11776   0.704E-02    0.298E-02
DAV:   9    -0.202793516550E+03    0.29849E-05   -0.37141E-05  7720   0.316E-02
  25 F= -.20279352E+03 E0= -.20028627E+03  d E =-.155294E-01
quench:  g(F)=  0.000E+00 g(S)=  0.000E+00 dE (1.order)= 0.000E+00
 bond charge predicted
       N       E                     dE             d eps       ncg     rms          rms(c)
DAV:   1    -0.202807386924E+03   -0.13867E-01   -0.12521E+00 11136   0.201E+00    0.341E-01
DAV:   2    -0.202810192828E+03   -0.28059E-02   -0.32901E-02 11488   0.392E-01    0.340E-01
DAV:   3    -0.202809729147E+03    0.46368E-03   -0.31391E-03 11888   0.301E-01    0.206E-01
DAV:   4    -0.202809784212E+03   -0.55064E-04   -0.25614E-03 11648   0.241E-01    0.250E-01
DAV:   5    -0.202809714354E+03    0.69858E-04   -0.26941E-03 11760   0.247E-01    0.243E-01
DAV:   6    -0.202809545261E+03    0.16909E-03   -0.20613E-03 11840   0.208E-01    0.198E-01
DAV:   7    -0.202809247755E+03    0.29751E-03   -0.76094E-04 11960   0.147E-01    0.927E-02
DAV:   8    -0.202809160045E+03    0.87711E-04   -0.18070E-04 11448   0.758E-02    0.313E-02
DAV:   9    -0.202809159222E+03    0.82264E-06   -0.42044E-05  7832   0.332E-02
  26 F= -.20280916E+03 E0= -.20030227E+03  d E =-.156427E-01
quench:  g(F)=  0.000E+00 g(S)=  0.000E+00 dE (1.order)= 0.000E+00
 bond charge predicted
       N       E                     dE             d eps       ncg     rms          rms(c)
DAV:   1    -0.202820694156E+03   -0.11534E-01   -0.14557E+00 11136   0.202E+00    0.395E-01
DAV:   2    -0.202823753505E+03   -0.30593E-02   -0.37394E-02 11432   0.429E-01    0.406E-01
DAV:   3    -0.202825012488E+03   -0.12590E-02   -0.90591E-03 12112   0.448E-01    0.522E-01
DAV:   4    -0.202823560886E+03    0.14516E-02   -0.86536E-03 11928   0.433E-01    0.343E-01
DAV:   5    -0.202822916683E+03    0.64420E-03   -0.31005E-03 11784   0.310E-01    0.261E-01
DAV:   6    -0.202822462769E+03    0.45391E-03   -0.16424E-03 12032   0.218E-01    0.147E-01
DAV:   7    -0.202822311535E+03    0.15123E-03   -0.65957E-04 11672   0.144E-01    0.911E-02
DAV:   8    -0.202822232859E+03    0.78676E-04   -0.19288E-04 11840   0.790E-02    0.329E-02
DAV:   9    -0.202822231171E+03    0.16875E-05   -0.48404E-05  8752   0.355E-02
  27 F= -.20282223E+03 E0= -.20031763E+03  d E =-.130719E-01
quench:  g(F)=  0.000E+00 g(S)=  0.000E+00 dE (1.order)= 0.000E+00
 bond charge predicted
       N       E                     dE             d eps       ncg     rms          rms(c)
DAV:   1    -0.202833930593E+03   -0.11698E-01   -0.10759E+00 11136   0.172E+00    0.358E-01
DAV:   2    -0.202836155003E+03   -0.22244E-02   -0.29515E-02 11504   0.351E-01    0.298E-01
DAV:   3    -0.202836897143E+03   -0.74214E-03   -0.50103E-03 11896   0.366E-01    0.398E-01
DAV:   4    -0.202836846482E+03    0.50661E-04   -0.74616E-03 12128   0.395E-01    0.402E-01
DAV:   5    -0.202835441934E+03    0.14045E-02   -0.36073E-03 11784   0.293E-01    0.161E-01
DAV:   6    -0.202835285516E+03    0.15642E-03   -0.10283E-03 11840   0.169E-01    0.114E-01
DAV:   7    -0.202835166803E+03    0.11871E-03   -0.33105E-04 11880   0.101E-01    0.495E-02
DAV:   8    -0.202835151267E+03    0.15536E-04   -0.94367E-05 10992   0.523E-02    0.359E-02
DAV:   9    -0.202835147582E+03    0.36852E-05   -0.35311E-05  7200   0.318E-02
  28 F= -.20283515E+03 E0= -.20033020E+03  d E =-.129164E-01
quench:  g(F)=  0.000E+00 g(S)=  0.000E+00 dE (1.order)= 0.000E+00
 bond charge predicted
       N       E                     dE             d eps       ncg     rms          rms(c)
DAV:   1    -0.202845113251E+03   -0.99620E-02   -0.77995E-01 11136   0.148E+00    0.280E-01
DAV:   2    -0.202846789365E+03   -0.16761E-02   -0.19888E-02 11424   0.314E-01    0.297E-01
DAV:   3    -0.202847359377E+03   -0.57001E-03   -0.48162E-03 12112   0.323E-01    0.370E-01
DAV:   4    -0.202846625023E+03    0.73435E-03   -0.41818E-03 11936   0.303E-01    0.240E-01
DAV:   5    -0.202846360112E+03    0.26491E-03   -0.16255E-03 11800   0.225E-01    0.195E-01
DAV:   6    -0.202846082138E+03    0.27797E-03   -0.88706E-04 12008   0.162E-01    0.101E-01
DAV:   7    -0.202846013022E+03    0.69116E-04   -0.32832E-04 11736   0.102E-01    0.654E-02
DAV:   8    -0.202845972114E+03    0.40908E-04   -0.10053E-04 11112   0.568E-02    0.235E-02
DAV:   9    -0.202845970812E+03    0.13020E-05   -0.24958E-05  6968   0.258E-02
  29 F= -.20284597E+03 E0= -.20034266E+03  d E =-.108232E-01
quench:  g(F)=  0.000E+00 g(S)=  0.000E+00 dE (1.order)= 0.000E+00
 bond charge predicted
       N       E                     dE             d eps       ncg     rms          rms(c)
DAV:   1    -0.202855828077E+03   -0.98560E-02   -0.86451E-01 11136   0.162E+00    0.268E-01
DAV:   2    -0.202857566263E+03   -0.17382E-02   -0.21467E-02 11488   0.298E-01    0.238E-01
DAV:   3    -0.202857726356E+03   -0.16009E-03   -0.24697E-03 11912   0.257E-01    0.255E-01
DAV:   4    -0.202858164343E+03   -0.43799E-03   -0.40474E-03 12136   0.293E-01    0.341E-01
DAV:   5    -0.202857159108E+03    0.10052E-02   -0.24158E-03 11904   0.233E-01    0.124E-01
DAV:   6    -0.202857099588E+03    0.59520E-04   -0.66634E-04 11840   0.135E-01    0.101E-01
DAV:   7    -0.202857013567E+03    0.86021E-04   -0.26422E-04 11896   0.889E-02    0.474E-02
DAV:   8    -0.202856997470E+03    0.16097E-04   -0.76863E-05  9648   0.471E-02    0.309E-02
DAV:   9    -0.202856994001E+03    0.34689E-05   -0.24978E-05  6512   0.267E-02
  30 F= -.20285699E+03 E0= -.20035368E+03  d E =-.110232E-01
quench:  g(F)=  0.000E+00 g(S)=  0.000E+00 dE (1.order)= 0.000E+00
 bond charge predicted
       N       E                     dE             d eps       ncg     rms          rms(c)
DAV:   1    -0.202865553867E+03   -0.85564E-02   -0.10698E+00 11136   0.173E+00    0.321E-01
DAV:   2    -0.202867643675E+03   -0.20898E-02   -0.26602E-02 11440   0.350E-01    0.307E-01
DAV:   3    -0.202868825176E+03   -0.11815E-02   -0.63150E-03 12120   0.374E-01    0.456E-01
DAV:   4    -0.202867487796E+03    0.13374E-02   -0.59215E-03 11960   0.354E-01    0.258E-01
DAV:   5    -0.202867149833E+03    0.33796E-03   -0.19016E-03 11808   0.245E-01    0.207E-01
DAV:   6    -0.202866857458E+03    0.29237E-03   -0.10560E-03 12080   0.175E-01    0.116E-01
DAV:   7    -0.202866770531E+03    0.86927E-04   -0.42949E-04 11648   0.116E-01    0.772E-02
DAV:   8    -0.202866713873E+03    0.56658E-04   -0.13191E-04 11576   0.651E-02    0.257E-02
DAV:   9    -0.202866713965E+03   -0.91673E-07   -0.31666E-05  7200   0.287E-02
  31 F= -.20286671E+03 E0= -.20036518E+03  d E =-.971996E-02
quench:  g(F)=  0.000E+00 g(S)=  0.000E+00 dE (1.order)= 0.000E+00
 bond charge predicted
       N       E                     dE             d eps       ncg     rms          rms(c)
DAV:   1    -0.202875403880E+03   -0.86900E-02   -0.79613E-01 11136   0.147E+00    0.299E-01
DAV:   2    -0.202876986836E+03   -0.15830E-02   -0.21201E-02 11488   0.292E-01    0.242E-01
DAV:   3    -0.202878044315E+03   -0.10575E-02   -0.44676E-03 11992   0.330E-01    0.408E-01
DAV:   4    -0.202877090962E+03    0.95335E-03   -0.53790E-03 12104   0.333E-01    0.266E-01
DAV:   5    -0.202876510819E+03    0.58014E-03   -0.18285E-03 11728   0.223E-01    0.137E-01
DAV:   6    -0.202876397279E+03    0.11354E-03   -0.69035E-04 11880   0.142E-01    0.958E-02
DAV:   7    -0.202876319036E+03    0.78243E-04   -0.23331E-04 11624   0.859E-02    0.524E-02
DAV:   8    -0.202876300392E+03    0.18644E-04   -0.72452E-05  9672   0.450E-02    0.267E-02
DAV:   9    -0.202876297822E+03    0.25703E-05   -0.26108E-05  6640   0.268E-02
  32 F= -.20287630E+03 E0= -.20037445E+03  d E =-.958386E-02
quench:  g(F)=  0.000E+00 g(S)=  0.000E+00 dE (1.order)= 0.000E+00
 bond charge predicted
       N       E                     dE             d eps       ncg     rms          rms(c)
DAV:   1    -0.202883929049E+03   -0.76287E-02   -0.61716E-01 11136   0.132E+00    0.238E-01
DAV:   2    -0.202885131177E+03   -0.12021E-02   -0.15240E-02 11432   0.262E-01    0.223E-01
DAV:   3    -0.202885845679E+03   -0.71450E-03   -0.34973E-03 12128   0.280E-01    0.346E-01
DAV:   4    -0.202885025865E+03    0.81981E-03   -0.32705E-03 11960   0.263E-01    0.182E-01
DAV:   5    -0.202884805812E+03    0.22005E-03   -0.91836E-04 11704   0.170E-01    0.127E-01
DAV:   6    -0.202884711507E+03    0.94304E-04   -0.47612E-04 11992   0.117E-01    0.845E-02
DAV:   7    -0.202884673080E+03    0.38428E-04   -0.22460E-04 11544   0.827E-02    0.609E-02
DAV:   8    -0.202884638033E+03    0.35046E-04   -0.74412E-05  9424   0.487E-02    0.189E-02
DAV:   9    -0.202884637885E+03    0.14805E-06   -0.17504E-05  6528   0.213E-02
  33 F= -.20288464E+03 E0= -.20038402E+03  d E =-.834006E-02
quench:  g(F)=  0.000E+00 g(S)=  0.000E+00 dE (1.order)= 0.000E+00
 bond charge predicted
       N       E                     dE             d eps       ncg     rms          rms(c)
DAV:   1    -0.202892280788E+03   -0.76428E-02   -0.72019E-01 11136   0.148E+00    0.235E-01
DAV:   2    -0.202893687541E+03   -0.14068E-02   -0.17496E-02 11488   0.264E-01    0.199E-01
DAV:   3    -0.202894250515E+03   -0.56297E-03   -0.26730E-03 11952   0.253E-01    0.309E-01
DAV:   4    -0.202893747728E+03    0.50279E-03   -0.31514E-03 12056   0.255E-01    0.212E-01
DAV:   5    -0.202893388096E+03    0.35963E-03   -0.11526E-03 11728   0.175E-01    0.110E-01
DAV:   6    -0.202893334689E+03    0.53407E-04   -0.48115E-04 11872   0.118E-01    0.853E-02
DAV:   7    -0.202893269702E+03    0.64987E-04   -0.18154E-04 11576   0.759E-02    0.412E-02
DAV:   8    -0.202893259884E+03    0.98178E-05   -0.49392E-05  7816   0.374E-02
  34 F= -.20289326E+03 E0= -.20039254E+03  d E =-.862200E-02
quench:  g(F)=  0.000E+00 g(S)=  0.000E+00 dE (1.order)= 0.000E+00
 bond charge predicted
       N       E                     dE             d eps       ncg     rms          rms(c)
DAV:   1    -0.202899907159E+03   -0.66375E-02   -0.86108E-01 11136   0.155E+00    0.284E-01
DAV:   2    -0.202901557603E+03   -0.16504E-02   -0.21350E-02 11424   0.305E-01    0.260E-01
DAV:   3    -0.202902530440E+03   -0.97284E-03   -0.49594E-03 12192   0.328E-01    0.403E-01
DAV:   4    -0.202901580797E+03    0.94964E-03   -0.48747E-03 12104   0.317E-01    0.252E-01
DAV:   5    -0.202901309192E+03    0.27161E-03   -0.18737E-03 11816   0.235E-01    0.204E-01
DAV:   6    -0.202900955299E+03    0.35389E-03   -0.89483E-04 12096   0.166E-01    0.875E-02
DAV:   7    -0.202900900818E+03    0.54481E-04   -0.27232E-04 11688   0.934E-02    0.589E-02
DAV:   8    -0.202900868641E+03    0.32176E-04   -0.93175E-05 10968   0.532E-02    0.218E-02
DAV:   9    -0.202900869056E+03   -0.41490E-06   -0.22868E-05  6872   0.238E-02
  35 F= -.20290087E+03 E0= -.20040156E+03  d E =-.760917E-02
quench:  g(F)=  0.000E+00 g(S)=  0.000E+00 dE (1.order)= 0.000E+00
 bond charge predicted
       N       E                     dE             d eps       ncg     rms          rms(c)
DAV:   1    -0.202907698122E+03   -0.68295E-02   -0.64341E-01 11136   0.133E+00    0.265E-01
DAV:   2    -0.202908962942E+03   -0.12648E-02   -0.16957E-02 11472   0.258E-01    0.210E-01
DAV:   3    -0.202910148458E+03   -0.11855E-02   -0.41597E-03 12232   0.310E-01    0.408E-01
DAV:   4    -0.202908871108E+03    0.12773E-02   -0.43644E-03 12112   0.299E-01    0.191E-01
DAV:   5    -0.202908590550E+03    0.28056E-03   -0.10697E-03 11736   0.180E-01    0.119E-01
DAV:   6    -0.202908539519E+03    0.51032E-04   -0.54477E-04 11912   0.127E-01    0.996E-02
DAV:   7    -0.202908452012E+03    0.87506E-04   -0.23263E-04 11616   0.842E-02    0.496E-02
DAV:   8    -0.202908431998E+03    0.20014E-04   -0.59801E-05  9152   0.414E-02    0.204E-02
DAV:   9    -0.202908430826E+03    0.11717E-05   -0.17051E-05  6592   0.208E-02
  36 F= -.20290843E+03 E0= -.20040888E+03  d E =-.756177E-02
quench:  g(F)=  0.000E+00 g(S)=  0.000E+00 dE (1.order)= 0.000E+00
 bond charge predicted
       N       E                     dE             d eps       ncg     rms          rms(c)
DAV:   1    -0.202914474681E+03   -0.60427E-02   -0.49780E-01 11136   0.120E+00    0.210E-01
DAV:   2    -0.202915420148E+03   -0.94547E-03   -0.12270E-02 11416   0.231E-01    0.184E-01
DAV:   3    -0.202916018892E+03   -0.59874E-03   -0.26193E-03 12088   0.244E-01    0.306E-01
DAV:   4    -0.202915386755E+03    0.63214E-03   -0.26442E-03 12016   0.234E-01    0.166E-01
DAV:   5    -0.202915199592E+03    0.18716E-03   -0.76837E-04 11688   0.152E-01    0.110E-01
DAV:   6    -0.202915125824E+03    0.73767E-04   -0.39679E-04 11928   0.106E-01    0.725E-02
DAV:   7    -0.202915097624E+03    0.28200E-04   -0.16778E-04 11296   0.715E-02    0.537E-02
DAV:   8    -0.202915070668E+03    0.26956E-04   -0.57020E-05  8192   0.424E-02    0.164E-02
DAV:   9    -0.202915070718E+03   -0.49276E-07   -0.13175E-05  6400   0.182E-02
  37 F= -.20291507E+03 E0= -.20041650E+03  d E =-.663989E-02
quench:  g(F)=  0.000E+00 g(S)=  0.000E+00 dE (1.order)= 0.000E+00
 bond charge predicted
       N       E                     dE             d eps       ncg     rms          rms(c)
DAV:   1    -0.202921149617E+03   -0.60789E-02   -0.59120E-01 11136   0.135E+00    0.208E-01
DAV:   2    -0.202922316213E+03   -0.11666E-02   -0.14327E-02 11488   0.238E-01    0.177E-01
DAV:   3    -0.202922942368E+03   -0.62615E-03   -0.25220E-03 12096   0.239E-01    0.308E-01
DAV:   4    -0.202922259816E+03    0.68255E-03   -0.25299E-03 12024   0.228E-01    0.158E-01
DAV:   5    -0.202922083990E+03    0.17583E-03   -0.73375E-04 11640   0.147E-01    0.101E-01
DAV:   6    -0.202922050691E+03    0.33299E-04   -0.40079E-04 11904   0.109E-01    0.855E-02
DAV:   7    -0.202921991826E+03    0.58865E-04   -0.18131E-04 11248   0.746E-02    0.479E-02
DAV:   8    -0.202921973476E+03    0.18349E-04   -0.53882E-05  8216   0.390E-02    0.190E-02
DAV:   9    -0.202921972302E+03    0.11742E-05   -0.14378E-05  6376   0.194E-02
  38 F= -.20292197E+03 E0= -.20042336E+03  d E =-.690158E-02
quench:  g(F)=  0.000E+00 g(S)=  0.000E+00 dE (1.order)= 0.000E+00
 bond charge predicted
       N       E                     dE             d eps       ncg     rms          rms(c)
DAV:   1    -0.202927344131E+03   -0.53707E-02   -0.70217E-01 11136   0.142E+00    0.254E-01
DAV:   2    -0.202928640049E+03   -0.12959E-02   -0.17361E-02 11432   0.271E-01    0.211E-01
DAV:   3    -0.202929521748E+03   -0.88170E-03   -0.35963E-03 12048   0.290E-01    0.365E-01
DAV:   4    -0.202928630778E+03    0.89097E-03   -0.38860E-03 12016   0.283E-01    0.202E-01
DAV:   5    -0.202928316240E+03    0.31454E-03   -0.10607E-03 11688   0.179E-01    0.120E-01
DAV:   6    -0.202928226802E+03    0.89439E-04   -0.48987E-04 11856   0.120E-01    0.819E-02
DAV:   7    -0.202928184338E+03    0.42464E-04   -0.19754E-04 11544   0.777E-02    0.557E-02
DAV:   8    -0.202928157867E+03    0.26471E-04   -0.67102E-05  8816   0.453E-02    0.203E-02
DAV:   9    -0.202928157971E+03   -0.10390E-06   -0.17944E-05  6472   0.217E-02
  39 F= -.20292816E+03 E0= -.20043073E+03  d E =-.618567E-02
quench:  g(F)=  0.000E+00 g(S)=  0.000E+00 dE (1.order)= 0.000E+00
 bond charge predicted
       N       E                     dE             d eps       ncg     rms          rms(c)
DAV:   1    -0.202933685325E+03   -0.55275E-02   -0.52605E-01 11136   0.121E+00    0.238E-01
DAV:   2    -0.202934745654E+03   -0.10603E-02   -0.13854E-02 11472   0.236E-01    0.195E-01
DAV:   3    -0.202935737021E+03   -0.99137E-03   -0.35945E-03 12288   0.286E-01    0.374E-01
DAV:   4    -0.202934647779E+03    0.10892E-02   -0.35313E-03 12144   0.269E-01    0.170E-01
DAV:   5    -0.202934445881E+03    0.20190E-03   -0.91045E-04 11800   0.166E-01    0.115E-01
DAV:   6    -0.202934372699E+03    0.73182E-04   -0.45129E-04 11992   0.115E-01    0.822E-02
DAV:   7    -0.202934319787E+03    0.52912E-04   -0.17660E-04 11456   0.738E-02    0.495E-02
DAV:   8    -0.202934299548E+03    0.20239E-04   -0.56061E-05  8424   0.400E-02    0.191E-02
DAV:   9    -0.202934298239E+03    0.13096E-05   -0.14540E-05  6416   0.197E-02
  40 F= -.20293430E+03 E0= -.20043657E+03  d E =-.614027E-02
quench:  g(F)=  0.000E+00 g(S)=  0.000E+00 dE (1.order)= 0.000E+00
 bond charge predicted
       N       E                     dE             d eps       ncg     rms          rms(c)
DAV:   1    -0.202939263171E+03   -0.49636E-02   -0.41184E-01 11136   0.110E+00    0.188E-01
DAV:   2    -0.202940043444E+03   -0.78027E-03   -0.10180E-02 11416   0.207E-01    0.157E-01
DAV:   3    -0.202940515383E+03   -0.47194E-03   -0.19793E-03 12048   0.214E-01    0.269E-01
DAV:   4    -0.202940039636E+03    0.47575E-03   -0.21196E-03 12024   0.209E-01    0.150E-01
DAV:   5    -0.202939867826E+03    0.17181E-03   -0.57779E-04 11672   0.133E-01    0.890E-02
DAV:   6    -0.202939820655E+03    0.47171E-04   -0.27007E-04 11864   0.899E-02    0.628E-02
DAV:   7    -0.202939795697E+03    0.24958E-04   -0.11239E-04 10376   0.589E-02    0.420E-02
DAV:   8    -0.202939780305E+03    0.15392E-04   -0.37565E-05  7064   0.342E-02    0.151E-02
DAV:   9    -0.202939780278E+03    0.26401E-07   -0.10514E-05  6200   0.164E-02
  41 F= -.20293978E+03 E0= -.20044296E+03  d E =-.548204E-02
quench:  g(F)=  0.000E+00 g(S)=  0.000E+00 dE (1.order)= 0.000E+00
 bond charge predicted
       N       E                     dE             d eps       ncg     rms          rms(c)
DAV:   1    -0.202944842857E+03   -0.50626E-02   -0.50393E-01 11136   0.126E+00    0.189E-01
DAV:   2    -0.202945851538E+03   -0.10087E-02   -0.12219E-02 11472   0.220E-01    0.160E-01
DAV:   3    -0.202946417699E+03   -0.56616E-03   -0.22205E-03 12168   0.223E-01    0.289E-01
DAV:   4    -0.202945783014E+03    0.63468E-03   -0.20944E-03 12056   0.208E-01    0.136E-01
DAV:   5    -0.202945664107E+03    0.11891E-03   -0.57823E-04 11720   0.132E-01    0.945E-02
DAV:   6    -0.202945632648E+03    0.31459E-04   -0.33098E-04 11976   0.989E-02    0.779E-02
DAV:   7    -0.202945584153E+03    0.48495E-04   -0.14829E-04 10888   0.677E-02    0.437E-02
DAV:   8    -0.202945568787E+03    0.15366E-04   -0.45337E-05  7488   0.359E-02    0.174E-02
DAV:   9    -0.202945567678E+03    0.11092E-05   -0.11868E-05  6264   0.177E-02
  42 F= -.20294557E+03 E0= -.20044866E+03  d E =-.578740E-02
quench:  g(F)=  0.000E+00 g(S)=  0.000E+00 dE (1.order)= 0.000E+00
 bond charge predicted
       N       E                     dE             d eps       ncg     rms          rms(c)
DAV:   1    -0.202950090256E+03   -0.45215E-02   -0.59344E-01 11136   0.132E+00    0.231E-01
DAV:   2    -0.202951203499E+03   -0.11132E-02   -0.14798E-02 11424   0.249E-01    0.188E-01
DAV:   3    -0.202951902854E+03   -0.69935E-03   -0.28751E-03 12016   0.260E-01    0.325E-01
DAV:   4    -0.202951215207E+03    0.68765E-03   -0.31955E-03 12032   0.256E-01    0.187E-01
DAV:   5    -0.202950936326E+03    0.27888E-03   -0.86828E-04 11696   0.162E-01    0.105E-01
DAV:   6    -0.202950871387E+03    0.64939E-04   -0.38129E-04 11856   0.107E-01    0.751E-02
DAV:   7    -0.202950831916E+03    0.39471E-04   -0.15380E-04 11184   0.691E-02    0.470E-02
DAV:   8    -0.202950813947E+03    0.17969E-04   -0.50669E-05  7632   0.393E-02    0.188E-02
DAV:   9    -0.202950813963E+03   -0.15931E-07   -0.14943E-05  6384   0.197E-02
  43 F= -.20295081E+03 E0= -.20045499E+03  d E =-.524629E-02
quench:  g(F)=  0.000E+00 g(S)=  0.000E+00 dE (1.order)= 0.000E+00
 bond charge predicted
       N       E                     dE             d eps       ncg     rms          rms(c)
DAV:   1    -0.202955450917E+03   -0.46370E-02   -0.44242E-01 11136   0.112E+00    0.217E-01
DAV:   2    -0.202956345906E+03   -0.89499E-03   -0.11618E-02 11464   0.216E-01    0.175E-01
DAV:   3    -0.202957212641E+03   -0.86674E-03   -0.30611E-03 12304   0.263E-01    0.346E-01
DAV:   4    -0.202956256710E+03    0.95593E-03   -0.29506E-03 12160   0.246E-01    0.150E-01
DAV:   5    -0.202956099919E+03    0.15679E-03   -0.72788E-04 11776   0.149E-01    0.103E-01
DAV:   6    -0.202956040836E+03    0.59083E-04   -0.36325E-04 11968   0.103E-01    0.735E-02
DAV:   7    -0.202955998343E+03    0.42493E-04   -0.14018E-04 10928   0.661E-02    0.443E-02
DAV:   8    -0.202955982437E+03    0.15906E-04   -0.44769E-05  7392   0.358E-02    0.175E-02
DAV:   9    -0.202955981212E+03    0.12253E-05   -0.12030E-05  6360   0.179E-02
  44 F= -.20295598E+03 E0= -.20045989E+03  d E =-.516725E-02
quench:  g(F)=  0.000E+00 g(S)=  0.000E+00 dE (1.order)= 0.000E+00
 bond charge predicted
       N       E                     dE             d eps       ncg     rms          rms(c)
DAV:   1    -0.202960179958E+03   -0.41975E-02   -0.34683E-01 11136   0.102E+00    0.171E-01
DAV:   2    -0.202960848395E+03   -0.66844E-03   -0.86483E-03 11408   0.191E-01    0.141E-01
DAV:   3    -0.202961224568E+03   -0.37617E-03   -0.15957E-03 12032   0.193E-01    0.240E-01
DAV:   4    -0.202960853431E+03    0.37114E-03   -0.17431E-03 12000   0.189E-01    0.139E-01
DAV:   5    -0.202960702717E+03    0.15071E-03   -0.47746E-04 11640   0.120E-01    0.784E-02
DAV:   6    -0.202960667293E+03    0.35424E-04   -0.21530E-04 11832   0.805E-02    0.570E-02
DAV:   7    -0.202960644534E+03    0.22759E-04   -0.87462E-05  9552   0.523E-02    0.353E-02
DAV:   8    -0.202960634228E+03    0.10305E-04   -0.28706E-05  6984   0.297E-02    0.141E-02
DAV:   9    -0.202960634121E+03    0.10766E-06   -0.86130E-06  6160   0.149E-02
  45 F= -.20296063E+03 E0= -.20046536E+03  d E =-.465291E-02
quench:  g(F)=  0.000E+00 g(S)=  0.000E+00 dE (1.order)= 0.000E+00
 bond charge predicted
       N       E                     dE             d eps       ncg     rms          rms(c)
DAV:   1    -0.202964946801E+03   -0.43126E-02   -0.43169E-01 11136   0.117E+00    0.173E-01
DAV:   2    -0.202965822912E+03   -0.87611E-03   -0.10493E-02 11456   0.204E-01    0.146E-01
DAV:   3    -0.202966328016E+03   -0.50510E-03   -0.19532E-03 12192   0.208E-01    0.270E-01
DAV:   4    -0.202965752792E+03    0.57522E-03   -0.17613E-03 12048   0.190E-01    0.119E-01
DAV:   5    -0.202965667845E+03    0.84947E-04   -0.46242E-04 11704   0.119E-01    0.878E-02
DAV:   6    -0.202965641367E+03    0.26479E-04   -0.27914E-04 11984   0.906E-02    0.725E-02
DAV:   7    -0.202965598772E+03    0.42595E-04   -0.12717E-04 10440   0.626E-02    0.399E-02
DAV:   8    -0.202965585826E+03    0.12945E-04   -0.38335E-05  7128   0.330E-02    0.158E-02
DAV:   9    -0.202965584843E+03    0.98362E-06   -0.97508E-06  6168   0.160E-02
  46 F= -.20296558E+03 E0= -.20047023E+03  d E =-.495072E-02
quench:  g(F)=  0.000E+00 g(S)=  0.000E+00 dE (1.order)= 0.000E+00
 bond charge predicted
       N       E                     dE             d eps       ncg     rms          rms(c)
DAV:   1    -0.202969470602E+03   -0.38848E-02   -0.50106E-01 11136   0.122E+00    0.212E-01
DAV:   2    -0.202970421787E+03   -0.95119E-03   -0.12590E-02 11416   0.229E-01    0.169E-01
DAV:   3    -0.202970956031E+03   -0.53424E-03   -0.22702E-03 11992   0.233E-01    0.286E-01
DAV:   4    -0.202970456972E+03    0.49906E-03   -0.26230E-03 12016   0.232E-01    0.176E-01
DAV:   5    -0.202970199393E+03    0.25758E-03   -0.74468E-04 11664   0.148E-01    0.915E-02
DAV:   6    -0.202970150810E+03    0.48583E-04   -0.30657E-04 11824   0.962E-02    0.677E-02
DAV:   7    -0.202970113649E+03    0.37161E-04   -0.11707E-04 10824   0.606E-02    0.365E-02
DAV:   8    -0.202970104352E+03    0.92969E-05   -0.35787E-05  7072   0.328E-02
  47 F= -.20297010E+03 E0= -.20047575E+03  d E =-.451951E-02
quench:  g(F)=  0.000E+00 g(S)=  0.000E+00 dE (1.order)= 0.000E+00
 bond charge predicted
       N       E                     dE             d eps       ncg     rms          rms(c)
DAV:   1    -0.202974080245E+03   -0.39666E-02   -0.37537E-01 11136   0.104E+00    0.198E-01
DAV:   2    -0.202974870203E+03   -0.78996E-03   -0.99362E-03 11440   0.202E-01    0.166E-01
DAV:   3    -0.202975507040E+03   -0.63684E-03   -0.26685E-03 12264   0.239E-01    0.306E-01
DAV:   4    -0.202974864525E+03    0.64251E-03   -0.24787E-03 12160   0.225E-01    0.165E-01
DAV:   5    -0.202974717780E+03    0.14675E-03   -0.79593E-04 11792   0.155E-01    0.123E-01
DAV:   6    -0.202974600916E+03    0.11686E-03   -0.38478E-04 12120   0.108E-01    0.659E-02
DAV:   7    -0.202974560003E+03    0.40913E-04   -0.12216E-04 11296   0.630E-02    0.338E-02
DAV:   8    -0.202974549987E+03    0.10016E-04   -0.34101E-05  7384   0.326E-02    0.160E-02
DAV:   9    -0.202974548772E+03    0.12153E-05   -0.10096E-05  6120   0.164E-02
  48 F= -.20297455E+03 E0= -.20047995E+03  d E =-.444442E-02
quench:  g(F)=  0.000E+00 g(S)=  0.000E+00 dE (1.order)= 0.000E+00
 bond charge predicted
       N       E                     dE             d eps       ncg     rms          rms(c)
DAV:   1    -0.202978160339E+03   -0.36104E-02   -0.29498E-01 11136   0.951E-01    0.157E-01
DAV:   2    -0.202978730812E+03   -0.57047E-03   -0.73952E-03 11400   0.174E-01    0.125E-01
DAV:   3    -0.202979052330E+03   -0.32152E-03   -0.13117E-03 12008   0.174E-01    0.219E-01
DAV:   4    -0.202978729425E+03    0.32290E-03   -0.14365E-03 12016   0.172E-01    0.121E-01
DAV:   5    -0.202978601149E+03    0.12828E-03   -0.35269E-04 11608   0.103E-01    0.603E-02
DAV:   6    -0.202978595141E+03    0.60088E-05   -0.17267E-04 11784   0.700E-02    0.585E-02
DAV:   7    -0.202978567057E+03    0.28084E-04   -0.82269E-05  8800   0.496E-02    0.297E-02
DAV:   8    -0.202978560058E+03    0.69990E-05   -0.22254E-05  6744   0.257E-02
  49 F= -.20297856E+03 E0= -.20048466E+03  d E =-.401129E-02
quench:  g(F)=  0.000E+00 g(S)=  0.000E+00 dE (1.order)= 0.000E+00
 bond charge predicted
       N       E                     dE             d eps       ncg     rms          rms(c)
DAV:   1    -0.202982277788E+03   -0.37107E-02   -0.37036E-01 11136   0.109E+00    0.159E-01
DAV:   2    -0.202983045650E+03   -0.76786E-03   -0.90808E-03 11424   0.190E-01    0.136E-01
DAV:   3    -0.202983468556E+03   -0.42291E-03   -0.17351E-03 12192   0.192E-01    0.249E-01
DAV:   4    -0.202983002097E+03    0.46646E-03   -0.15210E-03 12104   0.177E-01    0.118E-01
DAV:   5    -0.202982940053E+03    0.62044E-04   -0.44674E-04 11696   0.117E-01    0.964E-02
DAV:   6    -0.202982890839E+03    0.49213E-04   -0.26869E-04 12088   0.894E-02    0.669E-02
DAV:   7    -0.202982852323E+03    0.38516E-04   -0.11920E-04 10496   0.599E-02    0.349E-02
DAV:   8    -0.202982841938E+03    0.10385E-04   -0.34593E-05  7120   0.313E-02    0.149E-02
DAV:   9    -0.202982840794E+03    0.11436E-05   -0.82069E-06  6088   0.147E-02
  50 F= -.20298284E+03 E0= -.20048885E+03  d E =-.428074E-02
quench:  g(F)=  0.000E+00 g(S)=  0.000E+00 dE (1.order)= 0.000E+00
 bond charge predicted
       N       E                     dE             d eps       ncg     rms          rms(c)
DAV:   1    -0.202986183342E+03   -0.33414E-02   -0.41890E-01 11136   0.113E+00    0.194E-01
DAV:   2    -0.202986987288E+03   -0.80395E-03   -0.10622E-02 11424   0.209E-01    0.152E-01
DAV:   3    -0.202987426623E+03   -0.43934E-03   -0.18609E-03 12000   0.210E-01    0.259E-01
DAV:   4    -0.202987019580E+03    0.40704E-03   -0.21792E-03 12032   0.212E-01    0.160E-01
DAV:   5    -0.202986799337E+03    0.22024E-03   -0.59632E-04 11664   0.133E-01    0.792E-02
DAV:   6    -0.202986770034E+03    0.29303E-04   -0.24024E-04 11856   0.851E-02    0.647E-02
DAV:   7    -0.202986736325E+03    0.33709E-04   -0.10114E-04 10064   0.562E-02    0.345E-02
DAV:   8    -0.202986727702E+03    0.86223E-05   -0.30942E-05  6992   0.303E-02
  51 F= -.20298673E+03 E0= -.20049363E+03  d E =-.388691E-02
quench:  g(F)=  0.000E+00 g(S)=  0.000E+00 dE (1.order)= 0.000E+00
 bond charge predicted
       N       E                     dE             d eps       ncg     rms          rms(c)
DAV:   1    -0.202990113706E+03   -0.33774E-02   -0.31320E-01 11136   0.957E-01    0.181E-01
DAV:   2    -0.202990773641E+03   -0.65993E-03   -0.82962E-03 11440   0.183E-01    0.148E-01
DAV:   3    -0.202991348099E+03   -0.57446E-03   -0.22616E-03 12272   0.220E-01    0.285E-01
DAV:   4    -0.202990748075E+03    0.60002E-03   -0.20697E-03 12168   0.206E-01    0.141E-01
DAV:   5    -0.202990648232E+03    0.99843E-04   -0.61763E-04 11768   0.137E-01    0.110E-01
DAV:   6    -0.202990559251E+03    0.88981E-04   -0.31602E-04 12112   0.975E-02    0.620E-02
DAV:   7    -0.202990523762E+03    0.35490E-04   -0.10509E-04 10720   0.580E-02    0.321E-02
DAV:   8    -0.202990514754E+03    0.90081E-05   -0.29953E-05  7080   0.301E-02
  52 F= -.20299051E+03 E0= -.20049720E+03  d E =-.378705E-02
quench:  g(F)=  0.000E+00 g(S)=  0.000E+00 dE (1.order)= 0.000E+00
 bond charge predicted
       N       E                     dE             d eps       ncg     rms          rms(c)
DAV:   1    -0.202993631764E+03   -0.31080E-02   -0.24838E-01 11136   0.879E-01    0.143E-01
DAV:   2    -0.202994133497E+03   -0.50173E-03   -0.63019E-03 11384   0.162E-01    0.119E-01
DAV:   3    -0.202994379054E+03   -0.24556E-03   -0.11102E-03 12000   0.162E-01    0.196E-01
DAV:   4    -0.202994156364E+03    0.22269E-03   -0.12265E-03 12024   0.159E-01    0.126E-01
DAV:   5    -0.202994036998E+03    0.11937E-03   -0.41297E-04 11680   0.106E-01    0.711E-02
DAV:   6    -0.202994008195E+03    0.28803E-04   -0.17591E-04 11872   0.710E-02    0.505E-02
DAV:   7    -0.202993991514E+03    0.16681E-04   -0.72179E-05  8872   0.479E-02    0.336E-02
DAV:   8    -0.202993981819E+03    0.96947E-05   -0.25219E-05  6816   0.277E-02
  53 F= -.20299398E+03 E0= -.20050133E+03  d E =-.346707E-02
quench:  g(F)=  0.000E+00 g(S)=  0.000E+00 dE (1.order)= 0.000E+00
 bond charge predicted
       N       E                     dE             d eps       ncg     rms          rms(c)
DAV:   1    -0.202997235235E+03   -0.32437E-02   -0.31616E-01 11136   0.102E+00    0.146E-01
DAV:   2    -0.202997900446E+03   -0.66521E-03   -0.77783E-03 11400   0.176E-01    0.124E-01
DAV:   3    -0.202998254462E+03   -0.35402E-03   -0.14779E-03 12168   0.178E-01    0.228E-01
DAV:   4    -0.202997868630E+03    0.38583E-03   -0.12873E-03 12120   0.163E-01    0.111E-01
DAV:   5    -0.202997803910E+03    0.64720E-04   -0.37137E-04 11688   0.107E-01    0.841E-02
DAV:   6    -0.202997773209E+03    0.30701E-04   -0.22859E-04 12112   0.817E-02    0.648E-02
DAV:   7    -0.202997734966E+03    0.38243E-04   -0.99202E-05 10192   0.559E-02    0.295E-02
DAV:   8    -0.202997727499E+03    0.74678E-05   -0.26295E-05  6928   0.280E-02
  54 F= -.20299773E+03 E0= -.20050503E+03  d E =-.374568E-02
quench:  g(F)=  0.000E+00 g(S)=  0.000E+00 dE (1.order)= 0.000E+00
 bond charge predicted
       N       E                     dE             d eps       ncg     rms          rms(c)
DAV:   1    -0.203000687401E+03   -0.29524E-02   -0.35839E-01 11136   0.105E+00    0.178E-01
DAV:   2    -0.203001392686E+03   -0.70529E-03   -0.91387E-03 11400   0.194E-01    0.141E-01
DAV:   3    -0.203001757335E+03   -0.36465E-03   -0.15936E-03 11984   0.196E-01    0.237E-01
DAV:   4    -0.203001436779E+03    0.32056E-03   -0.18580E-03 12040   0.195E-01    0.155E-01
DAV:   5    -0.203001251072E+03    0.18571E-03   -0.61909E-04 11688   0.130E-01    0.859E-02
DAV:   6    -0.203001208952E+03    0.42120E-04   -0.26071E-04 11904   0.858E-02    0.615E-02
DAV:   7    -0.203001183431E+03    0.25521E-04   -0.10437E-04 10160   0.573E-02    0.402E-02
DAV:   8    -0.203001169443E+03    0.13988E-04   -0.35586E-05  7000   0.328E-02    0.145E-02
DAV:   9    -0.203001169394E+03    0.49378E-07   -0.96087E-06  6168   0.156E-02
  55 F= -.20300117E+03 E0= -.20050921E+03  d E =-.344190E-02
quench:  g(F)=  0.000E+00 g(S)=  0.000E+00 dE (1.order)= 0.000E+00
 bond charge predicted
       N       E                     dE             d eps       ncg     rms          rms(c)
DAV:   1    -0.203004133014E+03   -0.29636E-02   -0.26624E-01 11136   0.886E-01    0.166E-01
DAV:   2    -0.203004685890E+03   -0.55288E-03   -0.69963E-03 11440   0.166E-01    0.133E-01
DAV:   3    -0.203005264654E+03   -0.57876E-03   -0.19752E-03 12376   0.208E-01    0.278E-01
DAV:   4    -0.203004605201E+03    0.65945E-03   -0.17443E-03 12224   0.189E-01    0.101E-01
DAV:   5    -0.203004552169E+03    0.53032E-04   -0.37339E-04 11800   0.109E-01    0.842E-02
DAV:   6    -0.203004513942E+03    0.38227E-04   -0.22038E-04 12064   0.803E-02    0.593E-02
DAV:   7    -0.203004483284E+03    0.30657E-04   -0.86602E-05  9360   0.520E-02    0.312E-02
DAV:   8    -0.203004475189E+03    0.80959E-05   -0.25447E-05  6912   0.269E-02
  56 F= -.20300448E+03 E0= -.20051237E+03  d E =-.330579E-02
quench:  g(F)=  0.000E+00 g(S)=  0.000E+00 dE (1.order)= 0.000E+00
 bond charge predicted
       N       E                     dE             d eps       ncg     rms          rms(c)
DAV:   1    -0.203007220352E+03   -0.27371E-02   -0.21125E-01 11136   0.816E-01    0.132E-01
DAV:   2    -0.203007645780E+03   -0.42543E-03   -0.53710E-03 11384   0.148E-01    0.106E-01
DAV:   3    -0.203007864774E+03   -0.21899E-03   -0.93463E-04 12008   0.147E-01    0.181E-01
DAV:   4    -0.203007659014E+03    0.20576E-03   -0.10312E-03 12048   0.145E-01    0.109E-01
DAV:   5    -0.203007575662E+03    0.83352E-04   -0.31979E-04 11760   0.952E-02    0.683E-02
DAV:   6    -0.203007554057E+03    0.21605E-04   -0.16270E-04 11696   0.681E-02    0.522E-02
DAV:   7    -0.203007533260E+03    0.20797E-04   -0.69738E-05  8520   0.470E-02    0.302E-02
DAV:   8    -0.203007524907E+03    0.83529E-05   -0.20664E-05  6744   0.256E-02
  57 F= -.20300752E+03 E0= -.20051599E+03  d E =-.304972E-02
quench:  g(F)=  0.000E+00 g(S)=  0.000E+00 dE (1.order)= 0.000E+00
 bond charge predicted
       N       E                     dE             d eps       ncg     rms          rms(c)
DAV:   1    -0.203010441697E+03   -0.29084E-02   -0.27400E-01 11136   0.952E-01    0.135E-01
DAV:   2    -0.203011021003E+03   -0.57931E-03   -0.67298E-03 11400   0.164E-01    0.114E-01
DAV:   3    -0.203011326968E+03   -0.30597E-03   -0.12583E-03 12120   0.165E-01    0.211E-01
DAV:   4    -0.203010994356E+03    0.33261E-03   -0.11108E-03 12056   0.151E-01    0.102E-01
DAV:   5    -0.203010928913E+03    0.65443E-04   -0.30535E-04 11656   0.958E-02    0.711E-02
DAV:   6    -0.203010913954E+03    0.14959E-04   -0.17444E-04 12008   0.716E-02    0.607E-02
DAV:   7    -0.203010883028E+03    0.30926E-04   -0.91259E-05  9192   0.524E-02    0.316E-02
DAV:   8    -0.203010874525E+03    0.85037E-05   -0.26638E-05  6872   0.277E-02
  58 F= -.20301087E+03 E0= -.20051934E+03  d E =-.334962E-02
quench:  g(F)=  0.000E+00 g(S)=  0.000E+00 dE (1.order)= 0.000E+00
 bond charge predicted
       N       E                     dE             d eps       ncg     rms          rms(c)
DAV:   1    -0.203013560944E+03   -0.26779E-02   -0.31373E-01 11136   0.989E-01    0.166E-01
DAV:   2    -0.203014184468E+03   -0.62352E-03   -0.80277E-03 11408   0.181E-01    0.130E-01
DAV:   3    -0.203014513742E+03   -0.32927E-03   -0.14059E-03 11976   0.183E-01    0.223E-01
DAV:   4    -0.203014209800E+03    0.30394E-03   -0.16050E-03 12040   0.181E-01    0.138E-01
DAV:   5    -0.203014059233E+03    0.15057E-03   -0.48324E-04 11720   0.117E-01    0.764E-02
DAV:   6    -0.203014036197E+03    0.23036E-04   -0.23187E-04 11968   0.802E-02    0.633E-02
DAV:   7    -0.203014006144E+03    0.30053E-04   -0.10423E-04  9840   0.566E-02    0.371E-02
DAV:   8    -0.203013993660E+03    0.12484E-04   -0.30521E-05  6936   0.307E-02    0.127E-02
DAV:   9    -0.203013993925E+03   -0.26479E-06   -0.80353E-06  6112   0.137E-02
  59 F= -.20301399E+03 E0= -.20052309E+03  d E =-.311940E-02
quench:  g(F)=  0.000E+00 g(S)=  0.000E+00 dE (1.order)= 0.000E+00
 bond charge predicted
       N       E                     dE             d eps       ncg     rms          rms(c)
DAV:   1    -0.203016645220E+03   -0.26516E-02   -0.23202E-01 11136   0.830E-01    0.155E-01
DAV:   2    -0.203017127624E+03   -0.48240E-03   -0.60914E-03 11440   0.154E-01    0.122E-01
DAV:   3    -0.203017653969E+03   -0.52634E-03   -0.17499E-03 12392   0.196E-01    0.263E-01
DAV:   4    -0.203017053466E+03    0.60050E-03   -0.15277E-03 12248   0.177E-01    0.902E-02
DAV:   5    -0.203017014352E+03    0.39114E-04   -0.31054E-04 11832   0.999E-02    0.779E-02
DAV:   6    -0.203016981873E+03    0.32479E-04   -0.19649E-04 12048   0.750E-02    0.554E-02
DAV:   7    -0.203016953731E+03    0.28142E-04   -0.72663E-05  8960   0.481E-02    0.271E-02
DAV:   8    -0.203016947669E+03    0.60620E-05   -0.20021E-05  6808   0.239E-02
  60 F= -.20301695E+03 E0= -.20052589E+03  d E =-.295374E-02
quench:  g(F)=  0.000E+00 g(S)=  0.000E+00 dE (1.order)= 0.000E+00
 bond charge predicted
       N       E                     dE             d eps       ncg     rms          rms(c)
DAV:   1    -0.203019429888E+03   -0.24762E-02   -0.18398E-01 11136   0.765E-01    0.123E-01
DAV:   2    -0.203019800778E+03   -0.37089E-03   -0.46797E-03 11392   0.138E-01    0.973E-02
DAV:   3    -0.203019968930E+03   -0.16815E-03   -0.75768E-04 11952   0.134E-01    0.161E-01
DAV:   4    -0.203019819934E+03    0.14900E-03   -0.87147E-04 12016   0.134E-01    0.105E-01
DAV:   5    -0.203019736054E+03    0.83880E-04   -0.27862E-04 11640   0.878E-02    0.593E-02
DAV:   6    -0.203019722431E+03    0.13624E-04   -0.12653E-04 11192   0.606E-02    0.489E-02
DAV:   7    -0.203019704471E+03    0.17960E-04   -0.57847E-05  7896   0.429E-02    0.278E-02
DAV:   8    -0.203019697554E+03    0.69173E-05   -0.18027E-05  6608   0.234E-02
  61 F= -.20301970E+03 E0= -.20052916E+03  d E =-.274988E-02
quench:  g(F)=  0.000E+00 g(S)=  0.000E+00 dE (1.order)= 0.000E+00
 bond charge predicted
       N       E                     dE             d eps       ncg     rms          rms(c)
DAV:   1    -0.203022356412E+03   -0.26519E-02   -0.24075E-01 11136   0.896E-01    0.126E-01
DAV:   2    -0.203022869319E+03   -0.51291E-03   -0.59047E-03 11392   0.154E-01    0.107E-01
DAV:   3    -0.203023148311E+03   -0.27899E-03   -0.11473E-03 12192   0.157E-01    0.200E-01
DAV:   4    -0.203022839340E+03    0.30897E-03   -0.96527E-04 12120   0.141E-01    0.919E-02
DAV:   5    -0.203022789859E+03    0.49482E-04   -0.26055E-04 11688   0.886E-02    0.674E-02
DAV:   6    -0.203022774462E+03    0.15397E-04   -0.15989E-04 11832   0.676E-02    0.561E-02
DAV:   7    -0.203022747155E+03    0.27307E-04   -0.76741E-05  8792   0.486E-02    0.284E-02
DAV:   8    -0.203022740280E+03    0.68754E-05   -0.22193E-05  6760   0.252E-02
  62 F= -.20302274E+03 E0= -.20053220E+03  d E =-.304273E-02
quench:  g(F)=  0.000E+00 g(S)=  0.000E+00 dE (1.order)= 0.000E+00
 bond charge predicted
       N       E                     dE             d eps       ncg     rms          rms(c)
DAV:   1    -0.203025197954E+03   -0.24508E-02   -0.27493E-01 11136   0.929E-01    0.155E-01
DAV:   2    -0.203025743596E+03   -0.54564E-03   -0.70315E-03 11416   0.170E-01    0.120E-01
DAV:   3    -0.203025984265E+03   -0.24067E-03   -0.11130E-03 11928   0.165E-01    0.195E-01
DAV:   4    -0.203025784232E+03    0.20003E-03   -0.13502E-03 12048   0.167E-01    0.135E-01
DAV:   5    -0.203025628699E+03    0.15553E-03   -0.43294E-04 11632   0.109E-01    0.651E-02
DAV:   6    -0.203025613447E+03    0.15253E-04   -0.17218E-04 11824   0.703E-02    0.569E-02
DAV:   7    -0.203025589076E+03    0.24371E-04   -0.78854E-05  8856   0.495E-02    0.325E-02
DAV:   8    -0.203025580144E+03    0.89317E-05   -0.24659E-05  6776   0.271E-02
  63 F= -.20302558E+03 E0= -.20053566E+03  d E =-.283986E-02
quench:  g(F)=  0.000E+00 g(S)=  0.000E+00 dE (1.order)= 0.000E+00
 bond charge predicted
       N       E                     dE             d eps       ncg     rms          rms(c)
DAV:   1    -0.203027981815E+03   -0.23927E-02   -0.20438E-01 11136   0.782E-01    0.145E-01
DAV:   2    -0.203028426104E+03   -0.44429E-03   -0.54184E-03 11440   0.150E-01    0.121E-01
DAV:   3    -0.203028807285E+03   -0.38118E-03   -0.15275E-03 12288   0.182E-01    0.232E-01
DAV:   4    -0.203028404524E+03    0.40276E-03   -0.13497E-03 12184   0.166E-01    0.113E-01
DAV:   5    -0.203028322146E+03    0.82379E-04   -0.37728E-04 11752   0.106E-01    0.780E-02
DAV:   6    -0.203028288907E+03    0.33239E-04   -0.19092E-04 12088   0.749E-02    0.562E-02
DAV:   7    -0.203028260994E+03    0.27913E-04   -0.81335E-05  8872   0.502E-02    0.292E-02
DAV:   8    -0.203028253388E+03    0.76062E-05   -0.22768E-05  6880   0.261E-02
  64 F= -.20302825E+03 E0= -.20053819E+03  d E =-.267324E-02
quench:  g(F)=  0.000E+00 g(S)=  0.000E+00 dE (1.order)= 0.000E+00
 bond charge predicted
       N       E                     dE             d eps       ncg     rms          rms(c)
DAV:   1    -0.203030504924E+03   -0.22439E-02   -0.16000E-01 11136   0.716E-01    0.115E-01
DAV:   2    -0.203030833800E+03   -0.32888E-03   -0.40976E-03 11400   0.131E-01    0.929E-02
DAV:   3    -0.203030983495E+03   -0.14969E-03   -0.68338E-04 11968   0.128E-01    0.153E-01
DAV:   4    -0.203030850558E+03    0.13294E-03   -0.77275E-04 11984   0.126E-01    0.998E-02
DAV:   5    -0.203030772905E+03    0.77653E-04   -0.25347E-04 11624   0.834E-02    0.546E-02
DAV:   6    -0.203030758939E+03    0.13966E-04   -0.10821E-04 10960   0.557E-02    0.430E-02
DAV:   7    -0.203030746352E+03    0.12587E-04   -0.48204E-05  7160   0.394E-02    0.274E-02
DAV:   8    -0.203030739793E+03    0.65583E-05   -0.16472E-05  6544   0.224E-02
  65 F= -.20303074E+03 E0= -.20054116E+03  d E =-.248641E-02
quench:  g(F)=  0.000E+00 g(S)=  0.000E+00 dE (1.order)= 0.000E+00
 bond charge predicted
       N       E                     dE             d eps       ncg     rms          rms(c)
DAV:   1    -0.203033168181E+03   -0.24218E-02   -0.21083E-01 11136   0.841E-01    0.117E-01
DAV:   2    -0.203033618507E+03   -0.45033E-03   -0.51755E-03 11384   0.144E-01    0.987E-02
DAV:   3    -0.203033864764E+03   -0.24626E-03   -0.10019E-03 12168   0.147E-01    0.187E-01
DAV:   4    -0.203033598051E+03    0.26671E-03   -0.85373E-04 12120   0.132E-01    0.878E-02
DAV:   5    -0.203033552393E+03    0.45658E-04   -0.23040E-04 11648   0.833E-02    0.634E-02
DAV:   6    -0.203033537560E+03    0.14832E-04   -0.13825E-04 11592   0.633E-02    0.520E-02
DAV:   7    -0.203033513831E+03    0.23729E-04   -0.65464E-05  8400   0.451E-02    0.258E-02
DAV:   8    -0.203033508074E+03    0.57574E-05   -0.18741E-05  6560   0.234E-02
  66 F= -.20303351E+03 E0= -.20054391E+03  d E =-.276828E-02
quench:  g(F)=  0.000E+00 g(S)=  0.000E+00 dE (1.order)= 0.000E+00
 bond charge predicted
       N       E                     dE             d eps       ncg     rms          rms(c)
DAV:   1    -0.203035770889E+03   -0.22571E-02   -0.23987E-01 11136   0.871E-01    0.145E-01
DAV:   2    -0.203036253703E+03   -0.48281E-03   -0.61632E-03 11424   0.160E-01    0.113E-01
DAV:   3    -0.203036465769E+03   -0.21207E-03   -0.99359E-04 11928   0.155E-01    0.184E-01
DAV:   4    -0.203036288619E+03    0.17715E-03   -0.11869E-03 12056   0.156E-01    0.127E-01
DAV:   5    -0.203036156021E+03    0.13260E-03   -0.39480E-04 11688   0.104E-01    0.649E-02
DAV:   6    -0.203036135630E+03    0.20391E-04   -0.16106E-04 11808   0.674E-02    0.513E-02
DAV:   7    -0.203036116284E+03    0.19346E-04   -0.66920E-05  8640   0.460E-02    0.308E-02
DAV:   8    -0.203036108392E+03    0.78916E-05   -0.22261E-05  6672   0.257E-02
  67 F= -.20303611E+03 E0= -.20054711E+03  d E =-.260032E-02
quench:  g(F)=  0.000E+00 g(S)=  0.000E+00 dE (1.order)= 0.000E+00
 bond charge predicted
       N       E                     dE             d eps       ncg     rms          rms(c)
DAV:   1    -0.203038295744E+03   -0.21795E-02   -0.18006E-01 11136   0.736E-01    0.136E-01
DAV:   2    -0.203038685670E+03   -0.38993E-03   -0.47623E-03 11440   0.140E-01    0.112E-01
DAV:   3    -0.203039026659E+03   -0.34099E-03   -0.13379E-03 12280   0.170E-01    0.218E-01
DAV:   4    -0.203038669333E+03    0.35733E-03   -0.11968E-03 12168   0.156E-01    0.106E-01
DAV:   5    -0.203038598887E+03    0.70445E-04   -0.32850E-04 11736   0.996E-02    0.741E-02
DAV:   6    -0.203038567747E+03    0.31140E-04   -0.16774E-04 11936   0.703E-02    0.520E-02
DAV:   7    -0.203038542879E+03    0.24868E-04   -0.68555E-05  8456   0.466E-02    0.257E-02
DAV:   8    -0.203038537043E+03    0.58353E-05   -0.18683E-05  6696   0.237E-02
  68 F= -.20303854E+03 E0= -.20054940E+03  d E =-.242865E-02
quench:  g(F)=  0.000E+00 g(S)=  0.000E+00 dE (1.order)= 0.000E+00
 bond charge predicted
       N       E                     dE             d eps       ncg     rms          rms(c)
DAV:   1    -0.203040618819E+03   -0.20759E-02   -0.14205E-01 11136   0.676E-01    0.108E-01
DAV:   2    -0.203040911085E+03   -0.29227E-03   -0.36350E-03 11400   0.124E-01    0.875E-02
[...]
 142 F= -.20315279E+03 E0= -.20067384E+03  d E =-.120436E-02
quench:  g(F)=  0.000E+00 g(S)=  0.000E+00 dE (1.order)= 0.000E+00
 bond charge predicted
       N       E                     dE             d eps       ncg     rms          rms(c)
DAV:   1    -0.203153823803E+03   -0.10219E-02   -0.38084E-02 11136   0.334E-01    0.622E-02
DAV:   2    -0.203153940379E+03   -0.11658E-03   -0.11351E-03 11336   0.949E-02    0.824E-02
DAV:   3    -0.203153916688E+03    0.23692E-04   -0.26210E-04 11864   0.827E-02    0.675E-02
DAV:   4    -0.203153915130E+03    0.15578E-05   -0.19214E-04  9088   0.631E-02    0.667E-02
DAV:   5    -0.203153881123E+03    0.34007E-04   -0.11232E-04  7896   0.501E-02    0.305E-02
DAV:   6    -0.203153875355E+03    0.57674E-05   -0.40452E-05  7224   0.352E-02
 143 F= -.20315388E+03 E0= -.20067500E+03  d E =-.108320E-02
quench:  g(F)=  0.000E+00 g(S)=  0.000E+00 dE (1.order)= 0.000E+00
 bond charge predicted
       N       E                     dE             d eps       ncg     rms          rms(c)
DAV:   1    -0.203155013380E+03   -0.11323E-02   -0.42933E-02 11136   0.369E-01    0.521E-02
DAV:   2    -0.203155142471E+03   -0.12909E-03   -0.10968E-03 11384   0.869E-02    0.777E-02
DAV:   3    -0.203155115154E+03    0.27317E-04   -0.19502E-04 11696   0.748E-02    0.574E-02
DAV:   4    -0.203155120050E+03   -0.48961E-05   -0.15034E-04  8160   0.557E-02    0.638E-02
DAV:   5    -0.203155087772E+03    0.32278E-04   -0.91304E-05  7224   0.434E-02    0.241E-02
DAV:   6    -0.203155084046E+03    0.37264E-05   -0.25809E-05  6928   0.283E-02
 144 F= -.20315508E+03 E0= -.20067632E+03  d E =-.120869E-02
quench:  g(F)=  0.000E+00 g(S)=  0.000E+00 dE (1.order)= 0.000E+00
 bond charge predicted
       N       E                     dE             d eps       ncg     rms          rms(c)
DAV:   1    -0.203156426814E+03   -0.13390E-02   -0.56231E-02 11136   0.425E-01    0.597E-02
DAV:   2    -0.203156564881E+03   -0.13807E-03   -0.14705E-03 11368   0.929E-02    0.728E-02
DAV:   3    -0.203156542062E+03    0.22819E-04   -0.19402E-04 11864   0.710E-02    0.530E-02
DAV:   4    -0.203156560978E+03   -0.18916E-04   -0.15103E-04  8032   0.570E-02    0.705E-02
DAV:   5    -0.203156524590E+03    0.36388E-04   -0.12497E-04  7336   0.519E-02    0.338E-02
DAV:   6    -0.203156516044E+03    0.85460E-05   -0.41906E-05  7152   0.350E-02
 145 F= -.20315652E+03 E0= -.20067788E+03  d E =-.143200E-02
quench:  g(F)=  0.000E+00 g(S)=  0.000E+00 dE (1.order)= 0.000E+00
 bond charge predicted
       N       E                     dE             d eps       ncg     rms          rms(c)
DAV:   1    -0.203157681526E+03   -0.11569E-02   -0.64401E-02 11136   0.435E-01    0.755E-02
DAV:   2    -0.203157894309E+03   -0.21278E-03   -0.17463E-03 11400   0.112E-01    0.109E-01
DAV:   3    -0.203157829969E+03    0.64341E-04   -0.35867E-04 11728   0.103E-01    0.742E-02
DAV:   4    -0.203157875628E+03   -0.45660E-04   -0.31869E-04 11160   0.814E-02    0.105E-01
DAV:   5    -0.203157782570E+03    0.93058E-04   -0.23487E-04  9376   0.682E-02    0.317E-02
DAV:   6    -0.203157775270E+03    0.73004E-05   -0.50860E-05  7976   0.397E-02
 146 F= -.20315778E+03 E0= -.20067924E+03  d E =-.125923E-02
quench:  g(F)=  0.000E+00 g(S)=  0.000E+00 dE (1.order)= 0.000E+00
 bond charge predicted
       N       E                     dE             d eps       ncg     rms          rms(c)
DAV:   1    -0.203158817385E+03   -0.10348E-02   -0.39725E-02 11136   0.338E-01    0.648E-02
DAV:   2    -0.203158932544E+03   -0.11516E-03   -0.11802E-03 11352   0.948E-02    0.817E-02
DAV:   3    -0.203158904749E+03    0.27795E-04   -0.25418E-04 11848   0.818E-02    0.630E-02
DAV:   4    -0.203158920234E+03   -0.15485E-04   -0.20821E-04  9280   0.654E-02    0.757E-02
DAV:   5    -0.203158874850E+03    0.45384E-04   -0.13627E-04  8248   0.553E-02    0.320E-02
DAV:   6    -0.203158863764E+03    0.11086E-04   -0.34780E-05  7376   0.337E-02    0.158E-02
DAV:   7    -0.203158862781E+03    0.98301E-06   -0.10255E-05  6416   0.180E-02
 147 F= -.20315886E+03 E0= -.20068048E+03  d E =-.108751E-02
quench:  g(F)=  0.000E+00 g(S)=  0.000E+00 dE (1.order)= 0.000E+00
 bond charge predicted
       N       E                     dE             d eps       ncg     rms          rms(c)
DAV:   1    -0.203159947867E+03   -0.10841E-02   -0.40482E-02 11136   0.354E-01    0.513E-02
DAV:   2    -0.203160043478E+03   -0.95610E-04   -0.10048E-03 11360   0.680E-02    0.564E-02
DAV:   3    -0.203160054857E+03   -0.11380E-04   -0.19088E-04 11232   0.632E-02    0.646E-02
DAV:   4    -0.203160048268E+03    0.65892E-05   -0.15561E-04  7608   0.571E-02    0.597E-02
DAV:   5    -0.203160017444E+03    0.30825E-04   -0.63641E-05  6880   0.434E-02    0.232E-02
DAV:   6    -0.203160013424E+03    0.40200E-05   -0.17197E-05  7024   0.245E-02
 148 F= -.20316001E+03 E0= -.20068161E+03  d E =-.115064E-02
quench:  g(F)=  0.000E+00 g(S)=  0.000E+00 dE (1.order)= 0.000E+00
 bond charge predicted
       N       E                     dE             d eps       ncg     rms          rms(c)
DAV:   1    -0.203161319971E+03   -0.13025E-02   -0.51574E-02 11136   0.405E-01    0.566E-02
DAV:   2    -0.203161430727E+03   -0.11076E-03   -0.13020E-03 11384   0.785E-02    0.572E-02
DAV:   3    -0.203161422223E+03    0.85045E-05   -0.13697E-04 11912   0.585E-02    0.471E-02
DAV:   4    -0.203161436527E+03   -0.14304E-04   -0.12651E-04  7824   0.520E-02    0.636E-02
DAV:   5    -0.203161411176E+03    0.25351E-04   -0.11518E-04  7256   0.494E-02    0.365E-02
DAV:   6    -0.203161401320E+03    0.98558E-05   -0.38137E-05  7160   0.346E-02
 149 F= -.20316140E+03 E0= -.20068322E+03  d E =-.138790E-02
quench:  g(F)=  0.000E+00 g(S)=  0.000E+00 dE (1.order)= 0.000E+00
 bond charge predicted
       N       E                     dE             d eps       ncg     rms          rms(c)
DAV:   1    -0.203162588673E+03   -0.11775E-02   -0.64492E-02 11136   0.436E-01    0.735E-02
DAV:   2    -0.203162781869E+03   -0.19320E-03   -0.17471E-03 11320   0.107E-01    0.101E-01
DAV:   3    -0.203162729849E+03    0.52020E-04   -0.36570E-04 11864   0.944E-02    0.669E-02
DAV:   4    -0.203162774876E+03   -0.45027E-04   -0.29367E-04 10744   0.759E-02    0.983E-02
DAV:   5    -0.203162695415E+03    0.79460E-04   -0.18951E-04  8560   0.673E-02    0.362E-02
DAV:   6    -0.203162685358E+03    0.10058E-04   -0.45425E-05  7824   0.399E-02    0.254E-02
DAV:   7    -0.203162680881E+03    0.44763E-05   -0.23037E-05  6848   0.264E-02
 150 F= -.20316268E+03 E0= -.20068450E+03  d E =-.127956E-02
quench:  g(F)=  0.000E+00 g(S)=  0.000E+00 dE (1.order)= 0.000E+00
 bond charge predicted
       N       E                     dE             d eps       ncg     rms          rms(c)
DAV:   1    -0.203163727222E+03   -0.10419E-02   -0.41137E-02 11136   0.340E-01    0.648E-02
DAV:   2    -0.203163809798E+03   -0.82577E-04   -0.11074E-03 11416   0.685E-02    0.557E-02
DAV:   3    -0.203163852030E+03   -0.42232E-04   -0.22535E-04 11592   0.725E-02    0.861E-02
DAV:   4    -0.203163815301E+03    0.36729E-04   -0.25017E-04  9120   0.713E-02    0.609E-02
DAV:   5    -0.203163787573E+03    0.27728E-04   -0.10207E-04  9024   0.519E-02    0.340E-02
DAV:   6    -0.203163777198E+03    0.10376E-04   -0.34612E-05  7288   0.330E-02    0.180E-02
DAV:   7    -0.203163774684E+03    0.25140E-05   -0.10019E-05  6256   0.186E-02
 151 F= -.20316377E+03 E0= -.20068577E+03  d E =-.109380E-02
quench:  g(F)=  0.000E+00 g(S)=  0.000E+00 dE (1.order)= 0.000E+00
 bond charge predicted
       N       E                     dE             d eps       ncg     rms          rms(c)
DAV:   1    -0.203164823872E+03   -0.10467E-02   -0.38838E-02 11136   0.342E-01    0.520E-02
DAV:   2    -0.203164909408E+03   -0.85536E-04   -0.95030E-04 11392   0.621E-02    0.483E-02
DAV:   3    -0.203164945537E+03   -0.36129E-04   -0.16998E-04 10632   0.656E-02    0.775E-02
DAV:   4    -0.203164910301E+03    0.35236E-04   -0.17136E-04  7808   0.589E-02    0.513E-02
DAV:   5    -0.203164890120E+03    0.20181E-04   -0.67426E-05  7168   0.394E-02    0.243E-02
DAV:   6    -0.203164886344E+03    0.37766E-05   -0.22292E-05  6992   0.271E-02
 152 F= -.20316489E+03 E0= -.20068693E+03  d E =-.111166E-02
quench:  g(F)=  0.000E+00 g(S)=  0.000E+00 dE (1.order)= 0.000E+00
 bond charge predicted
       N       E                     dE             d eps       ncg     rms          rms(c)
DAV:   1    -0.203166182764E+03   -0.12926E-02   -0.47870E-02 11136   0.390E-01    0.536E-02
DAV:   2    -0.203166286626E+03   -0.10386E-03   -0.12091E-03 11384   0.758E-02    0.552E-02
DAV:   3    -0.203166282925E+03    0.37011E-05   -0.13006E-04 11904   0.574E-02    0.505E-02
DAV:   4    -0.203166294542E+03   -0.11617E-04   -0.12807E-04  7440   0.527E-02    0.628E-02
DAV:   5    -0.203166264975E+03    0.29568E-04   -0.97968E-05  7232   0.462E-02    0.295E-02
DAV:   6    -0.203166259019E+03    0.59551E-05   -0.32479E-05  7072   0.314E-02
 153 F= -.20316626E+03 E0= -.20068837E+03  d E =-.137268E-02
quench:  g(F)=  0.000E+00 g(S)=  0.000E+00 dE (1.order)= 0.000E+00
 bond charge predicted
       N       E                     dE             d eps       ncg     rms          rms(c)
DAV:   1    -0.203167500106E+03   -0.12351E-02   -0.66320E-02 11136   0.444E-01    0.704E-02
DAV:   2    -0.203167679161E+03   -0.17906E-03   -0.16911E-03 11400   0.991E-02    0.882E-02
DAV:   3    -0.203167660218E+03    0.18943E-04   -0.29098E-04 11920   0.919E-02    0.770E-02
DAV:   4    -0.203167679772E+03   -0.19554E-04   -0.28434E-04 10752   0.769E-02    0.926E-02
DAV:   5    -0.203167608921E+03    0.70852E-04   -0.19154E-04  8744   0.620E-02    0.320E-02
DAV:   6    -0.203167602201E+03    0.67192E-05   -0.48894E-05  7584   0.391E-02
 154 F= -.20316760E+03 E0= -.20068990E+03  d E =-.134318E-02
quench:  g(F)=  0.000E+00 g(S)=  0.000E+00 dE (1.order)= 0.000E+00
 bond charge predicted
       N       E                     dE             d eps       ncg     rms          rms(c)
DAV:   1    -0.203168693283E+03   -0.10844E-02   -0.45139E-02 11136   0.357E-01    0.679E-02
DAV:   2    -0.203168799263E+03   -0.10598E-03   -0.12728E-03 11384   0.880E-02    0.711E-02
DAV:   3    -0.203168804632E+03   -0.53689E-05   -0.24569E-04 11904   0.796E-02    0.756E-02
DAV:   4    -0.203168796050E+03    0.85820E-05   -0.23787E-04  9640   0.699E-02    0.700E-02
DAV:   5    -0.203168759999E+03    0.36051E-04   -0.13091E-04  9312   0.550E-02    0.362E-02
DAV:   6    -0.203168746687E+03    0.13312E-04   -0.41988E-05  7552   0.375E-02    0.179E-02
DAV:   7    -0.203168744153E+03    0.25334E-05   -0.10558E-05  6448   0.186E-02
 155 F= -.20316874E+03 E0= -.20069113E+03  d E =-.114195E-02
quench:  g(F)=  0.000E+00 g(S)=  0.000E+00 dE (1.order)= 0.000E+00
 bond charge predicted
       N       E                     dE             d eps       ncg     rms          rms(c)
DAV:   1    -0.203169774302E+03   -0.10276E-02   -0.39015E-02 11136   0.338E-01    0.542E-02
DAV:   2    -0.203169857453E+03   -0.83150E-04   -0.96653E-04 11392   0.611E-02    0.473E-02
DAV:   3    -0.203169911256E+03   -0.53803E-04   -0.21875E-04 10408   0.695E-02    0.883E-02
DAV:   4    -0.203169848212E+03    0.63044E-04   -0.18034E-04  8112   0.609E-02    0.370E-02
DAV:   5    -0.203169839320E+03    0.88919E-05   -0.47406E-05  7208   0.364E-02
 156 F= -.20316984E+03 E0= -.20069217E+03  d E =-.109517E-02
quench:  g(F)=  0.000E+00 g(S)=  0.000E+00 dE (1.order)= 0.000E+00
 bond charge predicted
       N       E                     dE             d eps       ncg     rms          rms(c)
DAV:   1    -0.203171131182E+03   -0.12830E-02   -0.44870E-02 11136   0.377E-01    0.528E-02
DAV:   2    -0.203171275913E+03   -0.14473E-03   -0.12369E-03 11256   0.966E-02    0.896E-02
DAV:   3    -0.203171221709E+03    0.54204E-04   -0.21934E-04 11752   0.737E-02    0.468E-02
DAV:   4    -0.203171232332E+03   -0.10623E-04   -0.11436E-04  7576   0.474E-02    0.585E-02
DAV:   5    -0.203171211920E+03    0.20412E-04   -0.84945E-05  6968   0.452E-02    0.340E-02
DAV:   6    -0.203171202731E+03    0.91887E-05   -0.31814E-05  7088   0.327E-02
 157 F= -.20317120E+03 E0= -.20069383E+03  d E =-.136341E-02
quench:  g(F)=  0.000E+00 g(S)=  0.000E+00 dE (1.order)= 0.000E+00
 bond charge predicted
       N       E                     dE             d eps       ncg     rms          rms(c)
DAV:   1    -0.203172513839E+03   -0.13019E-02   -0.68726E-02 11136   0.455E-01    0.677E-02
DAV:   2    -0.203172673456E+03   -0.15962E-03   -0.17139E-03 11360   0.959E-02    0.725E-02
DAV:   3    -0.203172680473E+03   -0.70177E-05   -0.28916E-04 11880   0.840E-02    0.780E-02
DAV:   4    -0.203172674361E+03    0.61120E-05   -0.26039E-04 10152   0.721E-02    0.747E-02
DAV:   5    -0.203172629292E+03    0.45069E-04   -0.11602E-04  8448   0.549E-02    0.331E-02
DAV:   6    -0.203172624131E+03    0.51618E-05   -0.38803E-05  7272   0.362E-02
 158 F= -.20317262E+03 E0= -.20069514E+03  d E =-.142140E-02
quench:  g(F)=  0.000E+00 g(S)=  0.000E+00 dE (1.order)= 0.000E+00
 bond charge predicted
       N       E                     dE             d eps       ncg     rms          rms(c)
DAV:   1    -0.203173750467E+03   -0.11212E-02   -0.50138E-02 11136   0.374E-01    0.727E-02
DAV:   2    -0.203173913857E+03   -0.16339E-03   -0.15145E-03 11368   0.109E-01    0.103E-01
DAV:   3    -0.203173847208E+03    0.66650E-04   -0.31021E-04 11864   0.909E-02    0.600E-02
DAV:   4    -0.203173851659E+03   -0.44512E-05   -0.17868E-04 10912   0.606E-02    0.670E-02
DAV:   5    -0.203173850187E+03    0.14719E-05   -0.19560E-04  8176   0.646E-02    0.648E-02
DAV:   6    -0.203173812597E+03    0.37590E-04   -0.95000E-05  8328   0.521E-02    0.282E-02
DAV:   7    -0.203173807217E+03    0.53797E-05   -0.26038E-05  6952   0.285E-02
 159 F= -.20317381E+03 E0= -.20069654E+03  d E =-.118309E-02
quench:  g(F)=  0.000E+00 g(S)=  0.000E+00 dE (1.order)= 0.000E+00
 bond charge predicted
       N       E                     dE             d eps       ncg     rms          rms(c)
DAV:   1    -0.203174824640E+03   -0.10120E-02   -0.41297E-02 11136   0.342E-01    0.594E-02
DAV:   2    -0.203174913341E+03   -0.88701E-04   -0.10456E-03 11384   0.645E-02    0.526E-02
DAV:   3    -0.203174975594E+03   -0.62253E-04   -0.27234E-04 10896   0.759E-02    0.955E-02
DAV:   4    -0.203174900120E+03    0.75474E-04   -0.21218E-04  9392   0.662E-02    0.387E-02
DAV:   5    -0.203174894522E+03    0.55981E-05   -0.57285E-05  7432   0.413E-02
 160 F= -.20317489E+03 E0= -.20069778E+03  d E =-.108730E-02
quench:  g(F)=  0.000E+00 g(S)=  0.000E+00 dE (1.order)= 0.000E+00
 bond charge predicted
       N       E                     dE             d eps       ncg     rms          rms(c)
DAV:   1    -0.203176128868E+03   -0.12287E-02   -0.40555E-02 11136   0.356E-01    0.504E-02
DAV:   2    -0.203176272041E+03   -0.14317E-03   -0.11129E-03 11424   0.945E-02    0.897E-02
DAV:   3    -0.203176220752E+03    0.51289E-04   -0.20582E-04 11616   0.772E-02    0.552E-02
DAV:   4    -0.203176218868E+03    0.18838E-05   -0.11887E-04  7512   0.490E-02    0.548E-02
DAV:   5    -0.203176197663E+03    0.21205E-04   -0.71904E-05  7088   0.388E-02    0.249E-02
DAV:   6    -0.203176194045E+03    0.36183E-05   -0.28497E-05  7056   0.290E-02
 161 F= -.20317619E+03 E0= -.20069908E+03  d E =-.129952E-02
quench:  g(F)=  0.000E+00 g(S)=  0.000E+00 dE (1.order)= 0.000E+00
 bond charge predicted
       N       E                     dE             d eps       ncg     rms          rms(c)
DAV:   1    -0.203177557876E+03   -0.13602E-02   -0.67316E-02 11136   0.452E-01    0.633E-02
DAV:   2    -0.203177709805E+03   -0.15193E-03   -0.16436E-03 11376   0.906E-02    0.670E-02
DAV:   3    -0.203177732646E+03   -0.22840E-04   -0.28070E-04 11912   0.806E-02    0.835E-02
DAV:   4    -0.203177701171E+03    0.31474E-04   -0.22830E-04  9784   0.684E-02    0.604E-02
DAV:   5    -0.203177671779E+03    0.29393E-04   -0.85782E-05  7936   0.467E-02    0.289E-02
DAV:   6    -0.203177665226E+03    0.65526E-05   -0.30753E-05  7256   0.318E-02
 162 F= -.20317767E+03 E0= -.20070059E+03  d E =-.147118E-02
quench:  g(F)=  0.000E+00 g(S)=  0.000E+00 dE (1.order)= 0.000E+00
 bond charge predicted
       N       E                     dE             d eps       ncg     rms          rms(c)
DAV:   1    -0.203178861003E+03   -0.11892E-02   -0.56358E-02 11136   0.398E-01    0.739E-02
DAV:   2    -0.203178995809E+03   -0.13481E-03   -0.15619E-03 11408   0.930E-02    0.823E-02
DAV:   3    -0.203178977941E+03    0.17868E-04   -0.25988E-04 11936   0.801E-02    0.677E-02
DAV:   4    -0.203179006241E+03   -0.28300E-04   -0.28204E-04 10456   0.736E-02    0.900E-02
DAV:   5    -0.203178956074E+03    0.50166E-04   -0.21037E-04  9384   0.688E-02    0.521E-02
DAV:   6    -0.203178937107E+03    0.18967E-04   -0.75944E-05  8744   0.494E-02    0.336E-02
DAV:   7    -0.203178926373E+03    0.10734E-04   -0.28788E-05  6936   0.302E-02    0.154E-02
DAV:   8    -0.203178924316E+03    0.20570E-05   -0.68122E-06  6224   0.151E-02
 163 F= -.20317892E+03 E0= -.20070212E+03  d E =-.125909E-02
quench:  g(F)=  0.000E+00 g(S)=  0.000E+00 dE (1.order)= 0.000E+00
 bond charge predicted
       N       E                     dE             d eps       ncg     rms          rms(c)
DAV:   1    -0.203179962745E+03   -0.10364E-02   -0.47396E-02 11136   0.360E-01    0.672E-02
DAV:   2    -0.203180062360E+03   -0.99615E-04   -0.12172E-03 11432   0.681E-02    0.554E-02
DAV:   3    -0.203180142187E+03   -0.79827E-04   -0.31864E-04 11464   0.834E-02    0.106E-01
DAV:   4    -0.203180060288E+03    0.81899E-04   -0.29932E-04 10176   0.777E-02    0.550E-02
DAV:   5    -0.203180037357E+03    0.22931E-04   -0.85518E-05  8448   0.489E-02    0.324E-02
DAV:   6    -0.203180032983E+03    0.43736E-05   -0.36698E-05  7200   0.333E-02
 164 F= -.20318003E+03 E0= -.20070313E+03  d E =-.110867E-02
quench:  g(F)=  0.000E+00 g(S)=  0.000E+00 dE (1.order)= 0.000E+00
 bond charge predicted
       N       E                     dE             d eps       ncg     rms          rms(c)
DAV:   1    -0.203181150855E+03   -0.11135E-02   -0.34595E-02 11136   0.322E-01    0.506E-02
DAV:   2    -0.203181244301E+03   -0.93446E-04   -0.94882E-04 11344   0.782E-02    0.684E-02
DAV:   3    -0.203181218410E+03    0.25891E-04   -0.14208E-04 11856   0.611E-02    0.427E-02
DAV:   4    -0.203181220113E+03   -0.17025E-05   -0.84087E-05  7384   0.417E-02
 165 F= -.20318122E+03 E0= -.20070432E+03  d E =-.118713E-02
quench:  g(F)=  0.000E+00 g(S)=  0.000E+00 dE (1.order)= 0.000E+00
 bond charge predicted
       N       E                     dE             d eps       ncg     rms          rms(c)
DAV:   1    -0.203182599196E+03   -0.13808E-02   -0.59870E-02 11136   0.432E-01    0.659E-02
DAV:   2    -0.203183874005E+03   -0.12748E-02   -0.33508E-03 11976   0.238E-01    0.349E-01
DAV:   3    -0.203182719862E+03    0.11541E-02   -0.20419E-03 12008   0.210E-01    0.592E-02
DAV:   4    -0.203182713112E+03    0.67499E-05   -0.16258E-04 11296   0.541E-02    0.455E-02
DAV:   5    -0.203182696607E+03    0.16505E-04   -0.45564E-05  7288   0.336E-02    0.200E-02
DAV:   6    -0.203182698434E+03   -0.18270E-05   -0.24777E-05  7072   0.273E-02
 166 F= -.20318270E+03 E0= -.20070612E+03  d E =-.147832E-02
quench:  g(F)=  0.000E+00 g(S)=  0.000E+00 dE (1.order)= 0.000E+00
 bond charge predicted
       N       E                     dE             d eps       ncg     rms          rms(c)
DAV:   1    -0.203184090531E+03   -0.13939E-02   -0.66418E-02 11136   0.443E-01    0.683E-02
DAV:   2    -0.203184231821E+03   -0.14129E-03   -0.16900E-03 11416   0.848E-02    0.684E-02
DAV:   3    -0.203184250377E+03   -0.18555E-04   -0.25631E-04 12056   0.747E-02    0.796E-02
DAV:   4    -0.203184248642E+03    0.17344E-05   -0.27277E-04  9144   0.735E-02    0.807E-02
DAV:   5    -0.203184195899E+03    0.52743E-04   -0.14095E-04  9048   0.592E-02    0.347E-02
DAV:   6    -0.203184197597E+03   -0.16979E-05   -0.54192E-05  7880   0.410E-02
