 running on   24 total cores
 each image running on    6 cores
 distrk:  each k-point on    6 cores,    1 groups
 distr:  one band on    6 cores,    1 groups
 vasp.5.4.4.18Apr17-6-g9f103f2a35 (build Jul 29 2022 15:23:10) complex          
  
 POSCAR found type information on POSCAR  Hf C  O 
 01/POSCAR found :  3 types and      66 ions
 scaLAPACK will be used

 ----------------------------------------------------------------------------- 
|                                                                             |
|           W    W    AA    RRRRR   N    N  II  N    N   GGGG   !!!           |
|           W    W   A  A   R    R  NN   N  II  NN   N  G    G  !!!           |
|           W    W  A    A  R    R  N N  N  II  N N  N  G       !!!           |
|           W WW W  AAAAAA  RRRRR   N  N N  II  N  N N  G  GGG   !            |
|           WW  WW  A    A  R   R   N   NN  II  N   NN  G    G                |
|           W    W  A    A  R    R  N    N  II  N    N   GGGG   !!!           |
|                                                                             |
|      For optimal performance we recommend to set                            |
|        NCORE= 4 - approx SQRT( number of cores)                             |
|      NCORE specifies how many cores store one orbital (NPAR=cpu/NCORE).     |
|      This setting can  greatly improve the performance of VASP for DFT.     |
|      The default,   NCORE=1            might be grossly inefficient         |
|      on modern multi-core architectures or massively parallel machines.     |
|      Do your own testing !!!!                                               |
|      Unfortunately you need to use the default for GW and RPA calculations. |
|      (for HF NCORE is supported but not extensively tested yet)             |
|                                                                             |
 ----------------------------------------------------------------------------- 

 LDA part: xc-table for Pade appr. of Perdew
 POSCAR found type information on POSCAR  Hf C  O 
 00/POSCAR found :  3 types and      66 ions
 POSCAR found type information on POSCAR  Hf C  O 
 05/POSCAR found :  3 types and      66 ions
 POSCAR, INCAR and KPOINTS ok, starting setup
 FFT: planning ...
 WAVECAR not read
 entering main loop
       N       E                     dE             d eps       ncg     rms          rms(c)
DAV:   1     0.297130409271E+04    0.29713E+04   -0.24040E+05  3248   0.146E+03
DAV:   2    -0.453781017873E+03   -0.34251E+04   -0.33104E+04  3292   0.382E+02
DAV:   3    -0.773948650790E+03   -0.32017E+03   -0.31218E+03  3328   0.897E+01
DAV:   4    -0.789053091129E+03   -0.15104E+02   -0.15028E+02  3504   0.198E+01
DAV:   5    -0.789491702617E+03   -0.43861E+00   -0.43801E+00  3424   0.326E+00    0.312E+02
DAV:   6    -0.673049085184E+03    0.11644E+03   -0.70612E+02  3056   0.327E+01    0.215E+02
DAV:   7    -0.687812317871E+03   -0.14763E+02   -0.17860E+02  3576   0.271E+01    0.309E+01
DAV:   8    -0.670868514605E+03    0.16944E+02   -0.97593E+01  3684   0.191E+01    0.257E+01
DAV:   9    -0.668344460618E+03    0.25241E+01   -0.43510E+01  3568   0.116E+01    0.213E+01
DAV:  10    -0.667967597858E+03    0.37686E+00   -0.77547E+00  3136   0.546E+00    0.152E+01
DAV:  11    -0.668066823085E+03   -0.99225E-01   -0.11314E+00  3432   0.177E+00    0.124E+01
DAV:  12    -0.667754860966E+03    0.31196E+00   -0.59437E-01  3784   0.250E+00    0.412E+00
DAV:  13    -0.667754827297E+03    0.33669E-04   -0.29545E-01  3216   0.988E-01    0.231E+00
DAV:  14    -0.667756833040E+03   -0.20057E-02   -0.33326E-02  3184   0.339E-01    0.184E+00
DAV:  15    -0.667750099964E+03    0.67331E-02   -0.22741E-02  3984   0.545E-01    0.101E+00
DAV:  16    -0.667751925606E+03   -0.18256E-02   -0.96536E-03  3072   0.179E-01    0.792E-01
DAV:  17    -0.667753134822E+03   -0.12092E-02   -0.20629E-03  3712   0.969E-02    0.607E-01
DAV:  18    -0.667754243557E+03   -0.11087E-02   -0.88666E-04  3096   0.686E-02    0.311E-01
DAV:  19    -0.667755091845E+03   -0.84829E-03   -0.70172E-04  3360   0.491E-02    0.138E-01
DAV:  20    -0.667755600286E+03   -0.50844E-03   -0.84483E-05  2968   0.215E-02    0.910E-02
DAV:  21    -0.667756489051E+03   -0.88876E-03   -0.15193E-04  2704   0.321E-02    0.357E-02
DAV:  22    -0.667757100024E+03   -0.61097E-03   -0.18805E-04  3008   0.207E-02    0.790E-02
DAV:  23    -0.667757486008E+03   -0.38598E-03   -0.39015E-05  2600   0.127E-02    0.462E-02
DAV:  24    -0.667757871493E+03   -0.38549E-03   -0.10119E-04  2432   0.113E-02    0.253E-02
DAV:  25    -0.667758015399E+03   -0.14391E-03   -0.12396E-05  2224   0.550E-03    0.179E-02
DAV:  26    -0.667758287690E+03   -0.27229E-03   -0.93711E-06  2048   0.601E-03    0.113E-02
DAV:  27    -0.667758564250E+03   -0.27656E-03   -0.13521E-05  2176   0.451E-03    0.158E-02
DAV:  28    -0.667758576702E+03   -0.12452E-04   -0.99952E-07  1840   0.205E-03    0.856E-03
DAV:  29    -0.667758744990E+03   -0.16829E-03   -0.84660E-06  2080   0.301E-03    0.384E-03
DAV:  30    -0.667758783120E+03   -0.38130E-04   -0.10223E-06  1896   0.134E-03    0.391E-03
DAV:  31    -0.667758819174E+03   -0.36055E-04   -0.16345E-06  1872   0.135E-03    0.244E-03
DAV:  32    -0.667758835876E+03   -0.16702E-04   -0.10609E-06  1832   0.108E-03    0.202E-03
DAV:  33    -0.667758837185E+03   -0.13083E-05   -0.38584E-07  1824   0.731E-04
   1 F= -.66775884E+03 E0= -.66774499E+03  d E =-.667759E+03
quench:  g(F)=  0.000E+00 g(S)=  0.000E+00 dE (1.order)= 0.000E+00
 bond charge predicted
       N       E                     dE             d eps       ncg     rms          rms(c)
DAV:   1    -0.667758837746E+03   -0.18693E-05   -0.19636E-07  1592   0.573E-04    0.694E-04
DAV:   2    -0.667758837992E+03   -0.24599E-06   -0.85348E-08  1584   0.331E-04    0.591E-04
DAV:   3    -0.667758838215E+03   -0.22339E-06   -0.44247E-08  1576   0.261E-04    0.392E-04
DAV:   4    -0.667758838442E+03   -0.22671E-06   -0.27928E-08  1576   0.257E-04
   2 F= -.66775884E+03 E0= -.66774499E+03  d E =-.125707E-05
quench:  g(F)=  0.000E+00 g(S)=  0.000E+00 dE (1.order)= 0.000E+00
 bond charge predicted
       N       E                     dE             d eps       ncg     rms          rms(c)
DAV:   1    -0.667758838498E+03   -0.28280E-06   -0.13858E-08  1512   0.156E-04    0.771E-05
DAV:   2    -0.667758838564E+03   -0.65760E-07   -0.82848E-09  1536   0.650E-05    0.756E-05
DAV:   3    -0.667758838596E+03   -0.32487E-07   -0.43580E-09  1512   0.429E-05    0.548E-05
DAV:   4    -0.667758838712E+03   -0.11646E-06   -0.74630E-09  1608   0.520E-05
   3 F= -.66775884E+03 E0= -.66774499E+03  d E =-.270797E-06
quench:  g(F)=  0.000E+00 g(S)=  0.000E+00 dE (1.order)= 0.000E+00
 bond charge predicted
       N       E                     dE             d eps       ncg     rms          rms(c)
DAV:   1    -0.667758838738E+03   -0.14238E-06   -0.31147E-09  1496   0.432E-05    0.217E-05
DAV:   2    -0.667758838752E+03   -0.13555E-07   -0.18722E-09  1480   0.295E-05    0.169E-05
DAV:   3    -0.667758838761E+03   -0.85711E-08   -0.96539E-10  1464   0.245E-05    0.139E-05
DAV:   4    -0.667758838782E+03   -0.21399E-07   -0.13724E-09  1512   0.220E-05
   4 F= -.66775884E+03 E0= -.66774499E+03  d E =-.694417E-07
quench:  g(F)=  0.000E+00 g(S)=  0.000E+00 dE (1.order)= 0.000E+00
 bond charge predicted
       N       E                     dE             d eps       ncg     rms          rms(c)
DAV:   1    -0.667758838790E+03   -0.29067E-07   -0.66906E-10  1464   0.175E-05    0.860E-06
DAV:   2    -0.667758838792E+03   -0.21464E-08   -0.34133E-10  1464   0.114E-05    0.672E-06
DAV:   3    -0.667758838794E+03   -0.22774E-08   -0.19784E-10  1464   0.109E-05    0.569E-06
DAV:   4    -0.667758838797E+03   -0.25757E-08   -0.14909E-10  1464   0.939E-06
   5 F= -.66775884E+03 E0= -.66774499E+03  d E =-.146683E-07
quench:  g(F)=  0.000E+00 g(S)=  0.000E+00 dE (1.order)= 0.000E+00
 bond charge predicted
       N       E                     dE             d eps       ncg     rms          rms(c)
DAV:   1    -0.667758838798E+03   -0.43656E-08   -0.10503E-10  1464   0.763E-06    0.346E-06
DAV:   2    -0.667758838798E+03    0.72760E-10   -0.27023E-11  1464   0.531E-06    0.218E-06
DAV:   3    -0.667758838799E+03   -0.52387E-09    0.10670E-11  1464   0.378E-06    0.164E-06
DAV:   4    -0.667758838799E+03    0.21100E-09    0.29480E-11  1464   0.366E-06
   6 F= -.66775884E+03 E0= -.66774499E+03  d E =-.202999E-08
quench:  g(F)=  0.000E+00 g(S)=  0.000E+00 dE (1.order)= 0.000E+00
 bond charge predicted
       N       E                     dE             d eps       ncg     rms          rms(c)
DAV:   1    -0.667758838799E+03   -0.40745E-09    0.22711E-11  1464   0.321E-06    0.109E-06
DAV:   2    -0.667758838799E+03    0.10186E-09    0.35283E-11  1464   0.287E-06    0.890E-07
DAV:   3    -0.667758838800E+03   -0.41473E-09    0.45088E-11  1464   0.162E-06    0.729E-07
DAV:   4    -0.667758838799E+03    0.96043E-09    0.50714E-11  1464   0.121E-06
   7 F= -.66775884E+03 E0= -.66774499E+03  d E =0.291038E-10
quench:  g(F)=  0.000E+00 g(S)=  0.000E+00 dE (1.order)= 0.000E+00
 bond charge predicted
       N       E                     dE             d eps       ncg     rms          rms(c)
DAV:   1    -0.667758838800E+03   -0.19645E-09    0.69034E-11  1464   0.731E-07    0.523E-07
DAV:   2    -0.667758838799E+03    0.65484E-09    0.77369E-11  1464   0.610E-07    0.423E-07
DAV:   3    -0.667758838800E+03   -0.45839E-09    0.63259E-11  1464   0.741E-07    0.274E-07
DAV:   4    -0.667758838800E+03    0.50932E-10    0.41501E-11  1464   0.616E-07
   8 F= -.66775884E+03 E0= -.66774499E+03  d E =-.909495E-09
quench:  g(F)=  0.000E+00 g(S)=  0.000E+00 dE (1.order)= 0.000E+00
 bond charge predicted
       N       E                     dE             d eps       ncg     rms          rms(c)
DAV:   1    -0.667758838800E+03   -0.29104E-10    0.49568E-11  1464   0.341E-07    0.130E-07
DAV:   2    -0.667758838799E+03    0.54570E-09    0.36977E-11  1464   0.289E-07    0.101E-07
DAV:   3    -0.667758838799E+03   -0.65484E-10    0.59828E-11  1464   0.177E-07    0.959E-08
DAV:   4    -0.667758838799E+03   -0.32742E-09    0.50529E-11  1464   0.169E-07
   9 F= -.66775884E+03 E0= -.66774499E+03  d E =0.727596E-10
quench:  g(F)=  0.000E+00 g(S)=  0.000E+00 dE (1.order)= 0.000E+00
 bond charge predicted
       N       E                     dE             d eps       ncg     rms          rms(c)
DAV:   1    -0.667758838799E+03   -0.24011E-09    0.49863E-11  1464   0.186E-07    0.569E-08
DAV:   2    -0.667758838799E+03    0.72760E-11    0.62954E-11  1464   0.155E-07    0.456E-08
DAV:   3    -0.667758838800E+03   -0.37835E-09    0.57199E-11  1464   0.806E-08    0.314E-08
DAV:   4    -0.667758838800E+03   -0.63301E-09    0.59895E-11  1464   0.635E-08
  10 F= -.66775884E+03 E0= -.66774499E+03  d E =-.916771E-09
quench:  g(F)=  0.000E+00 g(S)=  0.000E+00 dE (1.order)= 0.000E+00
 bond charge predicted
       N       E                     dE             d eps       ncg     rms          rms(c)
DAV:   1    -0.667758838800E+03   -0.69122E-09    0.58782E-11  1464   0.356E-08    0.247E-08
DAV:   2    -0.667758838800E+03    0.68394E-09    0.58592E-11  1464   0.347E-08    0.212E-08
DAV:   3    -0.667758838800E+03   -0.54570E-09    0.63767E-11  1464   0.293E-08    0.195E-08
DAV:   4    -0.667758838800E+03    0.61118E-09    0.77986E-11  1464   0.379E-08
  11 F= -.66775884E+03 E0= -.66774499E+03  d E =0.691216E-09
quench:  g(F)=  0.000E+00 g(S)=  0.000E+00 dE (1.order)= 0.000E+00
 bond charge predicted
       N       E                     dE             d eps       ncg     rms          rms(c)
DAV:   1    -0.667758838800E+03    0.50932E-09    0.81819E-11  1460   0.249E-08    0.931E-09
DAV:   2    -0.667758838800E+03    0.18917E-09    0.51919E-11  1452   0.138E-08    0.656E-09
DAV:   3    -0.667758838799E+03    0.42201E-09    0.65888E-11  1452   0.114E-08    0.476E-09
DAV:   4    -0.667758838799E+03    0.72760E-11    0.72685E-11  1452   0.926E-09
  12 F= -.66775884E+03 E0= -.66774499E+03  d E =0.516593E-09
quench:  g(F)=  0.000E+00 g(S)=  0.000E+00 dE (1.order)= 0.000E+00
 bond charge predicted
       N       E                     dE             d eps       ncg     rms          rms(c)
DAV:   1    -0.667758838800E+03   -0.44383E-09    0.59626E-11  1452   0.782E-09    0.357E-09
DAV:   2    -0.667758838799E+03    0.34197E-09    0.60648E-11  1452   0.552E-09    0.378E-09
DAV:   3    -0.667758838799E+03   -0.72760E-10    0.50566E-11  1452   0.444E-09    0.354E-09
DAV:   4    -0.667758838799E+03    0.87311E-10    0.51905E-11  1452   0.316E-09
  13 F= -.66775884E+03 E0= -.66774499E+03  d E =-.945874E-10
quench:  g(F)=  0.000E+00 g(S)=  0.000E+00 dE (1.order)= 0.000E+00
 bond charge predicted
       N       E                     dE             d eps       ncg     rms          rms(c)
DAV:   1    -0.667758838799E+03    0.58208E-10    0.62244E-11  1452   0.338E-09    0.256E-09
DAV:   2    -0.667758838800E+03   -0.40018E-09    0.63788E-11  1452   0.274E-09    0.234E-09
DAV:   3    -0.667758838800E+03    0.13097E-09    0.61623E-11  1452   0.202E-09    0.232E-09
DAV:   4    -0.667758838800E+03   -0.13824E-09    0.53279E-11  1428   0.172E-09
  14 F= -.66775884E+03 E0= -.66774499E+03  d E =-.436557E-09
quench:  g(F)=  0.000E+00 g(S)=  0.000E+00 dE (1.order)= 0.000E+00
 bond charge predicted
       N       E                     dE             d eps       ncg     rms          rms(c)
DAV:   1    -0.667758838799E+03    0.24738E-09    0.58511E-11  1428   0.128E-09    0.217E-09
DAV:   2    -0.667758838799E+03   -0.36380E-10    0.53503E-11  1428   0.119E-09    0.234E-09
DAV:   3    -0.667758838799E+03   -0.43656E-10    0.66484E-11  1428   0.104E-09    0.191E-09
DAV:   4    -0.667758838799E+03   -0.29104E-10    0.54715E-11  1428   0.878E-10
  15 F= -.66775884E+03 E0= -.66774499E+03  d E =0.276486E-09
quench:  g(F)=  0.000E+00 g(S)=  0.000E+00 dE (1.order)= 0.000E+00
 bond charge predicted
       N       E                     dE             d eps       ncg     rms          rms(c)
DAV:   1    -0.667758838800E+03   -0.61118E-09    0.63716E-11  1428   0.827E-10    0.246E-09
DAV:   2    -0.667758838799E+03    0.61118E-09    0.46840E-11  1428   0.887E-10    0.257E-09
DAV:   3    -0.667758838799E+03    0.14552E-10    0.63899E-11  1428   0.922E-10    0.254E-09
DAV:   4    -0.667758838799E+03    0.41473E-09    0.62871E-11  1428   0.653E-10
  16 F= -.66775884E+03 E0= -.66774499E+03  d E =0.458385E-09
quench:  g(F)=  0.000E+00 g(S)=  0.000E+00 dE (1.order)= 0.000E+00
 bond charge predicted
       N       E                     dE             d eps       ncg     rms          rms(c)
DAV:   1    -0.667758838800E+03   -0.15280E-09    0.56017E-11  1428   0.734E-10    0.280E-09
DAV:   2    -0.667758838799E+03    0.36380E-10    0.66548E-11  1428   0.786E-10    0.190E-09
DAV:   3    -0.667758838799E+03    0.17462E-09    0.49206E-11  1428   0.658E-10    0.152E-09
DAV:   4    -0.667758838800E+03   -0.46566E-09    0.65662E-11  1428   0.530E-10
  17 F= -.66775884E+03 E0= -.66774499E+03  d E =-.822183E-09
quench:  g(F)=  0.000E+00 g(S)=  0.000E+00 dE (1.order)= 0.000E+00
 bond charge predicted
       N       E                     dE             d eps       ncg     rms          rms(c)
DAV:   1    -0.667758838799E+03   -0.12369E-09    0.56939E-11  1428   0.463E-10    0.145E-09
DAV:   2    -0.667758838800E+03   -0.40018E-09    0.54749E-11  1428   0.636E-10    0.267E-09
DAV:   3    -0.667758838800E+03    0.16007E-09    0.58482E-11  1428   0.576E-10    0.248E-09
DAV:   4    -0.667758838799E+03    0.93860E-09    0.73453E-11  1428   0.669E-10
  18 F= -.66775884E+03 E0= -.66774499E+03  d E =0.104046E-08
quench:  g(F)=  0.000E+00 g(S)=  0.000E+00 dE (1.order)= 0.000E+00
 bond charge predicted
       N       E                     dE             d eps       ncg     rms          rms(c)
DAV:   1    -0.667758838800E+03    0.10186E-09    0.53149E-11  1428   0.618E-10    0.315E-09
DAV:   2    -0.667758838799E+03    0.47294E-09    0.62682E-11  1428   0.711E-10    0.191E-09
DAV:   3    -0.667758838799E+03   -0.36380E-10    0.65128E-11  1428   0.564E-10    0.123E-09
DAV:   4    -0.667758838800E+03   -0.47294E-09    0.64445E-11  1428   0.484E-10
  19 F= -.66775884E+03 E0= -.66774499E+03  d E =-.873115E-09
quench:  g(F)=  0.000E+00 g(S)=  0.000E+00 dE (1.order)= 0.000E+00
 bond charge predicted
       N       E                     dE             d eps       ncg     rms          rms(c)
DAV:   1    -0.667758838800E+03   -0.69849E-09    0.57066E-11  1428   0.494E-10    0.209E-09
DAV:   2    -0.667758838799E+03    0.79308E-09    0.49678E-11  1428   0.568E-10    0.185E-09
DAV:   3    -0.667758838800E+03   -0.59663E-09    0.51268E-11  1428   0.610E-10    0.223E-09
DAV:   4    -0.667758838800E+03    0.72760E-10    0.67485E-11  1428   0.616E-10
  20 F= -.66775884E+03 E0= -.66774499E+03  d E =0.436557E-10
quench:  g(F)=  0.000E+00 g(S)=  0.000E+00 dE (1.order)= 0.000E+00
 bond charge predicted
       N       E                     dE             d eps       ncg     rms          rms(c)
DAV:   1    -0.667758838799E+03    0.33469E-09    0.59840E-11  1428   0.549E-10    0.263E-09
DAV:   2    -0.667758838800E+03   -0.53842E-09    0.45938E-11  1428   0.524E-10    0.174E-09
DAV:   3    -0.667758838799E+03    0.75670E-09    0.62932E-11  1428   0.637E-10    0.226E-09
DAV:   4    -0.667758838800E+03   -0.52387E-09    0.51986E-11  1428   0.498E-10
  21 F= -.66775884E+03 E0= -.66774499E+03  d E =-.436557E-10
quench:  g(F)=  0.000E+00 g(S)=  0.000E+00 dE (1.order)= 0.000E+00
 bond charge predicted
       N       E                     dE             d eps       ncg     rms          rms(c)
DAV:   1    -0.667758838799E+03   -0.72760E-10    0.47560E-11  1428   0.513E-10    0.209E-09
DAV:   2    -0.667758838799E+03    0.72760E-10    0.60409E-11  1428   0.566E-10    0.200E-09
DAV:   3    -0.667758838799E+03    0.58208E-10    0.70878E-11  1428   0.453E-10    0.170E-09
DAV:   4    -0.667758838799E+03   -0.50932E-10    0.60964E-11  1428   0.506E-10
  22 F= -.66775884E+03 E0= -.66774499E+03  d E =0.531145E-09
quench:  g(F)=  0.000E+00 g(S)=  0.000E+00 dE (1.order)= 0.000E+00
 bond charge predicted
       N       E                     dE             d eps       ncg     rms          rms(c)
DAV:   1    -0.667758838800E+03   -0.62573E-09    0.57130E-11  1428   0.454E-10    0.209E-09
DAV:   2    -0.667758838799E+03    0.44383E-09    0.58638E-11  1424   0.666E-10    0.181E-09
DAV:   3    -0.667758838799E+03   -0.13824E-09    0.68667E-11  1416   0.679E-10    0.167E-09
DAV:   4    -0.667758838799E+03    0.43656E-09    0.69992E-11  1416   0.529E-10
  23 F= -.66775884E+03 E0= -.66774499E+03  d E =0.167347E-09
quench:  g(F)=  0.000E+00 g(S)=  0.000E+00 dE (1.order)= 0.000E+00
 bond charge predicted
       N       E                     dE             d eps       ncg     rms          rms(c)
DAV:   1    -0.667758838799E+03    0.29104E-10    0.66618E-11  1416   0.656E-10    0.259E-09
DAV:   2    -0.667758838799E+03    0.72760E-10    0.46082E-11  1416   0.680E-10    0.225E-09
DAV:   3    -0.667758838799E+03    0.80036E-10    0.59397E-11  1416   0.602E-10    0.283E-09
DAV:   4    -0.667758838799E+03   -0.17462E-09    0.45579E-11  1416   0.619E-10
  24 F= -.66775884E+03 E0= -.66774499E+03  d E =-.429281E-09
quench:  g(F)=  0.000E+00 g(S)=  0.000E+00 dE (1.order)= 0.000E+00
 bond charge predicted
       N       E                     dE             d eps       ncg     rms          rms(c)
DAV:   1    -0.667758838799E+03   -0.26193E-09    0.57287E-11  1416   0.640E-10    0.209E-09
DAV:   2    -0.667758838799E+03    0.15280E-09    0.53007E-11  1416   0.676E-10    0.177E-09
DAV:   3    -0.667758838799E+03    0.87311E-10    0.44204E-11  1416   0.576E-10    0.184E-09
DAV:   4    -0.667758838799E+03   -0.24011E-09    0.50560E-11  1416   0.556E-10
  25 F= -.66775884E+03 E0= -.66774499E+03  d E =-.873115E-10
quench:  g(F)=  0.000E+00 g(S)=  0.000E+00 dE (1.order)= 0.000E+00
 bond charge predicted
       N       E                     dE             d eps       ncg     rms          rms(c)
DAV:   1    -0.667758838799E+03    0.21828E-10    0.55086E-11  1416   0.485E-10    0.264E-09
DAV:   2    -0.667758838799E+03    0.11642E-09    0.49554E-11  1416   0.558E-10    0.190E-09
DAV:   3    -0.667758838799E+03   -0.20373E-09    0.62558E-11  1416   0.485E-10    0.203E-09
DAV:   4    -0.667758838800E+03   -0.61846E-09    0.59188E-11  1416   0.620E-10
  26 F= -.66775884E+03 E0= -.66774499E+03  d E =-.443833E-09
quench:  g(F)=  0.000E+00 g(S)=  0.000E+00 dE (1.order)= 0.000E+00
 bond charge predicted
       N       E                     dE             d eps       ncg     rms          rms(c)
DAV:   1    -0.667758838800E+03   -0.40745E-09    0.54942E-11  1416   0.593E-10    0.230E-09
DAV:   2    -0.667758838800E+03   -0.72760E-11    0.59297E-11  1416   0.553E-10    0.182E-09
DAV:   3    -0.667758838799E+03    0.45839E-09    0.61490E-11  1416   0.473E-10    0.184E-09
DAV:   4    -0.667758838799E+03    0.23283E-09    0.54089E-11  1416   0.494E-10
  27 F= -.66775884E+03 E0= -.66774499E+03  d E =0.894943E-09
quench:  g(F)=  0.000E+00 g(S)=  0.000E+00 dE (1.order)= 0.000E+00
 bond charge predicted
       N       E                     dE             d eps       ncg     rms          rms(c)
DAV:   1    -0.667758838800E+03   -0.49477E-09    0.51256E-11  1416   0.566E-10    0.267E-09
DAV:   2    -0.667758838800E+03    0.18917E-09    0.49224E-11  1416   0.606E-10    0.169E-09
DAV:   3    -0.667758838799E+03    0.29104E-10    0.55573E-11  1416   0.683E-10    0.218E-09
DAV:   4    -0.667758838799E+03    0.22555E-09    0.45501E-11  1416   0.513E-10
  28 F= -.66775884E+03 E0= -.66774499E+03  d E =-.283762E-09
quench:  g(F)=  0.000E+00 g(S)=  0.000E+00 dE (1.order)= 0.000E+00
 bond charge predicted
       N       E                     dE             d eps       ncg     rms          rms(c)
DAV:   1    -0.667758838800E+03   -0.29104E-10    0.45528E-11  1416   0.391E-10    0.211E-09
DAV:   2    -0.667758838800E+03   -0.10914E-09    0.54889E-11  1416   0.634E-10    0.147E-09
DAV:   3    -0.667758838799E+03    0.20373E-09    0.43848E-11  1416   0.653E-10    0.120E-09
DAV:   4    -0.667758838799E+03    0.24011E-09    0.50181E-11  1416   0.409E-10
  29 F= -.66775884E+03 E0= -.66774499E+03  d E =0.800355E-10
quench:  g(F)=  0.000E+00 g(S)=  0.000E+00 dE (1.order)= 0.000E+00
 bond charge predicted
       N       E                     dE             d eps       ncg     rms          rms(c)
DAV:   1    -0.667758838799E+03    0.57480E-09    0.62154E-11  1416   0.502E-10    0.309E-09
DAV:   2    -0.667758838799E+03   -0.50204E-09    0.56415E-11  1416   0.693E-10    0.239E-09
DAV:   3    -0.667758838799E+03    0.24011E-09    0.54302E-11  1416   0.658E-10    0.162E-09
DAV:   4    -0.667758838800E+03   -0.63301E-09    0.49575E-11  1416   0.520E-10
  30 F= -.66775884E+03 E0= -.66774499E+03  d E =-.560249E-09
quench:  g(F)=  0.000E+00 g(S)=  0.000E+00 dE (1.order)= 0.000E+00
 bond charge predicted
       N       E                     dE             d eps       ncg     rms          rms(c)
DAV:   1    -0.667758838799E+03   -0.16735E-09    0.37599E-11  1416   0.480E-10    0.190E-09
DAV:   2    -0.667758838799E+03    0.36380E-10    0.62363E-11  1416   0.442E-10    0.158E-09
DAV:   3    -0.667758838799E+03   -0.80036E-10    0.45538E-11  1416   0.405E-10    0.166E-09
DAV:   4    -0.667758838799E+03    0.10914E-09    0.61228E-11  1416   0.602E-10
  31 F= -.66775884E+03 E0= -.66774499E+03  d E =0.531145E-09
quench:  g(F)=  0.000E+00 g(S)=  0.000E+00 dE (1.order)= 0.000E+00
 bond charge predicted
       N       E                     dE             d eps       ncg     rms          rms(c)
DAV:   1    -0.667758838800E+03   -0.28376E-09    0.42118E-11  1416   0.651E-10    0.195E-09
DAV:   2    -0.667758838799E+03    0.75670E-09    0.49762E-11  1416   0.628E-10    0.250E-09
DAV:   3    -0.667758838799E+03    0.50932E-10    0.53180E-11  1416   0.517E-10    0.222E-09
DAV:   4    -0.667758838800E+03   -0.96043E-09    0.46713E-11  1416   0.654E-10
  32 F= -.66775884E+03 E0= -.66774499E+03  d E =-.545697E-09
quench:  g(F)=  0.000E+00 g(S)=  0.000E+00 dE (1.order)= 0.000E+00
 bond charge predicted
       N       E                     dE             d eps       ncg     rms          rms(c)
DAV:   1    -0.667758838800E+03   -0.82946E-09    0.59783E-11  1416   0.510E-10    0.207E-09
DAV:   2    -0.667758838799E+03    0.19645E-09    0.49357E-11  1416   0.533E-10    0.214E-09
DAV:   3    -0.667758838800E+03   -0.11642E-09    0.54226E-11  1416   0.508E-10    0.230E-09
DAV:   4    -0.667758838799E+03    0.21828E-09    0.68420E-11  1416   0.582E-10
  33 F= -.66775884E+03 E0= -.66774499E+03  d E =0.429281E-09
quench:  g(F)=  0.000E+00 g(S)=  0.000E+00 dE (1.order)= 0.000E+00
 bond charge predicted
       N       E                     dE             d eps       ncg     rms          rms(c)
DAV:   1    -0.667758838800E+03    0.21828E-10    0.53709E-11  1416   0.540E-10    0.234E-09
DAV:   2    -0.667758838799E+03    0.12369E-09    0.45735E-11  1416   0.688E-10    0.253E-09
DAV:   3    -0.667758838799E+03    0.43656E-09    0.52623E-11  1416   0.577E-10    0.242E-09
DAV:   4    -0.667758838799E+03   -0.14552E-10    0.55236E-11  1416   0.508E-10
  34 F= -.66775884E+03 E0= -.66774499E+03  d E =0.349246E-09
quench:  g(F)=  0.000E+00 g(S)=  0.000E+00 dE (1.order)= 0.000E+00
 bond charge predicted
       N       E                     dE             d eps       ncg     rms          rms(c)
DAV:   1    -0.667758838799E+03   -0.28376E-09    0.66970E-11  1416   0.437E-10    0.198E-09
DAV:   2    -0.667758838799E+03    0.28376E-09    0.49225E-11  1416   0.467E-10    0.176E-09
DAV:   3    -0.667758838799E+03   -0.50204E-09    0.55844E-11  1416   0.449E-10    0.133E-09
DAV:   4    -0.667758838799E+03    0.87311E-10    0.37840E-11  1416   0.492E-10
  35 F= -.66775884E+03 E0= -.66774499E+03  d E =-.400178E-09
quench:  g(F)=  0.000E+00 g(S)=  0.000E+00 dE (1.order)= 0.000E+00
 bond charge predicted
       N       E                     dE             d eps       ncg     rms          rms(c)
DAV:   1    -0.667758838799E+03    0.24011E-09    0.55283E-11  1416   0.425E-10    0.164E-09
DAV:   2    -0.667758838800E+03   -0.49477E-09    0.53013E-11  1416   0.512E-10    0.148E-09
DAV:   3    -0.667758838799E+03    0.34925E-09    0.70589E-11  1416   0.480E-10    0.211E-09
DAV:   4    -0.667758838799E+03   -0.11642E-09    0.55715E-11  1416   0.503E-10
  36 F= -.66775884E+03 E0= -.66774499E+03  d E =-.109139E-09
quench:  g(F)=  0.000E+00 g(S)=  0.000E+00 dE (1.order)= 0.000E+00
 bond charge predicted
       N       E                     dE             d eps       ncg     rms          rms(c)
DAV:   1    -0.667758838799E+03    0.48021E-09    0.61512E-11  1416   0.497E-10    0.172E-09
DAV:   2    -0.667758838799E+03   -0.39290E-09    0.46355E-11  1416   0.488E-10    0.191E-09
DAV:   3    -0.667758838799E+03   -0.16735E-09    0.62513E-11  1416   0.494E-10    0.187E-09
DAV:   4    -0.667758838799E+03    0.72032E-09    0.58496E-11  1416   0.710E-10
  37 F= -.66775884E+03 E0= -.66774499E+03  d E =0.756700E-09
quench:  g(F)=  0.000E+00 g(S)=  0.000E+00 dE (1.order)= 0.000E+00
 bond charge predicted
       N       E                     dE             d eps       ncg     rms          rms(c)
DAV:   1    -0.667758838799E+03    0.50204E-09    0.52204E-11  1416   0.535E-10    0.182E-09
DAV:   2    -0.667758838800E+03   -0.88767E-09    0.61663E-11  1416   0.610E-10    0.276E-09
DAV:   3    -0.667758838800E+03    0.24011E-09    0.58832E-11  1416   0.511E-10    0.193E-09
DAV:   4    -0.667758838799E+03    0.37107E-09    0.70081E-11  1416   0.593E-10
  38 F= -.66775884E+03 E0= -.66774499E+03  d E =-.494765E-09
quench:  g(F)=  0.000E+00 g(S)=  0.000E+00 dE (1.order)= 0.000E+00
 bond charge predicted
       N       E                     dE             d eps       ncg     rms          rms(c)
DAV:   1    -0.667758838799E+03    0.13824E-09    0.68064E-11  1416   0.586E-10    0.220E-09
DAV:   2    -0.667758838799E+03    0.27649E-09    0.65052E-11  1416   0.611E-10    0.229E-09
DAV:   3    -0.667758838800E+03   -0.36380E-09    0.52611E-11  1416   0.782E-10    0.253E-09
DAV:   4    -0.667758838799E+03    0.59663E-09    0.58064E-11  1416   0.511E-10
  39 F= -.66775884E+03 E0= -.66774499E+03  d E =0.276486E-09
quench:  g(F)=  0.000E+00 g(S)=  0.000E+00 dE (1.order)= 0.000E+00
 bond charge predicted
       N       E                     dE             d eps       ncg     rms          rms(c)
DAV:   1    -0.667758838799E+03    0.29104E-09    0.58815E-11  1416   0.486E-10    0.246E-09
DAV:   2    -0.667758838799E+03    0.29831E-09    0.63949E-11  1416   0.610E-10    0.260E-09
DAV:   3    -0.667758838799E+03    0.21100E-09    0.65432E-11  1416   0.515E-10    0.132E-09
DAV:   4    -0.667758838799E+03   -0.72032E-09    0.47962E-11  1416   0.444E-10
  40 F= -.66775884E+03 E0= -.66774499E+03  d E =-.516593E-09
quench:  g(F)=  0.000E+00 g(S)=  0.000E+00 dE (1.order)= 0.000E+00
 bond charge predicted
       N       E                     dE             d eps       ncg     rms          rms(c)
DAV:   1    -0.667758838800E+03   -0.11205E-08    0.57922E-11  1416   0.503E-10    0.248E-09
DAV:   2    -0.667758838799E+03    0.46566E-09    0.66950E-11  1416   0.610E-10    0.247E-09
DAV:   3    -0.667758838799E+03    0.17462E-09    0.69365E-11  1416   0.633E-10    0.216E-09
DAV:   4    -0.667758838799E+03    0.10186E-09    0.66071E-11  1416   0.495E-10
  41 F= -.66775884E+03 E0= -.66774499E+03  d E =0.341970E-09
quench:  g(F)=  0.000E+00 g(S)=  0.000E+00 dE (1.order)= 0.000E+00
 bond charge predicted
       N       E                     dE             d eps       ncg     rms          rms(c)
DAV:   1    -0.667758838800E+03   -0.33469E-09    0.59203E-11  1416   0.404E-10    0.179E-09
DAV:   2    -0.667758838800E+03    0.00000E+00    0.55384E-11  1416   0.714E-10    0.277E-09
DAV:   3    -0.667758838799E+03    0.72760E-10    0.44573E-11  1416   0.702E-10    0.272E-09
DAV:   4    -0.667758838800E+03   -0.40745E-09    0.65979E-11  1416   0.392E-10
  42 F= -.66775884E+03 E0= -.66774499E+03  d E =-.771252E-09
quench:  g(F)=  0.000E+00 g(S)=  0.000E+00 dE (1.order)= 0.000E+00
 bond charge predicted
       N       E                     dE             d eps       ncg     rms          rms(c)
DAV:   1    -0.667758838799E+03    0.21100E-09    0.44541E-11  1416   0.514E-10    0.256E-09
DAV:   2    -0.667758838800E+03   -0.81491E-09    0.65861E-11  1416   0.607E-10    0.196E-09
DAV:   3    -0.667758838799E+03    0.67666E-09    0.61835E-11  1416   0.621E-10    0.234E-09
DAV:   4    -0.667758838799E+03    0.30559E-09    0.53221E-11  1416   0.511E-10
  43 F= -.66775884E+03 E0= -.66774499E+03  d E =0.785803E-09
quench:  g(F)=  0.000E+00 g(S)=  0.000E+00 dE (1.order)= 0.000E+00
 bond charge predicted
       N       E                     dE             d eps       ncg     rms          rms(c)
DAV:   1    -0.667758838799E+03    0.32014E-09    0.64925E-11  1416   0.486E-10    0.191E-09
DAV:   2    -0.667758838799E+03   -0.13824E-09    0.46713E-11  1416   0.522E-10    0.118E-09
DAV:   3    -0.667758838799E+03   -0.50932E-10    0.62645E-11  1416   0.525E-10    0.219E-09
DAV:   4    -0.667758838800E+03   -0.36380E-09    0.53392E-11  1416   0.510E-10
  44 F= -.66775884E+03 E0= -.66774499E+03  d E =-.538421E-09
quench:  g(F)=  0.000E+00 g(S)=  0.000E+00 dE (1.order)= 0.000E+00
 bond charge predicted
       N       E                     dE             d eps       ncg     rms          rms(c)
DAV:   1    -0.667758838799E+03    0.72760E-11    0.58706E-11  1416   0.518E-10    0.209E-09
DAV:   2    -0.667758838799E+03   -0.21828E-10    0.53145E-11  1416   0.460E-10    0.174E-09
DAV:   3    -0.667758838800E+03   -0.29831E-09    0.48013E-11  1416   0.450E-10    0.188E-09
DAV:   4    -0.667758838799E+03    0.16735E-09    0.60638E-11  1416   0.495E-10
  45 F= -.66775884E+03 E0= -.66774499E+03  d E =0.218279E-09
quench:  g(F)=  0.000E+00 g(S)=  0.000E+00 dE (1.order)= 0.000E+00
 bond charge predicted
       N       E                     dE             d eps       ncg     rms          rms(c)
DAV:   1    -0.667758838799E+03    0.40745E-09    0.64632E-11  1416   0.595E-10    0.241E-09
DAV:   2    -0.667758838799E+03   -0.94587E-10    0.59670E-11  1416   0.689E-10    0.219E-09
DAV:   3    -0.667758838799E+03   -0.20373E-09    0.47561E-11  1416   0.552E-10    0.204E-09
DAV:   4    -0.667758838799E+03    0.25466E-09    0.51498E-11  1416   0.618E-10
  46 F= -.66775884E+03 E0= -.66774499E+03  d E =0.196451E-09
quench:  g(F)=  0.000E+00 g(S)=  0.000E+00 dE (1.order)= 0.000E+00
 bond charge predicted
       N       E                     dE             d eps       ncg     rms          rms(c)
DAV:   1    -0.667758838799E+03    0.94587E-10    0.50982E-11  1416   0.612E-10    0.162E-09
DAV:   2    -0.667758838800E+03   -0.18190E-09    0.50184E-11  1416   0.451E-10    0.164E-09
DAV:   3    -0.667758838799E+03    0.77853E-09    0.65182E-11  1416   0.404E-10    0.175E-09
DAV:   4    -0.667758838799E+03   -0.10186E-09    0.49170E-11  1416   0.461E-10
  47 F= -.66775884E+03 E0= -.66774499E+03  d E =0.334694E-09
quench:  g(F)=  0.000E+00 g(S)=  0.000E+00 dE (1.order)= 0.000E+00
 bond charge predicted
       N       E                     dE             d eps       ncg     rms          rms(c)
DAV:   1    -0.667758838799E+03   -0.33469E-09    0.57766E-11  1416   0.471E-10    0.190E-09
DAV:   2    -0.667758838799E+03   -0.36380E-10    0.49746E-11  1416   0.770E-10    0.400E-09
DAV:   3    -0.667758838800E+03   -0.41473E-09    0.56561E-11  1416   0.747E-10    0.165E-09
DAV:   4    -0.667758838799E+03    0.41473E-09    0.50121E-11  1416   0.657E-10
  48 F= -.66775884E+03 E0= -.66774499E+03  d E =-.269210E-09
quench:  g(F)=  0.000E+00 g(S)=  0.000E+00 dE (1.order)= 0.000E+00
 bond charge predicted
       N       E                     dE             d eps       ncg     rms          rms(c)
DAV:   1    -0.667758838800E+03   -0.10914E-09    0.57542E-11  1416   0.602E-10    0.192E-09
DAV:   2    -0.667758838799E+03    0.42201E-09    0.54460E-11  1416   0.598E-10    0.202E-09
DAV:   3    -0.667758838799E+03    0.29831E-09    0.67650E-11  1416   0.540E-10    0.219E-09
DAV:   4    -0.667758838799E+03   -0.17462E-09    0.64139E-11  1416   0.511E-10
  49 F= -.66775884E+03 E0= -.66774499E+03  d E =0.218279E-10
quench:  g(F)=  0.000E+00 g(S)=  0.000E+00 dE (1.order)= 0.000E+00
 bond charge predicted
       N       E                     dE             d eps       ncg     rms          rms(c)
DAV:   1    -0.667758838799E+03   -0.38563E-09    0.56520E-11  1416   0.524E-10    0.219E-09
DAV:   2    -0.667758838799E+03    0.17462E-09    0.63181E-11  1416   0.485E-10    0.185E-09
DAV:   3    -0.667758838800E+03   -0.48021E-09    0.41158E-11  1416   0.574E-10    0.251E-09
DAV:   4    -0.667758838799E+03    0.50204E-09    0.49438E-11  1416   0.484E-10
  50 F= -.66775884E+03 E0= -.66774499E+03  d E =-.145519E-10
quench:  g(F)=  0.000E+00 g(S)=  0.000E+00 dE (1.order)= 0.000E+00
 bond charge predicted
       N       E                     dE             d eps       ncg     rms          rms(c)
DAV:   1    -0.667758838799E+03    0.26921E-09    0.67420E-11  1416   0.566E-10    0.209E-09
DAV:   2    -0.667758838800E+03   -0.21100E-09    0.64592E-11  1416   0.516E-10    0.170E-09
DAV:   3    -0.667758838800E+03    0.65484E-10    0.41987E-11  1416   0.473E-10    0.200E-09
DAV:   4    -0.667758838800E+03   -0.50932E-10    0.55816E-11  1416   0.434E-10
  51 F= -.66775884E+03 E0= -.66774499E+03  d E =-.429281E-09
quench:  g(F)=  0.000E+00 g(S)=  0.000E+00 dE (1.order)= 0.000E+00
 bond charge predicted
       N       E                     dE             d eps       ncg     rms          rms(c)
DAV:   1    -0.667758838799E+03    0.34197E-09    0.51963E-11  1416   0.510E-10    0.194E-09
DAV:   2    -0.667758838799E+03    0.50932E-10    0.53202E-11  1416   0.632E-10    0.222E-09
DAV:   3    -0.667758838799E+03   -0.21828E-10    0.48927E-11  1416   0.462E-10    0.206E-09
DAV:   4    -0.667758838799E+03   -0.10186E-09    0.50679E-11  1416   0.399E-10
  52 F= -.66775884E+03 E0= -.66774499E+03  d E =0.320142E-09
quench:  g(F)=  0.000E+00 g(S)=  0.000E+00 dE (1.order)= 0.000E+00
 bond charge predicted
       N       E                     dE             d eps       ncg     rms          rms(c)
DAV:   1    -0.667758838800E+03   -0.34925E-09    0.70866E-11  1416   0.485E-10    0.160E-09
DAV:   2    -0.667758838799E+03    0.53114E-09    0.56757E-11  1416   0.453E-10    0.156E-09
DAV:   3    -0.667758838800E+03   -0.67666E-09    0.72541E-11  1416   0.564E-10    0.241E-09
DAV:   4    -0.667758838799E+03    0.18917E-09    0.41438E-11  1416   0.513E-10
  53 F= -.66775884E+03 E0= -.66774499E+03  d E =-.203727E-09
quench:  g(F)=  0.000E+00 g(S)=  0.000E+00 dE (1.order)= 0.000E+00
 bond charge predicted
       N       E                     dE             d eps       ncg     rms          rms(c)
DAV:   1    -0.667758838800E+03   -0.20373E-09    0.53252E-11  1416   0.567E-10    0.225E-09
DAV:   2    -0.667758838799E+03    0.50204E-09    0.44768E-11  1416   0.548E-10    0.142E-09
DAV:   3    -0.667758838800E+03   -0.40745E-09    0.61625E-11  1416   0.677E-10    0.280E-09
DAV:   4    -0.667758838799E+03    0.51659E-09    0.54167E-11  1416   0.615E-10
  54 F= -.66775884E+03 E0= -.66774499E+03  d E =0.218279E-09
quench:  g(F)=  0.000E+00 g(S)=  0.000E+00 dE (1.order)= 0.000E+00
 bond charge predicted
       N       E                     dE             d eps       ncg     rms          rms(c)
DAV:   1    -0.667758838799E+03    0.48021E-09    0.42575E-11  1416   0.427E-10    0.206E-09
DAV:   2    -0.667758838799E+03    0.36380E-10    0.58803E-11  1416   0.546E-10    0.235E-09
DAV:   3    -0.667758838800E+03   -0.37107E-09    0.49183E-11  1416   0.565E-10    0.134E-09
DAV:   4    -0.667758838799E+03    0.55297E-09    0.47530E-11  1416   0.619E-10
  55 F= -.66775884E+03 E0= -.66774499E+03  d E =0.181899E-09
quench:  g(F)=  0.000E+00 g(S)=  0.000E+00 dE (1.order)= 0.000E+00
 bond charge predicted
       N       E                     dE             d eps       ncg     rms          rms(c)
DAV:   1    -0.667758838799E+03    0.28376E-09    0.62563E-11  1416   0.567E-10    0.216E-09
DAV:   2    -0.667758838800E+03   -0.29831E-09    0.59173E-11  1416   0.542E-10    0.168E-09
DAV:   3    -0.667758838799E+03    0.28376E-09    0.47048E-11  1416   0.514E-10    0.226E-09
DAV:   4    -0.667758838800E+03   -0.35652E-09    0.44297E-11  1416   0.591E-10
  56 F= -.66775884E+03 E0= -.66774499E+03  d E =-.640284E-09
quench:  g(F)=  0.000E+00 g(S)=  0.000E+00 dE (1.order)= 0.000E+00
 bond charge predicted
       N       E                     dE             d eps       ncg     rms          rms(c)
DAV:   1    -0.667758838799E+03   -0.36380E-10    0.61013E-11  1416   0.423E-10    0.190E-09
DAV:   2    -0.667758838799E+03    0.16007E-09    0.57246E-11  1416   0.532E-10    0.235E-09
DAV:   3    -0.667758838800E+03   -0.52387E-09    0.74061E-11  1416   0.506E-10    0.189E-09
DAV:   4    -0.667758838800E+03    0.21100E-09    0.59109E-11  1416   0.543E-10
  57 F= -.66775884E+03 E0= -.66774499E+03  d E =0.167347E-09
quench:  g(F)=  0.000E+00 g(S)=  0.000E+00 dE (1.order)= 0.000E+00
 bond charge predicted
       N       E                     dE             d eps       ncg     rms          rms(c)
DAV:   1    -0.667758838800E+03   -0.12369E-09    0.53598E-11  1416   0.620E-10    0.251E-09
DAV:   2    -0.667758838799E+03    0.64756E-09    0.53635E-11  1416   0.607E-10    0.212E-09
DAV:   3    -0.667758838799E+03    0.15280E-09    0.62711E-11  1416   0.520E-10    0.194E-09
DAV:   4    -0.667758838799E+03   -0.28376E-09    0.63665E-11  1416   0.554E-10
  58 F= -.66775884E+03 E0= -.66774499E+03  d E =0.181899E-09
quench:  g(F)=  0.000E+00 g(S)=  0.000E+00 dE (1.order)= 0.000E+00
 bond charge predicted
       N       E                     dE             d eps       ncg     rms          rms(c)
DAV:   1    -0.667758838800E+03   -0.43656E-09    0.54180E-11  1416   0.422E-10    0.274E-09
DAV:   2    -0.667758838799E+03    0.12369E-09    0.64429E-11  1416   0.606E-10    0.244E-09
DAV:   3    -0.667758838800E+03   -0.47294E-09    0.61248E-11  1416   0.589E-10    0.209E-09
DAV:   4    -0.667758838799E+03    0.50932E-09    0.49760E-11  1416   0.512E-10
  59 F= -.66775884E+03 E0= -.66774499E+03  d E =0.727596E-11
quench:  g(F)=  0.000E+00 g(S)=  0.000E+00 dE (1.order)= 0.000E+00
 bond charge predicted
       N       E                     dE             d eps       ncg     rms          rms(c)
DAV:   1    -0.667758838800E+03    0.17462E-09    0.53099E-11  1416   0.572E-10    0.207E-09
DAV:   2    -0.667758838799E+03    0.37107E-09    0.58686E-11  1416   0.646E-10    0.190E-09
DAV:   3    -0.667758838799E+03    0.16735E-09    0.69132E-11  1416   0.770E-10    0.187E-09
DAV:   4    -0.667758838799E+03   -0.50932E-10    0.65350E-11  1416   0.649E-10
  60 F= -.66775884E+03 E0= -.66774499E+03  d E =0.152795E-09
quench:  g(F)=  0.000E+00 g(S)=  0.000E+00 dE (1.order)= 0.000E+00
 bond charge predicted
       N       E                     dE             d eps       ncg     rms          rms(c)
DAV:   1    -0.667758838799E+03   -0.27649E-09    0.46918E-11  1416   0.368E-10    0.219E-09
DAV:   2    -0.667758838799E+03    0.38563E-09    0.59704E-11  1416   0.529E-10    0.226E-09
DAV:   3    -0.667758838799E+03   -0.14552E-09    0.63012E-11  1416   0.594E-10    0.206E-09
DAV:   4    -0.667758838799E+03   -0.21828E-10    0.52856E-11  1416   0.404E-10
  61 F= -.66775884E+03 E0= -.66774499E+03  d E =-.727596E-11
quench:  g(F)=  0.000E+00 g(S)=  0.000E+00 dE (1.order)= 0.000E+00
 bond charge predicted
       N       E                     dE             d eps       ncg     rms          rms(c)
DAV:   1    -0.667758838799E+03    0.50932E-10    0.52467E-11  1416   0.557E-10    0.270E-09
DAV:   2    -0.667758838800E+03   -0.65484E-09    0.40990E-11  1416   0.641E-10    0.199E-09
DAV:   3    -0.667758838800E+03   -0.10914E-09    0.72566E-11  1416   0.534E-10    0.163E-09
DAV:   4    -0.667758838799E+03    0.45839E-09    0.56466E-11  1416   0.554E-10
  62 F= -.66775884E+03 E0= -.66774499E+03  d E =-.232831E-09
quench:  g(F)=  0.000E+00 g(S)=  0.000E+00 dE (1.order)= 0.000E+00
 bond charge predicted
       N       E                     dE             d eps       ncg     rms          rms(c)
DAV:   1    -0.667758838799E+03    0.88767E-09    0.63688E-11  1416   0.610E-10    0.191E-09
DAV:   2    -0.667758838799E+03   -0.33469E-09    0.53124E-11  1416   0.545E-10    0.166E-09
DAV:   3    -0.667758838799E+03   -0.50932E-10    0.57344E-11  1416   0.563E-10    0.199E-09
DAV:   4    -0.667758838799E+03    0.43656E-10    0.66741E-11  1416   0.568E-10
  63 F= -.66775884E+03 E0= -.66774499E+03  d E =0.873115E-10
quench:  g(F)=  0.000E+00 g(S)=  0.000E+00 dE (1.order)= 0.000E+00
 bond charge predicted
       N       E                     dE             d eps       ncg     rms          rms(c)
DAV:   1    -0.667758838799E+03    0.15280E-09    0.65087E-11  1416   0.575E-10    0.191E-09
DAV:   2    -0.667758838799E+03   -0.15280E-09    0.43078E-11  1416   0.500E-10    0.188E-09
DAV:   3    -0.667758838799E+03   -0.80036E-10    0.51788E-11  1416   0.542E-10    0.257E-09
DAV:   4    -0.667758838799E+03    0.15280E-09    0.64242E-11  1416   0.473E-10
  64 F= -.66775884E+03 E0= -.66774499E+03  d E =0.291038E-10
quench:  g(F)=  0.000E+00 g(S)=  0.000E+00 dE (1.order)= 0.000E+00
 bond charge predicted
       N       E                     dE             d eps       ncg     rms          rms(c)
DAV:   1    -0.667758838800E+03   -0.43656E-10    0.47652E-11  1416   0.526E-10    0.235E-09
DAV:   2    -0.667758838799E+03    0.26921E-09    0.53910E-11  1416   0.674E-10    0.217E-09
DAV:   3    -0.667758838800E+03   -0.74215E-09    0.58875E-11  1416   0.516E-10    0.125E-09
DAV:   4    -0.667758838800E+03    0.27649E-09    0.68283E-11  1416   0.407E-10
  65 F= -.66775884E+03 E0= -.66774499E+03  d E =-.392902E-09
quench:  g(F)=  0.000E+00 g(S)=  0.000E+00 dE (1.order)= 0.000E+00
 bond charge predicted
       N       E                     dE             d eps       ncg     rms          rms(c)
DAV:   1    -0.667758838799E+03    0.92405E-09    0.57760E-11  1416   0.460E-10    0.220E-09
DAV:   2    -0.667758838799E+03   -0.24011E-09    0.60147E-11  1416   0.617E-10    0.274E-09
DAV:   3    -0.667758838799E+03    0.52387E-09    0.52522E-11  1416   0.644E-10    0.179E-09
DAV:   4    -0.667758838800E+03   -0.10914E-08    0.43674E-11  1416   0.498E-10
  66 F= -.66775884E+03 E0= -.66774499E+03  d E =-.160071E-09
quench:  g(F)=  0.000E+00 g(S)=  0.000E+00 dE (1.order)= 0.000E+00
 bond charge predicted
       N       E                     dE             d eps       ncg     rms          rms(c)
DAV:   1    -0.667758838799E+03   -0.21828E-09    0.59708E-11  1416   0.564E-10    0.195E-09
DAV:   2    -0.667758838800E+03   -0.10041E-08    0.60533E-11  1416   0.612E-10    0.248E-09
DAV:   3    -0.667758838799E+03    0.10768E-08    0.66373E-11  1416   0.650E-10    0.230E-09
DAV:   4    -0.667758838799E+03   -0.36380E-09    0.62111E-11  1416   0.513E-10
  67 F= -.66775884E+03 E0= -.66774499E+03  d E =0.582077E-09
quench:  g(F)=  0.000E+00 g(S)=  0.000E+00 dE (1.order)= 0.000E+00
 bond charge predicted
       N       E                     dE             d eps       ncg     rms          rms(c)
DAV:   1    -0.667758838800E+03   -0.72760E-09    0.50228E-11  1416   0.458E-10    0.200E-09
DAV:   2    -0.667758838799E+03    0.68394E-09    0.57322E-11  1416   0.537E-10    0.200E-09
DAV:   3    -0.667758838799E+03   -0.43656E-10    0.61993E-11  1416   0.559E-10    0.163E-09
DAV:   4    -0.667758838799E+03   -0.31287E-09    0.63621E-11  1416   0.538E-10
  68 F= -.66775884E+03 E0= -.66774499E+03  d E =-.363798E-10
quench:  g(F)=  0.000E+00 g(S)=  0.000E+00 dE (1.order)= 0.000E+00
 bond charge predicted
       N       E                     dE             d eps       ncg     rms          rms(c)
DAV:   1    -0.667758838800E+03   -0.61118E-09    0.53072E-11  1416   0.508E-10    0.269E-09
DAV:   2    -0.667758838799E+03    0.46566E-09    0.62668E-11  1416   0.726E-10    0.216E-09
DAV:   3    -0.667758838799E+03   -0.31287E-09    0.56417E-11  1416   0.595E-10    0.173E-09
DAV:   4    -0.667758838799E+03    0.72760E-11    0.65486E-11  1416   0.574E-10
  69 F= -.66775884E+03 E0= -.66774499E+03  d E =-.138243E-09
quench:  g(F)=  0.000E+00 g(S)=  0.000E+00 dE (1.order)= 0.000E+00
 bond charge predicted
       N       E                     dE             d eps       ncg     rms          rms(c)
DAV:   1    -0.667758838799E+03    0.34197E-09    0.38326E-11  1416   0.522E-10    0.215E-09
DAV:   2    -0.667758838800E+03   -0.52387E-09    0.47870E-11  1416   0.568E-10    0.147E-09
DAV:   3    -0.667758838799E+03    0.53114E-09    0.66794E-11  1416   0.633E-10    0.244E-09
DAV:   4    -0.667758838800E+03   -0.53114E-09    0.59709E-11  1416   0.520E-10
  70 F= -.66775884E+03 E0= -.66774499E+03  d E =-.189175E-09
quench:  g(F)=  0.000E+00 g(S)=  0.000E+00 dE (1.order)= 0.000E+00
 bond charge predicted
       N       E                     dE             d eps       ncg     rms          rms(c)
DAV:   1    -0.667758838800E+03   -0.73487E-09    0.53891E-11  1416   0.446E-10    0.237E-09
DAV:   2    -0.667758838799E+03    0.11496E-08    0.59016E-11  1416   0.584E-10    0.190E-09
DAV:   3    -0.667758838799E+03   -0.60390E-09    0.52126E-11  1416   0.595E-10    0.194E-09
DAV:   4    -0.667758838799E+03   -0.15280E-09    0.62008E-11  1416   0.425E-10
  71 F= -.66775884E+03 E0= -.66774499E+03  d E =0.189175E-09
quench:  g(F)=  0.000E+00 g(S)=  0.000E+00 dE (1.order)= 0.000E+00
 bond charge predicted
       N       E                     dE             d eps       ncg     rms          rms(c)
DAV:   1    -0.667758838800E+03   -0.34197E-09    0.56238E-11  1404   0.555E-10    0.225E-09
DAV:   2    -0.667758838799E+03    0.17462E-09    0.51613E-11  1404   0.634E-10    0.198E-09
DAV:   3    -0.667758838799E+03    0.72760E-10    0.47668E-11  1404   0.604E-10    0.215E-09
DAV:   4    -0.667758838800E+03   -0.30559E-09    0.33517E-11  1404   0.500E-10
  72 F= -.66775884E+03 E0= -.66774499E+03  d E =-.247383E-09
quench:  g(F)=  0.000E+00 g(S)=  0.000E+00 dE (1.order)= 0.000E+00
 bond charge predicted
       N       E                     dE             d eps       ncg     rms          rms(c)
DAV:   1    -0.667758838799E+03    0.13097E-09    0.37145E-11  1404   0.481E-10    0.167E-09
DAV:   2    -0.667758838799E+03    0.72760E-11    0.52382E-11  1404   0.497E-10    0.214E-09
DAV:   3    -0.667758838800E+03   -0.25466E-09    0.60946E-11  1404   0.410E-10    0.208E-09
DAV:   4    -0.667758838799E+03    0.58208E-10    0.71097E-11  1404   0.539E-10
  73 F= -.66775884E+03 E0= -.66774499E+03  d E =0.247383E-09
quench:  g(F)=  0.000E+00 g(S)=  0.000E+00 dE (1.order)= 0.000E+00
 bond charge predicted
       N       E                     dE             d eps       ncg     rms          rms(c)
DAV:   1    -0.667758838799E+03    0.69849E-09    0.63642E-11  1404   0.477E-10    0.170E-09
DAV:   2    -0.667758838800E+03   -0.74215E-09    0.51715E-11  1404   0.603E-10    0.256E-09
DAV:   3    -0.667758838799E+03    0.13097E-09    0.67144E-11  1404   0.564E-10    0.246E-09
DAV:   4    -0.667758838799E+03    0.80036E-10    0.60290E-11  1404   0.579E-10
  74 F= -.66775884E+03 E0= -.66774499E+03  d E =0.109139E-09
quench:  g(F)=  0.000E+00 g(S)=  0.000E+00 dE (1.order)= 0.000E+00
 bond charge predicted
       N       E                     dE             d eps       ncg     rms          rms(c)
DAV:   1    -0.667758838799E+03    0.19645E-09    0.54904E-11  1404   0.608E-10    0.209E-09
DAV:   2    -0.667758838799E+03    0.13097E-09    0.50950E-11  1404   0.472E-10    0.168E-09
DAV:   3    -0.667758838799E+03   -0.22555E-09    0.50651E-11  1404   0.616E-10    0.273E-09
DAV:   4    -0.667758838800E+03   -0.50204E-09    0.67833E-11  1392   0.491E-10
  75 F= -.66775884E+03 E0= -.66774499E+03  d E =-.480213E-09
quench:  g(F)=  0.000E+00 g(S)=  0.000E+00 dE (1.order)= 0.000E+00
 bond charge predicted
       N       E                     dE             d eps       ncg     rms          rms(c)
DAV:   1    -0.667758838799E+03    0.43656E-10    0.57097E-11  1392   0.608E-10    0.311E-09
DAV:   2    -0.667758838799E+03    0.29104E-09    0.58340E-11  1392   0.594E-10    0.203E-09
DAV:   3    -0.667758838799E+03   -0.31287E-09    0.41392E-11  1392   0.575E-10    0.272E-09
DAV:   4    -0.667758838799E+03    0.27649E-09    0.52130E-11  1392   0.616E-10
  76 F= -.66775884E+03 E0= -.66774499E+03  d E =0.800355E-09
quench:  g(F)=  0.000E+00 g(S)=  0.000E+00 dE (1.order)= 0.000E+00
 bond charge predicted
       N       E                     dE             d eps       ncg     rms          rms(c)
DAV:   1    -0.667758838800E+03   -0.40745E-09    0.61797E-11  1392   0.539E-10    0.168E-09
DAV:   2    -0.667758838800E+03   -0.36380E-10    0.57624E-11  1392   0.440E-10    0.165E-09
DAV:   3    -0.667758838800E+03   -0.29104E-10    0.49153E-11  1392   0.557E-10    0.220E-09
DAV:   4    -0.667758838799E+03    0.72032E-09    0.75791E-11  1392   0.520E-10
  77 F= -.66775884E+03 E0= -.66774499E+03  d E =-.291038E-10
quench:  g(F)=  0.000E+00 g(S)=  0.000E+00 dE (1.order)= 0.000E+00
 bond charge predicted
       N       E                     dE             d eps       ncg     rms          rms(c)
DAV:   1    -0.667758838799E+03    0.88767E-09    0.62046E-11  1392   0.437E-10    0.297E-09
DAV:   2    -0.667758838799E+03   -0.42928E-09    0.47912E-11  1392   0.656E-10    0.236E-09
DAV:   3    -0.667758838799E+03    0.37107E-09    0.38714E-11  1392   0.472E-10    0.165E-09
DAV:   4    -0.667758838799E+03    0.17462E-09    0.49276E-11  1392   0.431E-10
  78 F= -.66775884E+03 E0= -.66774499E+03  d E =0.283762E-09
quench:  g(F)=  0.000E+00 g(S)=  0.000E+00 dE (1.order)= 0.000E+00
 bond charge predicted
       N       E                     dE             d eps       ncg     rms          rms(c)
DAV:   1    -0.667758838800E+03   -0.64756E-09    0.57602E-11  1392   0.467E-10    0.222E-09
DAV:   2    -0.667758838800E+03   -0.74942E-09    0.42612E-11  1392   0.540E-10    0.209E-09
DAV:   3    -0.667758838799E+03    0.13097E-08    0.59154E-11  1392   0.530E-10    0.182E-09
DAV:   4    -0.667758838800E+03   -0.66939E-09    0.67840E-11  1392   0.343E-10
  79 F= -.66775884E+03 E0= -.66774499E+03  d E =-.931323E-09
quench:  g(F)=  0.000E+00 g(S)=  0.000E+00 dE (1.order)= 0.000E+00
 bond charge predicted
       N       E                     dE             d eps       ncg     rms          rms(c)
DAV:   1    -0.667758838799E+03    0.30559E-09    0.58064E-11  1392   0.386E-10    0.185E-09
DAV:   2    -0.667758838799E+03   -0.50932E-09    0.53923E-11  1392   0.634E-10    0.227E-09
DAV:   3    -0.667758838799E+03    0.00000E+00    0.52966E-11  1392   0.417E-10    0.215E-09
DAV:   4    -0.667758838799E+03   -0.43656E-10    0.61713E-11  1392   0.567E-10
  80 F= -.66775884E+03 E0= -.66774499E+03  d E =0.422006E-09
quench:  g(F)=  0.000E+00 g(S)=  0.000E+00 dE (1.order)= 0.000E+00
 bond charge predicted
       N       E                     dE             d eps       ncg     rms          rms(c)
DAV:   1    -0.667758838800E+03   -0.35652E-09    0.57194E-11  1392   0.695E-10    0.277E-09
DAV:   2    -0.667758838799E+03    0.38563E-09    0.58269E-11  1392   0.546E-10    0.175E-09
DAV:   3    -0.667758838799E+03    0.13824E-09    0.64645E-11  1380   0.538E-10    0.236E-09
DAV:   4    -0.667758838800E+03   -0.59663E-09    0.58817E-11  1380   0.515E-10
  81 F= -.66775884E+03 E0= -.66774499E+03  d E =-.385626E-09
quench:  g(F)=  0.000E+00 g(S)=  0.000E+00 dE (1.order)= 0.000E+00
 bond charge predicted
       N       E                     dE             d eps       ncg     rms          rms(c)
DAV:   1    -0.667758838799E+03    0.21100E-09    0.48701E-11  1380   0.540E-10    0.271E-09
DAV:   2    -0.667758838799E+03   -0.52387E-09    0.63398E-11  1380   0.514E-10    0.275E-09
DAV:   3    -0.667758838799E+03    0.45839E-09    0.39609E-11  1380   0.521E-10    0.177E-09
DAV:   4    -0.667758838799E+03   -0.45839E-09    0.53119E-11  1380   0.503E-10
  82 F= -.66775884E+03 E0= -.66774499E+03  d E =0.283762E-09
quench:  g(F)=  0.000E+00 g(S)=  0.000E+00 dE (1.order)= 0.000E+00
 bond charge predicted
       N       E                     dE             d eps       ncg     rms          rms(c)
DAV:   1    -0.667758838799E+03    0.13824E-09    0.44864E-11  1380   0.539E-10    0.144E-09
DAV:   2    -0.667758838799E+03   -0.29831E-09    0.52519E-11  1380   0.504E-10    0.203E-09
DAV:   3    -0.667758838799E+03   -0.10914E-09    0.53422E-11  1380   0.595E-10    0.172E-09
DAV:   4    -0.667758838800E+03   -0.36380E-09    0.69513E-11  1380   0.677E-10
  83 F= -.66775884E+03 E0= -.66774499E+03  d E =-.174623E-09
quench:  g(F)=  0.000E+00 g(S)=  0.000E+00 dE (1.order)= 0.000E+00
 bond charge predicted
       N       E                     dE             d eps       ncg     rms          rms(c)
DAV:   1    -0.667758838799E+03   -0.16007E-09    0.45991E-11  1380   0.772E-10    0.239E-09
DAV:   2    -0.667758838799E+03    0.33469E-09    0.52641E-11  1380   0.603E-10    0.174E-09
DAV:   3    -0.667758838799E+03   -0.39290E-09    0.42464E-11  1380   0.489E-10    0.144E-09
DAV:   4    -0.667758838799E+03    0.18917E-09    0.70257E-11  1380   0.648E-10
  84 F= -.66775884E+03 E0= -.66774499E+03  d E =0.334694E-09
quench:  g(F)=  0.000E+00 g(S)=  0.000E+00 dE (1.order)= 0.000E+00
 bond charge predicted
       N       E                     dE             d eps       ncg     rms          rms(c)
DAV:   1    -0.667758838800E+03   -0.87311E-10    0.55897E-11  1380   0.577E-10    0.196E-09
DAV:   2    -0.667758838799E+03    0.44383E-09    0.44079E-11  1380   0.553E-10    0.273E-09
DAV:   3    -0.667758838800E+03   -0.56025E-09    0.63332E-11  1380   0.604E-10    0.180E-09
DAV:   4    -0.667758838799E+03    0.30559E-09    0.47823E-11  1380   0.550E-10
  85 F= -.66775884E+03 E0= -.66774499E+03  d E =-.873115E-10
quench:  g(F)=  0.000E+00 g(S)=  0.000E+00 dE (1.order)= 0.000E+00
 bond charge predicted
       N       E                     dE             d eps       ncg     rms          rms(c)
DAV:   1    -0.667758838799E+03    0.43656E-09    0.51319E-11  1380   0.454E-10    0.198E-09
DAV:   2    -0.667758838799E+03   -0.72760E-10    0.53099E-11  1380   0.560E-10    0.231E-09
DAV:   3    -0.667758838799E+03   -0.12369E-09    0.67944E-11  1380   0.439E-10    0.160E-09
DAV:   4    -0.667758838800E+03   -0.23283E-09    0.60798E-11  1380   0.518E-10
  86 F= -.66775884E+03 E0= -.66774499E+03  d E =-.298314E-09
quench:  g(F)=  0.000E+00 g(S)=  0.000E+00 dE (1.order)= 0.000E+00
 bond charge predicted
       N       E                     dE             d eps       ncg     rms          rms(c)
DAV:   1    -0.667758838799E+03   -0.50932E-10    0.56037E-11  1380   0.656E-10    0.241E-09
DAV:   2    -0.667758838799E+03    0.18917E-09    0.63726E-11  1380   0.534E-10    0.150E-09
DAV:   3    -0.667758838799E+03   -0.21828E-09    0.34391E-11  1380   0.568E-10    0.235E-09
DAV:   4    -0.667758838800E+03   -0.24011E-09    0.38429E-11  1380   0.566E-10
  87 F= -.66775884E+03 E0= -.66774499E+03  d E =-.873115E-10
quench:  g(F)=  0.000E+00 g(S)=  0.000E+00 dE (1.order)= 0.000E+00
 bond charge predicted
       N       E                     dE             d eps       ncg     rms          rms(c)
DAV:   1    -0.667758838799E+03    0.87311E-10    0.56525E-11  1380   0.708E-10    0.313E-09
DAV:   2    -0.667758838799E+03    0.65484E-09    0.61905E-11  1380   0.673E-10    0.194E-09
DAV:   3    -0.667758838799E+03   -0.56025E-09    0.66572E-11  1380   0.695E-10    0.142E-09
DAV:   4    -0.667758838799E+03   -0.58208E-10    0.49350E-11  1380   0.602E-10
  88 F= -.66775884E+03 E0= -.66774499E+03  d E =0.363798E-09
quench:  g(F)=  0.000E+00 g(S)=  0.000E+00 dE (1.order)= 0.000E+00
 bond charge predicted
       N       E                     dE             d eps       ncg     rms          rms(c)
DAV:   1    -0.667758838799E+03    0.19645E-09    0.56226E-11  1380   0.485E-10    0.226E-09
DAV:   2    -0.667758838799E+03    0.18190E-09    0.61110E-11  1380   0.596E-10    0.246E-09
DAV:   3    -0.667758838800E+03   -0.72760E-09    0.46509E-11  1380   0.624E-10    0.209E-09
DAV:   4    -0.667758838799E+03    0.24011E-09    0.55256E-11  1380   0.589E-10
  89 F= -.66775884E+03 E0= -.66774499E+03  d E =-.509317E-10
quench:  g(F)=  0.000E+00 g(S)=  0.000E+00 dE (1.order)= 0.000E+00
 bond charge predicted
       N       E                     dE             d eps       ncg     rms          rms(c)
DAV:   1    -0.667758838799E+03    0.92405E-09    0.47579E-11  1380   0.462E-10    0.176E-09
DAV:   2    -0.667758838799E+03   -0.59663E-09    0.52375E-11  1380   0.509E-10    0.216E-09
DAV:   3    -0.667758838799E+03    0.61118E-09    0.62041E-11  1380   0.497E-10    0.185E-09
DAV:   4    -0.667758838799E+03   -0.48749E-09    0.61067E-11  1380   0.516E-10
  90 F= -.66775884E+03 E0= -.66774499E+03  d E =0.211003E-09
quench:  g(F)=  0.000E+00 g(S)=  0.000E+00 dE (1.order)= 0.000E+00
 bond charge predicted
       N       E                     dE             d eps       ncg     rms          rms(c)
DAV:   1    -0.667758838800E+03   -0.12078E-08    0.60943E-11  1380   0.381E-10    0.241E-09
DAV:   2    -0.667758838799E+03    0.52387E-09    0.50553E-11  1380   0.509E-10    0.275E-09
DAV:   3    -0.667758838800E+03   -0.16007E-09    0.64733E-11  1380   0.453E-10    0.222E-09
DAV:   4    -0.667758838800E+03   -0.42928E-09    0.46939E-11  1380   0.495E-10
  91 F= -.66775884E+03 E0= -.66774499E+03  d E =-.785803E-09
quench:  g(F)=  0.000E+00 g(S)=  0.000E+00 dE (1.order)= 0.000E+00
 bond charge predicted
       N       E                     dE             d eps       ncg     rms          rms(c)
DAV:   1    -0.667758838799E+03    0.64028E-09    0.68300E-11  1380   0.536E-10    0.172E-09
DAV:   2    -0.667758838800E+03   -0.90949E-09    0.59087E-11  1380   0.572E-10    0.254E-09
DAV:   3    -0.667758838799E+03    0.46566E-09    0.67596E-11  1380   0.643E-10    0.223E-09
DAV:   4    -0.667758838799E+03    0.17462E-09    0.68322E-11  1380   0.714E-10
  92 F= -.66775884E+03 E0= -.66774499E+03  d E =0.800355E-09
quench:  g(F)=  0.000E+00 g(S)=  0.000E+00 dE (1.order)= 0.000E+00
 bond charge predicted
       N       E                     dE             d eps       ncg     rms          rms(c)
DAV:   1    -0.667758838800E+03   -0.58935E-09    0.61993E-11  1380   0.536E-10    0.245E-09
DAV:   2    -0.667758838800E+03    0.26921E-09    0.51697E-11  1380   0.624E-10    0.273E-09
DAV:   3    -0.667758838800E+03   -0.72760E-10    0.41853E-11  1380   0.588E-10    0.153E-09
DAV:   4    -0.667758838799E+03    0.70577E-09    0.69033E-11  1380   0.509E-10
  93 F= -.66775884E+03 E0= -.66774499E+03  d E =0.138243E-09
quench:  g(F)=  0.000E+00 g(S)=  0.000E+00 dE (1.order)= 0.000E+00
 bond charge predicted
       N       E                     dE             d eps       ncg     rms          rms(c)
DAV:   1    -0.667758838800E+03    0.22555E-09    0.54961E-11  1380   0.501E-10    0.216E-09
DAV:   2    -0.667758838800E+03   -0.18190E-09    0.48815E-11  1380   0.688E-10    0.290E-09
DAV:   3    -0.667758838800E+03   -0.43656E-10    0.45122E-11  1380   0.655E-10    0.186E-09
DAV:   4    -0.667758838799E+03    0.62573E-09    0.54917E-11  1380   0.477E-10
  94 F= -.66775884E+03 E0= -.66774499E+03  d E =-.800355E-10
quench:  g(F)=  0.000E+00 g(S)=  0.000E+00 dE (1.order)= 0.000E+00
 bond charge predicted
       N       E                     dE             d eps       ncg     rms          rms(c)
DAV:   1    -0.667758838799E+03    0.29104E-09    0.55166E-11  1380   0.447E-10    0.239E-09
DAV:   2    -0.667758838799E+03    0.56025E-09    0.52974E-11  1380   0.751E-10    0.289E-09
DAV:   3    -0.667758838799E+03   -0.49477E-09    0.56901E-11  1380   0.674E-10    0.236E-09
DAV:   4    -0.667758838799E+03    0.30559E-09    0.57104E-11  1380   0.547E-10
  95 F= -.66775884E+03 E0= -.66774499E+03  d E =0.363798E-10
quench:  g(F)=  0.000E+00 g(S)=  0.000E+00 dE (1.order)= 0.000E+00
 bond charge predicted
       N       E                     dE             d eps       ncg     rms          rms(c)
DAV:   1    -0.667758838799E+03    0.65484E-10    0.58940E-11  1380   0.437E-10    0.151E-09
DAV:   2    -0.667758838799E+03    0.26921E-09    0.49185E-11  1380   0.610E-10    0.235E-09
DAV:   3    -0.667758838799E+03   -0.34925E-09    0.46935E-11  1380   0.614E-10    0.218E-09
DAV:   4    -0.667758838799E+03    0.32742E-09    0.68844E-11  1380   0.544E-10
  96 F= -.66775884E+03 E0= -.66774499E+03  d E =0.727596E-11
quench:  g(F)=  0.000E+00 g(S)=  0.000E+00 dE (1.order)= 0.000E+00
 bond charge predicted
       N       E                     dE             d eps       ncg     rms          rms(c)
DAV:   1    -0.667758838800E+03   -0.32014E-09    0.58093E-11  1380   0.531E-10    0.178E-09
DAV:   2    -0.667758838800E+03    0.21100E-09    0.53481E-11  1380   0.499E-10    0.211E-09
DAV:   3    -0.667758838799E+03    0.26921E-09    0.61591E-11  1380   0.608E-10    0.176E-09
DAV:   4    -0.667758838800E+03   -0.57480E-09    0.57702E-11  1380   0.558E-10
  97 F= -.66775884E+03 E0= -.66774499E+03  d E =-.742148E-09
quench:  g(F)=  0.000E+00 g(S)=  0.000E+00 dE (1.order)= 0.000E+00
 bond charge predicted
       N       E                     dE             d eps       ncg     rms          rms(c)
DAV:   1    -0.667758838799E+03   -0.22555E-09    0.62887E-11  1380   0.425E-10    0.154E-09
DAV:   2    -0.667758838800E+03   -0.28376E-09    0.41174E-11  1380   0.537E-10    0.196E-09
DAV:   3    -0.667758838800E+03    0.13824E-09    0.56249E-11  1380   0.585E-10    0.216E-09
DAV:   4    -0.667758838799E+03    0.40745E-09    0.61096E-11  1380   0.476E-10
  98 F= -.66775884E+03 E0= -.66774499E+03  d E =0.611180E-09
quench:  g(F)=  0.000E+00 g(S)=  0.000E+00 dE (1.order)= 0.000E+00
 bond charge predicted
       N       E                     dE             d eps       ncg     rms          rms(c)
DAV:   1    -0.667758838799E+03    0.33469E-09    0.51397E-11  1380   0.379E-10    0.205E-09
DAV:   2    -0.667758838799E+03    0.58208E-10    0.58799E-11  1380   0.576E-10    0.221E-09
DAV:   3    -0.667758838799E+03    0.21828E-10    0.58558E-11  1380   0.551E-10    0.218E-09
DAV:   4    -0.667758838799E+03    0.15280E-09    0.43012E-11  1380   0.606E-10
  99 F= -.66775884E+03 E0= -.66774499E+03  d E =0.160071E-09
quench:  g(F)=  0.000E+00 g(S)=  0.000E+00 dE (1.order)= 0.000E+00
 bond charge predicted
       N       E                     dE             d eps       ncg     rms          rms(c)
DAV:   1    -0.667758838799E+03    0.94587E-10    0.48924E-11  1380   0.493E-10    0.217E-09
DAV:   2    -0.667758838800E+03   -0.54570E-09    0.45547E-11  1380   0.506E-10    0.203E-09
DAV:   3    -0.667758838799E+03    0.69849E-09    0.51793E-11  1380   0.569E-10    0.224E-09
DAV:   4    -0.667758838800E+03   -0.77853E-09    0.54907E-11  1380   0.542E-10
 100 F= -.66775884E+03 E0= -.66774499E+03  d E =-.683940E-09
quench:  g(F)=  0.000E+00 g(S)=  0.000E+00 dE (1.order)= 0.000E+00
 bond charge predicted
       N       E                     dE             d eps       ncg     rms          rms(c)
DAV:   1    -0.667758838799E+03   -0.45839E-09    0.65249E-11  1380   0.542E-10    0.210E-09
DAV:   2    -0.667758838799E+03   -0.21828E-10    0.45349E-11  1380   0.588E-10    0.126E-09
DAV:   3    -0.667758838799E+03    0.87311E-10    0.72344E-11  1380   0.736E-10    0.258E-09
DAV:   4    -0.667758838799E+03   -0.16007E-09    0.44067E-11  1380   0.448E-10
 101 F= -.66775884E+03 E0= -.66774499E+03  d E =0.225555E-09
quench:  g(F)=  0.000E+00 g(S)=  0.000E+00 dE (1.order)= 0.000E+00
 bond charge predicted
       N       E                     dE             d eps       ncg     rms          rms(c)
DAV:   1    -0.667758838799E+03    0.29104E-10    0.60644E-11  1380   0.490E-10    0.187E-09
DAV:   2    -0.667758838799E+03    0.43656E-10    0.48549E-11  1380   0.516E-10    0.160E-09
DAV:   3    -0.667758838799E+03    0.27649E-09    0.63157E-11  1380   0.484E-10    0.201E-09
DAV:   4    -0.667758838800E+03   -0.60390E-09    0.52701E-11  1380   0.502E-10
 102 F= -.66775884E+03 E0= -.66774499E+03  d E =-.945874E-10
quench:  g(F)=  0.000E+00 g(S)=  0.000E+00 dE (1.order)= 0.000E+00
 bond charge predicted
       N       E                     dE             d eps       ncg     rms          rms(c)
DAV:   1    -0.667758838800E+03   -0.82946E-09    0.68356E-11  1380   0.376E-10    0.222E-09
DAV:   2    -0.667758838800E+03   -0.14552E-09    0.35836E-11  1380   0.614E-10    0.312E-09
DAV:   3    -0.667758838799E+03    0.80036E-09    0.49815E-11  1380   0.688E-10    0.255E-09
DAV:   4    -0.667758838799E+03   -0.30559E-09    0.44590E-11  1380   0.489E-10
 103 F= -.66775884E+03 E0= -.66774499E+03  d E =0.123691E-09
quench:  g(F)=  0.000E+00 g(S)=  0.000E+00 dE (1.order)= 0.000E+00
 bond charge predicted
       N       E                     dE             d eps       ncg     rms          rms(c)
DAV:   1    -0.667758838799E+03    0.24738E-09    0.55586E-11  1380   0.474E-10    0.249E-09
DAV:   2    -0.667758838799E+03   -0.58208E-09    0.57173E-11  1380   0.841E-10    0.311E-09
DAV:   3    -0.667758838799E+03    0.58208E-09    0.58854E-11  1380   0.591E-10    0.288E-09
DAV:   4    -0.667758838800E+03   -0.88767E-09    0.61246E-11  1380   0.680E-10
 104 F= -.66775884E+03 E0= -.66774499E+03  d E =-.334694E-09
quench:  g(F)=  0.000E+00 g(S)=  0.000E+00 dE (1.order)= 0.000E+00
 bond charge predicted
       N       E                     dE             d eps       ncg     rms          rms(c)
DAV:   1    -0.667758838799E+03   -0.32742E-09    0.53984E-11  1380   0.482E-10    0.175E-09
DAV:   2    -0.667758838800E+03   -0.64028E-09    0.63226E-11  1380   0.531E-10    0.242E-09
DAV:   3    -0.667758838799E+03    0.38563E-09    0.60818E-11  1380   0.712E-10    0.258E-09
DAV:   4    -0.667758838799E+03    0.48021E-09    0.58619E-11  1380   0.716E-10
 105 F= -.66775884E+03 E0= -.66774499E+03  d E =0.785803E-09
quench:  g(F)=  0.000E+00 g(S)=  0.000E+00 dE (1.order)= 0.000E+00
 bond charge predicted
       N       E                     dE             d eps       ncg     rms          rms(c)
DAV:   1    -0.667758838800E+03   -0.10186E-09    0.57312E-11  1380   0.636E-10    0.217E-09
DAV:   2    -0.667758838799E+03    0.29104E-09    0.46746E-11  1380   0.484E-10    0.142E-09
DAV:   3    -0.667758838799E+03    0.47294E-09    0.61810E-11  1380   0.471E-10    0.125E-09
DAV:   4    -0.667758838799E+03   -0.32742E-09    0.52256E-11  1380   0.451E-10
 106 F= -.66775884E+03 E0= -.66774499E+03  d E =-.145519E-09
quench:  g(F)=  0.000E+00 g(S)=  0.000E+00 dE (1.order)= 0.000E+00
 bond charge predicted
       N       E                     dE             d eps       ncg     rms          rms(c)
DAV:   1    -0.667758838799E+03   -0.56752E-09    0.65112E-11  1380   0.462E-10    0.156E-09
DAV:   2    -0.667758838799E+03   -0.21828E-10    0.57769E-11  1380   0.585E-10    0.238E-09
DAV:   3    -0.667758838799E+03    0.23283E-09    0.48269E-11  1380   0.577E-10    0.202E-09
DAV:   4    -0.667758838800E+03   -0.32742E-09    0.65847E-11  1380   0.453E-10
 107 F= -.66775884E+03 E0= -.66774499E+03  d E =-.356522E-09
quench:  g(F)=  0.000E+00 g(S)=  0.000E+00 dE (1.order)= 0.000E+00
 bond charge predicted
       N       E                     dE             d eps       ncg     rms          rms(c)
DAV:   1    -0.667758838800E+03   -0.45111E-09    0.60749E-11  1380   0.495E-10    0.236E-09
DAV:   2    -0.667758838799E+03    0.31287E-09    0.43362E-11  1380   0.575E-10    0.183E-09
DAV:   3    -0.667758838800E+03   -0.26921E-09    0.52045E-11  1380   0.549E-10    0.238E-09
DAV:   4    -0.667758838800E+03    0.43656E-10    0.68188E-11  1380   0.432E-10
 108 F= -.66775884E+03 E0= -.66774499E+03  d E =-.363798E-10
quench:  g(F)=  0.000E+00 g(S)=  0.000E+00 dE (1.order)= 0.000E+00
 bond charge predicted
       N       E                     dE             d eps       ncg     rms          rms(c)
DAV:   1    -0.667758838800E+03    0.00000E+00    0.47936E-11  1380   0.515E-10    0.226E-09
DAV:   2    -0.667758838799E+03    0.34925E-09    0.54487E-11  1380   0.570E-10    0.180E-09
DAV:   3    -0.667758838799E+03   -0.11642E-09    0.42586E-11  1380   0.679E-10    0.261E-09
DAV:   4    -0.667758838799E+03    0.13097E-09    0.54449E-11  1380   0.504E-10
 109 F= -.66775884E+03 E0= -.66774499E+03  d E =0.320142E-09
quench:  g(F)=  0.000E+00 g(S)=  0.000E+00 dE (1.order)= 0.000E+00
 bond charge predicted
       N       E                     dE             d eps       ncg     rms          rms(c)
DAV:   1    -0.667758838799E+03   -0.43656E-10    0.62102E-11  1380   0.400E-10    0.211E-09
DAV:   2    -0.667758838800E+03   -0.55297E-09    0.54206E-11  1380   0.629E-10    0.251E-09
DAV:   3    -0.667758838799E+03    0.46566E-09    0.63193E-11  1380   0.564E-10    0.157E-09
DAV:   4    -0.667758838799E+03    0.11642E-09    0.60011E-11  1380   0.468E-10
 110 F= -.66775884E+03 E0= -.66774499E+03  d E =-.145519E-09
quench:  g(F)=  0.000E+00 g(S)=  0.000E+00 dE (1.order)= 0.000E+00
 bond charge predicted
       N       E                     dE             d eps       ncg     rms          rms(c)
DAV:   1    -0.667758838800E+03   -0.50932E-10    0.56745E-11  1380   0.738E-10    0.284E-09
DAV:   2    -0.667758838799E+03    0.20373E-09    0.54614E-11  1380   0.710E-10    0.148E-09
DAV:   3    -0.667758838799E+03   -0.14552E-10    0.49344E-11  1380   0.417E-10    0.155E-09
DAV:   4    -0.667758838799E+03   -0.21828E-10    0.66852E-11  1380   0.489E-10
 111 F= -.66775884E+03 E0= -.66774499E+03  d E =0.000000E+00
quench:  g(F)=  0.000E+00 g(S)=  0.000E+00 dE (1.order)= 0.000E+00
 bond charge predicted
       N       E                     dE             d eps       ncg     rms          rms(c)
DAV:   1    -0.667758838800E+03   -0.21100E-09    0.55887E-11  1380   0.604E-10    0.209E-09
DAV:   2    -0.667758838799E+03    0.23283E-09    0.71723E-11  1380   0.655E-10    0.220E-09
DAV:   3    -0.667758838799E+03    0.80036E-10    0.61553E-11  1380   0.549E-10    0.174E-09
DAV:   4    -0.667758838799E+03    0.61846E-09    0.35641E-11  1380   0.583E-10
 112 F= -.66775884E+03 E0= -.66774499E+03  d E =0.742148E-09
quench:  g(F)=  0.000E+00 g(S)=  0.000E+00 dE (1.order)= 0.000E+00
 bond charge predicted
       N       E                     dE             d eps       ncg     rms          rms(c)
DAV:   1    -0.667758838799E+03   -0.20373E-09    0.52475E-11  1380   0.536E-10    0.257E-09
DAV:   2    -0.667758838800E+03   -0.89494E-09    0.48308E-11  1380   0.495E-10    0.175E-09
DAV:   3    -0.667758838799E+03    0.11132E-08    0.53512E-11  1380   0.494E-10    0.189E-09
DAV:   4    -0.667758838800E+03   -0.60390E-09    0.50157E-11  1380   0.531E-10
 113 F= -.66775884E+03 E0= -.66774499E+03  d E =-.120781E-08
quench:  g(F)=  0.000E+00 g(S)=  0.000E+00 dE (1.order)= 0.000E+00
 bond charge predicted
       N       E                     dE             d eps       ncg     rms          rms(c)
DAV:   1    -0.667758838799E+03   -0.24011E-09    0.50510E-11  1380   0.448E-10    0.167E-09
DAV:   2    -0.667758838799E+03    0.48021E-09    0.59996E-11  1380   0.733E-10    0.281E-09
DAV:   3    -0.667758838800E+03   -0.70577E-09    0.63295E-11  1380   0.712E-10    0.236E-09
DAV:   4    -0.667758838800E+03    0.80036E-10    0.52888E-11  1380   0.589E-10
 114 F= -.66775884E+03 E0= -.66774499E+03  d E =0.218279E-09
quench:  g(F)=  0.000E+00 g(S)=  0.000E+00 dE (1.order)= 0.000E+00
 bond charge predicted
       N       E                     dE             d eps       ncg     rms          rms(c)
DAV:   1    -0.667758838799E+03    0.38563E-09    0.53381E-11  1380   0.451E-10    0.218E-09
DAV:   2    -0.667758838799E+03   -0.65484E-10    0.59448E-11  1380   0.541E-10    0.179E-09
DAV:   3    -0.667758838799E+03    0.21100E-09    0.48222E-11  1380   0.468E-10    0.126E-09
DAV:   4    -0.667758838799E+03   -0.16007E-09    0.66389E-11  1380   0.389E-10
 115 F= -.66775884E+03 E0= -.66774499E+03  d E =0.291038E-09
quench:  g(F)=  0.000E+00 g(S)=  0.000E+00 dE (1.order)= 0.000E+00
 bond charge predicted
       N       E                     dE             d eps       ncg     rms          rms(c)
DAV:   1    -0.667758838800E+03   -0.39290E-09    0.51174E-11  1380   0.475E-10    0.289E-09
DAV:   2    -0.667758838799E+03    0.80036E-10    0.65326E-11  1380   0.573E-10    0.250E-09
DAV:   3    -0.667758838800E+03   -0.50932E-10    0.50661E-11  1380   0.665E-10    0.170E-09
DAV:   4    -0.667758838799E+03    0.26921E-09    0.81607E-11  1380   0.533E-10
 116 F= -.66775884E+03 E0= -.66774499E+03  d E =0.654836E-10
quench:  g(F)=  0.000E+00 g(S)=  0.000E+00 dE (1.order)= 0.000E+00
 bond charge predicted
       N       E                     dE             d eps       ncg     rms          rms(c)
DAV:   1    -0.667758838799E+03    0.37107E-09    0.47568E-11  1380   0.544E-10    0.213E-09
DAV:   2    -0.667758838799E+03   -0.27649E-09    0.51143E-11  1380   0.621E-10    0.201E-09
DAV:   3    -0.667758838799E+03    0.22555E-09    0.56053E-11  1380   0.504E-10    0.174E-09
DAV:   4    -0.667758838799E+03    0.29104E-10    0.52636E-11  1380   0.477E-10
 117 F= -.66775884E+03 E0= -.66774499E+03  d E =0.800355E-10
quench:  g(F)=  0.000E+00 g(S)=  0.000E+00 dE (1.order)= 0.000E+00
 bond charge predicted
       N       E                     dE             d eps       ncg     rms          rms(c)
DAV:   1    -0.667758838799E+03   -0.10186E-09    0.66493E-11  1380   0.519E-10    0.202E-09
DAV:   2    -0.667758838799E+03    0.36380E-10    0.62688E-11  1380   0.378E-10    0.162E-09
DAV:   3    -0.667758838800E+03   -0.35652E-09    0.58588E-11  1380   0.648E-10    0.286E-09
DAV:   4    -0.667758838799E+03    0.53842E-09    0.45696E-11  1380   0.650E-10
 118 F= -.66775884E+03 E0= -.66774499E+03  d E =0.873115E-10
quench:  g(F)=  0.000E+00 g(S)=  0.000E+00 dE (1.order)= 0.000E+00
 bond charge predicted
       N       E                     dE             d eps       ncg     rms          rms(c)
DAV:   1    -0.667758838799E+03    0.45839E-09    0.68269E-11  1380   0.434E-10    0.176E-09
DAV:   2    -0.667758838799E+03   -0.72760E-10    0.60030E-11  1380   0.459E-10    0.163E-09
DAV:   3    -0.667758838799E+03   -0.80036E-10    0.48097E-11  1380   0.645E-10    0.268E-09
DAV:   4    -0.667758838800E+03   -0.21828E-09    0.50749E-11  1380   0.560E-10
 119 F= -.66775884E+03 E0= -.66774499E+03  d E =-.451109E-09
quench:  g(F)=  0.000E+00 g(S)=  0.000E+00 dE (1.order)= 0.000E+00
 bond charge predicted
       N       E                     dE             d eps       ncg     rms          rms(c)
DAV:   1    -0.667758838799E+03    0.94587E-10    0.51754E-11  1380   0.536E-10    0.216E-09
DAV:   2    -0.667758838800E+03   -0.38563E-09    0.62804E-11  1380   0.565E-10    0.165E-09
DAV:   3    -0.667758838799E+03    0.66939E-09    0.55586E-11  1380   0.556E-10    0.265E-09
DAV:   4    -0.667758838799E+03   -0.43656E-09    0.50991E-11  1380   0.599E-10
 120 F= -.66775884E+03 E0= -.66774499E+03  d E =0.160071E-09
quench:  g(F)=  0.000E+00 g(S)=  0.000E+00 dE (1.order)= 0.000E+00
 bond charge predicted
       N       E                     dE             d eps       ncg     rms          rms(c)
DAV:   1    -0.667758838799E+03   -0.39290E-09    0.50704E-11  1380   0.723E-10    0.330E-09
DAV:   2    -0.667758838799E+03    0.36380E-10    0.55336E-11  1380   0.890E-10    0.273E-09
DAV:   3    -0.667758838799E+03   -0.87311E-10    0.36380E-11  1380   0.661E-10    0.196E-09
DAV:   4    -0.667758838799E+03    0.32742E-09    0.55790E-11  1380   0.418E-10
 121 F= -.66775884E+03 E0= -.66774499E+03  d E =0.320142E-09
quench:  g(F)=  0.000E+00 g(S)=  0.000E+00 dE (1.order)= 0.000E+00
 bond charge predicted
       N       E                     dE             d eps       ncg     rms          rms(c)
DAV:   1    -0.667758838799E+03    0.13097E-09    0.55499E-11  1380   0.499E-10    0.225E-09
DAV:   2    -0.667758838800E+03   -0.29831E-09    0.63143E-11  1380   0.684E-10    0.242E-09
DAV:   3    -0.667758838799E+03    0.64028E-09    0.61959E-11  1380   0.687E-10    0.296E-09
DAV:   4    -0.667758838799E+03   -0.12369E-09    0.42773E-11  1380   0.473E-10
 122 F= -.66775884E+03 E0= -.66774499E+03  d E =0.218279E-10
quench:  g(F)=  0.000E+00 g(S)=  0.000E+00 dE (1.order)= 0.000E+00
 bond charge predicted
       N       E                     dE             d eps       ncg     rms          rms(c)
DAV:   1    -0.667758838799E+03    0.40745E-09    0.55396E-11  1380   0.485E-10    0.223E-09
DAV:   2    -0.667758838799E+03   -0.55297E-09    0.56204E-11  1380   0.689E-10    0.302E-09
DAV:   3    -0.667758838800E+03   -0.45839E-09    0.63177E-11  1380   0.501E-10    0.174E-09
DAV:   4    -0.667758838799E+03    0.87311E-10    0.47761E-11  1380   0.540E-10
 123 F= -.66775884E+03 E0= -.66774499E+03  d E =-.392902E-09
quench:  g(F)=  0.000E+00 g(S)=  0.000E+00 dE (1.order)= 0.000E+00
 bond charge predicted
       N       E                     dE             d eps       ncg     rms          rms(c)
DAV:   1    -0.667758838800E+03   -0.26921E-09    0.72771E-11  1380   0.533E-10    0.146E-09
DAV:   2    -0.667758838799E+03    0.85129E-09    0.73721E-11  1380   0.516E-10    0.206E-09
DAV:   3    -0.667758838800E+03   -0.90222E-09    0.60120E-11  1380   0.576E-10    0.147E-09
DAV:   4    -0.667758838800E+03   -0.26193E-09    0.58234E-11  1380   0.476E-10
 124 F= -.66775884E+03 E0= -.66774499E+03  d E =-.669388E-09
quench:  g(F)=  0.000E+00 g(S)=  0.000E+00 dE (1.order)= 0.000E+00
 bond charge predicted
       N       E                     dE             d eps       ncg     rms          rms(c)
DAV:   1    -0.667758838799E+03    0.60390E-09    0.43889E-11  1380   0.450E-10    0.201E-09
DAV:   2    -0.667758838799E+03    0.43656E-10    0.55995E-11  1380   0.468E-10    0.152E-09
DAV:   3    -0.667758838800E+03   -0.48749E-09    0.69672E-11  1380   0.494E-10    0.262E-09
[...]
DAV:   1    -0.667758838800E+03   -0.10332E-08    0.46715E-11  1380   0.441E-10    0.177E-09
DAV:   2    -0.667758838800E+03   -0.21828E-09    0.61007E-11  1380   0.522E-10    0.183E-09
DAV:   3    -0.667758838799E+03    0.47294E-09    0.62160E-11  1380   0.535E-10    0.217E-09
DAV:   4    -0.667758838799E+03    0.14552E-10    0.38398E-11  1380   0.498E-10
 294 F= -.66775884E+03 E0= -.66774499E+03  d E =0.000000E+00
quench:  g(F)=  0.000E+00 g(S)=  0.000E+00 dE (1.order)= 0.000E+00
 bond charge predicted
       N       E                     dE             d eps       ncg     rms          rms(c)
DAV:   1    -0.667758838799E+03    0.36380E-09    0.52338E-11  1380   0.502E-10    0.251E-09
DAV:   2    -0.667758838799E+03   -0.26921E-09    0.48892E-11  1380   0.589E-10    0.236E-09
DAV:   3    -0.667758838799E+03    0.58935E-09    0.66705E-11  1380   0.596E-10    0.194E-09
DAV:   4    -0.667758838800E+03   -0.97498E-09    0.43907E-11  1380   0.578E-10
 295 F= -.66775884E+03 E0= -.66774499E+03  d E =-.305590E-09
quench:  g(F)=  0.000E+00 g(S)=  0.000E+00 dE (1.order)= 0.000E+00
 bond charge predicted
       N       E                     dE             d eps       ncg     rms          rms(c)
DAV:   1    -0.667758838799E+03   -0.69849E-09    0.69056E-11  1380   0.563E-10    0.207E-09
DAV:   2    -0.667758838800E+03   -0.10186E-09    0.57068E-11  1380   0.588E-10    0.249E-09
DAV:   3    -0.667758838800E+03   -0.43656E-10    0.61420E-11  1380   0.466E-10    0.147E-09
DAV:   4    -0.667758838800E+03   -0.14552E-10    0.55184E-11  1380   0.460E-10
 296 F= -.66775884E+03 E0= -.66774499E+03  d E =0.116415E-09
quench:  g(F)=  0.000E+00 g(S)=  0.000E+00 dE (1.order)= 0.000E+00
 bond charge predicted
       N       E                     dE             d eps       ncg     rms          rms(c)
DAV:   1    -0.667758838799E+03    0.26193E-09    0.70433E-11  1380   0.501E-10    0.171E-09
DAV:   2    -0.667758838799E+03    0.24011E-09    0.65135E-11  1380   0.580E-10    0.170E-09
DAV:   3    -0.667758838800E+03   -0.46566E-09    0.60716E-11  1380   0.670E-10    0.167E-09
DAV:   4    -0.667758838799E+03    0.12369E-09    0.53700E-11  1380   0.541E-10
 297 F= -.66775884E+03 E0= -.66774499E+03  d E =0.174623E-09
quench:  g(F)=  0.000E+00 g(S)=  0.000E+00 dE (1.order)= 0.000E+00
 bond charge predicted
       N       E                     dE             d eps       ncg     rms          rms(c)
DAV:   1    -0.667758838800E+03   -0.50932E-09    0.73843E-11  1380   0.589E-10    0.251E-09
DAV:   2    -0.667758838800E+03    0.41473E-09    0.50899E-11  1380   0.794E-10    0.256E-09
DAV:   3    -0.667758838799E+03    0.55297E-09    0.60477E-11  1380   0.804E-10    0.276E-09
DAV:   4    -0.667758838800E+03   -0.48749E-09    0.56822E-11  1380   0.546E-10
 298 F= -.66775884E+03 E0= -.66774499E+03  d E =-.152795E-09
quench:  g(F)=  0.000E+00 g(S)=  0.000E+00 dE (1.order)= 0.000E+00
 bond charge predicted
       N       E                     dE             d eps       ncg     rms          rms(c)
DAV:   1    -0.667758838800E+03   -0.64756E-09    0.52667E-11  1380   0.628E-10    0.257E-09
DAV:   2    -0.667758838799E+03    0.68394E-09    0.34039E-11  1380   0.732E-10    0.213E-09
DAV:   3    -0.667758838799E+03   -0.17462E-09    0.47364E-11  1380   0.763E-10    0.199E-09
DAV:   4    -0.667758838799E+03    0.11642E-09    0.47728E-11  1380   0.558E-10
 299 F= -.66775884E+03 E0= -.66774499E+03  d E =0.465661E-09
quench:  g(F)=  0.000E+00 g(S)=  0.000E+00 dE (1.order)= 0.000E+00
 bond charge predicted
       N       E                     dE             d eps       ncg     rms          rms(c)
DAV:   1    -0.667758838799E+03    0.21828E-09    0.54311E-11  1380   0.526E-10    0.330E-09
DAV:   2    -0.667758838799E+03    0.16007E-09    0.58989E-11  1380   0.670E-10    0.261E-09
DAV:   3    -0.667758838799E+03   -0.59663E-09    0.64620E-11  1380   0.701E-10    0.224E-09
DAV:   4    -0.667758838799E+03    0.32014E-09    0.47199E-11  1380   0.703E-10
 300 F= -.66775884E+03 E0= -.66774499E+03  d E =-.145519E-10
quench:  g(F)=  0.000E+00 g(S)=  0.000E+00 dE (1.order)= 0.000E+00
 bond charge predicted
       N       E                     dE             d eps       ncg     rms          rms(c)
DAV:   1    -0.667758838800E+03   -0.72760E-10    0.56945E-11  1380   0.468E-10    0.235E-09
DAV:   2    -0.667758838800E+03   -0.21100E-09    0.61019E-11  1380   0.562E-10    0.187E-09
DAV:   3    -0.667758838799E+03    0.58208E-09    0.52269E-11  1380   0.539E-10    0.136E-09
DAV:   4    -0.667758838800E+03   -0.65484E-09    0.49821E-11  1380   0.447E-10
 301 F= -.66775884E+03 E0= -.66774499E+03  d E =-.676664E-09
quench:  g(F)=  0.000E+00 g(S)=  0.000E+00 dE (1.order)= 0.000E+00
 bond charge predicted
       N       E                     dE             d eps       ncg     rms          rms(c)
DAV:   1    -0.667758838800E+03   -0.39290E-09    0.61162E-11  1380   0.562E-10    0.166E-09
DAV:   2    -0.667758838799E+03    0.28376E-09    0.58778E-11  1380   0.516E-10    0.170E-09
DAV:   3    -0.667758838799E+03    0.40745E-09    0.50007E-11  1380   0.599E-10    0.246E-09
DAV:   4    -0.667758838799E+03   -0.25466E-09    0.48627E-11  1380   0.577E-10
 302 F= -.66775884E+03 E0= -.66774499E+03  d E =0.698492E-09
quench:  g(F)=  0.000E+00 g(S)=  0.000E+00 dE (1.order)= 0.000E+00
 bond charge predicted
       N       E                     dE             d eps       ncg     rms          rms(c)
DAV:   1    -0.667758838799E+03   -0.55297E-09    0.60749E-11  1380   0.475E-10    0.293E-09
DAV:   2    -0.667758838799E+03    0.29104E-10    0.59606E-11  1380   0.626E-10    0.236E-09
DAV:   3    -0.667758838799E+03   -0.21828E-10    0.29721E-11  1380   0.653E-10    0.215E-09
DAV:   4    -0.667758838799E+03   -0.29104E-10    0.47312E-11  1380   0.454E-10
 303 F= -.66775884E+03 E0= -.66774499E+03  d E =-.320142E-09
quench:  g(F)=  0.000E+00 g(S)=  0.000E+00 dE (1.order)= 0.000E+00
 bond charge predicted
       N       E                     dE             d eps       ncg     rms          rms(c)
DAV:   1    -0.667758838799E+03    0.26193E-09    0.61324E-11  1380   0.589E-10    0.238E-09
DAV:   2    -0.667758838800E+03   -0.36380E-09    0.51662E-11  1380   0.544E-10    0.158E-09
DAV:   3    -0.667758838800E+03   -0.94587E-10    0.57976E-11  1380   0.543E-10    0.243E-09
DAV:   4    -0.667758838799E+03    0.84401E-09    0.52516E-11  1380   0.485E-10
 304 F= -.66775884E+03 E0= -.66774499E+03  d E =0.676664E-09
quench:  g(F)=  0.000E+00 g(S)=  0.000E+00 dE (1.order)= 0.000E+00
 bond charge predicted
       N       E                     dE             d eps       ncg     rms          rms(c)
DAV:   1    -0.667758838799E+03    0.64756E-09    0.49635E-11  1380   0.338E-10    0.147E-09
DAV:   2    -0.667758838800E+03   -0.73487E-09    0.40322E-11  1380   0.440E-10    0.132E-09
DAV:   3    -0.667758838800E+03    0.58208E-10    0.62696E-11  1380   0.560E-10    0.224E-09
DAV:   4    -0.667758838799E+03    0.92405E-09    0.58011E-11  1380   0.539E-10
 305 F= -.66775884E+03 E0= -.66774499E+03  d E =0.509317E-10
quench:  g(F)=  0.000E+00 g(S)=  0.000E+00 dE (1.order)= 0.000E+00
 bond charge predicted
       N       E                     dE             d eps       ncg     rms          rms(c)
DAV:   1    -0.667758838800E+03    0.58208E-10    0.45216E-11  1380   0.484E-10    0.199E-09
DAV:   2    -0.667758838799E+03    0.66939E-09    0.60552E-11  1380   0.599E-10    0.248E-09
DAV:   3    -0.667758838799E+03   -0.46566E-09    0.58137E-11  1380   0.561E-10    0.199E-09
DAV:   4    -0.667758838799E+03   -0.65484E-10    0.45124E-11  1380   0.686E-10
 306 F= -.66775884E+03 E0= -.66774499E+03  d E =-.727596E-09
quench:  g(F)=  0.000E+00 g(S)=  0.000E+00 dE (1.order)= 0.000E+00
 bond charge predicted
       N       E                     dE             d eps       ncg     rms          rms(c)
DAV:   1    -0.667758838799E+03    0.11642E-09    0.57551E-11  1380   0.628E-10    0.205E-09
DAV:   2    -0.667758838799E+03    0.72760E-11    0.54352E-11  1380   0.463E-10    0.182E-09
DAV:   3    -0.667758838799E+03   -0.94587E-10    0.53407E-11  1380   0.450E-10    0.128E-09
DAV:   4    -0.667758838799E+03   -0.43656E-10    0.61723E-11  1380   0.460E-10
 307 F= -.66775884E+03 E0= -.66774499E+03  d E =0.509317E-10
quench:  g(F)=  0.000E+00 g(S)=  0.000E+00 dE (1.order)= 0.000E+00
 bond charge predicted
       N       E                     dE             d eps       ncg     rms          rms(c)
DAV:   1    -0.667758838799E+03   -0.87311E-10    0.57774E-11  1380   0.514E-10    0.260E-09
DAV:   2    -0.667758838800E+03   -0.34925E-09    0.54489E-11  1380   0.694E-10    0.214E-09
DAV:   3    -0.667758838799E+03    0.34197E-09    0.51756E-11  1380   0.518E-10    0.189E-09
DAV:   4    -0.667758838799E+03    0.34925E-09    0.45171E-11  1380   0.424E-10
 308 F= -.66775884E+03 E0= -.66774499E+03  d E =0.298314E-09
quench:  g(F)=  0.000E+00 g(S)=  0.000E+00 dE (1.order)= 0.000E+00
 bond charge predicted
       N       E                     dE             d eps       ncg     rms          rms(c)
DAV:   1    -0.667758838799E+03    0.28376E-09    0.63726E-11  1380   0.454E-10    0.218E-09
DAV:   2    -0.667758838799E+03   -0.26193E-09    0.50310E-11  1380   0.487E-10    0.181E-09
DAV:   3    -0.667758838799E+03    0.63301E-09    0.46751E-11  1380   0.517E-10    0.173E-09
DAV:   4    -0.667758838799E+03   -0.14552E-09    0.62803E-11  1380   0.600E-10
 309 F= -.66775884E+03 E0= -.66774499E+03  d E =0.160071E-09
quench:  g(F)=  0.000E+00 g(S)=  0.000E+00 dE (1.order)= 0.000E+00
 bond charge predicted
       N       E                     dE             d eps       ncg     rms          rms(c)
DAV:   1    -0.667758838800E+03   -0.86584E-09    0.49167E-11  1380   0.533E-10    0.212E-09
DAV:   2    -0.667758838800E+03    0.10914E-09    0.67506E-11  1380   0.532E-10    0.185E-09
DAV:   3    -0.667758838799E+03    0.59663E-09    0.55102E-11  1380   0.557E-10    0.203E-09
DAV:   4    -0.667758838800E+03   -0.61118E-09    0.45355E-11  1380   0.499E-10
 310 F= -.66775884E+03 E0= -.66774499E+03  d E =-.625732E-09
quench:  g(F)=  0.000E+00 g(S)=  0.000E+00 dE (1.order)= 0.000E+00
 bond charge predicted
       N       E                     dE             d eps       ncg     rms          rms(c)
DAV:   1    -0.667758838800E+03   -0.10041E-08    0.48224E-11  1380   0.462E-10    0.207E-09
DAV:   2    -0.667758838800E+03    0.21828E-09    0.62805E-11  1380   0.627E-10    0.278E-09
DAV:   3    -0.667758838799E+03    0.42201E-09    0.52519E-11  1380   0.691E-10    0.266E-09
DAV:   4    -0.667758838799E+03    0.29104E-10    0.41819E-11  1380   0.720E-10
 311 F= -.66775884E+03 E0= -.66774499E+03  d E =0.276486E-09
quench:  g(F)=  0.000E+00 g(S)=  0.000E+00 dE (1.order)= 0.000E+00
 bond charge predicted
       N       E                     dE             d eps       ncg     rms          rms(c)
DAV:   1    -0.667758838799E+03   -0.58208E-10    0.54353E-11  1380   0.666E-10    0.186E-09
DAV:   2    -0.667758838800E+03   -0.31287E-09    0.51429E-11  1380   0.489E-10    0.185E-09
DAV:   3    -0.667758838799E+03    0.76398E-09    0.65602E-11  1380   0.420E-10    0.166E-09
DAV:   4    -0.667758838799E+03   -0.34197E-09    0.55553E-11  1380   0.479E-10
 312 F= -.66775884E+03 E0= -.66774499E+03  d E =0.218279E-10
quench:  g(F)=  0.000E+00 g(S)=  0.000E+00 dE (1.order)= 0.000E+00
 bond charge predicted
       N       E                     dE             d eps       ncg     rms          rms(c)
DAV:   1    -0.667758838800E+03   -0.10914E-08    0.53390E-11  1380   0.461E-10    0.186E-09
DAV:   2    -0.667758838800E+03    0.38563E-09    0.56690E-11  1380   0.440E-10    0.144E-09
DAV:   3    -0.667758838800E+03   -0.22555E-09    0.46705E-11  1380   0.500E-10    0.274E-09
DAV:   4    -0.667758838799E+03    0.97498E-09    0.62792E-11  1380   0.695E-10
 313 F= -.66775884E+03 E0= -.66774499E+03  d E =0.385626E-09
quench:  g(F)=  0.000E+00 g(S)=  0.000E+00 dE (1.order)= 0.000E+00
 bond charge predicted
       N       E                     dE             d eps       ncg     rms          rms(c)
DAV:   1    -0.667758838799E+03    0.63301E-09    0.55329E-11  1380   0.463E-10    0.183E-09
DAV:   2    -0.667758838800E+03   -0.36380E-09    0.60174E-11  1380   0.459E-10    0.188E-09
DAV:   3    -0.667758838800E+03   -0.26921E-09    0.65542E-11  1380   0.591E-10    0.278E-09
DAV:   4    -0.667758838799E+03    0.52387E-09    0.52420E-11  1380   0.635E-10
 314 F= -.66775884E+03 E0= -.66774499E+03  d E =-.451109E-09
quench:  g(F)=  0.000E+00 g(S)=  0.000E+00 dE (1.order)= 0.000E+00
 bond charge predicted
       N       E                     dE             d eps       ncg     rms          rms(c)
DAV:   1    -0.667758838800E+03    0.29104E-10    0.46620E-11  1380   0.564E-10    0.215E-09
DAV:   2    -0.667758838799E+03    0.10186E-08    0.54169E-11  1380   0.522E-10    0.135E-09
DAV:   3    -0.667758838800E+03   -0.14988E-08    0.43874E-11  1380   0.494E-10    0.195E-09
DAV:   4    -0.667758838799E+03    0.85856E-09    0.61436E-11  1380   0.490E-10
 315 F= -.66775884E+03 E0= -.66774499E+03  d E =-.116415E-09
quench:  g(F)=  0.000E+00 g(S)=  0.000E+00 dE (1.order)= 0.000E+00
 bond charge predicted
       N       E                     dE             d eps       ncg     rms          rms(c)
DAV:   1    -0.667758838800E+03    0.63301E-09    0.63219E-11  1380   0.393E-10    0.169E-09
DAV:   2    -0.667758838800E+03   -0.12369E-09    0.53165E-11  1380   0.534E-10    0.243E-09
DAV:   3    -0.667758838800E+03    0.29104E-09    0.77622E-11  1380   0.530E-10    0.230E-09
DAV:   4    -0.667758838800E+03   -0.79308E-09    0.58230E-11  1380   0.700E-10
 316 F= -.66775884E+03 E0= -.66774499E+03  d E =-.851287E-09
quench:  g(F)=  0.000E+00 g(S)=  0.000E+00 dE (1.order)= 0.000E+00
 bond charge predicted
       N       E                     dE             d eps       ncg     rms          rms(c)
DAV:   1    -0.667758838800E+03   -0.34925E-09    0.66417E-11  1380   0.610E-10    0.191E-09
DAV:   2    -0.667758838799E+03    0.82218E-09    0.73370E-11  1380   0.566E-10    0.244E-09
DAV:   3    -0.667758838799E+03   -0.31287E-09    0.51936E-11  1380   0.520E-10    0.155E-09
DAV:   4    -0.667758838799E+03   -0.12369E-09    0.68352E-11  1380   0.473E-10
 317 F= -.66775884E+03 E0= -.66774499E+03  d E =0.829459E-09
quench:  g(F)=  0.000E+00 g(S)=  0.000E+00 dE (1.order)= 0.000E+00
 bond charge predicted
       N       E                     dE             d eps       ncg     rms          rms(c)
DAV:   1    -0.667758838799E+03    0.40018E-09    0.59704E-11  1380   0.533E-10    0.159E-09
DAV:   2    -0.667758838800E+03   -0.89494E-09    0.53736E-11  1380   0.477E-10    0.170E-09
DAV:   3    -0.667758838799E+03    0.49477E-09    0.52391E-11  1380   0.622E-10    0.247E-09
DAV:   4    -0.667758838799E+03    0.80036E-10    0.53458E-11  1380   0.547E-10
 318 F= -.66775884E+03 E0= -.66774499E+03  d E =0.203727E-09
quench:  g(F)=  0.000E+00 g(S)=  0.000E+00 dE (1.order)= 0.000E+00
 bond charge predicted
       N       E                     dE             d eps       ncg     rms          rms(c)
DAV:   1    -0.667758838800E+03   -0.34925E-09    0.61383E-11  1380   0.601E-10    0.170E-09
DAV:   2    -0.667758838800E+03    0.18917E-09    0.50228E-11  1380   0.424E-10    0.143E-09
DAV:   3    -0.667758838799E+03    0.25466E-09    0.50864E-11  1380   0.431E-10    0.161E-09
DAV:   4    -0.667758838799E+03   -0.17462E-09    0.66874E-11  1380   0.619E-10
 319 F= -.66775884E+03 E0= -.66774499E+03  d E =-.160071E-09
quench:  g(F)=  0.000E+00 g(S)=  0.000E+00 dE (1.order)= 0.000E+00
 bond charge predicted
       N       E                     dE             d eps       ncg     rms          rms(c)
DAV:   1    -0.667758838800E+03   -0.53114E-09    0.54016E-11  1380   0.586E-10    0.241E-09
DAV:   2    -0.667758838799E+03    0.56752E-09    0.68666E-11  1380   0.618E-10    0.213E-09
DAV:   3    -0.667758838800E+03   -0.50204E-09    0.61170E-11  1380   0.619E-10    0.202E-09
DAV:   4    -0.667758838799E+03    0.77125E-09    0.48196E-11  1380   0.667E-10
 320 F= -.66775884E+03 E0= -.66774499E+03  d E =0.480213E-09
quench:  g(F)=  0.000E+00 g(S)=  0.000E+00 dE (1.order)= 0.000E+00
 bond charge predicted
       N       E                     dE             d eps       ncg     rms          rms(c)
DAV:   1    -0.667758838800E+03    0.21828E-09    0.56583E-11  1380   0.710E-10    0.202E-09
DAV:   2    -0.667758838799E+03    0.21828E-10    0.61048E-11  1380   0.550E-10    0.160E-09
DAV:   3    -0.667758838799E+03    0.72760E-10    0.53404E-11  1380   0.627E-10    0.236E-09
DAV:   4    -0.667758838799E+03    0.43656E-10    0.57407E-11  1380   0.574E-10
 321 F= -.66775884E+03 E0= -.66774499E+03  d E =-.414730E-09
quench:  g(F)=  0.000E+00 g(S)=  0.000E+00 dE (1.order)= 0.000E+00
 bond charge predicted
       N       E                     dE             d eps       ncg     rms          rms(c)
DAV:   1    -0.667758838799E+03    0.65484E-10    0.54723E-11  1380   0.461E-10    0.179E-09
DAV:   2    -0.667758838799E+03   -0.36380E-10    0.61962E-11  1380   0.551E-10    0.230E-09
DAV:   3    -0.667758838799E+03   -0.14552E-10    0.48276E-11  1380   0.602E-10    0.184E-09
DAV:   4    -0.667758838799E+03    0.24738E-09    0.63826E-11  1380   0.653E-10
 322 F= -.66775884E+03 E0= -.66774499E+03  d E =0.218279E-09
quench:  g(F)=  0.000E+00 g(S)=  0.000E+00 dE (1.order)= 0.000E+00
 bond charge predicted
       N       E                     dE             d eps       ncg     rms          rms(c)
DAV:   1    -0.667758838800E+03   -0.25466E-09    0.61238E-11  1380   0.628E-10    0.193E-09
DAV:   2    -0.667758838799E+03    0.47294E-09    0.46864E-11  1380   0.454E-10    0.102E-09
DAV:   3    -0.667758838799E+03   -0.17462E-09    0.66928E-11  1380   0.626E-10    0.295E-09
DAV:   4    -0.667758838799E+03    0.36380E-09    0.40029E-11  1380   0.619E-10
 323 F= -.66775884E+03 E0= -.66774499E+03  d E =0.160071E-09
quench:  g(F)=  0.000E+00 g(S)=  0.000E+00 dE (1.order)= 0.000E+00
 bond charge predicted
       N       E                     dE             d eps       ncg     rms          rms(c)
DAV:   1    -0.667758838800E+03   -0.33469E-09    0.57285E-11  1380   0.494E-10    0.210E-09
DAV:   2    -0.667758838799E+03    0.34925E-09    0.67942E-11  1380   0.775E-10    0.283E-09
DAV:   3    -0.667758838800E+03   -0.31287E-09    0.47494E-11  1380   0.830E-10    0.204E-09
DAV:   4    -0.667758838799E+03    0.66211E-09    0.55469E-11  1380   0.458E-10
 324 F= -.66775884E+03 E0= -.66774499E+03  d E =0.000000E+00
quench:  g(F)=  0.000E+00 g(S)=  0.000E+00 dE (1.order)= 0.000E+00
 bond charge predicted
       N       E                     dE             d eps       ncg     rms          rms(c)
DAV:   1    -0.667758838799E+03    0.64028E-09    0.56059E-11  1380   0.539E-10    0.260E-09
DAV:   2    -0.667758838799E+03   -0.21100E-09    0.43593E-11  1380   0.648E-10    0.177E-09
DAV:   3    -0.667758838799E+03   -0.43656E-10    0.61815E-11  1380   0.606E-10    0.151E-09
DAV:   4    -0.667758838799E+03   -0.17462E-09    0.49851E-11  1380   0.539E-10
 325 F= -.66775884E+03 E0= -.66774499E+03  d E =-.451109E-09
quench:  g(F)=  0.000E+00 g(S)=  0.000E+00 dE (1.order)= 0.000E+00
 bond charge predicted
       N       E                     dE             d eps       ncg     rms          rms(c)
DAV:   1    -0.667758838799E+03   -0.87311E-10    0.52543E-11  1380   0.482E-10    0.201E-09
DAV:   2    -0.667758838799E+03    0.24738E-09    0.51498E-11  1380   0.613E-10    0.249E-09
DAV:   3    -0.667758838799E+03    0.24738E-09    0.66437E-11  1380   0.446E-10    0.235E-09
DAV:   4    -0.667758838800E+03   -0.77853E-09    0.61416E-11  1380   0.453E-10
 326 F= -.66775884E+03 E0= -.66774499E+03  d E =-.196451E-09
quench:  g(F)=  0.000E+00 g(S)=  0.000E+00 dE (1.order)= 0.000E+00
 bond charge predicted
       N       E                     dE             d eps       ncg     rms          rms(c)
DAV:   1    -0.667758838800E+03   -0.96043E-09    0.46116E-11  1380   0.470E-10    0.189E-09
