<?xml version="1.0" encoding="ISO-8859-1"?>
<modeling>
 <generator>
  <i name="program" type="string">vasp </i>
  <i name="version" type="string">5.4.4.18Apr17-6-g9f103f2a35  </i>
  <i name="subversion" type="string">(build Aug 09 2024 17:42:55) complex            parallel </i>
  <i name="platform" type="string">LinuxIFC </i>
  <i name="date" type="string">2025 12 05 </i>
  <i name="time" type="string">14:46:29 </i>
 </generator>
 <incar>
  <i type="string" name="SYSTEM"> PBE-grap</i>
  <i type="int" name="ISTART">     0</i>
  <i type="string" name="PREC">normal   low | medium | high</i>
  <i type="int" name="IALGO">    38</i>
  <i type="int" name="ICHARG">     2</i>
  <i type="int" name="INIWAV">     1</i>
  <i type="int" name="NELM">   150</i>
  <i type="int" name="NELMDL">    -5</i>
  <i type="int" name="NELMIN">     4</i>
  <i type="int" name="IBRION">     3</i>
  <i name="EDIFF">      0.00001000</i>
  <i name="EDIFFG">     -0.02600000</i>
  <i type="int" name="NSW">  1000</i>
  <i type="int" name="ISIF">     2</i>
  <i type="int" name="ISYM">     0</i>
  <i name="ENCUT">    370.00000000</i>
  <i name="POTIM">      0.00000000</i>
  <i type="string" name="LREAL">  AUTO   real-space projection (.FALSE.,</i>
  <i type="logical" name="LPLANE"> T  </i>
  <i type="int" name="ISMEAR">     0</i>
  <i name="SIGMA">      0.41000000</i>
  <i type="int" name="NWRITE">     0</i>
  <i type="logical" name="LWAVE"> F  </i>
  <i type="logical" name="LCHARG"> F  </i>
  <i type="logical" name="LVTOT"> F  </i>
  <v type="int" name="KPOINT_BSE">    -1     0     0     0</v>
  <i type="int" name="NELM">   150</i>
  <i type="string" name="GGA"> PE</i>
 </incar>
 <structure name="primitive_cell" >
  <crystal>
   <varray name="basis" >
    <v>       8.30990028       0.00000000       0.00000000 </v>
    <v>      -4.15495014       7.19658475       0.00000000 </v>
    <v>       0.00000000       0.00000000      16.52350044 </v>
   </varray>
   <i name="volume">    988.15327180 </i>
   <varray name="rec_basis" >
    <v>       0.12033839       0.06947740       0.00000000 </v>
    <v>       0.00000000       0.13895480       0.00000000 </v>
    <v>       0.00000000       0.00000000       0.06051986 </v>
   </varray>
  </crystal>
  <varray name="positions" >
   <v>      -0.00018000       0.00108000       0.43398000 </v>
   <v>      -0.11129000       0.11219000       0.29711000 </v>
   <v>       0.22204000       0.11219000       0.29711000 </v>
   <v>      -0.11129000      -0.22114000       0.29711000 </v>
   <v>      -0.33351000       0.00108000       0.43398000 </v>
   <v>       0.33315000       0.00108000       0.43398000 </v>
   <v>      -0.00018000       0.33441000       0.43398000 </v>
   <v>       0.33315000       0.33441000       0.43398000 </v>
   <v>      -0.33351000      -0.33225000       0.43398000 </v>
   <v>      -0.00018000      -0.33225000       0.43398000 </v>
   <v>       0.20035000       0.07907000      -0.39984000 </v>
   <v>       0.20417000       0.31388000      -0.40389000 </v>
   <v>       0.25570000      -0.09172000      -0.38880000 </v>
   <v>       0.22204000      -0.22114000       0.29711000 </v>
   <v>      -0.44462000      -0.22114000       0.29711000 </v>
   <v>       0.22204000       0.44552000       0.29711000 </v>
   <v>      -0.22240000      -0.11003000       0.16024000 </v>
   <v>       0.11093000      -0.11003000       0.16024000 </v>
   <v>       0.11093000       0.22330000       0.16024000 </v>
   <v>      -0.44462000       0.11219000       0.29711000 </v>
   <v>      -0.11129000       0.44552000       0.29711000 </v>
   <v>      -0.33351000       0.33441000       0.43398000 </v>
   <v>       0.33315000      -0.33225000       0.43398000 </v>
   <v>      -0.44462000       0.44552000       0.29711000 </v>
   <v>       0.44426000       0.22330000       0.16024000 </v>
   <v>      -0.22240000       0.22330000       0.16024000 </v>
   <v>      -0.22240000      -0.44336000       0.16024000 </v>
   <v>       0.44426000      -0.11003000       0.16024000 </v>
   <v>       0.11093000      -0.44336000       0.16024000 </v>
   <v>       0.44426000      -0.44336000       0.16024000 </v>
   <v>      -0.00018000       0.00108000       0.02337000 </v>
   <v>      -0.33351000       0.00108000       0.02337000 </v>
   <v>       0.33315000       0.00108000       0.02337000 </v>
   <v>      -0.00018000       0.33441000       0.02337000 </v>
   <v>       0.33315000       0.33441000       0.02337000 </v>
   <v>      -0.33351000      -0.33225000       0.02337000 </v>
   <v>      -0.00018000      -0.33225000       0.02337000 </v>
   <v>      -0.33351000       0.33441000       0.02337000 </v>
   <v>       0.33315000      -0.33225000       0.02337000 </v>
  </varray>
 </structure>
 <varray name="primitive_index" >
  <v type="int" >        1 </v>
  <v type="int" >        9 </v>
  <v type="int" >        3 </v>
  <v type="int" >       27 </v>
  <v type="int" >        7 </v>
  <v type="int" >        4 </v>
  <v type="int" >       10 </v>
  <v type="int" >       13 </v>
  <v type="int" >       25 </v>
  <v type="int" >       19 </v>
  <v type="int" >       37 </v>
  <v type="int" >       38 </v>
  <v type="int" >       39 </v>
  <v type="int" >       21 </v>
  <v type="int" >       24 </v>
  <v type="int" >       12 </v>
  <v type="int" >       26 </v>
  <v type="int" >       20 </v>
  <v type="int" >        2 </v>
  <v type="int" >        6 </v>
  <v type="int" >       18 </v>
  <v type="int" >       16 </v>
  <v type="int" >       22 </v>
  <v type="int" >       15 </v>
  <v type="int" >        5 </v>
  <v type="int" >        8 </v>
  <v type="int" >       17 </v>
  <v type="int" >       23 </v>
  <v type="int" >       11 </v>
  <v type="int" >       14 </v>
  <v type="int" >       28 </v>
  <v type="int" >       30 </v>
  <v type="int" >       29 </v>
  <v type="int" >       31 </v>
  <v type="int" >       32 </v>
  <v type="int" >       36 </v>
  <v type="int" >       34 </v>
  <v type="int" >       33 </v>
  <v type="int" >       35 </v>
 </varray>
 <kpoints>
  <generation param="Monkhorst-Pack">
   <v type="int" name="divisions">       4        4        1 </v>
   <v name="usershift">      0.00000000       0.00000000       0.00000000 </v>
   <v name="genvec1">      0.25000000       0.00000000       0.00000000 </v>
   <v name="genvec2">      0.00000000       0.25000000       0.00000000 </v>
   <v name="genvec3">      0.00000000       0.00000000       1.00000000 </v>
   <v name="shift">      0.50000000       0.50000000       0.00000000 </v>
  </generation>
  <varray name="kpointlist" >
   <v>       0.12500000       0.12500000       0.00000000 </v>
   <v>       0.25000000      -0.12500000       0.00000000 </v>
   <v>       0.12500000      -0.25000000       0.00000000 </v>
   <v>       0.37500000       0.12500000       0.00000000 </v>
   <v>       0.50000000      -0.37500000       0.00000000 </v>
   <v>       0.12500000       0.50000000       0.00000000 </v>
   <v>      -0.12500000      -0.37500000       0.00000000 </v>
   <v>       0.37500000       0.50000000       0.00000000 </v>
   <v>       0.50000000      -0.12500000       0.00000000 </v>
   <v>      -0.37500000       0.12500000       0.00000000 </v>
   <v>      -0.25000000       0.37500000       0.00000000 </v>
   <v>       0.12500000       0.25000000       0.00000000 </v>
   <v>      -0.12500000       0.37500000       0.00000000 </v>
   <v>      -0.37500000       0.25000000       0.00000000 </v>
   <v>      -0.25000000      -0.12500000       0.00000000 </v>
   <v>      -0.12500000       0.12500000       0.00000000 </v>
   <v>       0.00000000       0.12500000       0.00000000 </v>
   <v>       0.12500000       0.00000000       0.00000000 </v>
   <v>       0.37500000       0.37500000       0.00000000 </v>
   <v>      -0.25000000      -0.37500000       0.00000000 </v>
   <v>       0.37500000       0.25000000       0.00000000 </v>
   <v>      -0.37500000       0.37500000       0.00000000 </v>
   <v>       0.00000000       0.37500000       0.00000000 </v>
   <v>       0.37500000       0.00000000       0.00000000 </v>
  </varray>
  <varray name="weights" >
   <v>       0.04166667 </v>
   <v>       0.04166667 </v>
   <v>       0.04166667 </v>
   <v>       0.04166667 </v>
   <v>       0.04166667 </v>
   <v>       0.04166667 </v>
   <v>       0.04166667 </v>
   <v>       0.04166667 </v>
   <v>       0.04166667 </v>
   <v>       0.04166667 </v>
   <v>       0.04166667 </v>
   <v>       0.04166667 </v>
   <v>       0.04166667 </v>
   <v>       0.04166667 </v>
   <v>       0.04166667 </v>
   <v>       0.04166667 </v>
   <v>       0.04166667 </v>
   <v>       0.04166667 </v>
   <v>       0.04166667 </v>
   <v>       0.04166667 </v>
   <v>       0.04166667 </v>
   <v>       0.04166667 </v>
   <v>       0.04166667 </v>
   <v>       0.04166667 </v>
  </varray>
 </kpoints>
 <parameters>
  <separator name="general" >
   <i type="string" name="SYSTEM">PBE-grap</i>
   <i type="logical" name="LCOMPAT"> F  </i>
  </separator>
  <separator name="electronic" >
   <i type="string" name="PREC">normal</i>
   <i name="ENMAX">    370.00000000</i>
   <i name="ENAUG">    644.87300000</i>
   <i name="EDIFF">      0.00001000</i>
   <i type="int" name="IALGO">    38</i>
   <i type="int" name="IWAVPR">    11</i>
   <i type="int" name="NBANDS">   232</i>
   <i name="NELECT">    376.00000000</i>
   <i type="int" name="TURBO">     0</i>
   <i type="int" name="IRESTART">     0</i>
   <i type="int" name="NREBOOT">     0</i>
   <i type="int" name="NMIN">     0</i>
   <i name="EREF">      0.00000000</i>
   <separator name="electronic smearing" >
    <i type="int" name="ISMEAR">     0</i>
    <i name="SIGMA">      0.41000000</i>
    <i name="KSPACING">      0.50000000</i>
    <i type="logical" name="KGAMMA"> T  </i>
   </separator>
   <separator name="electronic projectors" >
    <i type="logical" name="LREAL"> T  </i>
    <v name="ROPT">     -0.00050000     -0.00050000     -0.00050000</v>
    <i type="int" name="LMAXPAW">  -100</i>
    <i type="int" name="LMAXMIX">     2</i>
    <i type="logical" name="NLSPLINE"> F  </i>
   </separator>
   <separator name="electronic startup" >
    <i type="int" name="ISTART">     0</i>
    <i type="int" name="ICHARG">     2</i>
    <i type="int" name="INIWAV">     1</i>
   </separator>
   <separator name="electronic spin" >
    <i type="int" name="ISPIN">     1</i>
    <i type="logical" name="LNONCOLLINEAR"> F  </i>
    <v name="MAGMOM">      1.00000000      1.00000000      1.00000000      1.00000000      1.00000000      1.00000000      1.00000000      1.00000000      1.00000000      1.00000000      1.00000000      1.00000000      1.00000000      1.00000000      1.00000000      1.00000000      1.00000000      1.00000000      1.00000000      1.00000000
      1.00000000      1.00000000      1.00000000      1.00000000      1.00000000      1.00000000      1.00000000      1.00000000      1.00000000      1.00000000      1.00000000      1.00000000      1.00000000      1.00000000      1.00000000      1.00000000      1.00000000      1.00000000      1.00000000</v>
    <i name="NUPDOWN">     -1.00000000</i>
    <i type="logical" name="LSORBIT"> F  </i>
    <v name="SAXIS">      0.00000000      0.00000000      1.00000000</v>
    <i type="logical" name="LSPIRAL"> F  </i>
    <v name="QSPIRAL">      0.00000000      0.00000000      0.00000000</v>
    <i type="logical" name="LZEROZ"> F  </i>
   </separator>
   <separator name="electronic exchange-correlation" >
    <i type="logical" name="LASPH"> F  </i>
    <i type="logical" name="LMETAGGA"> F  </i>
   </separator>
   <separator name="electronic convergence" >
    <i type="int" name="NELM">   150</i>
    <i type="int" name="NELMDL">    -5</i>
    <i type="int" name="NELMIN">     4</i>
    <i name="ENINI">    370.00000000</i>
    <separator name="electronic convergence detail" >
     <i type="logical" name="LDIAG"> T  </i>
     <i type="logical" name="LSUBROT"> F  </i>
     <i name="WEIMIN">      0.00100000</i>
     <i name="EBREAK">      0.00000001</i>
     <i name="DEPER">      0.30000000</i>
     <i type="int" name="NRMM">     4</i>
     <i name="TIME">      0.40000000</i>
    </separator>
   </separator>
   <separator name="electronic mixer" >
    <i name="AMIX">      0.40000000</i>
    <i name="BMIX">      1.00000000</i>
    <i name="AMIN">      0.10000000</i>
    <i name="AMIX_MAG">      1.60000000</i>
    <i name="BMIX_MAG">      1.00000000</i>
    <separator name="electronic mixer details" >
     <i type="int" name="IMIX">     4</i>
     <i type="logical" name="MIXFIRST"> F  </i>
     <i type="int" name="MAXMIX">   -45</i>
     <i name="WC">    100.00000000</i>
     <i type="int" name="INIMIX">     1</i>
     <i type="int" name="MIXPRE">     1</i>
     <i type="int" name="MREMOVE">     5</i>
    </separator>
   </separator>
   <separator name="electronic dipolcorrection" >
    <i type="logical" name="LDIPOL"> F  </i>
    <i type="logical" name="LMONO"> F  </i>
    <i type="int" name="IDIPOL">     0</i>
    <i name="EPSILON">      1.00000000</i>
    <v name="DIPOL">   -100.00000000   -100.00000000   -100.00000000</v>
    <i name="EFIELD">      0.00000000</i>
   </separator>
  </separator>
  <separator name="grids" >
   <i type="int" name="NGX">    40</i>
   <i type="int" name="NGY">    40</i>
   <i type="int" name="NGZ">    80</i>
   <i type="int" name="NGXF">    80</i>
   <i type="int" name="NGYF">    80</i>
   <i type="int" name="NGZF">   160</i>
   <i type="logical" name="ADDGRID"> F  </i>
  </separator>
  <separator name="ionic" >
   <i type="int" name="NSW">  1000</i>
   <i type="int" name="IBRION">     3</i>
   <i type="int" name="MDALGO">     0</i>
   <i type="int" name="ISIF">     2</i>
   <i name="PSTRESS">      0.00000000</i>
   <i name="EDIFFG">     -0.02600000</i>
   <i type="int" name="NFREE">     0</i>
   <i name="POTIM">      0.00000000</i>
   <i name="SMASS">     -3.00000000</i>
   <i name="SCALEE">      1.00000000</i>
  </separator>
  <separator name="ionic md" >
   <i name="TEBEG">      0.00010000</i>
   <i name="TEEND">      0.00010000</i>
   <i type="int" name="NBLOCK">     1</i>
   <i type="int" name="KBLOCK">  1000</i>
   <i type="int" name="NPACO">   256</i>
   <i name="APACO">     16.00000000</i>
  </separator>
  <separator name="symmetry" >
   <i type="int" name="ISYM">     0</i>
   <i name="SYMPREC">      0.00001000</i>
  </separator>
  <separator name="dos" >
   <i type="int" name="LORBIT">     0</i>
   <v name="RWIGS">     -1.00000000     -1.00000000     -1.00000000</v>
   <i type="int" name="NEDOS">   301</i>
   <i name="EMIN">     10.00000000</i>
   <i name="EMAX">    -10.00000000</i>
   <i name="EFERMI">      0.00000000</i>
  </separator>
  <separator name="writing" >
   <i type="int" name="NWRITE">     0</i>
   <i type="logical" name="LWAVE"> F  </i>
   <i type="logical" name="LDOWNSAMPLE"> F  </i>
   <i type="logical" name="LCHARG"> F  </i>
   <i type="logical" name="LPARD"> F  </i>
   <i type="logical" name="LVTOT"> F  </i>
   <i type="logical" name="LVHAR"> F  </i>
   <i type="logical" name="LELF"> F  </i>
   <i type="logical" name="LOPTICS"> F  </i>
   <v name="STM">      0.00000000      0.00000000      0.00000000      0.00000000      0.00000000      0.00000000      0.00000000</v>
  </separator>
  <separator name="performance" >
   <i type="int" name="NPAR">     8</i>
   <i type="int" name="NSIM">     4</i>
   <i type="int" name="NBLK">    -1</i>
   <i type="logical" name="LPLANE"> T  </i>
   <i type="logical" name="LSCALAPACK"> T  </i>
   <i type="logical" name="LSCAAWARE"> F  </i>
   <i type="logical" name="LSCALU"> F  </i>
   <i type="logical" name="LASYNC"> F  </i>
   <i type="logical" name="LORBITALREAL"> F  </i>
  </separator>
  <separator name="miscellaneous" >
   <i type="int" name="IDIOT">     3</i>
   <i type="int" name="ISPECIAL">     0</i>
   <i type="logical" name="LMUSIC"> F  </i>
   <v name="POMASS">    106.42000000     12.01100000     16.00000000</v>
   <v name="DARWINR">      0.00000000      0.00000000      0.00000000</v>
   <v name="DARWINV">      1.00000000      1.00000000      1.00000000</v>
   <i type="logical" name="LCORR"> T  </i>
  </separator>
  <i type="logical" name="GGA_COMPAT"> T  </i>
  <i type="logical" name="LBERRY"> F  </i>
  <i type="int" name="ICORELEVEL">     0</i>
  <i type="logical" name="LDAU"> F  </i>
  <i type="int" name="I_CONSTRAINED_M">     0</i>
  <separator name="electronic exchange-correlation" >
   <i type="string" name="GGA">PE</i>
   <i type="int" name="VOSKOWN">     0</i>
   <i type="logical" name="LHFCALC"> F  </i>
   <i type="string" name="PRECFOCK"></i>
   <i type="logical" name="LSYMGRAD"> F  </i>
   <i type="logical" name="LHFONE"> F  </i>
   <i type="logical" name="LRHFCALC"> F  </i>
   <i type="logical" name="LTHOMAS"> F  </i>
   <i type="logical" name="LMODELHF"> F  </i>
   <i name="ENCUT4O">     -1.00000000</i>
   <i type="int" name="EXXOEP">     0</i>
   <i type="int" name="FOURORBIT">     0</i>
   <i name="AEXX">      0.00000000</i>
   <i name="HFALPHA">      0.00000000</i>
   <i name="MCALPHA">      0.00000000</i>
   <i name="ALDAX">      1.00000000</i>
   <i name="AGGAX">      1.00000000</i>
   <i name="ALDAC">      1.00000000</i>
   <i name="AGGAC">      1.00000000</i>
   <i type="int" name="NKREDX">     1</i>
   <i type="int" name="NKREDY">     1</i>
   <i type="int" name="NKREDZ">     1</i>
   <i type="logical" name="SHIFTRED"> F  </i>
   <i type="logical" name="ODDONLY"> F  </i>
   <i type="logical" name="EVENONLY"> F  </i>
   <i type="int" name="LMAXFOCK">     0</i>
   <i type="int" name="NMAXFOCKAE">     0</i>
   <i type="logical" name="LFOCKAEDFT"> F  </i>
   <i name="HFSCREEN">      0.00000000</i>
   <i name="HFSCREENC">      0.00000000</i>
   <i type="int" name="NBANDSGWLOW">     0</i>
  </separator>
  <separator name="vdW DFT" >
   <i type="logical" name="LUSE_VDW"> F  </i>
   <i name="Zab_VDW">     -0.84910000</i>
   <i name="PARAM1">      0.12340000</i>
   <i name="PARAM2">      1.00000000</i>
   <i name="PARAM3">      0.00000000</i>
  </separator>
  <separator name="model GW" >
   <i type="int" name="MODEL_GW">     0</i>
   <i name="MODEL_EPS0">     15.20235803</i>
   <i name="MODEL_ALPHA">      1.00000000</i>
  </separator>
  <separator name="linear response parameters" >
   <i type="logical" name="LEPSILON"> F  </i>
   <i type="logical" name="LRPA"> F  </i>
   <i type="logical" name="LNABLA"> F  </i>
   <i type="logical" name="LVEL"> F  </i>
   <i type="int" name="KINTER">     0</i>
   <i name="CSHIFT">      0.10000000</i>
   <i name="OMEGAMAX">     -1.00000000</i>
   <i name="DEG_THRESHOLD">      0.00200000</i>
   <i name="RTIME">     -0.10000000</i>
   <i name="WPLASMAI">      0.00000000</i>
   <v name="DFIELD">      0.00000000      0.00000000      0.00000000</v>
   <v name="WPLASMA">      0.00000000      0.00000000      0.00000000      0.00000000      0.00000000      0.00000000      0.00000000      0.00000000      0.00000000</v>
  </separator>
  <separator name="orbital magnetization" >
   <i type="logical" name="NUCIND"> F  </i>
   <v name="MAGPOS">      0.00000000      0.00000000      0.00000000</v>
   <i type="logical" name="LNICSALL"> T  </i>
   <i type="logical" name="ORBITALMAG"> F  </i>
   <i type="logical" name="LMAGBLOCH"> F  </i>
   <i type="logical" name="LCHIMAG"> F  </i>
   <i type="logical" name="LGAUGE"> T  </i>
   <i type="int" name="MAGATOM">     0</i>
   <v name="MAGDIPOL">      0.00000000      0.00000000      0.00000000</v>
   <v name="AVECCONST">      0.00000000      0.00000000      0.00000000</v>
  </separator>
  <separator name="response functions" >
   <i type="logical" name="LADDER"> F  </i>
   <i type="logical" name="LRPAFORCE"> F  </i>
   <i type="logical" name="LFXC"> F  </i>
   <i type="logical" name="LHARTREE"> T  </i>
   <i type="int" name="IBSE">     0</i>
   <v type="int" name="KPOINT">    -1     0     0     0</v>
   <i type="logical" name="LTCTE"> F  </i>
   <i type="logical" name="LTETE"> F  </i>
   <i type="logical" name="LTRIPLET"> F  </i>
   <i type="logical" name="LFXCEPS"> F  </i>
   <i type="logical" name="LFXHEG"> F  </i>
   <i type="int" name="NATURALO">     2</i>
   <i type="logical" name="L2ORDER"> F  </i>
   <i type="logical" name="LMP2LT"> F  </i>
   <i type="logical" name="LUSEW"> F  </i>
   <i name="ENCUTGW">     -2.00000000</i>
   <i name="ENCUTGWSOFT">     -2.00000000</i>
   <i name="ENCUTLF">     -1.00000000</i>
   <i type="int" name="LMAXMP2">    -1</i>
   <i name="SCISSOR">      0.00000000</i>
   <i type="int" name="NOMEGA">     0</i>
   <i type="int" name="NOMEGAR">     0</i>
   <i type="int" name="NBANDSGW">    -1</i>
   <i type="int" name="NBANDSO">    -1</i>
   <i type="int" name="NBANDSV">    -1</i>
   <i type="int" name="NELM">   150</i>
   <i type="int" name="NELMHF">     1</i>
   <i type="int" name="DIM">     3</i>
   <i type="int" name="ANTIRES">     0</i>
   <i name="OMEGAMAX">    -30.00000000</i>
   <i name="OMEGAMIN">    -30.00000000</i>
   <i name="OMEGATL">   -200.00000000</i>
   <i type="int" name="OMEGAGRID">   140</i>
   <i name="CSHIFT">     -0.10000000</i>
   <i type="logical" name="SELFENERGY"> F  </i>
   <i type="logical" name="LSPECTRAL"> F  </i>
   <i type="logical" name="LSPECTRALGW"> F  </i>
   <i type="logical" name="LSINGLES"> F  </i>
   <i type="logical" name="LFERMIGW"> F  </i>
   <i type="logical" name="ODDONLYGW"> F  </i>
   <i type="logical" name="EVENONLYGW"> F  </i>
   <i type="int" name="NKREDLFX">     1</i>
   <i type="int" name="NKREDLFY">     1</i>
   <i type="int" name="NKREDLFZ">     1</i>
   <i type="int" name="MAXMEM">  2800</i>
   <i type="int" name="TELESCOPE">     0</i>
   <i type="int" name="TAUPAR">     1</i>
   <i type="int" name="OMEGAPAR">    -1</i>
   <i name="LAMBDA">      1.00000000</i>
  </separator>
  <separator name="External order field" >
   <i name="OFIELD_KAPPA">      0.00000000</i>
   <v name="OFIELD_K">      0.00000000      0.00000000      0.00000000</v>
   <i name="OFIELD_Q6_NEAR">      0.00000000</i>
   <i name="OFIELD_Q6_FAR">      0.00000000</i>
   <i name="OFIELD_A">      0.00000000</i>
  </separator>
 </parameters>
 <atominfo>
  <atoms>      39 </atoms>
  <types>       3 </types>
  <array name="atoms" >
   <dimension dim="1">ion</dimension>
   <field type="string">element</field>
   <field type="int">atomtype</field>
   <set>
    <rc><c>Pd</c><c>   1</c></rc>
    <rc><c>Pd</c><c>   1</c></rc>
    <rc><c>Pd</c><c>   1</c></rc>
    <rc><c>Pd</c><c>   1</c></rc>
    <rc><c>Pd</c><c>   1</c></rc>
    <rc><c>Pd</c><c>   1</c></rc>
    <rc><c>Pd</c><c>   1</c></rc>
    <rc><c>Pd</c><c>   1</c></rc>
    <rc><c>Pd</c><c>   1</c></rc>
    <rc><c>Pd</c><c>   1</c></rc>
    <rc><c>Pd</c><c>   1</c></rc>
    <rc><c>Pd</c><c>   1</c></rc>
    <rc><c>Pd</c><c>   1</c></rc>
    <rc><c>Pd</c><c>   1</c></rc>
    <rc><c>Pd</c><c>   1</c></rc>
    <rc><c>Pd</c><c>   1</c></rc>
    <rc><c>Pd</c><c>   1</c></rc>
    <rc><c>Pd</c><c>   1</c></rc>
    <rc><c>Pd</c><c>   1</c></rc>
    <rc><c>Pd</c><c>   1</c></rc>
    <rc><c>Pd</c><c>   1</c></rc>
    <rc><c>Pd</c><c>   1</c></rc>
    <rc><c>Pd</c><c>   1</c></rc>
    <rc><c>Pd</c><c>   1</c></rc>
    <rc><c>Pd</c><c>   1</c></rc>
    <rc><c>Pd</c><c>   1</c></rc>
    <rc><c>Pd</c><c>   1</c></rc>
    <rc><c>Pd</c><c>   1</c></rc>
    <rc><c>Pd</c><c>   1</c></rc>
    <rc><c>Pd</c><c>   1</c></rc>
    <rc><c>Pd</c><c>   1</c></rc>
    <rc><c>Pd</c><c>   1</c></rc>
    <rc><c>Pd</c><c>   1</c></rc>
    <rc><c>Pd</c><c>   1</c></rc>
    <rc><c>Pd</c><c>   1</c></rc>
    <rc><c>Pd</c><c>   1</c></rc>
    <rc><c>C </c><c>   2</c></rc>
    <rc><c>O </c><c>   3</c></rc>
    <rc><c>O </c><c>   3</c></rc>
   </set>
  </array>
  <array name="atomtypes" >
   <dimension dim="1">type</dimension>
   <field type="int">atomspertype</field>
   <field type="string">element</field>
   <field>mass</field>
   <field>valence</field>
   <field type="string">pseudopotential</field>
   <set>
    <rc><c>  36</c><c>Pd</c><c>    106.42000000</c><c>     10.00000000</c><c>  PAW_PBE Pd 04Jan2005                  </c></rc>
    <rc><c>   1</c><c>C </c><c>     12.01100000</c><c>      4.00000000</c><c>  PAW_PBE C 08Apr2002                   </c></rc>
    <rc><c>   2</c><c>O </c><c>     16.00000000</c><c>      6.00000000</c><c>  PAW_PBE O 08Apr2002                   </c></rc>
   </set>
  </array>
 </atominfo>
 <structure name="initialpos" >
  <crystal>
   <varray name="basis" >
    <v>       8.30990028       0.00000000       0.00000000 </v>
    <v>      -4.15495014       7.19658475       0.00000000 </v>
    <v>       0.00000000       0.00000000      16.52350044 </v>
   </varray>
   <i name="volume">    988.15327180 </i>
   <varray name="rec_basis" >
    <v>       0.12033839       0.06947740       0.00000000 </v>
    <v>       0.00000000       0.13895480       0.00000000 </v>
    <v>       0.00000000       0.00000000       0.06051986 </v>
   </varray>
  </crystal>
  <varray name="positions" >
   <v>       0.99982000       0.00108000       0.43398000 </v>
   <v>       0.11093000       0.22330000       0.16024000 </v>
   <v>       0.22204000       0.11219000       0.29711000 </v>
   <v>       0.33315000       0.00108000       0.43398000 </v>
   <v>       0.44426000       0.22330000       0.16024000 </v>
   <v>       0.55538000       0.11219000       0.29711000 </v>
   <v>       0.66649000       0.00108000       0.43398000 </v>
   <v>       0.77760000       0.22330000       0.16024000 </v>
   <v>       0.88871000       0.11219000       0.29711000 </v>
   <v>       0.99982000       0.33441000       0.43398000 </v>
   <v>       0.11093000       0.55664000       0.16024000 </v>
   <v>       0.22204000       0.44552000       0.29711000 </v>
   <v>       0.33315000       0.33441000       0.43398000 </v>
   <v>       0.44426000       0.55664000       0.16024000 </v>
   <v>       0.55538000       0.44552000       0.29711000 </v>
   <v>       0.66649000       0.33441000       0.43398000 </v>
   <v>       0.77760000       0.55664000       0.16024000 </v>
   <v>       0.88871000       0.44552000       0.29711000 </v>
   <v>       0.99982000       0.66775000       0.43398000 </v>
   <v>       0.11093000       0.88997000       0.16024000 </v>
   <v>       0.22204000       0.77886000       0.29711000 </v>
   <v>       0.33315000       0.66775000       0.43398000 </v>
   <v>       0.44426000       0.88997000       0.16024000 </v>
   <v>       0.55538000       0.77886000       0.29711000 </v>
   <v>       0.66649000       0.66775000       0.43398000 </v>
   <v>       0.77760000       0.88997000       0.16024000 </v>
   <v>       0.88871000       0.77886000       0.29711000 </v>
   <v>       0.99982000       0.00108000       0.02337000 </v>
   <v>       0.33315000       0.00108000       0.02337000 </v>
   <v>       0.66649000       0.00108000       0.02337000 </v>
   <v>       0.99982000       0.33441000       0.02337000 </v>
   <v>       0.33315000       0.33441000       0.02337000 </v>
   <v>       0.66649000       0.33441000       0.02337000 </v>
   <v>       0.99982000       0.66775000       0.02337000 </v>
   <v>       0.33315000       0.66775000       0.02337000 </v>
   <v>       0.66649000       0.66775000       0.02337000 </v>
   <v>       0.19949000       0.07893000       0.54689000 </v>
   <v>       0.20331000       0.31375000       0.54284000 </v>
   <v>       0.25485000       0.90815000       0.55794000 </v>
  </varray>
  <varray name="selective"  type="logical" >
   <v type="logical" >  T  T  T </v>
   <v type="logical" >  F  F  F </v>
   <v type="logical" >  T  T  T </v>
   <v type="logical" >  T  T  T </v>
   <v type="logical" >  F  F  F </v>
   <v type="logical" >  T  T  T </v>
   <v type="logical" >  T  T  T </v>
   <v type="logical" >  F  F  F </v>
   <v type="logical" >  T  T  T </v>
   <v type="logical" >  T  T  T </v>
   <v type="logical" >  F  F  F </v>
   <v type="logical" >  T  T  T </v>
   <v type="logical" >  T  T  T </v>
   <v type="logical" >  F  F  F </v>
   <v type="logical" >  T  T  T </v>
   <v type="logical" >  T  T  T </v>
   <v type="logical" >  F  F  F </v>
   <v type="logical" >  T  T  T </v>
   <v type="logical" >  T  T  T </v>
   <v type="logical" >  F  F  F </v>
   <v type="logical" >  T  T  T </v>
   <v type="logical" >  T  T  T </v>
   <v type="logical" >  F  F  F </v>
   <v type="logical" >  T  T  T </v>
   <v type="logical" >  T  T  T </v>
   <v type="logical" >  F  F  F </v>
   <v type="logical" >  T  T  T </v>
   <v type="logical" >  F  F  F </v>
   <v type="logical" >  F  F  F </v>
   <v type="logical" >  F  F  F </v>
   <v type="logical" >  F  F  F </v>
   <v type="logical" >  F  F  F </v>
   <v type="logical" >  F  F  F </v>
   <v type="logical" >  F  F  F </v>
   <v type="logical" >  F  F  F </v>
   <v type="logical" >  F  F  F </v>
   <v type="logical" >  T  T  T </v>
   <v type="logical" >  T  T  T </v>
   <v type="logical" >  T  T  T </v>
  </varray>
  <nose>
   <v>      -3.00000000       0.00000000       0.00010000       0.00010000 </v>
  </nose>
 </structure>
 <calculation>
  <scstep>
   <time name="dav">   49.87   49.88</time>
   <time name="total">   50.12   50.13</time>
   <energy>
    <i name="alphaZ">    918.22725072 </i>
    <i name="ewald">  22997.49690179 </i>
    <i name="hartreedc"> -55676.82115976 </i>
    <i name="XCdc">   -995.60732342 </i>
    <i name="pawpsdc">  29844.20032359 </i>
    <i name="pawaedc"> -27608.36462881 </i>
    <i name="eentropy">     -1.37529220 </i>
    <i name="bandstr">   2440.81322865 </i>
    <i name="atom">  30161.86332653 </i>
    <i name="e_fr_energy">   2080.43262710 </i>
    <i name="e_wo_entrp">   2081.80791930 </i>
    <i name="e_0_energy">   2081.12027320 </i>
   </energy>
  </scstep>
  <scstep>
   <time name="dav">   53.80   54.00</time>
   <time name="total">   53.82   54.02</time>
   <energy>
    <i name="e_fr_energy">    -89.66398100 </i>
    <i name="e_wo_entrp">    -86.09752905 </i>
    <i name="e_0_energy">    -87.88075503 </i>
   </energy>
  </scstep>
  <scstep>
   <time name="dav">   55.12   55.31</time>
   <time name="total">   55.14   55.33</time>
   <energy>
    <i name="e_fr_energy">   -205.41782246 </i>
    <i name="e_wo_entrp">   -200.27257674 </i>
    <i name="e_0_energy">   -202.84519960 </i>
   </energy>
  </scstep>
  <scstep>
   <time name="dav">   56.27   56.47</time>
   <time name="total">   56.29   56.49</time>
   <energy>
    <i name="e_fr_energy">   -209.13488489 </i>
    <i name="e_wo_entrp">   -203.92840542 </i>
    <i name="e_0_energy">   -206.53164515 </i>
   </energy>
  </scstep>
  <scstep>
   <time name="dav">   63.03   63.04</time>
   <time name="total">   65.49   65.51</time>
   <energy>
    <i name="e_fr_energy">   -206.69424583 </i>
    <i name="e_wo_entrp">   -201.19334069 </i>
    <i name="e_0_energy">   -203.94379326 </i>
   </energy>
  </scstep>
  <scstep>
   <time name="dav">   61.24   61.24</time>
   <time name="total">   63.83   63.85</time>
   <energy>
    <i name="e_fr_energy">   -213.37460586 </i>
    <i name="e_wo_entrp">   -209.00889139 </i>
    <i name="e_0_energy">   -211.19174862 </i>
   </energy>
  </scstep>
  <scstep>
   <time name="dav">   63.40   63.41</time>
   <time name="total">   66.07   66.08</time>
   <energy>
    <i name="e_fr_energy">   -207.16875990 </i>
    <i name="e_wo_entrp">   -202.09364906 </i>
    <i name="e_0_energy">   -204.63120448 </i>
   </energy>
  </scstep>
  <scstep>
   <time name="dav">   59.31   59.32</time>
   <time name="total">   61.99   62.01</time>
   <energy>
    <i name="e_fr_energy">   -218.12034304 </i>
    <i name="e_wo_entrp">   -213.97654391 </i>
    <i name="e_0_energy">   -216.04844347 </i>
   </energy>
  </scstep>
  <scstep>
   <time name="dav">   62.23   62.24</time>
   <time name="total">   64.84   64.85</time>
   <energy>
    <i name="e_fr_energy">   -198.70865641 </i>
    <i name="e_wo_entrp">   -193.68172468 </i>
    <i name="e_0_energy">   -196.19519055 </i>
   </energy>
  </scstep>
  <scstep>
   <time name="dav">   55.28   55.30</time>
   <time name="total">   57.89   57.92</time>
   <energy>
    <i name="e_fr_energy">   -195.24783699 </i>
    <i name="e_wo_entrp">   -190.08638874 </i>
    <i name="e_0_energy">   -192.66711286 </i>
   </energy>
  </scstep>
  <scstep>
   <time name="dav">   52.95   52.96</time>
   <time name="total">   55.59   55.60</time>
   <energy>
    <i name="e_fr_energy">   -194.75511443 </i>
    <i name="e_wo_entrp">   -189.46589118 </i>
    <i name="e_0_energy">   -192.11050280 </i>
   </energy>
  </scstep>
  <scstep>
   <time name="dav">   53.21   53.21</time>
   <time name="total">   55.84   55.86</time>
   <energy>
    <i name="e_fr_energy">   -194.41561162 </i>
    <i name="e_wo_entrp">   -189.01397984 </i>
    <i name="e_0_energy">   -191.71479573 </i>
   </energy>
  </scstep>
  <scstep>
   <time name="dav">   52.65   52.70</time>
   <time name="total">   55.29   55.34</time>
   <energy>
    <i name="e_fr_energy">   -194.22353061 </i>
    <i name="e_wo_entrp">   -188.71887934 </i>
    <i name="e_0_energy">   -191.47120498 </i>
   </energy>
  </scstep>
  <scstep>
   <time name="dav">   53.76   53.76</time>
   <time name="total">   56.40   56.41</time>
   <energy>
    <i name="e_fr_energy">   -194.07324840 </i>
    <i name="e_wo_entrp">   -188.59545169 </i>
    <i name="e_0_energy">   -191.33435004 </i>
   </energy>
  </scstep>
  <scstep>
   <time name="dav">   55.03   55.04</time>
   <time name="total">   57.67   57.69</time>
   <energy>
    <i name="e_fr_energy">   -194.05996577 </i>
    <i name="e_wo_entrp">   -188.55301780 </i>
    <i name="e_0_energy">   -191.30649178 </i>
   </energy>
  </scstep>
  <scstep>
   <time name="dav">   52.39   52.40</time>
   <time name="total">   55.03   55.05</time>
   <energy>
    <i name="e_fr_energy">   -194.05261557 </i>
    <i name="e_wo_entrp">   -188.52712073 </i>
    <i name="e_0_energy">   -191.28986815 </i>
   </energy>
  </scstep>
  <scstep>
   <time name="dav">   54.24   54.25</time>
   <time name="total">   56.88   56.90</time>
   <energy>
    <i name="e_fr_energy">   -194.04678630 </i>
    <i name="e_wo_entrp">   -188.52602727 </i>
    <i name="e_0_energy">   -191.28640678 </i>
   </energy>
  </scstep>
  <scstep>
   <time name="dav">   53.47   53.48</time>
   <time name="total">   56.11   56.13</time>
   <energy>
    <i name="e_fr_energy">   -194.04483230 </i>
    <i name="e_wo_entrp">   -188.52317221 </i>
    <i name="e_0_energy">   -191.28400226 </i>
   </energy>
  </scstep>
  <scstep>
   <time name="dav">   51.84   51.84</time>
   <time name="total">   54.48   54.50</time>
   <energy>
    <i name="e_fr_energy">   -194.04509308 </i>
    <i name="e_wo_entrp">   -188.52484065 </i>
    <i name="e_0_energy">   -191.28496687 </i>
   </energy>
  </scstep>
  <scstep>
   <time name="dav">   51.63   51.64</time>
   <time name="total">   54.28   54.30</time>
   <energy>
    <i name="e_fr_energy">   -194.04514963 </i>
    <i name="e_wo_entrp">   -188.52275831 </i>
    <i name="e_0_energy">   -191.28395397 </i>
   </energy>
  </scstep>
  <scstep>
   <time name="dav">   52.47   52.47</time>
   <time name="total">   55.11   55.12</time>
   <energy>
    <i name="e_fr_energy">   -194.04526361 </i>
    <i name="e_wo_entrp">   -188.52235021 </i>
    <i name="e_0_energy">   -191.28380691 </i>
   </energy>
  </scstep>
  <scstep>
   <time name="dav">   51.24   51.25</time>
   <time name="total">   53.88   53.90</time>
   <energy>
    <i name="e_fr_energy">   -194.04535716 </i>
    <i name="e_wo_entrp">   -188.52281478 </i>
    <i name="e_0_energy">   -191.28408597 </i>
   </energy>
  </scstep>
  <scstep>
   <time name="dav">   50.39   50.40</time>
   <time name="total">   53.03   53.05</time>
   <energy>
    <i name="e_fr_energy">   -194.04539816 </i>
    <i name="e_wo_entrp">   -188.52304937 </i>
    <i name="e_0_energy">   -191.28422376 </i>
   </energy>
  </scstep>
  <scstep>
   <time name="dav">   48.68   48.68</time>
   <time name="total">   51.32   51.34</time>
   <energy>
    <i name="e_fr_energy">   -194.04552139 </i>
    <i name="e_wo_entrp">   -188.52351300 </i>
    <i name="e_0_energy">   -191.28451719 </i>
   </energy>
  </scstep>
  <scstep>
   <time name="dav">   45.52   45.53</time>
   <time name="total">   48.16   48.17</time>
   <energy>
    <i name="e_fr_energy">   -194.04557393 </i>
    <i name="e_wo_entrp">   -188.52341584 </i>
    <i name="e_0_energy">   -191.28449489 </i>
   </energy>
  </scstep>
  <scstep>
   <time name="dav">   36.85   36.85</time>
   <time name="total">   39.49   39.50</time>
   <energy>
    <i name="e_fr_energy">   -194.04562800 </i>
    <i name="e_wo_entrp">   -188.52311083 </i>
    <i name="e_0_energy">   -191.28436941 </i>
   </energy>
  </scstep>
  <scstep>
   <time name="dav">   36.63   36.65</time>
   <time name="total">   39.24   39.27</time>
   <energy>
    <i name="e_fr_energy">   -194.04566276 </i>
    <i name="e_wo_entrp">   -188.52320324 </i>
    <i name="e_0_energy">   -191.28443300 </i>
   </energy>
  </scstep>
  <scstep>
   <time name="dav">   43.04   43.44</time>
   <time name="total">   45.64   46.05</time>
   <energy>
    <i name="e_fr_energy">   -196.72149366 </i>
    <i name="e_wo_entrp">   -191.64439777 </i>
    <i name="e_0_energy">   -194.18294571 </i>
   </energy>
  </scstep>
  <scstep>
   <time name="dav">   37.42   37.48</time>
   <time name="total">   40.00   40.14</time>
   <energy>
    <i name="e_fr_energy">   -196.72157304 </i>
    <i name="e_wo_entrp">   -191.64465469 </i>
    <i name="e_0_energy">   -194.18311386 </i>
   </energy>
  </scstep>
  <scstep>
   <time name="dav">   37.24   37.31</time>
   <time name="total">   39.84   39.93</time>
   <energy>
    <i name="e_fr_energy">   -196.72162553 </i>
    <i name="e_wo_entrp">   -191.64467372 </i>
    <i name="e_0_energy">   -194.18314963 </i>
   </energy>
  </scstep>
  <scstep>
   <time name="dav">   37.40   37.66</time>
   <time name="total">   39.95   40.22</time>
   <energy>
    <i name="e_fr_energy">   -196.72166354 </i>
    <i name="e_wo_entrp">   -191.64467507 </i>
    <i name="e_0_energy">   -194.18316930 </i>
   </energy>
  </scstep>
  <scstep>
   <time name="dav">   36.53   36.58</time>
   <time name="total">   39.10   39.21</time>
   <energy>
    <i name="e_fr_energy">   -196.72167961 </i>
    <i name="e_wo_entrp">   -191.64478129 </i>
    <i name="e_0_energy">   -194.18323045 </i>
   </energy>
  </scstep>
  <scstep>
   <time name="dav">   36.77   36.87</time>
   <time name="total">   39.31   39.42</time>
   <energy>
    <i name="e_fr_energy">   -196.72169418 </i>
    <i name="e_wo_entrp">   -191.64478896 </i>
    <i name="e_0_energy">   -194.18324157 </i>
   </energy>
  </scstep>
  <scstep>
   <time name="dav">   35.91   36.09</time>
   <time name="total">   36.13   36.31</time>
   <energy>
    <i name="alphaZ">    918.22725072 </i>
    <i name="ewald">  25414.52634720 </i>
    <i name="hartreedc"> -57903.66447214 </i>
    <i name="XCdc">   -999.47736888 </i>
    <i name="pawpsdc">  35452.75799658 </i>
    <i name="pawaedc"> -33303.37951549 </i>
    <i name="eentropy">     -5.07694165 </i>
    <i name="bandstr">     67.50167826 </i>
    <i name="atom">  30161.86332653 </i>
    <i name="e_fr_energy">   -196.72169887 </i>
    <i name="e_wo_entrp">   -191.64475722 </i>
    <i name="e_0_energy">   -194.18322805 </i>
   </energy>
  </scstep>
  <structure>
   <crystal>
    <varray name="basis" >
     <v>       8.30990028       0.00000000       0.00000000 </v>
     <v>      -4.15495014       7.19658475       0.00000000 </v>
     <v>       0.00000000       0.00000000      16.52350044 </v>
    </varray>
    <i name="volume">    988.15327180 </i>
    <varray name="rec_basis" >
     <v>       0.12033839       0.06947740       0.00000000 </v>
     <v>       0.00000000       0.13895480       0.00000000 </v>
     <v>       0.00000000       0.00000000       0.06051986 </v>
    </varray>
   </crystal>
   <varray name="positions" >
    <v>       0.99982000       0.00108000       0.43398000 </v>
    <v>       0.11093000       0.22330000       0.16024000 </v>
    <v>       0.22204000       0.11219000       0.29711000 </v>
    <v>       0.33315000       0.00108000       0.43398000 </v>
    <v>       0.44426000       0.22330000       0.16024000 </v>
    <v>       0.55538000       0.11219000       0.29711000 </v>
    <v>       0.66649000       0.00108000       0.43398000 </v>
    <v>       0.77760000       0.22330000       0.16024000 </v>
    <v>       0.88871000       0.11219000       0.29711000 </v>
    <v>       0.99982000       0.33441000       0.43398000 </v>
    <v>       0.11093000       0.55664000       0.16024000 </v>
    <v>       0.22204000       0.44552000       0.29711000 </v>
    <v>       0.33315000       0.33441000       0.43398000 </v>
    <v>       0.44426000       0.55664000       0.16024000 </v>
    <v>       0.55538000       0.44552000       0.29711000 </v>
    <v>       0.66649000       0.33441000       0.43398000 </v>
    <v>       0.77760000       0.55664000       0.16024000 </v>
    <v>       0.88871000       0.44552000       0.29711000 </v>
    <v>       0.99982000       0.66775000       0.43398000 </v>
    <v>       0.11093000       0.88997000       0.16024000 </v>
    <v>       0.22204000       0.77886000       0.29711000 </v>
    <v>       0.33315000       0.66775000       0.43398000 </v>
    <v>       0.44426000       0.88997000       0.16024000 </v>
    <v>       0.55538000       0.77886000       0.29711000 </v>
    <v>       0.66649000       0.66775000       0.43398000 </v>
    <v>       0.77760000       0.88997000       0.16024000 </v>
    <v>       0.88871000       0.77886000       0.29711000 </v>
    <v>       0.99982000       0.00108000       0.02337000 </v>
    <v>       0.33315000       0.00108000       0.02337000 </v>
    <v>       0.66649000       0.00108000       0.02337000 </v>
    <v>       0.99982000       0.33441000       0.02337000 </v>
    <v>       0.33315000       0.33441000       0.02337000 </v>
    <v>       0.66649000       0.33441000       0.02337000 </v>
    <v>       0.99982000       0.66775000       0.02337000 </v>
    <v>       0.33315000       0.66775000       0.02337000 </v>
    <v>       0.66649000       0.66775000       0.02337000 </v>
    <v>       0.19906000       0.07886000       0.52026000 </v>
    <v>       0.20288000       0.31368000       0.51621000 </v>
    <v>       0.19065000       0.96535000       0.61155000 </v>
   </varray>
  </structure>
  <varray name="forces" >
   <v>       0.19153497      -0.58405046       0.87956086 </v>
   <v>      -0.00576975       0.00281371       0.06509397 </v>
   <v>       0.05384742      -0.00071061      -0.41048080 </v>
   <v>      -0.25685369       0.14688923       1.22013813 </v>
   <v>       0.01151391       0.01999041       0.06692815 </v>
   <v>       0.03028826      -0.02576884      -0.09069307 </v>
   <v>      -0.02752510      -0.05277193       0.07043440 </v>
   <v>      -0.  <energy>
   <i name="e_fr_energy">   -193.16105870 </i>
   <i name="e_wo_entrp">   -190.41347172 </i>
   <i name="e_0_energy">     -5.49517395 </i>
  </energy>
  <time name="totalsc"> 1820.58 1821.16</time>
 </calculation>
823479 </v>
   <v>       0.01034983       0.04889416      -0.30534871 </v>
   <v>       4.60470516       1.54070778      -5.59915173 </v>
   <v>       0.01367971      -0.00732220       0.06290100 </v>
   <v>      -0.03937462      -0.04854021       0.06488619 </v>
   <v>       0.22022853       0.11016158       0.01407205 </v>
   <v>       0.03147690       0.00703061      -0.11542408 </v>
   <v>       0.03570707      -0.04062020       0.11298725 </v>
   <v>      -0.09503404      -0.13167343       0.15225552 </v>
   <v>      -0.00874132      -0.02311885       0.05597257 </v>
   <v>       0.03340204      -0.01711484      -0.09068104 </v>
   <v>       0.04013002       0.19161520       0.05992363 </v>
   <v>      -0.00774896       0.00162811       0.08011432 </v>
   <v>      -0.01657634       0.00968190      -0.05851370 </v>
   <v>       0.09154629       0.07184004       0.07043662 </v>
   <energy>
   <i name="e_fr_energy">   -194.04569729 </i>
   <i name="e_wo_entrp">   -191.28439780 </i>
   <i name="e_0_energy">     -5.52259897 </i>
  </energy>
  <time name="totalsc"> 1820.30 1820.84</time>
 </calculation>
021      -0.15443184 </v>
   <v>      -0.00695949      -0.00804203      -0.15366269 </v>
   <v>       0.01157245      -0.00977225      -0.13637404 </v>
   <v>      -0.00805493      -0.00050711      -0.14834076 </v>
   <v>      -0.00788236      -0.01335333      -0.13234706 </v>
   <v>       0.02257973       0.01756333      -0.14707210  <energy>
   <i name="e_fr_energy">   -196.90042121 </i>
   <i name="e_wo_entrp">   -194.23759452 </i>
   <i name="e_0_energy">     -5.32565339 </i>
  </energy>
  <time name="totalsc"> 1819.92 1821.06</time>
 </calculation>
1.05358102       6.35309038 </v>
   <v>      -1.65962096       3.43555740      -6.03508142 </v>
  </varray>
  <varray name="stress" >
   <v>      -8.09415334       5.07043286     -14.45432046 </v>
   <v>       5.07043311     -14.41694506       5.73810932 </v>
   <v>     -14.45432058       5.73810949       0.88378977 </v>
  </varray>
  <energy>
   <i name="e_fr_energy">   -196.72169887 </i>
   <i name="e_wo_entrp">   -194.18322805 </i>
   <i name="e_0_energy">     -5.07694165 </i>
  </energy>
  <time name="totalsc"> 18   <time name="dav">   50.30   50.31</time>
   <time name="total">   52.96   52.97</time>
   <energy>
    <   <time name="total">   52.93   52.99</time>
   <energy>
    <i name="alphaZ">    918.22725072 </i>
    <i name="ewald">  25401.79805338 </i>
    <i name="hartreedc"> -57895.28819294 </i>
    <i name="XCdc">   -999.67884013 </i>
    <i name="pawpsdc">  35452.68096403 </i>
    <i name="pawaedc"> -33303.30216542 </i>
    <i name="eentropy">     -5.12817741 </i>
    <i name="bandstr">     70.71028102 </i>
    <i name="atom">  30161.86332653 </i>
    <i name="e_fr_energy">   -198.11750022 </i>
    <i name="e_wo_entrp">   -192.98932281 </i>
    <i name="e_0_ene   <time name="dav">   58.70   58.71</time>
   <time name="total">   61.33   61.35</time>
   <energy>
    <i name="e_fr_energy">   -195.33864508 </i>
    <i name="e_wo_entrp">   -189.79706516 </i>
    <i name="e_0_energy">   -192.56785512 </i>
   </energy>
  </scstep>
  <scstep>
   <time name="dav">   60.90   60.90</time>
   <time name="total">   63.53   63.54</time>
   <energy>
    <i name="e_fr_energy">   -195.09793037 </i>
    <i name="e_wo_entrp">   -189.64292271 </i>
    <i name="e_0_energy">   -192.37042654 </i>
   </energy>
  </scstep>
  <scstep>
   <time name="dav">   52.58   52.59</time>
   <time name="total">   55.20   55.22</time>
   <energy>
    <i name="e_fr_energy">   -195.09244298 </i>
    <i name="e_wo_entrp">   -189.61830951 </i>
    <i name="e_0_energy">   -192.35537625 </i>
   </energy>
  </scstep>
  <scstep>
   <time name="dav">   55.88   55.89</time>
   <time name="total">   58.51   58.53</time>
   <energy>
    <i name="e_fr_energy">   -195.07375502 </i>
    <i name="e_wo_entrp">   -189.58520220 </i>
    <i name="e_0_energy">   -192.32947861 </i>
   </energy>
  </scstep>
  <scstep>
   <time name="dav">   51.90   51.92</time>
   <time name="total">   54.54   54.56</time>
   <energy>
    <i name="e_fr_energy">   -195.07738526 </i>
    <i name="e_wo_entrp">   -189.58134341 </i>
    <i name="e_0_energy">   -192.32936434 </i>
   </energy>
  </scstep>
  <scstep>
   <time name="dav">   57.08   57.09</time>
   <time name="total">   59.71   59.72</time>
   <energy>
    <i name="e_fr_energy">   -195.07197190 </i>
    <i name="e_wo_entrp">   -189.58306808 </i>
    <i name="e_0_energy">   -192.32751999 </i>
   </energy>
  </scstep>
  <scstep>
   <time name="dav">   53.85   53.87</time>
   <time name="total">   56.49   56.51</time>
   <energy>
    <i name="e_fr_energy">   -195.07226790 </i>
    <i name="e_wo_entrp">   -189.57517432 </i>
    <i name="e_0_energy">   -192.32372111 </i>
   </energy>
  </scstep>
  <scstep>
   <time name="dav">   51.83   51.84</time>
   <time name="total">   54.46   54.48</time>
   <energy>
    <i name="e_fr_energy">   -195.07103673 </i>
    <i name="e_wo_entrp">   -189.57531224 </i>
    <i name="e_0_energy">   -192.32317449 </i>
   </energy>
  </scstep>
  <scstep>
   <time name="dav">   53.40   53.41</time>
   <time name="total">   56.05   56.05</time>
   <energy>
    <i name="e_fr_energy">   -195.07108685 </i>
    <i name="e_wo_entrp">   -189.57569113 </i>
    <i name="e_0_energy">   -192.32338899 </i>
   </energy>
  </scstep>
  <scstep>
   <time name="dav">   51.50   51.51</time>
   <time name="total">   54.13   54.15</time>
   <energy>
    <i name="e_fr_energy">   -195.07106185 </i>
    <i name="e_wo_entrp">   -189.57647247 </i>
    <i name="e_0_energy">   -192.32376716 </i>
   </energy>
  </scstep>
  <scstep>
   <time name="dav">   50.02   50.03</time>
   <time name="total">   52.62   52.64</time>
   <energy>
    <i name="e_fr_energy">   -195.07108496 </i>
    <i name="e_wo_entrp">   -189.57649608 </i>
    <i name="e_0_energy">   -192.32379052 </i>
   </energy>
  </scstep>
  <scstep>
   <time name="dav">   38.74   38.77</time>
   <time name="total">   41.35   41.38</time>
   <energy>
    <i name="e_fr_energy">   -195.07111021 </i>
    <i name="e_wo_entrp">   -189.57644914 </i>
    <i name="e_0_energy">   -192.32377967 </i>
   </energy>
  </scstep>
  <scstep>
   <time name="dav">   35.57   35.57</time>
   <time name="tota   <time name="dav">   43.45   43.49</time>
   <time name="total">   46.03   46.08</time>
   <energy>
    <i name="e_fr_energy">   -198.30086378 </i>
    <i name="e_wo_entrp">   -193.20434626 </i>
    <i name="e_0_ene   <time name="dav">   36.07   36.09</time>
   <time name="tota   <time name="dav">   36.20   36.41</time>
   <time name="total">   38.76   38.97</time>
   <energy>
    <i name="e_fr_energy">   -198.30087603 </i>
    <i name="e_wo_entrp">   -193.20438355 </i>
    <i name="e_0_ene   <time name="dav">   35.32   35.32</time>
   <time name="tota   <time name="dav">   36.44   36.70</time>
   <time name="total">   36.64   36.91</time>
   <energy>
    <i name="alphaZ">    918.22725072 </i>
    <i name="ewald">  25401.79805338 </i>
    <i name="hartreedc"> -5789   <time name="dav">   35.73   35.74</time>
   <time name="total">   38.31   38.33</time>
   <energy>
    <i name="e_fr_energy">   -195.07117376 </i>
    <i name="e_wo_entrp">   -189.57641275 </i>
    <i name="e_0_energy">   -192.32379326 </i>
   </energy>
  </scstep>
  <scstep>
   <time name="dav">   35.15   35.16</time>
   <time name="total">   35.37   35.38</time>
   <energy>
    <i name="alphaZ">    918.22725072 </i>
    <i name="ewald">  22967.22232287 </i>
    <i name="hartreedc"> -55486.41587835 </i>
    <i name="XCdc">  -1002.88949114 </i>
    <i name="pawpsdc">  34937.00907656 </i>
    <i name="pawaedc"> -32783.21729128 </i>
    <i name="eentropy">     -5.49481590 </i>
    <i name="bandstr">     98.62431962 </i>
    <i name="atom">  30161.86332653 </i>
    <i name="e_fr_energy">   -195.07118038 </i>
    <i name="e_wo_entrp">   -189.57636448 </i>
    <i name="e_0_energy">   -192.32377243 </i>
   </energy>
  </scstep>
  <structure>
   <crystal>
    <varray name="basis" >
     <v>       8.30990028       0.00000000       0.00000000 </v>
     <v>      -4.15495014       7.19658475       0.00000000 </v>
     <v>       0.00000000       0.00000000      16.52350044 </v>
    </varray>
    <i name="volume">    988.15327180 </i>
    <varray name="rec_basis" >
     <v>       0.12033839       0.06947740       0.00000000 </v>
     <v>       0.00000000       0.13895480       0.00000000 </v>
     <v>       0.00000000       0.00000000       0.06051986 </v>
    </varray>
   </crystal>
   <varray name="positions" >
    <v>       0.99992335       0.00107489       0.43432802 </v>
    <v>       0.11093000       0.22330000       0.16024000 </v>
    <v>       0.22209102       0.11220814       0.29705947 </v>
    <v>       0.33306534       0.00101278       0.43434763 </v>
    <v>       0.44426000       0.22330000       0.16024000 </v>
    <v>       0.55533082       0.11215242       0.29709077 </v>
    <v>       0.66651716       0.00108322       0.43404357 </v>
    <v>       0.77760000       0.22330000       0.16024000 </v>
    <v>       0.88868538       0.11216338       0.29707007 </v>
    <v>       0.99984262       0.33441635       0.43418875 </v>
    <v>       0.11093000       0.55664000       0.16024000 </v>
    <v>       0.22205534       0.44553611       0.29706054 </v>
    <v>       0.33298999       0.33445551       0.43449115 </v>
    <v>       0.44426000       0.55664000       0.16024000 </v>
    <v>       0.55528889       0.44547779       0.29711360 </v>
    <v>       0.66656841       0.33445588       0.43403892 </v>
    <v>       0.77760000       0.55664000       0.16024000 </v>
    <v>       0.88873611       0.44550404       0.29710917 </v>
    <v>       0.99977700       0.66772180       0.43408380 </v>
    <v>       0.11093000       0.88997000       0.16024000 </v>
    <v>       0.22206831       0.77886993       0.29706762 </v>
    <v>       0.33316364       0.66775091       0.43408289 </v>
    <v>       0.44426000       0.88997000       0.16024000 </v>
    <v>       0.55537127       0.77886086       0.29707906 </v>
    <v>       0.66652767       0.66777502       0.43404706 </v>
    <v>       0.77760000       0.88997000       0.16024000 </v>
    <v>       0.88871389       0.77889285       0.29708859 </v>
    <v>       0.99982000       0.00108000       0.02337000 </v>
    <v>       0.33315000       0.00108000       0.02337000 </v>
    <v>       0.66649000       0.00108000       0.02337000 </v>
    <v>       0.99982000       0.33441000       0.02337000 </v>
    <v>       0.33315000       0.33441000       0.02337000 </v>
    <v>       0.66649000       0.33441000       0.02337000 </v>
    <v>       0.99982000       0.66775000       0.02337000 </v>
    <v>       0.33315000       0.66775000       0.02337000 </v>
    <v>       0.66649000       0.66775000       0.02337000 </v>
    <v>       0.20185692       0.07548666       0.60033222 </v>
    <v>       0.20471634       0.30922085       0.59613501 </v>
    <v>       0.25372204       0.91655425       0.61100212 </v>
   </varray>
  </structure>
  <varray name="forces" >
   <v>       0.07507341      -0.00653105       0.52393861 </v>
   <v>      -0.00481655      -0.00091929       0.08531411 </v>
   <v>       0.02327428       0.01403069      -0.04599895 </v>
   <v>      -0.03077063      -0.02383209       0.46347664 </v>
   <v>       0.00143650       0.00696549       0.06412528 </v>
   <v>      -0.02512874      -0.02452052      -0.01601073 </v>
   <v>       0.01892967       0.00188916       0.09613801 </v>
   <v>      -0.00102907       0.01233442       0.06222265 </v>
   <v>      -0.00297730      -0.01604686      -0.04516250 </v>
   <v>       0.00959454       0.00356213       0.30558689 </v>
   <v>      -0.01005332      -0.00565757       0.05318093 </v>
   <v>       0.00806465       0.00315212     <energy>
   <i name="e_fr_energy">   -197.34943100 </i>
   <i name="e_wo_entrp">   -194.69078081 </i>
   <i name="e_0_energy">     -5.31730038 </i>
  </energy>
  <time name="totalsc">  960.12  960.41</time>
 </calculation>
3917642       0.02732090       0.09142688 </v>
   <v>       0.00582085      -0.00408989       0.06509043 </v>
   <v>       0.02811382      -0.01356122       0.00385886 </v>
   <v>      -0.02374064      -0.02726232       0.13486619 </v>
   <v>      -0.00598471      -0.00816066       0.07001170 </v>
   <v>       0.01646533       0.01035991      -0.04568876 </v>
   <v>       0.01132972       0.00109414       0.14128846 </v>
   <v>      -0.00197822       0.00241425       0.06432412 </v>
   <v>      -0.00676939       0.00020501      -0.03933077 </v>
   <v>       0.01986344       0.01816147       0.10529945 </v>
   <v>       0.0  <energy>
   <i name="e_fr_energy">   -194.12409938 </i>
   <i name="e_wo_entrp">   -191.38678112 </i>
   <i name="e_0_energy">     -5.47463652 </i>
  </energy>
  <time name="totalsc">  960.12  960.39</time>
 </calculation>
14814 </v>
   <v>       0.00028403      -0.00095786      -0.14591832 </v>
   <v>      -0.00032381       0.00173680      -0.15027683 </v>
   <v>       0.00103639       0.00014140      -0.15304729 </v>
   <v>      -0.00281580      -0.00582132      -0.14242882 </v>
   <v>       0.00766756       0.00397371      -0.15195014 </v>
   <v>      -0.00087676       0.00009732      -0.15193467  <energy>
   <i name="e_fr_energy">   -198.30088310 </i>
   <i name="e_wo_entrp">   -195.75265507 </i>
   <i name="e_0_energy">     -5.09645605 </i>
  </energy>
  <time name="totalsc">  956.89  960.32</time>
 </calculation>
6.96683000      -0.95439179 </v>
  </varray>
  <varray name="stress" >
   <v>     -32.07507201      16.77901197      -1.65709932 </v>
   <v>      16.77901216     -38.61911195       2.47067455 </v>
   <v>      -1.65709925       2.47067437      -7.55637980 </v>
  </varray>
  <energy>
   <i name="e_fr_energy">   -195.07118038 </i>
   <i name="e_wo_entrp">   -192.32377243 </i>
   <i name="e_0_energy">     -5.49481590 </i>
  </energy>
  <time name="totalsc">  959.96  960.34</time>
 </calculation>
 <calculation>
  <scstep>
   <time name="dav">   50.70   50.71</tim      <time name="total">   53.38   53.40</t   <time name="total">   53.32   53.33</time>
   <energy>
    <i name="alphaZ">    918.22725072 </i>
    <i name="ewald">  25127.37151551 </i>
    <i name="hartreedc"> -57654.61225442 </i>
    <i name="XCdc">  -1000.46192679 </i>
    <i name="pawpsdc">  35115.43285572 </i>
    <i name="pawaedc"> -32963.75371314 </i>
    <i name="eentropy">     -5.30816125 </i>
    <i name="bandstr">    102.89047785 </i>
    <i name="atom">  30161.86332653 </i>
    <i name="e_fr_energy">   -198.35062926 </i>
    <i name="e_wo_entrp">   -193.04246802 </i>
    <i name="e_0_energy">   -19  <scstep>
   <time name="dav">   51.   <time name="      <time name="total">   5   <time name="   <time name="total">   56.22   56.25</time>
   <energy>
    <i name="e_fr_energy">   -198.69014560 </i>
    <i name="e_wo_entrp">   -193.44817278 </i>
    <i name="e_0_energy">   -196.06915919    <time name="dav">   67.45   67.46</time>
   <time name="total">   70.08   70.09</time>
   <energy>
    <i name="e_fr_energy">   -197.79308503 </i>
    <i name="e_wo_entrp">   -192.50242283 </i>
    <i name="e_0_energy">   -195.14775393 </i>
   </energy>
  </scstep>
  <scstep>
   <time name="dav">   56.85   56.86</time>
   <time name="total">   59.48   59.49</time>
   <energy>
    <i name="e_fr_energy">   -197.59693224 </i>
    <i name="e_wo_entrp">   -192.17685329 </i>
    <i name="e_0_energy">   -194.88689277 </i>
   </energy>
  </scstep>
  <scstep>
   <time name="dav">   53.01   53.02</time>
   <time name="total">   55.64   55.65</time>
   <energy>
    <i name="e_fr_energy">   -197.58047655 </i>
    <i name="e_wo_entrp">   -192.13963047 </i>
    <i name="e_0_energy">   -194.86005351 </i>
   </energy>
  </scstep>
  <scstep>
   <time name="dav">   52.21   52.22</time>
   <time name="total">   54.84   54.86</time>
   <energy>
    <i name="e_fr_energy">   -197.55091912 </i>
    <i name="e_wo_entrp">   -192.10169078 </i>
    <i name="e_0_energy">   -194.82630495 </i>
   </energy>
  </scstep>
  <scstep>
   <time name="dav">   52.79   52.80</time>
   <time name="total">   55.43   55.45</time>
   <energy>
    <i name="e_fr_energy">   -197.53870685 </i>
    <i name="e_wo_entrp">   -192.10086330 </i>
    <i name="e_0_energy">   -194.81978507 </i>
   </energy>
  </scstep>
  <scstep>
   <time name="dav">   52.   <time name="dav   <time name="total">   5   <time name="total">   56.73   56.73</time>
   <energy>
    <i name="e_fr_energy">   -196.33661560 </i>
    <i name="e_wo_entrp">   -190.88820024 </i>
    <i name="e_0_energy">   -193.61240792 </i>
   </energ   <time name="dav">   51.   <time name="dav   <time name="total">   5   <time name="total">   54.06   54.07</time>
   <energy>
    <i name="e_fr_energy">   -196.33628058 </i>
    <i name="e_wo_entrp">   -190.88555704 </i>
    <i name="e_0_energy">   -193.61091881 </i>
   </energ   <time name="dav">   51.   <time name="dav   <time name="total">   5   <time name="total">   55.84   55.85</time>
   <energy>
    <i name="e_fr_energy">   -196.33533785 </i>
    <i name="e_wo_entrp">   -190.88035046 </i>
    <i name="e_0_energy">   -193.60784416 </i>
   </energ   <time name="dav">   51.   <time name="dav   <time name="total">   5   <time name="total">   53.84   53.86</time>
   <energy>
    <i name="e_fr_energy">   -196.33530232 </i>
    <i name="e_wo_entrp">   -190.88049636 </i>
    <i name="e_0_energy">   -193.60789934 </i>
   </energ   <time name="dav">   51.   <time name="dav   <time name="total">   5   <time name="total">   55.09   55.09</time>
   <energy>
    <i name="e_fr_energy">   -196.33532923 </i>
    <i name="e_wo_entrp">   -190.88051402 </i>
    <i name="e_0_energy">   -193.60792162 </i>
   </energ   <time name="dav">   52.65   52.67</time>
   <time name="total">   55.30   55.31</time>
   <energy>
    <i name="e_fr_energy">   -197.52711019 </i>
    <i name="e_wo_entrp">   -192.07142922 </i>
    <i name="e_0_energy">   -194.79926970 </i>
   </energy>
  </scstep>
  <scstep>
   <time name="dav">   49.   <time name="dav   <time name="total">   5   <time name="total">   54.95   54.97</time>
   <energy>
    <i name="e_fr_energy">   -196.33549862 </i>
    <i name="e_wo_entrp">   -190.88069351 </i>
    <i name="e_0_energy">   -193.60809606 </i>
   </energ   <time name="dav">   44.   <time name="dav">   45.26   45.27</time>
   <time name="total">   47.90   47.92</time>
   <energy>
    <i name="e_fr_energy">   -196.33557525 </i>
    <i name="e_wo_entrp">   -190.88149857 </i>
    <i name="e_0_energy">   -193.60853691 </i>
   </energ   <time name="dav">   40.   <time name="dav">   41.59   41.60</time>
   <time name="total">   44.24   44.25</time>
   <energy>
    <i name="e_fr_energy">   -196.33560225 </i>
    <i name="e_wo_entrp">   -190.88179464 </i>
    <i name="e_0_energy">   -193.60869845 </i>
   </energ   <time name="dav">   36.   <time name="dav">   40.02   40.02</time>
   <time name="total">   42.67   42.68</time>
   <energy>
    <i name="e_fr_energy">   -196.33564620 </i>
    <i name="e_wo_entrp">   -190.88160966 </i>
    <i name="e_0_energy">   -193.60862793 </i>
   </energ   <time name="dav">   37.   <time name="dav">   35.61   35.61</time>
   <time name="total">   38.27   38.28</time>
   <energy>
    <i name="e_fr_energy">   -196.33565903 </i>
    <i name="e_wo_entrp">   -190.88148182 </i>
    <i name="e_0_energy">   -193.60857042 </i>
   </energ   <time name="dav">   35.   <time name="dav">   36.22   36.23</time>
   <time name="total">   38.88   38.89</time>
   <energy>
    <i name="e_fr_energy">   -196.33567716 </i>
    <i name="e_wo_entrp">   -190.88117898 </i>
    <i name="e_0_energy">   -193.60842807 </i>
   </energ   <time name="dav">   36.   <time name="dav">   35.07   35.07</time>
   <time name="total">   35.28   35.29</time>
   <energy>
    <i name="alphaZ">    918.22725072 </i>
    <i name="ewald">  21660.59562094 </i>
    <i name="hartreedc"> -54179.80790091 </i>
    <i name="XCdc">     <time name="dav">   35.58   35.59</time>
   <time name="total">   35.79   35.81</time>
   <energy>
    <i name="alphaZ">    918.22725072 </i>
    <i name="ewald">  22943.15990676 </i>
    <i name="hartreedc"> -55480.76961860 </i>
    <i name="XCdc">  -1001.98340522 </i>
    <i name="pawpsdc">  35037.59046707 </i>
    <i name="pawaedc"> -32883.83360412 </i>
    <i name="eentropy">     -5.45687173 </i  <structure>
   <crystal>
    <varray name="basis" >
     <v>       8.30990028       0.00000000       0.00000000 </v>
     <v>      -4.15495014       7.19658475       0.00000000 </v>
     <v>       0.00000000       0.00000000      16.52350044 </v>
    <  <structure>
   <crystal>
    <varray name="basis" >
     <v>       8.30990028       0.00000000       0.00000000 </v>
     <v>      -4.15495014       7.19658475       0.00000000 </v>
     <v>       0.00000000       0.00000000      16.52350044 </v>
    </varray>
    <i name="volume">    988.15327180 </i>
    <varray name="rec_basis" >
     <v>       0.12033839       0.06947740       0.00000000 </v>
     <v>       0.00000000       0.13895480       0.00000000 </v>
     <v>       0.00000000       0.00000000       0.06051986 </v>
    </varray>
   </crystal>
   <varray name="positions" >
    <v>       1.00007254       0.00105906       0.43487994 </v>
    <v>       0.11093000       0.22330000       0.16024000 </v>
    <v>       0.22215674       0.11224215       0.29701051 </v>
    <v>       0.33297229       0.00095536       0.43483540 </v>
    <v>       0.44426000       0.22330000       0.16024000 </v>
    <v>       0.55524847       0.11209306       0.29707332 </v>
    <v>       0.66655915       0.00108781       0.43414467 </v>
    <v>       0.77760000       0.22330000       0.16024000 </v>
    <v>       0.88865978       0.11212459       0.29702191 </v>
    <v>       0.99986695       0.33442491       0.43451068 </v>
    <v>       0.11093000       0.55664000       0.16024000 </v>
    <v>       0.22207605       0.44554363       0.29700403 </v>
    <v>       0.33273837       0.33451682       0.43533010 </v>
    <v>       0.44426000       0.55664000       0.16024000 </v>
    <v>       0.55512330       0.44540192       0.29714154 </v>
    <v>       0.66668351       0.33452193       0.43413507 </v>
    <v>       0.77760000       0.55664000       0.16024000 </v>
    <v>       0.88877868       0.44547120       0.29711263 </v>
    <v>       0.99969421       0.66765580       0.43422566 </v>
    <v>       0.11093000       0.88997000       0.16024000 </v>
    <v>       0.22211538       0.77889504       0.29701895 </v>
    <v>       0.33318877       0.66775360       0.43423154 </v>
    <v>       0.44426000       0.88997000       0.16024000 </v>
    <v>       0.55535732       0.77886135       0.29703702 </v>
    <v>       0.66659133       0.66781905       0.43415786 </v>
    <v>       0.77760000       0.88997000       0.16024000 </v>
    <v>       0.88873032       0.77896155       0.29706975 </v>
    <v>       0.99982000       0.00108000       0.02337000 </v>
    <v>       0.33315000       0.00108000       0.02337000 </v>
    <v>       0.66649000       0.00108000       0.02337000 </v>
    <v>       0.99982000       0.33441000       0.02337000 </v>
    <v>       0.33315000       0.33441000       0.02337000 </v>
    <v>       0.66649000       0.33441000       0.02337000 </v>
    <v>       0.99982000       0.66775000       0.02337000 </v>
    <v>       0.33315000       0.66775000       0.02337000 </v>
    <v>       0.66649000       0.66775000       0.02337000 </v>
    <v>       0.20527074       0.06644019       0.60062894 </v>
    <v>       0.20568094       0.30136143       0.59602011 </v>
    <v>       0.24945147       0.93348606       0.61047400 </v>
   </varray>
  </structure>
  <varray name="forces" >
   <v>       0.04492006      -0.01685906       0.40472060 </v>
   <v>      -0.00319606      -0.00089252       0.08063302 </v>
   <v>       0.00692393       0.01678216       0.00453107 </v>
   <v>       0.00142883       0.00994722       0.17201342 </v>
   <v>       0.00257738       0.00925564       0.06162443 </v>
   <v>      -0.01806854      -0.02005718       0.00067383 </v>
   <v>       0.01243729      -0.00003921       0.08395238 </v>
   <v>      -0.00251453       0.01378991       0.05566847 </v>
   <v>       0.00497325      -0.01111362      -0.01700127 </v>
   <v>       0.00374376       0.00630696       0.26928049 </v>
   <v>      -0.01042836      -0.00532650       0.04837061 </v>
   <v>       0.01090255      -0.00942145      -0.01380667 </v>
   <v>      -0.11946985       0.01562409       0.76538756 </v>
   <v>       0.00747559      -0.00655751       0.06881346 </v>
   <v>      -0.06477681      -0.03436995       0.06047976 </v>
   <v>       0.02631569       0.01609424       0.08359281 </v>
   <v>       0.00444890      -0.00484565       0.06635317 </v>
   <v>       0.02920294      -0.02020173       0.01332692 </v>
   <v>      -0.02416397      -0.03385266       0.07942830 </v>
   <v>      -0.00632491      -0.00861250       0.06505918 </v>
   <v>       0.01202723       0.01149568      -0.01382638 </v>
   <v>       0.00530538       0.00732048       0.10906277 </v>
   <v>      -0.00247706       0.00226169       0.05893330 </v>
   <v>      -0.00678430       0.00010695      -0.02302324 </v>
   <v>       0.01772643       0.01788407       0.09641176 </v>
   <v>       0.00974660      -0.00139166       0.06530055 </v>
   <v>      -0.00621749       0.03547897       0.01028258 </v>
   <v>       0.00254084      -0.00630738      -0.14063214 </v>
   <v>      -0.00078559       0.00136055      -0.15043200 </v>
   <v>       0.00061045      -0.00075805      -0.14538960 </v>
   <v>      -0.00014178       0.00076712      -0.14804377 </v>
   <v>       0.00089004       0.00021349      -0.15319531 </v>
   <v>      -0.00253743      -0.00638885      -0.14129518 </v>
   <v>       0.00815714       0.00543229      -0.15039160 </v>
   <v>      -0.00084045       0.00047230      -0.15147028 </v>
   <v>      -0.00721320       0.00258946      -0.14498884 </v>
   <v>       4.26359054      -4.23331956       0.03399281 </v>
   <v>       1.99843640      -2.72461518      -0.65063837 </v>
   <v>      -6.19844087       6.97174694      -0  <energy>
   <  <energy>
   <i name="e_fr_energy">   -198.60317958 </i>
   <i name="e_wo_entrp">   -195.95183779 </i>
   <i name="e_0_energy">     -5.30268359 </  <time name="t  <time name="totalsc"> 1117.05 1117.61</time>
 </calculation>
>
  </varray>
  <energy>
   <i name="e_fr_energy">    <i name="e_fr_ener   <i name="e_wo_entrp">     <i name="e_wo_ent   <i name="e_0_energy">     <i name="e_0_ener  </energy>
  <time name="totalsc"> 1117.20 1117.67</time>
 </calculation>
60</time>
 </calculation>
 <calculation>
  <scstep>
   <time name="dav">   50.30   50.49</time>
   <time name="total">   52.95   53.16</time>
   <energy>
    <i name="alphaZ">    918.22725072 </i>
    <i name="ewald">  25399.23861351 </i>
    <i name="hartreedc"> -57898.90050562 </i>
    <i name="XCdc">   -998.61814820 </i>
    <i name="pawpsdc">  35352.59071166 </i>
    <i name="pawaedc"> -33202.11117045 </i>
    <i name="eentropy">     -5.11188355 </i>
    <i name="bandstr">     71.36470096 </i>
    <i name="atom">  30161.86332653 </i>
    <i name="e_fr_energy">   -201.45710445 </i>
    <i name="e_wo_entrp">   -196.34522089 </i>
    <i name="e_0_energy">   -198.90116267 </i>
   </energy>
  </scstep>
  <scstep>
   <time name="dav">   60.59   60.60</time>
   <time name="total">   63.20   63.21</time>
   <energy>
    <i name="e_fr_energy">   -199.38340129 </i>
    <i name="e_wo_entrp">   -194.27929992 </i>
    <i name="e_0_energy">   -196.83135060 </i>
   </energy>
  </scstep>
  <scstep>
   <time name="dav">   59.53   59.54</time>
   <time name="total">   62.13   62.14</time>
   <energy>
    <i name="e_fr_energy">   -198.38209077 </i>
    <i name="e_wo_entrp">   -192.88954120 </i>
    <i name="e_0_energy">   -195.63581599 </i>
   </energy>
  </scstep>
  <scstep>
   <time name="dav">   54.19   54.20</time>
   <time name="total">   56.79   56.80</time>
   <energy>
    <i name="e_fr_energy">   -199.17534769 </i>
    <i name="e_wo_entrp">   -193.90316432 </i>
    <i name="e_0_energy">   -196.53925601 </i>
   </energy>
  </scstep>
  <scstep>
   <time name="dav">   57.04   57.06</time>
   <time name="total">   59.65   59.66</time>
   <energy>
    <i name="e_fr_energy">   -198.17737904 </i>
    <i name="e_wo_entrp">   -192.76891613 </i>
    <i name="e_0_energy">   -195.47314758 </i>
   </energy>
  </scstep>
  <scstep>
   <time name="dav">   52.30   52.31</time>
   <time name="total">   54.90   54.91</time>
   <energy>
    <i name="e_fr_energy">   -198.17170666 </i>
    <i name="e_wo_entrp">   -192.74982715 </i>
    <i name="e_0_energy">   -195.46076690 </i>
   </energy>
  </scstep>
  <scstep>
   <time name="dav">   52.46   52.47</time>
   <time name="total">   55.06   55.08</time>
   <energy>
    <i name="e_fr_energy">   -198.12834697 </i>
    <i name="e_wo_entrp">   -192.67975378 </i>
    <i name="e_0_energy">   -195.40405038 </i>
   </energy>
  </scstep>
  <scstep>
   <time name="dav">   52.04   52.05</time>
   <time name="total">   54.65   54.66</time>
   <energy>
    <i name="e_fr_energy">   -198.12974983 </i>
    <i name="e_wo_entrp">   -192.70203098 </i>
    <i name="e_0_energy">   -195.41589041 </i>
   </energy>
  </scstep>
  <scstep>
   <time name="dav">   51.70   51.71</time>
   <time name="total">   54.30   54.31</time>
   <energy>
    <i name="e_fr_energy">   -198.11353806 </i>
    <i name="e_wo_entrp">   -192.68064063 </i>
    <i name="e_0_energy">   -195.39708934 </i>
   </energy>
  </scstep>
  <scstep>
   <time name="dav">   52.42   52.43</time>
   <time name="total">   55.03   55.04</time>
   <energy>
    <i name="e_fr_energy">   -198.11276732 </i>
    <i name="e_wo_entrp">   -192.67559795 </i>
    <i name="e_0_energy">   -195.39418263 </i>
   </energy>
  </scstep>
  <scstep>
   <time name="dav">   52.54   52.56</time>
   <time name="total">   55.15   55.16</time>
   <energy>
    <i name="e_fr_energy">   -198.11208088 </i>
    <i name="e_wo_entrp">   -192.67033844 </i>
    <i name="e_0_energy">   -195.39120966 </i>
   </energy>
  </scstep>
  <scstep>
   <time name="dav">   51.84   51.85</time>
   <time name="total">   54.44   54.45</time>
   <energy>
    <i name="e_fr_energy">   -198.11242400 </i>
    <i name="e_wo_entrp">   -192.66838560 </i>
    <i name="e_0_energy">   -195.39040480 </i>
   </energy>
  </scstep>
  <scstep>
   <time name="dav">   51.58   51.59</time>
   <time name="total">   54.18   54.19</time>
   <energy>
    <i name="e_fr_energy">   -198.11223899 </i>
    <i name="e_wo_entrp">   -192.66693362 </i>
    <i name="e_0_energy">   -195.38958631 </i>
   </energy>
  </scstep>
  <scstep>
   <time name="dav">   51.84   51.85</time>
   <time name="total">   54.44   54.45</time>
   <energy>
    <i name="e_fr_energy">   -198.11236467 </i>
    <i name="e_wo_entrp">   -192.66632476 </i>
    <i name="e_0_energy">   -195.38934472 </i>
   </energy>
  </scstep>
  <scstep>
   <time name="dav">   48.88   48.89</time>
   <time name="total">   51.48   51.49</time>
   <energy>
    <i name="e_fr_energy">   -198.11244785 </i>
    <i name="e_wo_entrp">   -192.66602240 </i>
    <i name="e_0_energy">   -195.38923512 </i>
   </energy>
  </scstep>
  <scstep>
   <time name="dav">   44.45   44.46</time>
   <time name="total">   47.05   47.06</time>
   <energy>
    <i name="e_fr_energy">   -198.11259226 </i>
    <i name="e_wo_entrp">   -192.66623655 </i>
    <i name="e_0_energy">   -195.38941440 </i>
   </energy>
  </scstep>
  <scstep>
   <time name="dav">   42.21   42.21</time>
   <time name="total">   44.81   44.82</time>
   <energy>
    <i name="e_fr_energy">   -198.11264817 </i>
    <i name="e_wo_entrp">   -192.66634681 </i>
    <i name="e_0_energy">   -195.38949749 </i>
   </energy>
  </scstep>
  <scstep>
   <time name="dav">   37.22   37.23</time>
   <time name="total">   39.82   39.83</time>
   <energy>
    <i name="e_fr_energy">   -198.11269573 </i>
    <i name="e_wo_entrp">   -192.66636439 </i>
    <i name="e_0_energy">   -195.38953006 </i>
   </energy>
  </scstep>
  <scstep>
   <time name="dav">   36.74   36.75</time>
   <time name="total">   39.35   39.35</time>
   <energy>
    <i name="e_fr_energy">   -198.11272474 </i>
    <i name="e_wo_entrp">   -192.66635283 </i>
    <i name="e_0_energy">   -195.38953878 </i>
   </energy>
  </scstep>
  <scstep>
   <time name="dav">   37.04   37.07</time>
   <time name="total">   39.64   39.67</time>
   <energy>
    <i name="e_fr_energy">   -198.11275486 </i>
    <i name="e_wo_entrp">   -192.66633791 </i>
    <i name="e_0_energy">   -195.38954638 </i>
   </energy>
  </scstep>
  <scstep>
   <time name="dav">   36.36   36.37</time>
   <time name="total">   38.95   38.95</time>
   <energy>
    <i name="e_fr_energy">   -198.11276705 </i>
    <i name="e_wo_entrp">   -192.66634133 </i>
    <i name="e_0_energy">   -195.38955419 </i>
   </energy>
  </scstep>
  <scstep>
   <time name="dav">   35.03   35.03</time>
   <time name="total">   35.23   35.24</time>
   <energy>
    <i name="alphaZ">    918.22725072 </i>
    <i name="ewald">  22960.90061230 </i>
    <i name="hartreedc"> -55508.25589462 </i>
    <i name="XCdc">  -1000.32956745 </i>
    <i   <time name="dav">   35.81   35.81</time>
   <time name="total">   36.01   36.02</time>
   <energy>
    <i name="alphaZ">    918.22725072 </i>
    <i name="ewald">  25399.23861351 </i>
    <i name="hartreedc"> -57937.26859770 </i>
    <i name="XCdc">   -998.12066835 </i>
    <i name="pawpsdc">  35552.26464204 </i>
    <i name="pawaedc"> -33401.78883147 </i>
    <i name="eent  <structure>
   <crystal>
    <varray name="basis" >
     <v>       8.30990028       0.00000000       0.00000000 </v>
     <v>      -4.15495014       7.19658475       0.00000000 </v>
     <v>       0.00000000       0.00000000      16.52350044 </v>
    </varray>
    <i name="volu  <structure>
   <crystal>
    <varray name="basis" >
     <v>       8.30990028       0.00000000       0.00000000 </v>
     <v>      -4.15495014       7.19658475       0.00000000 </v>
     <v>       0.00000000       0.00000000      16.52350044 </v>
    </varray>
    <i name="volume">    988.15327180 </i>
    <varray name="rec_basis" >
     <v>       0.12033839       0.06947740       0.00000000 </v>
     <v>       0.00000000       0.13895480       0.00000000 </v>
     <v>       0.00000000       0.00000000       0.06051986 </v>
    </varray>
   </crystal>
   <varray name="positions" >
    <v>       0.99985901      -0.00106107       0.43611652 </v>
    <v>       0.11093000       0.22330000       0.16024000 </v>
    <v>       0.22190988       0.11170322       0.29602188 </v>
    <v>       0.33241965       0.00256035       0.43672201 </v>
    <v>       0.44426000       0.22330000       0.16024000 </v>
    <v>       0.55538321       0.11197224       0.29695992 </v>
    <v>       0.66620698       0.00083752       0.43410888 </v>
    <v>       0.77760000       0.22330000       0.16024000 </v>
    <v>       0.88839679       0.11193175       0.29683738 </v>
    <v>       1.00046914       0.33522704       0.43537169 </v>
    <v>       0.11093000       0.55664000       0.16024000 </v>
    <v>       0.22197955       0.44587269       0.29626123 </v>
    <v>       0.34670991       0.34079414       0.42783813 </v>
    <v>       0.44426000       0.55664000       0.16024000 </v>
    <v>       0.55562994       0.44546712       0.29694744 </v>
    <v>       0.66844333       0.33500163       0.43402519 </v>
    <v>       0.77760000       0.55664000       0.16024000 </v>
    <v>       0.88891349       0.44525636       0.29740517 </v>
    <v>       0.99910556       0.66699108       0.43421236 </v>
    <v>       0.11093000       0.88997000       0.16024000 </v>
    <v>       0.22220497       0.77886702       0.29695741 </v>
    <v>       0.33372716       0.66860117       0.43406833 </v>
    <v>       0.44426000       0.88997000       0.16024000 </v>
    <v>       0.55536139       0.77896067       0.29696044 </v>
    <v>       0.66754162       0.66858970       0.43415462 </v>
    <v>       0.77760000       0.88997000       0.16024000 </v>
    <v>       0.88867776       0.77884402       0.29686729 </v>
    <v>       0.99982000       0.00108000       0.02337000 </v>
    <v>       0.33315000       0.00108000       0.02337000 </v>
    <v>       0.66649000       0.00108000       0.02337000 </v>
    <v>       0.99982000       0.33441000       0.02337000 </v>
    <v>       0.33315000       0.33441000       0.02337000 </v>
    <v>       0.66649000       0.33441000       0.02337000 </v>
[...]
   <energy>
    <i name="e_fr_energy">   -203.18387401 </i>
    <i name="e_wo_entrp">   -198.22852698 </i>
    <i name="e_0_energy">   -200.70620049 </i>
   </energy>
  </scst   <time name="   <time name="dav">   53.52   53.69</time>
   <time name="total">   56.09   56.26</time>
   <energy>
    <i name="e_fr_energy">   -203.18271986 </i>
    <i name="e_wo_entrp">   -198.23013484 </i>
    <i name="e_0_energy">   -200.70642735 </i>
   </energy>
  </scst   <time name="   <time name="   <time name="dav">   60.42   60.43</time>
   <time name="total">   62.98   62.99</time>
   <energy>
    <i name="e_fr_energy">   -203.39545689 </i>
    <i name="e_wo_entrp">   -198.29234897 </i>
    <i name="e_0_energy">   -200.84390293 </i>
   </e   <time name="dav">   53.05     <time name="dav">   60.27   60.27</time>
   <time name="total">   62.83   62.84</time>
   <energy>
    <i name="e_fr_energy">   -202.83079030 </i>
    <i name="e_wo_entrp">   -197.59974997 </i>
    <i name="e_0_energy">   -200.21527013 </i>
   </e   <time name="dav">   53.05     <time name="dav">   52.07   52.07</time>
   <time name="total">   54.63   54.64</time>
   <energy>
    <i name="e_fr_energy">   -202.83594479 </i>
    <i name="e_wo_entrp">   -197.60079642 </i>
    <i name="e_0_energy">   -200.21837061 </i>
   </e   <time name="dav">   51.67     <time name="dav">   51.92   51.92</time>
   <time name="total">   54.42   54.43</time>
   <energy>
    <i name="e_fr_energy">   -202.83159157 </i>
    <i name="e_wo_entrp">   -197.59826979 </i>
    <i name="e_0_energy">   -200.21493068 </i>
   </e   <time name="dav">   52.59     <time name="dav">   51.74   51.75</time>
   <time name="total">   54.24   54.25</time>
   <energy>
    <i name="e_fr_energy">   -202.83157247 </i>
    <i name="e_wo_entrp">   -197.59666852 </i>
    <i name="e_0_energy">   -200.21412050 </i>
   </e   <time name="dav">   51.78     <time name="dav">   51.08   51.09</time>
   <time name="total">   53.59   53.59</time>
   <energy>
    <i name="e_fr_energy">   -202.83430740 </i>
    <i name="e_wo_entrp">   -197.59960865 </i>
    <i name="e_0_energy">   -200.21695803 </i>
   </e   <time name="dav">   51.90     <time name="dav">   51.96   51.97</time>
   <time name="total">   54.46   54.47</time>
   <energy>
    <i name="e_fr_energy">   -202.83540888 </i>
    <i name="e_wo_entrp">   -197.60022306 </i>
    <i name="e_0_energy">   -200.21781597 </i>
   </e   <time name="dav">   52.41     <time name="dav">   50.93   50.94</time>
   <time name="total">   53.44   53.45</time>
   <energy>
    <i name="e_fr_energy">   -202.83674841 </i>
    <i name="e_wo_entrp">   -197.60156739 </i>
    <i name="e_0_energy">   -200.21915790 </i>
   </e   <time name="dav">   51.78     <time name="dav">   52.57   52.58</time>
   <time name="total">   55.08   55.08</time>
   <energy>
    <i name="e_fr_energy">   -202.83702284 </i>
    <i name="e_wo_entrp">   -197.60181250 </i>
    <i name="e_0_energy">   -200.21941767 </i>
   </e   <time name="dav">   52.49     <time name="dav">   50.23   50.23</time>
   <time name="total">   52.73   52.73</time>
   <energy>
    <i name="e_fr_energy">   -202.83784397 </i>
    <i name="e_wo_entrp">   -197.60272387 </i>
    <i name="e_0_energy">   -200.22028392 </i>
   </e   <time name="dav">   51.22     <time name="dav">   45.53   45.55</time>
   <time name="total">   48.04   48.06</time>
   <energy>
    <i name="e_fr_energy">   -202.83804496 </i>
    <i name="e_wo_entrp">   -197.60296488 </i>
    <i name="e_0_energy">   -200.22050492 </i>
   </e   <time name="dav">   44.85   44.87</time>
   <time name="total">   47.36   47.38</time>
   <energy>
    <i name="e_fr_energy">   -202.74610031 </i>
    <i name="e_wo_entrp">   -197.51743086 </i>
    <i name="e_0_energy">   -200.13176559 </i>
   </energy>
  </scstep>
  <scstep>
   <time name="dav">   42.96   42.96</time>
   <time name="total">   45.47   45.48</time>
   <energy>
    <i name="e_fr_energy">   -202.74626954 </i>
    <i name="e_wo_entrp">   -197.51758903 </i>
    <i name="e_0_energy">   -200.13192928 </i>
   </energy>
  </scstep>
  <scstep>
   <time name="dav">   40.53   40.56</time>
   <time name="total">   43.04   43.08</time>
   <energy>
    <i name="e_fr_energy">   -202.74634590 </i>
    <i name="e_wo_entrp">   -197.51765651 </i>
    <i name="e_0_energy">   -200.13200120 </i>
   </energy>
  </scstep>
  <scstep>
   <time name="dav">   39.70   39.74</time>
   <time name="total">   42.22   42.26</time>
   <energy>
    <i name="e_fr_energy">   -202.74638439 </i>
    <i name="e_wo_entrp">   -197.51769519 </i>
    <i name="e_0_energy">   -200.13203979 </i>
   </energy>
  </scstep>
  <scstep>
   <time name="dav">   36.59   36.59</time>
   <time name="total">   36.79   36.80</time>
   <energy>
    <i name="alphaZ">    918.22725072 </i>
    <i name="ewald">  22353.79653552 </i>
    <i name="hartreedc"> -54938.80477285 </i>
    <i name="XCdc">   -999.20640247 </i>
    <i name="pawpsdc">  35493.63442047 </i>
    <i name="pawaedc"> -33339.75445196 </i>
    <i name="eentropy">     -5.22868849 </i>
    <i name="bandstr">    152.72639338 </i>
    <i name="atom">  30161.86332653 </i>
    <i name="e_fr_energy">   -202.74638915 </i>
    <i name="e_wo_entrp">   -197.51770066 </i>
    <i name="e_0_energy">   -200.13204491 </i>
   </energy>
  </scstep>
  <structure>
   <crystal>
    <varray name="basis" >
     <v>       8.30990028       0.00000000       0.00000000 </v>
     <v>      -4.15495014       7.19658475       0.00000000 </v>
     <v>       0.00000000       0.00000000      16.52350044 </v>
    </varray>
    <i name="volume">    988.15327180 </i>
    <varray name="rec_basis" >
     <v>       0.12033839       0.06947740       0.00000000 </v>
     <v>       0.00000000       0.13895480       0.00000000 </v>
     <v>       0.00000000       0.00000000       0.06051986 </v>
    </varray>
   </crystal>
   <varray name="positions" >
    <v>       0.99838336       0.00023454       0.43503147 </v>
    <v>       0.11093000       0.22330000       0.16024000 </v>
    <v>       0.22191358       0.11215691       0.29743514 </v>
    <v>       0.33296979       0.00054314       0.43537727 </v>
    <v>       0.44426000       0.22330000       0.16024000 </v>
    <v>       0.55523327       0.11218308       0.29781924 </v>
    <v>       0.66617569       0.00096706       0.43631634 </v>
    <v>       0.77760000       0.22330000       0.16024000 </v>
    <v>       0.88830309       0.11224228       0.29750683 </v>
    <v>       0.99890853       0.33415356       0.43596971 </v>
    <v>       0.11093000       0.55664000       0.16024000 </v>
    <v>       0.22169438       0.44556200       0.29751560 </v>
    <v>       0.33301621       0.33502014       0.43541624 </v>
    <v>       0.44426000       0.55664000       0.16024000 </v>
    <v>       0.55512026       0.44550809       0.29783067 </v>
    <v>       0.66620558       0.33439520       0.43633684 </v>
    <v>       0.77760000       0.55664000       0.16024000 </v>
    <v>       0.88841124       0.44546525       0.29781786 </v>
    <v>       0.99903424       0.66733662       0.43608996 </v>
    <v>       0.11093000       0.88997000       0.16024000 </v>
    <v>       0.22165990       0.77856098       0.29754178 </v>
    <v>       0.33263483       0.66764559       0.43595202 </v>
    <v>       0.44426000       0.88997000       0.16024000 </v>
    <v>       0.55517366       0.77878568       0.29786711 </v>
    <v>       0.66617592       0.66767793       0.43635433 </v>
    <v>       0.77760  <energy>
   <i name="e_fr_energy">   -203.18269843 </i>
   <i name="e_wo_entrp">   -200.70611558 </i>
   <i name="e_0_energy">     -4.95316570 </i>
  </energy>
  <time name="totalsc"> 1026.14 1029.37</time>
 </calculation>
7000 </v>
    <v>       0.66649000       0.00108000      <energy>
   <i name="e_fr_energy">   -203.43999995 </i>
   <i name="e_wo_entrp">   -200.85644148 </i>
   <i name="e_0_energy">     -5.16711695 </i>
  </energy>
  <time name="totalsc"> 1028.90 1029.36</time>
 </calculation>
0.99982000       0.66775000       0.02337000 </v>
    <v>       0.33315000       0.66775000       0.02337000 </v>
    <v>       0.66649000       0.66775000       0.02337000 </v>
    <v>       0.22077877       0.11278211       0.61144906 </v>
    <v>       0.20877041       0.23875594       0.60944444 </v>
    <v>       0.23642732       0.95957752       0.61741310 </v>
   </varray>
  </structure>
  <varray name="forces" >
   <v>      -0.00330169      -0.00212389      -0.00860840 </v>
   <v>      -0.00402286      -0.00041882       0.10212788 </v>
   <v>       0.00203675      -0.00245798       0.00497960 </v>
   <v>      -0.01821449       0.00169469       0.09339878 </v>
   <v>       0.00805042       0.00575368       0.09961557 </v>
   <v>      -0.00537453      -0.00333042       0.00566053 </v>
   <v>       0.00791318       0.00142821       0.00183456 </v>
   <v>      -0.01103931       0.00546094       0.11414537 </v>
   <v>       0.00289206      -0.00181669       0.00672231 </v>
   <v>       0.00515480      -0.00184825      -0.00099394 </v>
   <v>      -0.00853102      -0.00302153       0.09548323 </v>
   <v>      -0.00198718       0.00139022       0.00393437 </v>
   <v>       0.00779138       0.02103586      -0.08551824 </v>
   <v>       0.00345551       0.00170212       0.11105278 </v>
   <v>       0.00690343       0.00324041      -0.00279636 </v>
   <v>      -0.00256441       0.00278054       0.00357107 </v>
   <v>      -0.00089366      -0.01038657       0.10796742 </v>
   <v>      -0.00344276       0.00419581       0.00164011 </v>
   <v>      -0.00131246      -0.00228850       0.00909213 </v>
   <v>      -0.00277414      -0.00480779       0.10076411 </v>
   <v>      -0.00127723       0.00292417      -0.00028174 </v>
   <v>       0.00584394      -0.00980438       0.00283333 </v>
   <v>       0.00311404       0.00347286       0.11192098 </v>
   <v>       0.00027741      -0.00099812       0.00140388 </v>
   <v>      -0.00345198      -0.00467110       0.00425814 </v>
   <v>      -0.00556678      -0.00384808       0.11194090 </v>
   <v>       0.00039637      -0.00523524      -0.00267009 </v>
   <v>       0.00294346      -0.00632674      -0.13631363 </v>
   <v>      -0.00228843       0.00095976      -0.14547395 </v>
   <v>       0.00163551      -0.00030169      -0.14243859 </v>
   <v>       0.00013294       0.00092070      -0.14405271 </v>
   <v>      -0.00090644      -0.00010305      -0.14311894 </v>
   <v>       0.00035059       0.00042984      -0.14114877 </v>
   <v>       0.00003477       0.00132192      -0.14780743 </v>
   <v>      -0.00119235      -0.00072289      -0.14578810 </v>
   <v>      -0.00033671       0.00031241      -0.14282934 </v>
   <v>       9.55894729     -13.81166582       0.99259139 </v>
   <v>      -4.79559503       6.98029812      -0.05391770 </v>
   <v>      -4.74380039       6.83685528      -0.643  <energy>
   <i name="e_fr_energy">   -202.83821795 </i>
   <i name="e_wo_entrp">   -200.22068581 </i>
   <i name="e_0_energy">     -5.23506427 </i>
  </energy>
  <time name="totalsc"> 1029.18 1029.35</time>
 </calculation>
3663730 </v>
  </varray>
  <energy>
   <i name="e_fr_energy">   -202.74638915 </i>
   <i name="e_wo_entrp">   -200.13204491 </i>
   <i name="e_0_energy">     -5.22868849 </i>
  </energy>
 <calculation>
  <scstep>
   <time name="dav">   50.42   50.43</time>
   <time name="total">   53.04   53.05</time>
   <energy>
    <   <time name="   <time name="total">   53.18   53.35</time>
   <energy>
    <i name="alphaZ">    918.22725072 </i>
    <i name="ewald">  24231.56201465 </i>
    <i name="hartreedc"> -56769.82755060 </i>
    <i name="XCdc">   -998.43104202 </i>
    <i name="pawpsdc">  35550.99495767 </i>
    <i name="pawaedc"> -33400.10836580 </i>
    <i name="eentropy">     -4.95283545 </i>
    <i name="bandstr">    107.48815377 </i>
    <i name="atom">  30161.86332653 </i>
    <i name="e_fr_energy">   -203.18409053 </i>
    <i name="e_wo_entrp">   -198.23125509 </i>
    <   <time name="dav">   50.23   50.24</time>
   <time name="total">   52.83   52.83</time>
   <energy>
    <   <time name="   <time name="total">   54.11   54.35</time>
   <energy>
    <i name="e_fr_energy">   -203.18423182 </i>
    <i name="e_wo_entrp">   -198.23116786 </i>
    <   <time name="dav">   53.86   53.88</time>
   <time name="total">   56.45   56.47</time>
   <energy>
    <   <time name="   <time name="total">   56.29   56.55</time>
   <energy>
    <i name="e_fr_energy">   -203.18425038 </i>
    <i name="e_wo_entrp">   -198.23214117 </i>
    <   <time name="dav">   60.64   60.65</time>
   <time name="total">   63.21   63.22</time>
   <energy>
    <i name="e_fr_energy">   -203.37042413 </i>
    <i name="e_wo_entrp">   -198.26437292 </i>
    <i name="e_0_energy">   -200.81739852 </i>
   </energy>
  </scstep>
  <scstep>
   <time name="dav">   60.29   60.30</time>
   <time name="total">   62.85   62.86</time>
   <energy>
    <i name="e_fr_energy">   -202.81554381 </i>
    <i name="e_wo_entrp">   -197.58572049 </i>
    <i name="e_0_energy">   -200.20063215 </i>
   </energy>
  </scstep>
  <scstep>
   <time name="dav">   52.92   52.94</time>
   <time name="total">   55.50   55.51</time>
   <energy>
    <i name="e_fr_energy">   -202.81825446 </i>
    <i name="e_wo_entrp">   -197.58305715 </i>
    <i name="e_0_energy">   -200.20065580 </i>
   </energy>
  </scstep>
  <scstep>
   <time name="dav">   52.21   52.22</time>
   <time name="total">   54.72   54.72</time>
   <energy>
    <i name="e_fr_energy">   -202.81378052 </i>
    <i name="e_wo_entrp">   -197.58022476 </i>
    <i name="e_0_energy">   -200.19700264 </i>
   </energy>
  </scstep>
  <scstep>
rgy">   -200.16466551 </i>
   </energy>
  </scstep>
  <scstep>
 name="pawpsdc">  35497.14406967 </i>
    <i name="pawaedc"> -33343.96902808 </i>
    <i name="eentropy">     -5.1  <structure>
   <crystal>
    <varray name="basis" >
     <v>       8.30990028       0.00000000       0.00000000 </v>
     <v>      -4.15495014       7.19658475       0.00000000 </v>
     <v>       0.00000000       0.00000000      16.52350044 </v>
    </varray>
    <structure>
   <crystal>
    <varray name="basis" >
     <v>       8.30990028       0.00000000       0.00000000 </v>
     <v>      -4.15495014       7.19658475       0.00000000 </v>
     <v>       0.00000000       0.00000000      16.52350044 </v>
    </varray>
    <i name="volume">    988.15327180 </i>
    <varray name="rec_basis" >
     <v>       0.12033839       0.06947740       0.00000000 </v>
     <v>       0.00000000       0.13895480       0.00000000 </v>
     <v>       0.00000000       0.00000000       0.06051986 </v>
    </varray>
   </crystal>
   <varray name="positions" >
    <v>       1.00758821       0.00276086       0.44057689 </v>
    <v>       0.11093000       0.22330000       0.16024000 </v>
    <v>       0.22325996       0.11254648       0.29731963 </v>
    <v>       0.34210790       0.00686537       0.43658117 </v>
    <v>       0.44426000       0.22330000       0.16024000 </v>
    <v>       0.55727626       0.11340876       0.29794411 </v>
    <v>       0.67342619       0.00508907       0.43612442 </v>
    <v>       0.77760000       0.22330000       0.16024000 </v>
    <v>       0.89121391       0.11286083       0.29812161 </v>
    <v>       1.00358242       0.33840990       0.43472902 </v>
    <v>       0.11093000       0.55664000       0.16024000 </v>
    <v>       0.22418866       0.44734077       0.29701876 </v>
    <v>       0.34259278       0.34590578       0.43499560 </v>
    <v>       0.44426000       0.55664000       0.16024000 </v>
    <v>       0.55581715       0.44665121       0.29861137 </v>
    <v>       0.67463077       0.33952515       0.43552898 </v>
    <v>       0.77760000       0.55664000       0.16024000 </v>
    <v>       0.89059243       0.44694165       0.29716284 </v>
    <v>       1.00451480       0.66920086       0.43567840 </v>
    <v>       0.11093000       0.88997000       0.16024000 </v>
    <v>       0.22396873       0.78036677       0.29713098 </v>
    <v>       0.33934232       0.67414193       0.43488263 </v>
    <v>       0.44426000       0.88997000       0.16024000 </v>
    <v>       0.55795459       0.78075261       0.29751409 </v>
    <v>       0.67457499       0.67445210       0.43607531 </v>
    <v>       0.77760000       0.88997000       0.16024000 </v>
    <v>       0.89071902       0.78026248       0.29780817 </v>
    <v>       0.99982000       0.00108000       0.02337000 </v>
    <v>       0.33315000       0.00108000       0.02337000 </v>
    <v>       0.66649000       0.00108000       0.02337000 </v>
    <v>       0.99982000       0.33441000       0.02337000 </v>
    <v>       0.33315000       0.33441000       0.02337000 </v>
    <v>       0.66649000       0.33441000       0.02337000 </v>
    <v>       0.99982000       0.66775000       0.02337000 </v>
    <v>       0.33315000       0.66775000       0.02337000 </v>
    <v>       0.66649000       0.66775000       0.02337000 </v>
    <v>       0.18270833       0.06558698       0.54423779 </v>
    <v>       0.24664113       0.23767217       0.55672193 </v>
    <v>       0.16140290       0.93200477       0.58406541 </v>
   </varray>
  </structure>
  <varray name="forces" >
   <v>      -0.01105860       0.01889431      -0.02930256 </v>
   <v>      -0.00675886      -0.00541955       0.12077221 </v>
   <v>       0.00113260       0.00357772      -0.00247176 </v>
   <v>      -0.00646337       0.00113770      -0.01286277 </v>
   <v>       0.02040118       0.02798437       0.11915501 </v>
   <v>       0.00371557       0.00545339      -0.00654932 </v>
   <v>      -0.00769448       0.00848221       0.00054826 </v>
   <v>       0.00145533       0.00804667       0.08673665 </v>
   <v>      -0.00136309       0.00581006      -0.00267624 </v>
   <v>       0.00417271       0.00527919       0.00335036 </v>
   <v>      -0.01228840       0.00323369       0.04382410 </v>
   <v>       0.00407106       0.00252170       0.00823745 </v>
   <v>      -0.00623741      -0.01804920       0.02149234 </v>
   <v>       0.03777817      -0.00052312       0.11451798 </v>
   <v>       0.00154682       0.00295532      -0.00124921 </v>
   <v>      -0.00457997       0.00392422       0.00099695 </v>
   <v>      -0.01217331      -0.01069418       0.09177354 </v>
   <v>       0.00079273       0.00569242       0.00309270 </v>
   <v>      -0.00078330       0.00770370       0.00264663 </v>
   <v>      -0.00741718      -0.01795737       0.08742861 </v>
   <v>       0.00171879       0.00280927       0.00203426 </v>
   <v>      -0.00009702       0.00225540       0.00592835 </v>
   <v>       0.01362398       0.02456667       0.09402742 </v>
   <v>       0.00058310       0.00334967       0.00092277 </v>
   <v>      -0.00482724       0.00303464      -0.00332486 </v>
   <v>       0.02212975       0.01489850       0.12585775 </v>
   <v>       0.00034023       0.00169120      -0.00355473 </v>
   <v>       0.00246168      -0.00683499      -0.13334506 </v>
   <v>      -0.00221563      -0.00316811      -0.15101587 </v>
   <v>      -0.00292771      -0.00287404      -0.14296358 </v>
   <v>       0.00334333       0.00022001      -0.13918496 </v>
   <v>      -0.00084582       0.00133807      -0.15389857 </v>
   <v>      -0.00716475      -0.00520266      -0.12787362 </v>
   <v>       0.01177121       0.01863861      -0.15889259 </v>
   <v>      -0.00234445       0.00160680      -0.15355467 </v>
   <v>      -0.00893675      -0.00227050      -0.14196659 </v>
   <v>      -0.06511993       0.15572462       0.12844722 </v>
   <v>       0.14828913      -0.08502212       0.15404858 </v>
   <v>      -0.10803008      -0.18281428       0.14884779 </v>
  </varray>
  <varray name="stress" >
   <v>     -17.00988870       0.33344747      -0.54743425 </v>
   <v>       0.33344758     -15.85940046      -1.27757850 </v>
   <v>      -0.54743404      -1.27757849      -1.00307915 </v>
  </varray>
