  65  65   0   0
  0.2920240E+02  0.9294800E-09  0.9294800E-09  0.2197110E-08  0.0000000E+00
  1.000000000000000E-004
  CAR 
 PBE-grap                                
      8.88535910    -63.93527104  301      1.09168380      1.00000000
    -63.935  0.0000E+00  0.0000E+00
    -63.693  0.0000E+00  0.0000E+00
    -63.450  0.0000E+00  0.0000E+00
    -63.207  0.0000E+00  0.0000E+00
    -62.964  0.0000E+00  0.0000E+00
    -62.722  0.0000E+00  0.0000E+00
    -62.479  0.0000E+00  0.0000E+00
    -62.236  0.0000E+00  0.0000E+00
    -61.993  0.0000E+00  0.0000E+00
    -61.751  0.0000E+00  0.0000E+00
    -61.508  0.0000E+00  0.0000E+00
    -61.265  0.0000E+00  0.0000E+00
    -61.022  0.0000E+00  0.0000E+00
    -60.780  0.1582E-05  0.3839E-06
    -60.537  0.3318E+00  0.8055E-01
    -60.294  0.1651E+01  0.4813E+00
    -60.052  0.2407E+01  0.1065E+01
    -59.809  0.8840E+00  0.1280E+01
    -59.566  0.0000E+00  0.1280E+01
    -59.323  0.0000E+00  0.1280E+01
    -59.081  0.0000E+00  0.1280E+01
    -58.838  0.0000E+00  0.1280E+01
    -58.595  0.0000E+00  0.1280E+01
    -58.352  0.0000E+00  0.1280E+01
    -58.110  0.0000E+00  0.1280E+01
    -57.867  0.0000E+00  0.1280E+01
    -57.624  0.0000E+00  0.1280E+01
    -57.381  0.0000E+00  0.1280E+01
    -57.139  0.0000E+00  0.1280E+01
    -56.896  0.0000E+00  0.1280E+01
    -56.653  0.0000E+00  0.1280E+01
    -56.410  0.0000E+00  0.1280E+01
    -56.168  0.0000E+00  0.1280E+01
    -55.925  0.0000E+00  0.1280E+01
    -55.682  0.0000E+00  0.1280E+01
    -55.440  0.0000E+00  0.1280E+01
    -55.197  0.0000E+00  0.1280E+01
    -54.954  0.0000E+00  0.1280E+01
    -54.711  0.0000E+00  0.1280E+01
    -54.469  0.0000E+00  0.1280E+01
    -54.226  0.0000E+00  0.1280E+01
    -53.983  0.0000E+00  0.1280E+01
    -53.740  0.0000E+00  0.1280E+01
    -53.498  0.0000E+00  0.1280E+01
    -53.255  0.0000E+00  0.1280E+01
    -53.012  0.0000E+00  0.1280E+01
    -52.769  0.0000E+00  0.1280E+01
    -52.527  0.0000E+00  0.1280E+01
    -52.284  0.0000E+00  0.1280E+01
    -52.041  0.0000E+00  0.1280E+01
    -51.798  0.0000E+00  0.1280E+01
    -51.556  0.0000E+00  0.1280E+01
    -51.313  0.0000E+00  0.1280E+01
    -51.070  0.0000E+00  0.1280E+01
    -50.828  0.0000E+00  0.1280E+01
    -50.585  0.0000E+00  0.1280E+01
    -50.342  0.0000E+00  0.1280E+01
    -50.099  0.0000E+00  0.1280E+01
    -49.857  0.0000E+00  0.1280E+01
    -49.614  0.0000E+00  0.1280E+01
    -49.371  0.0000E+00  0.1280E+01
    -49.128  0.0000E+00  0.1280E+01
    -48.886  0.0000E+00  0.1280E+01
    -48.643  0.0000E+00  0.1280E+01
    -48.400  0.0000E+00  0.1280E+01
    -48.157  0.0000E+00  0.1280E+01
    -47.915  0.0000E+00  0.1280E+01
    -47.672  0.0000E+00  0.1280E+01
    -47.429  0.0000E+00  0.1280E+01
    -47.187  0.0000E+00  0.1280E+01
    -46.944  0.0000E+00  0.1280E+01
    -46.701  0.0000E+00  0.1280E+01
    -46.458  0.0000E+00  0.1280E+01
    -46.216  0.0000E+00  0.1280E+01
    -45.973  0.0000E+00  0.1280E+01
    -45.730  0.0000E+00  0.1280E+01
    -45.487  0.0000E+00  0.1280E+01
    -45.245  0.0000E+00  0.1280E+01
    -45.002  0.0000E+00  0.1280E+01
    -44.759  0.0000E+00  0.1280E+01
    -44.516  0.0000E+00  0.1280E+01
    -44.274  0.0000E+00  0.1280E+01
    -44.031  0.0000E+00  0.1280E+01
    -43.788  0.0000E+00  0.1280E+01
    -43.545  0.0000E+00  0.1280E+01
    -43.303  0.0000E+00  0.1280E+01
    -43.060  0.0000E+00  0.1280E+01
    -42.817  0.0000E+00  0.1280E+01
    -42.575  0.0000E+00  0.1280E+01
    -42.332  0.0000E+00  0.1280E+01
    -42.089  0.0000E+00  0.1280E+01
    -41.846  0.0000E+00  0.1280E+01
    -41.604  0.0000E+00  0.1280E+01
    -41.361  0.0000E+00  0.1280E+01
    -41.118  0.0000E+00  0.1280E+01
    -40.875  0.0000E+00  0.1280E+01
    -40.633  0.0000E+00  0.1280E+01
    -40.390  0.0000E+00  0.1280E+01
    -40.147  0.0000E+00  0.1280E+01
    -39.904  0.0000E+00  0.1280E+01
    -39.662  0.0000E+00  0.1280E+01
    -39.419  0.0000E+00  0.1280E+01
    -39.176  0.0000E+00  0.1280E+01
    -38.934  0.0000E+00  0.1280E+01
    -38.691  0.0000E+00  0.1280E+01
    -38.448  0.0000E+00  0.1280E+01
    -38.205  0.0000E+00  0.1280E+01
    -37.963  0.0000E+00  0.1280E+01
    -37.720  0.0000E+00  0.1280E+01
    -37.477  0.0000E+00  0.1280E+01
    -37.234  0.0000E+00  0.1280E+01
    -36.992  0.0000E+00  0.1280E+01
    -36.749  0.0000E+00  0.1280E+01
    -36.506  0.0000E+00  0.1280E+01
    -36.263  0.0000E+00  0.1280E+01
    -36.021  0.0000E+00  0.1280E+01
    -35.778  0.0000E+00  0.1280E+01
    -35.535  0.0000E+00  0.1280E+01
    -35.292  0.0000E+00  0.1280E+01
    -35.050  0.0000E+00  0.1280E+01
    -34.807  0.0000E+00  0.1280E+01
    -34.564  0.0000E+00  0.1280E+01
    -34.322  0.0000E+00  0.1280E+01
    -34.079  0.0000E+00  0.1280E+01
    -33.836  0.0000E+00  0.1280E+01
    -33.593  0.0000E+00  0.1280E+01
    -33.351  0.0000E+00  0.1280E+01
    -33.108  0.0000E+00  0.1280E+01
    -32.865  0.0000E+00  0.1280E+01
    -32.622  0.0000E+00  0.1280E+01
    -32.380  0.0000E+00  0.1280E+01
    -32.137  0.0000E+00  0.1280E+01
    -31.894  0.0000E+00  0.1280E+01
    -31.651  0.0000E+00  0.1280E+01
    -31.409  0.0000E+00  0.1280E+01
    -31.166  0.0000E+00  0.1280E+01
    -30.923  0.0000E+00  0.1280E+01
    -30.681  0.0000E+00  0.1280E+01
    -30.438  0.0000E+00  0.1280E+01
    -30.195  0.0000E+00  0.1280E+01
    -29.952  0.0000E+00  0.1280E+01
    -29.710  0.2927E-11  0.1280E+01
    -29.467  0.1526E+00  0.1317E+01
    -29.224  0.2247E+01  0.1862E+01
    -28.981  0.3881E+01  0.2805E+01
    -28.739  0.4832E+01  0.3978E+01
    -28.496  0.4696E+01  0.5117E+01
    -28.253  0.1059E-01  0.5120E+01
    -28.010  0.0000E+00  0.5120E+01
    -27.768  0.0000E+00  0.5120E+01
    -27.525  0.0000E+00  0.5120E+01
    -27.282  0.0000E+00  0.5120E+01
    -27.039  0.0000E+00  0.5120E+01
    -26.797  0.0000E+00  0.5120E+01
    -26.554  0.0000E+00  0.5120E+01
    -26.311  0.0000E+00  0.5120E+01
    -26.069  0.0000E+00  0.5120E+01
    -25.826  0.0000E+00  0.5120E+01
    -25.583  0.0000E+00  0.5120E+01
    -25.340  0.0000E+00  0.5120E+01
    -25.098  0.0000E+00  0.5120E+01
    -24.855  0.0000E+00  0.5120E+01
    -24.612  0.0000E+00  0.5120E+01
    -24.369  0.0000E+00  0.5120E+01
    -24.127  0.0000E+00  0.5120E+01
    -23.884  0.0000E+00  0.5120E+01
    -23.641  0.0000E+00  0.5120E+01
    -23.398  0.0000E+00  0.5120E+01
    -23.156  0.0000E+00  0.5120E+01
    -22.913  0.0000E+00  0.5120E+01
    -22.670  0.0000E+00  0.5120E+01
    -22.428  0.0000E+00  0.5120E+01
    -22.185  0.0000E+00  0.5120E+01
    -21.942  0.0000E+00  0.5120E+01
    -21.699  0.0000E+00  0.5120E+01
    -21.457  0.1344E-07  0.5120E+01
    -21.214  0.1563E+00  0.5158E+01
    -20.971  0.8521E-02  0.5160E+01
    -20.728  0.0000E+00  0.5160E+01
    -20.486  0.0000E+00  0.5160E+01
    -20.243  0.0000E+00  0.5160E+01
    -20.000  0.0000E+00  0.5160E+01
    -19.757  0.0000E+00  0.5160E+01
    -19.515  0.0000E+00  0.5160E+01
    -19.272  0.0000E+00  0.5160E+01
    -19.029  0.0000E+00  0.5160E+01
    -18.786  0.0000E+00  0.5160E+01
    -18.544  0.0000E+00  0.5160E+01
    -18.301  0.0000E+00  0.5160E+01
    -18.058  0.0000E+00  0.5160E+01
    -17.816  0.0000E+00  0.5160E+01
    -17.573  0.0000E+00  0.5160E+01
    -17.330  0.0000E+00  0.5160E+01
    -17.087  0.0000E+00  0.5160E+01
    -16.845  0.0000E+00  0.5160E+01
    -16.602  0.0000E+00  0.5160E+01
    -16.359  0.0000E+00  0.5160E+01
    -16.116  0.0000E+00  0.5160E+01
    -15.874  0.0000E+00  0.5160E+01
    -15.631  0.0000E+00  0.5160E+01
    -15.388  0.0000E+00  0.5160E+01
    -15.145  0.0000E+00  0.5160E+01
    -14.903  0.0000E+00  0.5160E+01
    -14.660  0.0000E+00  0.5160E+01
    -14.417  0.0000E+00  0.5160E+01
    -14.175  0.0000E+00  0.5160E+01
    -13.932  0.0000E+00  0.5160E+01
    -13.689  0.0000E+00  0.5160E+01
    -13.446  0.0000E+00  0.5160E+01
    -13.204  0.0000E+00  0.5160E+01
    -12.961  0.0000E+00  0.5160E+01
    -12.718  0.0000E+00  0.5160E+01
    -12.475  0.0000E+00  0.5160E+01
    -12.233  0.0000E+00  0.5160E+01
    -11.990  0.0000E+00  0.5160E+01
    -11.747  0.0000E+00  0.5160E+01
    -11.504  0.0000E+00  0.5160E+01
    -11.262  0.0000E+00  0.5160E+01
    -11.019  0.1065E-10  0.5160E+01
    -10.776  0.1433E-01  0.5163E+01
    -10.533  0.7112E-01  0.5181E+01
    -10.291  0.7806E-01  0.5200E+01
    -10.048  0.8127E-02  0.5202E+01
     -9.805  0.1379E+00  0.5235E+01
     -9.563  0.1654E+00  0.5275E+01
     -9.320  0.1247E+00  0.5306E+01
     -9.077  0.3406E+00  0.5388E+01
     -8.834  0.6754E+00  0.5552E+01
     -8.592  0.5300E+00  0.5681E+01
     -8.349  0.8733E+00  0.5893E+01
     -8.106  0.6881E+00  0.6060E+01
     -7.863  0.7480E+00  0.6241E+01
     -7.621  0.4838E+00  0.6359E+01
     -7.378  0.2516E+00  0.6420E+01
     -7.135  0.8271E-01  0.6440E+01
     -6.892  0.2264E-05  0.6440E+01
     -6.650  0.0000E+00  0.6440E+01
     -6.407  0.0000E+00  0.6440E+01
     -6.164  0.0000E+00  0.6440E+01
     -5.922  0.0000E+00  0.6440E+01
     -5.679  0.0000E+00  0.6440E+01
     -5.436  0.4546E-04  0.6440E+01
     -5.193  0.3127E+00  0.6516E+01
     -4.951  0.1681E-01  0.6520E+01
     -4.708  0.8139E-01  0.6540E+01
     -4.465  0.1225E+00  0.6569E+01
     -4.222  0.7152E-01  0.6587E+01
     -3.980  0.3128E+00  0.6663E+01
     -3.737  0.1046E+00  0.6688E+01
     -3.494  0.3132E+00  0.6764E+01
     -3.251  0.5456E+00  0.6897E+01
     -3.009  0.5728E+00  0.7036E+01
     -2.766  0.3911E+00  0.7131E+01
     -2.523  0.6078E+00  0.7278E+01
     -2.280  0.5742E+00  0.7418E+01
     -2.038  0.3744E+00  0.7508E+01
     -1.795  0.4784E+00  0.7625E+01
     -1.552  0.1149E+01  0.7903E+01
     -1.310  0.1890E+01  0.8362E+01
     -1.067  0.1308E+01  0.8680E+01
     -0.824  0.1780E+01  0.9112E+01
     -0.581  0.1442E+01  0.9462E+01
     -0.339  0.7555E+00  0.9645E+01
     -0.096  0.9314E+00  0.9871E+01
      0.147  0.7863E+00  0.1006E+02
      0.390  0.3990E+00  0.1016E+02
      0.632  0.2972E+00  0.1023E+02
      0.875  0.3041E+00  0.1030E+02
      1.118  0.2701E+00  0.1037E+02
      1.361  0.1382E+00  0.1040E+02
      1.603  0.1302E+00  0.1044E+02
      1.846  0.4511E+00  0.1055E+02
      2.089  0.2575E+00  0.1061E+02
      2.332  0.2275E+00  0.1066E+02
      2.574  0.1896E+00  0.1071E+02
      2.817  0.3874E+00  0.1080E+02
      3.060  0.5385E+00  0.1093E+02
      3.302  0.9547E+00  0.1117E+02
      3.545  0.7157E+00  0.1134E+02
      3.788  0.6511E+00  0.1150E+02
      4.031  0.3894E+00  0.1159E+02
      4.273  0.5602E+00  0.1173E+02
      4.516  0.6579E+00  0.1189E+02
      4.759  0.6071E+00  0.1203E+02
      5.002  0.9132E+00  0.1226E+02
      5.244  0.1026E+01  0.1251E+02
      5.487  0.1120E+01  0.1278E+02
      5.730  0.9331E-01  0.1280E+02
      5.973  0.1143E-06  0.1280E+02
      6.215  0.0000E+00  0.1280E+02
      6.458  0.0000E+00  0.1280E+02
      6.701  0.0000E+00  0.1280E+02
      6.943  0.0000E+00  0.1280E+02
      7.186  0.0000E+00  0.1280E+02
      7.429  0.0000E+00  0.1280E+02
      7.672  0.0000E+00  0.1280E+02
      7.914  0.0000E+00  0.1280E+02
      8.157  0.0000E+00  0.1280E+02
      8.400  0.0000E+00  0.1280E+02
      8.643  0.0000E+00  0.1280E+02
      8.885  0.0000E+00  0.1280E+02
