 vasp.5.4.4.18Apr17-6-g9f103f2a35 (build Aug 09 2024 17:42:55) complex          
  
 executed on             LinuxIFC date 2025.12.26  00:41:42
 running on   64 total cores
 each image running on   16 cores
 distrk:  each k-point on   16 cores,    1 groups
 distr:  one band on NCORES_PER_BAND=   1 cores,   16 groups


--------------------------------------------------------------------------------------------------------


 INCAR:
 POTCAR:    PAW_PBE Hf_sv 10Jan2008 GW suitable   
 POTCAR:    PAW_PBE C 08Apr2002                   
 POTCAR:    PAW_PBE O 08Apr2002                   

 ----------------------------------------------------------------------------- 
|                                                                             |
|           W    W    AA    RRRRR   N    N  II  N    N   GGGG   !!!           |
|           W    W   A  A   R    R  NN   N  II  NN   N  G    G  !!!           |
|           W    W  A    A  R    R  N N  N  II  N N  N  G       !!!           |
|           W WW W  AAAAAA  RRRRR   N  N N  II  N  N N  G  GGG   !            |
|           WW  WW  A    A  R   R   N   NN  II  N   NN  G    G                |
|           W    W  A    A  R    R  N    N  II  N    N   GGGG   !!!           |
|                                                                             |
|      For optimal performance we recommend to set                            |
|        NCORE= 4 - approx SQRT( number of cores)                             |
|      NCORE specifies how many cores store one orbital (NPAR=cpu/NCORE).     |
|      This setting can  greatly improve the performance of VASP for DFT.     |
|      The default,   NCORE=1            might be grossly inefficient         |
|      on modern multi-core architectures or massively parallel machines.     |
|      Do your own testing !!!!                                               |
|      Unfortunately you need to use the default for GW and RPA calculations. |
|      (for HF NCORE is supported but not extensively tested yet)             |
|                                                                             |
 ----------------------------------------------------------------------------- 

 POTCAR:    PAW_PBE Hf_sv 10Jan2008 GW suitable   
  local pseudopotential read in
  partial core-charges read in
  partial kinetic energy density read in
  atomic valenz-charges read in
  non local Contribution for L=           0  read in
    real space projection operators read in
  non local Contribution for L=           0  read in
    real space projection operators read in
  non local Contribution for L=           1  read in
    real space projection operators read in
  non local Contribution for L=           1  read in
    real space projection operators read in
  non local Contribution for L=           2  read in
    real space projection operators read in
  non local Contribution for L=           2  read in
    real space projection operators read in
    PAW grid and wavefunctions read in
 
   number of l-projection  operators is LMAX  =           6
   number of lm-projection operators is LMMAX =          18
 
 POTCAR:    PAW_PBE C 08Apr2002                   
  local pseudopotential read in
  partial core-charges read in
  partial kinetic energy density read in
  atomic valenz-charges read in
  non local Contribution for L=           0  read in
    real space projection operators read in
  non local Contribution for L=           0  read in
    real space projection operators read in
  non local Contribution for L=           1  read in
    real space projection operators read in
  non local Contribution for L=           1  read in
    real space projection operators read in
    PAW grid and wavefunctions read in
 
   number of l-projection  operators is LMAX  =           4
   number of lm-projection operators is LMMAX =           8
 
 POTCAR:    PAW_PBE O 08Apr2002                   
  local pseudopotential read in
  partial core-charges read in
  partial kinetic energy density read in
  kinetic energy density of atom read in
  atomic valenz-charges read in
  non local Contribution for L=           0  read in
    real space projection operators read in
  non local Contribution for L=           0  read in
    real space projection operators read in
  non local Contribution for L=           1  read in
    real space projection operators read in
  non local Contribution for L=           1  read in
    real space projection operators read in
    PAW grid and wavefunctions read in
 
   number of l-projection  operators is LMAX  =           4
   number of lm-projection operators is LMMAX =           8
 
 Optimization of the real space projectors (new method)

 maximal supplied QI-value         = 15.68
 optimisation between [QCUT,QGAM] = [ 11.61, 23.21] = [ 37.72,150.90] Ry 
 Optimized for a Real-space Cutoff    1.36 Angstroem

   l    n(q)    QCUT    max X(q) W(low)/X(q) W(high)/X(q)  e(spline) 
   0      9    11.607     5.470    0.13E-04    0.45E-05    0.57E-08
   0      9    11.607     5.281    0.11E-03    0.46E-04    0.81E-07
   1      9    11.607     3.359    0.52E-04    0.11E-03    0.11E-06
   1      9    11.607     5.307    0.35E-03    0.51E-03    0.48E-06
   2      8    11.607     9.057    0.26E-03    0.45E-04    0.27E-06
   2      8    11.607     6.147    0.23E-03    0.33E-04    0.24E-06
 Optimization of the real space projectors (new method)

 maximal supplied QI-value         = 25.13
 optimisation between [QCUT,QGAM] = [ 11.56, 23.12] = [ 37.43,149.72] Ry 
 Optimized for a Real-space Cutoff    1.04 Angstroem

   l    n(q)    QCUT    max X(q) W(low)/X(q) W(high)/X(q)  e(spline) 
   0      7    11.561   115.676    0.20E-03    0.60E-03    0.21E-06
   0      7    11.561    87.132    0.20E-03    0.59E-03    0.21E-06
   1      7    11.561     4.429    0.23E-03    0.35E-03    0.15E-06
   1      7    11.561     2.733    0.18E-03    0.25E-03    0.12E-06
 Optimization of the real space projectors (new method)

 maximal supplied QI-value         = 24.76
 optimisation between [QCUT,QGAM] = [ 11.64, 23.27] = [ 37.91,151.63] Ry 
 Optimized for a Real-space Cutoff    1.04 Angstroem

   l    n(q)    QCUT    max X(q) W(low)/X(q) W(high)/X(q)  e(spline) 
   0      7    11.635    20.381    0.14E-03    0.49E-03    0.18E-06
   0      7    11.635    15.268    0.16E-03    0.52E-03    0.19E-06
   1      7    11.635     5.964    0.30E-03    0.44E-03    0.22E-06
   1      7    11.635     5.382    0.27E-03    0.34E-03    0.19E-06
  PAW_PBE Hf_sv 10Jan2008 GW suitable   :
 energy of atom  1       EATOM=-1349.7602
 kinetic energy error for atom=    0.0057 (will be added to EATOM!!)
  PAW_PBE C 08Apr2002                   :
 energy of atom  2       EATOM= -147.1560
 kinetic energy error for atom=    0.0071 (will be added to EATOM!!)
  PAW_PBE O 08Apr2002                   :
 energy of atom  3       EATOM= -432.3788
 kinetic energy error for atom=    0.0208 (will be added to EATOM!!)
 
 
 POSCAR: 00                                      
  positions in direct lattice
  No initial velocities read in
 exchange correlation table for  LEXCH =        8
   RHO(1)=    0.500       N(1)  =     2000
   RHO(2)=  100.500       N(2)  =     4000

 VTST: version 3.2, (02/03/18)

 CHAIN: initializing optimizer
 
 OPT: Using Quick-Min optimizer
 OPT: QM, Init
 OPT: QM, MAXMOVE       0.200000
 OPT: QM, TIMESTEP      0.010000
 
 CHAIN: Read ICHAIN            0
 CHAIN: Running the NEB
 NEB:          SPRING     -5.000000
 NEB:          LCLIMB      F
 NEB:     LTANGENTOLD      F
 NEB:           LDNEB      F
 NEB:        LDNEBORG      F
 NEB:        LNEBCELL      F
 NEB:          EFIRST      0.000000
 NEB:           ELAST      0.000000
 
 POSCAR: Hf   C    O                             
  positions in direct lattice
  No initial velocities read in
 
 POSCAR: Hf   C    O                             
  positions in direct lattice
  No initial velocities read in
 


--------------------------------------------------------------------------------------------------------


 ion  position               nearest neighbor table
   1  0.001  0.999  0.313-  38 2.22  35 2.31  52 2.31  36 2.33  43 2.33  23 3.23   8 3.23  10 3.24
                             7 3.24  16 3.25  18 3.27  26 3.28   2 3.28
   2  0.251  0.249  0.313-  37 2.22  35 2.31  44 2.31  36 2.33  51 2.33  15 3.23   8 3.23   7 3.24
                            17 3.24  24 3.25   9 3.27  25 3.28   1 3.28
   3  0.000  0.250  0.000-  40 2.32  34 2.32  33 2.32  41 2.32  50 2.32   6 3.29  14 3.29  21 3.29
                             5 3.29  20 3.29  12 3.29  28 3.29   4 3.29
   4  0.250  0.000  0.000-  39 2.32  34 2.32  33 2.32  42 2.32  49 2.32   6 3.29  13 3.29  22 3.29
                             5 3.29  19 3.29  11 3.29  27 3.29   3 3.29
   5  0.000  0.000  0.106-  38 2.32  34 2.32  39 2.32  40 2.32  47 2.32  56 2.32   8 3.26  16 3.26
                             7 3.26  23 3.26  19 3.29   4 3.29  12 3.29   3 3.29   6 3.29  30 3.29
   6  0.250  0.250  0.106-  37 2.32  33 2.32  39 2.32  40 2.32  48 2.32  55 2.32   8 3.25  24 3.26
                             7 3.26  15 3.26  20 3.29   4 3.29  11 3.29   3 3.29   5 3.29  29 3.29
   7  0.000  0.250  0.210-  40 2.29  45 2.32  54 2.32  37 2.32  38 2.33  36 2.34  10 3.23  17 3.23
                             2 3.24   1 3.24   6 3.26   5 3.26  21 3.26  14 3.27   8 3.28  24 3.30
   8  0.250  0.000  0.210-  39 2.28  37 2.32  38 2.32  46 2.33  53 2.33  35 2.35   9 3.23  18 3.23
                             1 3.23   2 3.23   6 3.25   5 3.26  13 3.26  22 3.26   7 3.28  15 3.28
   9  0.499  1.000  0.312-  46 2.23  60 2.26  35 2.32  44 2.33  43 2.34  31 3.23   8 3.23  15 3.23
                            16 3.25  10 3.25   2 3.27  18 3.27  26 3.28
  10  0.751  0.242  0.312-  45 2.20  43 2.26  36 2.32  44 2.34  59 2.54  16 3.19   7 3.23  15 3.24
                             1 3.24   9 3.25  32 3.28  25 3.36  17 3.38
  11  0.500  0.250  0.000-  48 2.32  41 2.32  42 2.32  33 2.32  58 2.32  13 3.29  14 3.29  29 3.29
                             6 3.29  20 3.29  28 3.29   4 3.29  12 3.29
  12  0.750  0.000  0.000-  47 2.32  41 2.32  42 2.32  34 2.32  57 2.32  13 3.29  14 3.29  30 3.29
                             5 3.29  19 3.29  27 3.29   3 3.29  11 3.29
  13  0.500  0.000  0.106-  46 2.31  42 2.32  39 2.32  47 2.32  48 2.32  64 2.32   8 3.26  16 3.26
                            15 3.26  31 3.27  27 3.29  12 3.29   4 3.29  11 3.29  30 3.29  14 3.29
  14  0.750  0.250  0.106-  41 2.32  40 2.32  47 2.32  48 2.32  63 2.32  45 2.34  15 3.26   7 3.27
                            16 3.27  11 3.29  28 3.29  12 3.29   3 3.29   5 3.29  29 3.29  13 3.29
  15  0.500  0.250  0.210-  48 2.29  46 2.32  37 2.32  62 2.32  45 2.33  44 2.34   2 3.23   9 3.23
                            10 3.24  14 3.26  13 3.26  29 3.26   6 3.26  25 3.27  24 3.28   8 3.28
  16  0.750  0.999  0.210-  47 2.28  61 2.31  46 2.32  38 2.32  45 2.34  43 2.36  10 3.19   9 3.25
                            30 3.25   1 3.25  26 3.25   5 3.26  13 3.26  14 3.27  31 3.28  23 3.28
  17  0.008  0.499  0.312-  54 2.20  51 2.26  36 2.32  52 2.34  59 2.53  24 3.19   7 3.23  23 3.24
                             2 3.24  18 3.25  32 3.28  26 3.36  10 3.38
  18  0.250  0.751  0.312-  53 2.23  60 2.26  35 2.32  52 2.33  51 2.34  31 3.23  23 3.23   8 3.23
                            24 3.25  17 3.25   1 3.27   9 3.27  25 3.28
  19  0.000  0.750  0.000-  56 2.32  49 2.32  50 2.32  34 2.32  57 2.32  21 3.29  22 3.29  30 3.29
                             5 3.29  12 3.29  28 3.29  20 3.29   4 3.29
  20  0.250  0.500  0.000-  55 2.32  49 2.32  50 2.32  33 2.32  58 2.32  21 3.29  22 3.29  29 3.29
                             6 3.29  11 3.29  27 3.29  19 3.29   3 3.29
  21  0.000  0.500  0.106-  50 2.32  40 2.32  55 2.32  56 2.32  63 2.32  54 2.34  23 3.26   7 3.26
                            24 3.27  19 3.29  28 3.29  20 3.29   3 3.29  22 3.29  30 3.29   6 3.29
  22  0.250  0.750  0.106-  53 2.31  49 2.32  39 2.32  55 2.32  56 2.32  64 2.32  24 3.26   8 3.26
                            23 3.26  31 3.27  27 3.29  20 3.29   4 3.29  19 3.29  29 3.29   5 3.29
  23  0.000  0.750  0.210-  56 2.29  53 2.32  38 2.32  61 2.32  54 2.33  52 2.34   1 3.23  18 3.23
                            17 3.24  22 3.26   5 3.26  21 3.26  30 3.27  26 3.27  16 3.28   8 3.29
  24  0.252  0.500  0.210-  55 2.28  62 2.31  53 2.32  37 2.32  54 2.34  51 2.36  17 3.19  18 3.25
                            29 3.25   2 3.25  25 3.25   6 3.26  22 3.26  21 3.27  31 3.28  15 3.28
  25  0.499  0.500  0.314-  62 2.27  51 2.30  44 2.32  60 2.38  59 2.49  65 2.66  32 3.25  24 3.25
                            31 3.26  15 3.27   2 3.28  18 3.28  26 3.31  10 3.36
  26  0.750  0.751  0.315-  61 2.27  43 2.30  52 2.32  60 2.39  59 2.48  65 2.65  32 3.25  16 3.25
                            31 3.26  23 3.27   1 3.28   9 3.28  25 3.31  17 3.36
  27  0.500  0.750  0.000-  64 2.32  49 2.32  57 2.32  58 2.32  42 2.32  22 3.29  29 3.29  30 3.29
                            13 3.29  28 3.29   4 3.29  20 3.29  12 3.29
  28  0.750  0.500  0.000-  63 2.32  50 2.32  57 2.32  58 2.32  41 2.32  21 3.29  29 3.29  30 3.29
                            14 3.29  27 3.29   3 3.29  19 3.29  11 3.29
  29  0.500  0.500  0.106-  62 2.31  58 2.32  48 2.32  55 2.32  63 2.32  64 2.32  24 3.25  15 3.26
                            31 3.27  32 3.27  20 3.29  11 3.29  27 3.29  28 3.29   6 3.29  14 3.29
  30  0.750  0.750  0.106-  61 2.32  57 2.32  47 2.32  56 2.32  63 2.32  64 2.32  16 3.25  23 3.27
                            31 3.27  32 3.27  19 3.29  12 3.29  27 3.29  28 3.29   5 3.29  13 3.29
  31  0.501  0.750  0.210-  60 2.28  64 2.30  62 2.32  61 2.32  46 2.33  53 2.33   9 3.23  18 3.23
                            25 3.26  26 3.26  32 3.26  30 3.27  29 3.27  13 3.27  22 3.27  16 3.28
  32  0.748  0.502  0.211-  62 2.31  61 2.31  63 2.32  54 2.34  45 2.34  25 3.25  26 3.25  31 3.26
                            30 3.27  29 3.27  17 3.28  10 3.28  15 3.29  23 3.29  21 3.29  14 3.29
  33  0.250  0.250  0.000-   6 2.32   4 2.32   3 2.32  11 2.32  20 2.32
  34  0.000  0.000  0.000-   5 2.32   4 2.32   3 2.32  12 2.32  19 2.32
  35  0.250  0.001  0.316-   1 2.31   2 2.31   9 2.32  18 2.32   8 2.35
  36  0.001  0.250  0.317-  10 2.32  17 2.32   2 2.33   1 2.33   7 2.34
  37  0.251  0.250  0.211-   2 2.22  15 2.32   6 2.32   8 2.32  24 2.32   7 2.32
  38  0.000  1.000  0.211-   1 2.22  23 2.32   5 2.32   8 2.32  16 2.32   7 2.33
  39  0.250  0.000  0.106-   8 2.28   4 2.32   6 2.32   5 2.32  13 2.32  22 2.32
  40  0.000  0.250  0.106-   7 2.29   3 2.32   6 2.32   5 2.32  14 2.32  21 2.32
  41  0.750  0.250  0.000-  14 2.32  11 2.32  12 2.32   3 2.32  28 2.32
  42  0.500  0.000  0.000-  13 2.32  11 2.32  12 2.32   4 2.32  27 2.32
  43  0.751  0.999  0.317-  10 2.26  26 2.30   1 2.33   9 2.34  16 2.36
  44  0.499  0.251  0.317-   2 2.31  25 2.32   9 2.33  10 2.34  15 2.34
  45  0.750  0.250  0.212-  10 2.20   7 2.32  15 2.33  14 2.34  32 2.34  16 2.34
  46  0.500  0.000  0.211-   9 2.23  13 2.31  15 2.32  16 2.32   8 2.33  31 2.33
  47  0.750  0.000  0.106-  16 2.28  12 2.32  13 2.32  14 2.32   5 2.32  30 2.32
  48  0.500  0.250  0.106-  15 2.29  11 2.32  13 2.32  14 2.32   6 2.32  29 2.32
  49  0.250  0.750  0.000-  22 2.32  19 2.32  20 2.32   4 2.32  27 2.32
  50  0.000  0.500  0.000-  21 2.32  19 2.32  20 2.32   3 2.32  28 2.32
  51  0.252  0.500  0.317-  17 2.26  25 2.30   2 2.33  18 2.34  24 2.36
  52  0.999  0.751  0.317-   1 2.31  26 2.32  18 2.33  17 2.34  23 2.34
  53  0.250  0.750  0.211-  18 2.23  22 2.31  23 2.32  24 2.32   8 2.33  31 2.33
  54  1.000  0.500  0.212-  17 2.20   7 2.32  23 2.33  21 2.34  32 2.34  24 2.34
  55  0.250  0.500  0.106-  24 2.28  20 2.32  21 2.32  22 2.32   6 2.32  29 2.32
  56  0.000  0.750  0.106-  23 2.29  19 2.32  21 2.32  22 2.32   5 2.32  30 2.32
  57  0.750  0.750  0.000-  30 2.32  19 2.32  27 2.32  28 2.32  12 2.32
  58  0.500  0.500  0.000-  29 2.32  20 2.32  27 2.32  28 2.32  11 2.32
  59  0.752  0.499  0.351-  65 1.43  26 2.48  25 2.49  17 2.53  10 2.54
  60  0.494  0.756  0.314-  18 2.26   9 2.26  31 2.28  25 2.38  26 2.39
  61  0.751  0.750  0.211-  26 2.27  16 2.31  32 2.31  30 2.32  23 2.32  31 2.32
  62  0.500  0.500  0.211-  25 2.27  24 2.31  32 2.31  29 2.31  15 2.32  31 2.32
  63  0.750  0.500  0.106-  32 2.32  28 2.32  14 2.32  29 2.32  30 2.32  21 2.32
  64  0.500  0.750  0.106-  31 2.30  27 2.32  13 2.32  29 2.32  30 2.32  22 2.32
  65  0.684  0.567  0.402-  59 1.43  26 2.65  25 2.66
 

IMPORTANT INFORMATION: All symmetrisations will be switched off!
NOSYMM: (Re-)initialisation of all symmetry stuff for point group C_1.

 
 
 KPOINTS: Automatic mesh                          

Automatic generation of k-mesh.
Space group operators:
 irot       det(A)        alpha          n_x          n_y          n_z        tau_x        tau_y        tau_z
    1     1.000000     0.000000     1.000000     0.000000     0.000000     0.000000     0.000000     0.000000
 
 Subroutine IBZKPT returns following result:
 ===========================================
 
 Found      5 irreducible k-points:
 
 Following reciprocal coordinates:
            Coordinates               Weight
  0.000000  0.000000  0.000000      1.000000
  0.333333  0.000000  0.000000      2.000000
  0.000000  0.333333  0.000000      2.000000
  0.333333  0.333333  0.000000      2.000000
 -0.333333  0.333333  0.000000      2.000000
 
 Following cartesian coordinates:
            Coordinates               Weight
  0.000000  0.000000  0.000000      1.000000
  0.035862  0.000000  0.000000      2.000000
  0.000000  0.035862  0.000000      2.000000
  0.035862  0.035862  0.000000      2.000000
 -0.035862  0.035862  0.000000      2.000000
 


--------------------------------------------------------------------------------------------------------




 Dimension of arrays:
   k-points           NKPTS =      5   k-points in BZ     NKDIM =      5   number of bands    NBANDS=    320
   number of dos      NEDOS =    301   number of ions     NIONS =     65
   non local maximal  LDIM  =      6   non local SUM 2l+1 LMDIM =     18
   total plane-waves  NPLWV = 367416
   max r-space proj   IRMAX =   2102   max aug-charges    IRDMAX=   7505
   dimension x,y,z NGX =    54 NGY =   54 NGZ =  126
   dimension x,y,z NGXF=   108 NGYF=  108 NGZF=  252
   support grid    NGXF=   108 NGYF=  108 NGZF=  252
   ions per type =              32  32   1
   NGX,Y,Z   is equivalent  to a cutoff of   9.66,  9.66,  9.53 a.u.
   NGXF,Y,Z  is equivalent  to a cutoff of  19.32, 19.32, 19.07 a.u.

 SYSTEM =  PBE-grap                                
 POSCAR =  00                                      

 Startparameter for this run:
   NWRITE =      0    write-flag & timer
   PREC   = normal    normal or accurate (medium, high low for compatibility)
   ISTART =      0    job   : 0-new  1-cont  2-samecut
   ICHARG =      2    charge: 1-file 2-atom 10-const
   ISPIN  =      1    spin polarized calculation?
   LNONCOLLINEAR =      F non collinear calculations
   LSORBIT =      F    spin-orbit coupling
   INIWAV =      1    electr: 0-lowe 1-rand  2-diag
   LASPH  =      F    aspherical Exc in radial PAW
   METAGGA=      F    non-selfconsistent MetaGGA calc.

 Electronic Relaxation 1
   ENCUT  =  520.0 eV  38.22 Ry    6.18 a.u.  17.28 17.28 40.85*2*pi/ulx,y,z
   ENINI  =  520.0     initial cutoff
   ENAUG  =  644.9 eV  augmentation charge cutoff
   NELM   =    150;   NELMIN=  4; NELMDL= -5     # of ELM steps 
   EDIFF  = 0.1E-04   stopping-criterion for ELM
   LREAL  =      T    real-space projection
   NLSPLINE    = F    spline interpolate recip. space projectors
   LCOMPAT=      F    compatible to vasp.4.4
   GGA_COMPAT  = T    GGA compatible to vasp.4.4-vasp.4.6
   LMAXPAW     = -100 max onsite density
   LMAXMIX     =    2 max onsite mixed and CHGCAR
   VOSKOWN=      0    Vosko Wilk Nusair interpolation
   ROPT   =   -0.00050  -0.00050  -0.00050
 Ionic relaxation
   EDIFFG = -.1E-01   stopping-criterion for IOM
   NSW    =     50    number of steps for IOM
   NBLOCK =      1;   KBLOCK =     50    inner block; outer block 
   IBRION =      3    ionic relax: 0-MD 1-quasi-New 2-CG
   NFREE  =      0    steps in history (QN), initial steepest desc. (CG)
   ISIF   =      2    stress and relaxation
   IWAVPR =     11    prediction:  0-non 1-charg 2-wave 3-comb
   ISYM   =      0    0-nonsym 1-usesym 2-fastsym
   LCORR  =      T    Harris-Foulkes like correction to forces

   POTIM  = 0.0000    time-step for ionic-motion
   TEIN   =    0.0    initial temperature
   TEBEG  =    0.0;   TEEND  =   0.0 temperature during run
   SMASS  =  -3.00    Nose mass-parameter (am)
   estimated Nose-frequenzy (Omega)   =  0.10E-29 period in steps =  0.00 mass=  -0.197E-26a.u.
   SCALEE = 1.0000    scale energy and forces
   NPACO  =    256;   APACO  = 16.0  distance and # of slots for P.C.
   PSTRESS=    0.0 pullay stress

  Mass of Ions in am
   POMASS = 178.49 12.01 16.00
  Ionic Valenz
   ZVAL   =  12.00  4.00  6.00
  Atomic Wigner-Seitz radii
   RWIGS  =  -1.00 -1.00 -1.00
  virtual crystal weights 
   VCA    =   1.00  1.00  1.00
   NELECT =     518.0000    total number of electrons
   NUPDOWN=      -1.0000    fix difference up-down

 DOS related values:
   EMIN   =  10.00;   EMAX   =-10.00  energy-range for DOS
   EFERMI =   0.00
   ISMEAR =     0;   SIGMA  =   0.05  broadening in eV -4-tet -1-fermi 0-gaus

 Electronic relaxation 2 (details)
   IALGO  =     38    algorithm
   LDIAG  =      T    sub-space diagonalisation (order eigenvalues)
   LSUBROT=      F    optimize rotation matrix (better conditioning)
   TURBO    =      0    0=normal 1=particle mesh
   IRESTART =      0    0=no restart 2=restart with 2 vectors
   NREBOOT  =      0    no. of reboots
   NMIN     =      0    reboot dimension
   EREF     =   0.00    reference energy to select bands
   IMIX   =      4    mixing-type and parameters
     AMIX     =   0.40;   BMIX     =  1.00
     AMIX_MAG =   1.60;   BMIX_MAG =  1.00
     AMIN     =   0.10
     WC   =   100.;   INIMIX=   1;  MIXPRE=   1;  MAXMIX= -45

 Intra band minimization:
   WEIMIN = 0.0010     energy-eigenvalue tresh-hold
   EBREAK =  0.78E-08  absolut break condition
   DEPER  =   0.30     relativ break condition  

   TIME   =   0.40     timestep for ELM

  volume/ion in A,a.u.               =      29.20       197.07
  Fermi-wavevector in a.u.,A,eV,Ry     =   1.061877  2.006656 15.341689  1.127582
  Thomas-Fermi vector in A             =   2.197308
 
 Write flags
   LWAVE        =      F    write WAVECAR
   LDOWNSAMPLE  =      F    k-point downsampling of WAVECAR
   LCHARG       =      F    write CHGCAR
   LVTOT        =      F    write LOCPOT, total local potential
   LVHAR        =      F    write LOCPOT, Hartree potential only
   LELF         =      F    write electronic localiz. function (ELF)
   LORBIT       =      0    0 simple, 1 ext, 2 COOP (PROOUT), +10 PAW based schemes


 Dipole corrections
   LMONO  =      F    monopole corrections only (constant potential shift)
   LDIPOL =      F    correct potential (dipole corrections)
   IDIPOL =      0    1-x, 2-y, 3-z, 4-all directions 
   EPSILON=  1.0000000 bulk dielectric constant

 Exchange correlation treatment:
   GGA     =    PE    GGA type
   LEXCH   =     8    internal setting for exchange type
   VOSKOWN=      0    Vosko Wilk Nusair interpolation
   LHFCALC =     F    Hartree Fock is set to
   LHFONE  =     F    Hartree Fock one center treatment
   AEXX    =    0.0000 exact exchange contribution

 Linear response parameters
   LEPSILON=     F    determine dielectric tensor
   LRPA    =     F    only Hartree local field effects (RPA)
   LNABLA  =     F    use nabla operator in PAW spheres
   LVEL    =     F    velocity operator in full k-point grid
   LINTERFAST=   F  fast interpolation
   KINTER  =     0    interpolate to denser k-point grid
   CSHIFT  =0.1000    complex shift for real part using Kramers Kronig
   OMEGAMAX=  -1.0    maximum frequency
   DEG_THRESHOLD= 0.2000000E-02 threshold for treating states as degnerate
   RTIME   =   -0.100 relaxation time in fs
  (WPLASMAI=    0.000 imaginary part of plasma frequency in eV, 0.658/RTIME)
   DFIELD  = 0.0000000 0.0000000 0.0000000 field for delta impulse in time
 
 Orbital magnetization related:
   ORBITALMAG=     F  switch on orbital magnetization
   LCHIMAG   =     F  perturbation theory with respect to B field
   DQ        =  0.001000  dq finite difference perturbation B field
   LLRAUG    =     F  two centre corrections for induced B field



--------------------------------------------------------------------------------------------------------


 quickmin algorithm: (dynamic with friction)
   using selective dynamics as specified on POSCAR
 charge density and potential will be updated during run
 non-spin polarized calculation
 Variant of blocked Davidson
 Davidson routine will perform the subspace rotation
 perform sub-space diagonalisation
    after iterative eigenvector-optimisation
 modified Broyden-mixing scheme, WC =      100.0
 initial mixing is a Kerker type mixing with AMIX =  0.4000 and BMIX =      1.0000
 Hartree-type preconditioning will be used
 using additional bands           61
 real space projection scheme for non local part
 use partial core corrections
 calculate Harris-corrections to forces 
   (improved forces if not selfconsistent)
 use gradient corrections 
 use of overlap-Matrix (Vanderbilt PP)
 Gauss-broadening in eV      SIGMA  =   0.05


--------------------------------------------------------------------------------------------------------


  energy-cutoff  :      520.00
  volume of cell :     1898.16
      direct lattice vectors                 reciprocal lattice vectors
     9.294799805  0.000000000  0.000000000     0.107587040  0.000000000  0.000000000
     0.000000000  9.294799805  0.000000000     0.000000000  0.107587040  0.000000000
     0.000000000  0.000000000 21.971099854     0.000000000  0.000000000  0.045514335

  length of vectors
     9.294799805  9.294799805 21.971099854     0.107587040  0.107587040  0.045514335


 
 k-points in units of 2pi/SCALE and weight: Automatic mesh                          
   0.00000000  0.00000000  0.00000000       0.111
   0.03586235  0.00000000  0.00000000       0.222
   0.00000000  0.03586235  0.00000000       0.222
   0.03586235  0.03586235  0.00000000       0.222
  -0.03586235  0.03586235  0.00000000       0.222
 
 k-points in reciprocal lattice and weights: Automatic mesh                          
   0.00000000  0.00000000  0.00000000       0.111
   0.33333333  0.00000000  0.00000000       0.222
   0.00000000  0.33333333  0.00000000       0.222
   0.33333333  0.33333333  0.00000000       0.222
  -0.33333333  0.33333333  0.00000000       0.222
 
 position of ions in fractional coordinates (direct lattice) 
   0.00136000  0.99913000  0.31262000
   0.25099000  0.24891000  0.31260000
   0.00000000  0.25000000  0.00000000
   0.25000000  0.00000000  0.00000000
   0.00000000  0.00000000  0.10576000
   0.25000000  0.25000000  0.10576000
   0.00048000  0.24969000  0.21001000
   0.24992000  0.00029000  0.20961000
   0.49883000  0.99980000  0.31222000
   0.75100000  0.24176000  0.31226000
   0.50000000  0.25000000  0.00000000
   0.75000000  0.00000000  0.00000000
   0.50000000  0.00000000  0.10576000
   0.75000000  0.25000000  0.10576000
   0.50015000  0.24987000  0.21005000
   0.75009000  0.99866000  0.20967000
   0.00826000  0.49921000  0.31225000
   0.25031000  0.75123000  0.31222000
   0.00000000  0.75000000  0.00000000
   0.25000000  0.50000000  0.00000000
   0.00000000  0.50000000  0.10576000
   0.25000000  0.75000000  0.10576000
   0.00030000  0.75007000  0.21006000
   0.25154000  0.50000000  0.20965000
   0.49852000  0.50005000  0.31445000
   0.75012000  0.75147000  0.31453000
   0.50000000  0.75000000  0.00000000
   0.75000000  0.50000000  0.00000000
   0.50000000  0.50000000  0.10576000
   0.75000000  0.75000000  0.10576000
   0.50056000  0.74959000  0.21046000
   0.74850000  0.50165000  0.21118000
   0.25000000  0.25000000  0.00000000
   0.00000000  0.00000000  0.00000000
   0.24954000  0.00059000  0.31645000
   0.00062000  0.24952000  0.31653000
   0.25059000  0.24994000  0.21136000
   0.00017000  0.99955000  0.21137000
   0.25000000  0.00000000  0.10576000
   0.00000000  0.25000000  0.10576000
   0.75000000  0.25000000  0.00000000
   0.50000000  0.00000000  0.00000000
   0.75052000  0.99862000  0.31701000
   0.49948000  0.25078000  0.31665000
   0.75042000  0.25019000  0.21206000
   0.50013000  0.00038000  0.21091000
   0.75000000  0.00000000  0.10576000
   0.50000000  0.25000000  0.10576000
   0.25000000  0.75000000  0.00000000
   0.00000000  0.50000000  0.00000000
   0.25151000  0.49967000  0.31697000
   0.99940000  0.75067000  0.31666000
   0.24969000  0.74999000  0.21093000
   0.99995000  0.49977000  0.21206000
   0.25000000  0.50000000  0.10576000
   0.00000000  0.75000000  0.10576000
   0.75000000  0.75000000  0.00000000
   0.50000000  0.50000000  0.00000000
   0.75212000  0.49895000  0.35120000
   0.49354000  0.75647000  0.31398000
   0.75058000  0.75039000  0.21117000
   0.49977000  0.49959000  0.21109000
   0.75000000  0.50000000  0.10576000
   0.50000000  0.75000000  0.10576000
   0.68425000  0.56684000  0.40217000
 
 position of ions in cartesian coordinates  (Angst):
   0.01264093  9.28671333  6.86860524
   2.33290180  2.31356862  6.86816581
   0.00000000  2.32369995  0.00000000
   2.32369995  0.00000000  0.00000000
   0.00000000  0.00000000  2.32366352
   2.32369995  2.32369995  2.32366352
   0.00446150  2.32081856  4.61415068
   2.32295637  0.00269549  4.60536224
   4.63652499  9.29294084  6.85981680
   6.98039465  2.24711080  6.86069564
   4.64739990  2.32369995  0.00000000
   6.97109985  0.00000000  0.00000000
   4.64739990  0.00000000  2.32366352
   6.97109985  2.32369995  2.32366352
   4.64879412  2.32249163  4.61502952
   6.97193639  9.28234477  4.60668051
   0.07677505  4.64005701  6.86047593
   2.32658134  6.98253246  6.85981680
   0.00000000  6.97109985  0.00000000
   2.32369995  4.64739990  0.00000000
   0.00000000  4.64739990  2.32366352
   2.32369995  6.97109985  2.32366352
   0.00278844  6.97175049  4.61524924
   2.33801394  4.64739990  4.60624108
   4.63364360  4.64786464  6.90881235
   6.97221523  6.98476321  6.91057004
   4.64739990  6.97109985  0.00000000
   6.97109985  4.64739990  0.00000000
   4.64739990  4.64739990  2.32366352
   6.97109985  6.97109985  2.32366352
   4.65260499  6.96728899  4.62403768
   6.95715765  4.66273632  4.63985687
   2.32369995  2.32369995  0.00000000
   0.00000000  0.00000000  0.00000000
   2.31942434  0.00548393  6.95275455
   0.00576278  2.31923845  6.95451224
   2.32918388  2.32314226  4.64381167
   0.00158012  9.29061714  4.64403138
   2.32369995  0.00000000  2.32366352
   0.00000000  2.32369995  2.32366352
   6.97109985  2.32369995  0.00000000
   4.64739990  0.00000000  0.00000000
   6.97593315  9.28197298  6.96505836
   4.64256661  2.33094990  6.95714877
   6.97500367  2.32546596  4.65919143
   4.64860823  0.00353202  4.63392467
   6.97109985  0.00000000  2.32366352
   4.64739990  2.32369995  2.32366352
   2.32369995  6.97109985  0.00000000
   0.00000000  4.64739990  0.00000000
   2.33773510  4.64433262  6.96417952
   9.28922292  6.97732737  6.95736848
   2.32081856  6.97100691  4.63436409
   9.29433506  4.64526210  4.65919143
   2.32369995  4.64739990  2.32366352
   0.00000000  6.97109985  2.32366352
   6.97109985  6.97109985  0.00000000
   4.64739990  4.64739990  0.00000000
   6.99080483  4.63764036  7.71625027
   4.58735550  7.03123721  6.89848593
   6.97649084  6.97472483  4.63963716
   4.64526210  4.64358903  4.63787947
   6.97109985  4.64739990  2.32366352
   4.64739990  6.97109985  2.32366352
   6.35996677  5.26866432  8.83611723
 


--------------------------------------------------------------------------------------------------------


 k-point  1 :   0.0000 0.0000 0.0000  plane waves:   51165
 k-point  2 :   0.3333 0.0000 0.0000  plane waves:   51094
 k-point  3 :   0.0000 0.3333 0.0000  plane waves:   51094
 k-point  4 :   0.3333 0.3333 0.0000  plane waves:   51048
 k-point  5 :  -0.3333 0.3333 0.0000  plane waves:   51048

 maximum and minimum number of plane-waves per node :     51165    51048

 maximum number of plane-waves:     51165
 maximum index in each direction: 
   IXMAX=   17   IYMAX=   17   IZMAX=   40
   IXMIN=  -17   IYMIN=  -17   IZMIN=  -40


 serial   3D FFT for wavefunctions
 parallel 3D FFT for charge:
    minimum data exchange during FFTs selected (reduces bandwidth)


 total amount of memory used by VASP MPI-rank0   163583. kBytes
=======================================================================

   base      :      30000. kBytes
   nonlr-proj:      14445. kBytes
   fftplans  :       7895. kBytes
   grid      :      27008. kBytes
   one-center:       1010. kBytes
   wavefun   :      83225. kBytes
 
     INWAV:  cpu time    0.0002: real time    0.0002
 Broyden mixing: mesh for mixing (old mesh)
   NGX = 35   NGY = 35   NGZ = 81
  (NGX  =108   NGY  =108   NGZ  =252)
  gives a total of  99225 points

 initial charge density was supplied:
 charge density of overlapping atoms calculated
 number of electron     518.0000000 magnetization 
 keeping initial charge density in first step


--------------------------------------------------------------------------------------------------------


 Maximum index for non-local projection operator         2005
 Maximum index for augmentation-charges          474 (set IRDMAX)


--------------------------------------------------------------------------------------------------------


 First call to EWALD:  gamma=   0.143
 Maximum number of real-space cells 3x 3x 2
 Maximum number of reciprocal cells 2x 2x 4

    FEWALD:  cpu time    0.0130: real time    0.0130


--------------------------------------- Iteration      1(   1)  ---------------------------------------


    POTLOK:  cpu time    0.5326: real time    1.6999
    SETDIJ:  cpu time    0.0540: real time    0.0541
     EDDAV:  cpu time   30.7789: real time   30.8662
       DOS:  cpu time    0.0134: real time    0.0135
    --------------------------------------------
      LOOP:  cpu time   31.3791: real time   32.6339

 eigenvalue-minimisations  :  3792
 total energy-change (2. order) : 0.4778389E+04  (-0.2937888E+05)
 number of electron     518.0000000 magnetization 
 augmentation part      518.0000000 magnetization 

 Free energy of the ion-electron system (eV)
  ---------------------------------------------------
  alpha Z        PSCENC =      1649.05367391
  Ewald energy   TEWEN  =    134958.21486162
  -Hartree energ DENC   =   -176687.42000116
  -exchange      EXHF   =         0.00000000
  -V(xc)+E(xc)   XCENC  =      1407.01096065
  PAW double counting   =     36999.11784765   -36263.23664038
  entropy T*S    EENTRO =        -0.01563826
  eigenvalues    EBANDS =     -5617.60330947
  atomic energy  EATOM  =     48333.26757577
  Solvation  Ediel_sol  =         0.00000000
  ---------------------------------------------------
  free energy    TOTEN  =      4778.38933031 eV

  energy without entropy =     4778.40496857  energy(sigma->0) =     4778.39714944


--------------------------------------------------------------------------------------------------------




--------------------------------------- Iteration      1(   2)  ---------------------------------------


     EDDAV:  cpu time   32.1632: real time   32.1693
       DOS:  cpu time    0.0035: real time    0.0035
    --------------------------------------------
      LOOP:  cpu time   32.1666: real time   32.1728

 eigenvalue-minimisations  :  3856
 total energy-change (2. order) :-0.5306742E+04  (-0.5162137E+04)
 number of electron     518.0000000 magnetization 
 augmentation part      518.0000000 magnetization 

 Free energy of the ion-electron system (eV)
  ---------------------------------------------------
  alpha Z        PSCENC =      1649.05367391
  Ewald energy   TEWEN  =    134958.21486162
  -Hartree energ DENC   =   -176687.42000116
  -exchange      EXHF   =         0.00000000
  -V(xc)+E(xc)   XCENC  =      1407.01096065
  PAW double counting   =     36999.11784765   -36263.23664038
  entropy T*S    EENTRO =        -0.00681175
  eigenvalues    EBANDS =    -10924.35450619
  atomic energy  EATOM  =     48333.26757577
  Solvation  Ediel_sol  =         0.00000000
  ---------------------------------------------------
  free energy    TOTEN  =      -528.35303989 eV

  energy without entropy =     -528.34622814  energy(sigma->0) =     -528.34963401


--------------------------------------------------------------------------------------------------------




--------------------------------------- Iteration      1(   3)  ---------------------------------------


     EDDAV:  cpu time   32.5289: real time   32.5313
       DOS:  cpu time    0.0039: real time    0.0039
    --------------------------------------------
      LOOP:  cpu time   32.5328: real time   32.5352

 eigenvalue-minimisations  :  3760
 total energy-change (2. order) :-0.3705226E+03  (-0.3642403E+03)
 number of electron     518.0000000 magnetization 
 augmentation part      518.0000000 magnetization 

 Free energy of the ion-electron system (eV)
  ---------------------------------------------------
  alpha Z        PSCENC =      1649.05367391
  Ewald energy   TEWEN  =    134958.21486162
  -Hartree energ DENC   =   -176687.42000116
  -exchange      EXHF   =         0.00000000
  -V(xc)+E(xc)   XCENC  =      1407.01096065
  PAW double counting   =     36999.11784765   -36263.23664038
  entropy T*S    EENTRO =        -0.01244593
  eigenvalues    EBANDS =    -11294.87144241
  atomic energy  EATOM  =     48333.26757577
  Solvation  Ediel_sol  =         0.00000000
  ---------------------------------------------------
  free energy    TOTEN  =      -898.87561029 eV

  energy without entropy =     -898.86316436  energy(sigma->0) =     -898.86938733


--------------------------------------------------------------------------------------------------------




--------------------------------------- Iteration      1(   4)  ---------------------------------------


     EDDAV:  cpu time   34.7427: real time   34.7470
       DOS:  cpu time    0.0046: real time    0.0046
    --------------------------------------------
      LOOP:  cpu time   34.7473: real time   34.7516

 eigenvalue-minimisations  :  4016
 total energy-change (2. order) :-0.1386968E+02  (-0.1381083E+02)
 number of electron     518.0000000 magnetization 
 augmentation part      518.0000000 magnetization 

 Free energy of the ion-electron system (eV)
  ---------------------------------------------------
  alpha Z        PSCENC =      1649.05367391
  Ewald energy   TEWEN  =    134958.21486162
  -Hartree energ DENC   =   -176687.42000116
  -exchange      EXHF   =         0.00000000
  -V(xc)+E(xc)   XCENC  =      1407.01096065
  PAW double counting   =     36999.11784765   -36263.23664038
  entropy T*S    EENTRO =        -0.01460781
  eigenvalues    EBANDS =    -11308.73896341
  atomic energy  EATOM  =     48333.26757577
  Solvation  Ediel_sol  =         0.00000000
  ---------------------------------------------------
  free energy    TOTEN  =      -912.74529317 eV

  energy without entropy =     -912.73068536  energy(sigma->0) =     -912.73798927


--------------------------------------------------------------------------------------------------------




--------------------------------------- Iteration      1(   5)  ---------------------------------------


     EDDAV:  cpu time   34.7740: real time   34.7883
       DOS:  cpu time    0.0035: real time    0.0036
    CHARGE:  cpu time    1.6255: real time    1.6262
    MIXING:  cpu time    0.0156: real time    0.0158
    --------------------------------------------
      LOOP:  cpu time   36.4187: real time   36.4339

 eigenvalue-minimisations  :  4032
 total energy-change (2. order) :-0.3940310E+00  (-0.3937253E+00)
 number of electron     518.0000123 magnetization 
 augmentation part       15.0367044 magnetization 

 Broyden mixing:
  rms(total) = 0.59620E+01    rms(broyden)= 0.59613E+01
  rms(prec ) = 0.68007E+01
  weight for this iteration     100.00

 Free energy of the ion-electron system (eV)
  ---------------------------------------------------
  alpha Z        PSCENC =      1649.05367391
  Ewald energy   TEWEN  =    134958.21486162
  -Hartree energ DENC   =   -176687.42000116
  -exchange      EXHF   =         0.00000000
  -V(xc)+E(xc)   XCENC  =      1407.01096065
  PAW double counting   =     36999.11784765   -36263.23664038
  entropy T*S    EENTRO =        -0.01471459
  eigenvalues    EBANDS =    -11309.13288762
  atomic energy  EATOM  =     48333.26757577
  Solvation  Ediel_sol  =         0.00000000
  ---------------------------------------------------
  free energy    TOTEN  =      -913.13932417 eV

  energy without entropy =     -913.12460958  energy(sigma->0) =     -913.13196687


--------------------------------------------------------------------------------------------------------




--------------------------------------- Iteration      1(   6)  ---------------------------------------


    POTLOK:  cpu time    0.4404: real time    0.4405
    SETDIJ:  cpu time    0.0677: real time    0.0677
     EDDAV:  cpu time   32.0895: real time   32.1026
       DOS:  cpu time    0.0023: real time    0.0023
    CHARGE:  cpu time    1.6070: real time    1.6079
    MIXING:  cpu time    0.0174: real time    0.0174
    --------------------------------------------
      LOOP:  cpu time   34.2241: real time   34.2384

 eigenvalue-minimisations  :  3600
 total energy-change (2. order) : 0.1538569E+03  (-0.8863449E+02)
 number of electron     518.0000014 magnetization 
 augmentation part       16.3096592 magnetization 

 Broyden mixing:
  rms(total) = 0.23196E+01    rms(broyden)= 0.23186E+01
  rms(prec ) = 0.26998E+01
  weight for this iteration     100.00

 eigenvalues of (default mixing * dielectric matrix)
  average eigenvalue GAMMA=   0.8114
  0.8114

 Free energy of the ion-electron system (eV)
  ---------------------------------------------------
  alpha Z        PSCENC =      1649.05367391
  Ewald energy   TEWEN  =    134958.21486162
  -Hartree energ DENC   =   -176825.78368453
  -exchange      EXHF   =         0.00000000
  -V(xc)+E(xc)   XCENC  =      1412.30764136
  PAW double counting   =     36838.75209251   -36143.47123354
  entropy T*S    EENTRO =        -0.01737911
  eigenvalues    EBANDS =    -10981.60592357
  atomic energy  EATOM  =     48333.26757577
  Solvation  Ediel_sol  =         0.00000000
  ---------------------------------------------------
  free energy    TOTEN  =      -759.28237559 eV

  energy without entropy =     -759.26499647  energy(sigma->0) =     -759.27368603


--------------------------------------------------------------------------------------------------------




--------------------------------------- Iteration      1(   7)  ---------------------------------------


    POTLOK:  cpu time    0.4281: real time    0.4283
    SETDIJ:  cpu time    0.0664: real time    0.0664
     EDDAV:  cpu time   38.4007: real time   38.4166
       DOS:  cpu time    0.0024: real time    0.0024
    CHARGE:  cpu time    1.5989: real time    1.5994
    MIXING:  cpu time    0.0178: real time    0.0178
    --------------------------------------------
      LOOP:  cpu time   40.5143: real time   40.5308

 eigenvalue-minimisations  :  4544
 total energy-change (2. order) : 0.3941209E+01  (-0.8584522E+01)
 number of electron     518.0000022 magnetization 
 augmentation part       16.5526470 magnetization 

 Broyden mixing:
  rms(total) = 0.14524E+01    rms(broyden)= 0.14522E+01
  rms(prec ) = 0.19089E+01
  weight for this iteration     100.00

 eigenvalues of (default mixing * dielectric matrix)
  average eigenvalue GAMMA=   0.8454
  0.8454  0.8454

 Free energy of the ion-electron system (eV)
  ---------------------------------------------------
  alpha Z        PSCENC =      1649.05367391
  Ewald energy   TEWEN  =    134958.21486162
  -Hartree energ DENC   =   -176927.00533953
  -exchange      EXHF   =         0.00000000
  -V(xc)+E(xc)   XCENC  =      1406.54156923
  PAW double counting   =     38022.96194669   -37324.13296494
  entropy T*S    EENTRO =        -0.02544480
  eigenvalues    EBANDS =    -10874.21704479
  atomic energy  EATOM  =     48333.26757577
  Solvation  Ediel_sol  =         0.00000000
  ---------------------------------------------------
  free energy    TOTEN  =      -755.34116685 eV

  energy without entropy =     -755.31572204  energy(sigma->0) =     -755.32844445


--------------------------------------------------------------------------------------------------------




--------------------------------------- Iteration      1(   8)  ---------------------------------------


    POTLOK:  cpu time    0.4312: real time    0.4315
    SETDIJ:  cpu time    0.0664: real time    0.0664
     EDDAV:  cpu time   34.5254: real time   34.5403
       DOS:  cpu time    0.0023: real time    0.0023
    CHARGE:  cpu time    1.6013: real time    1.6019
    MIXING:  cpu time    0.0185: real time    0.0185
    --------------------------------------------
      LOOP:  cpu time   36.6452: real time   36.6609

 eigenvalue-minimisations  :  3952
 total energy-change (2. order) : 0.3068715E+01  (-0.4053830E+01)
 number of electron     518.0000023 magnetization 
 augmentation part       16.8195093 magnetization 

 Broyden mixing:
  rms(total) = 0.10243E+01    rms(broyden)= 0.10241E+01
  rms(prec ) = 0.12069E+01
  weight for this iteration     100.00

 eigenvalues of (default mixing * dielectric matrix)
  average eigenvalue GAMMA=   1.0560
  1.7803  0.9689  0.4187

 Free energy of the ion-electron system (eV)
  ---------------------------------------------------
  alpha Z        PSCENC =      1649.05367391
  Ewald energy   TEWEN  =    134958.21486162
  -Hartree energ DENC   =   -176994.54625561
  -exchange      EXHF   =         0.00000000
  -V(xc)+E(xc)   XCENC  =      1404.38046098
  PAW double counting   =     38586.74317770   -37884.93143918
  entropy T*S    EENTRO =        -0.01928462
  eigenvalues    EBANDS =    -10804.43522230
  atomic energy  EATOM  =     48333.26757577
  Solvation  Ediel_sol  =         0.00000000
  ---------------------------------------------------
  free energy    TOTEN  =      -752.27245171 eV

  energy without entropy =     -752.25316709  energy(sigma->0) =     -752.26280940


--------------------------------------------------------------------------------------------------------




--------------------------------------- Iteration      1(   9)  ---------------------------------------


    POTLOK:  cpu time    0.4342: real time    0.4344
    SETDIJ:  cpu time    0.0738: real time    0.0738
     EDDAV:  cpu time   35.8319: real time   35.8466
       DOS:  cpu time    0.0023: real time    0.0023
    CHARGE:  cpu time    1.6000: real time    1.6010
    MIXING:  cpu time    0.0192: real time    0.0192
    --------------------------------------------
      LOOP:  cpu time   37.9614: real time   37.9772

 eigenvalue-minimisations  :  4144
 total energy-change (2. order) : 0.2105122E+01  (-0.9004557E+00)
 number of electron     518.0000027 magnetization 
 augmentation part       16.8804584 magnetization 

 Broyden mixing:
  rms(total) = 0.35693E+00    rms(broyden)= 0.35683E+00
  rms(prec ) = 0.45347E+00
  weight for this iteration     100.00

 eigenvalues of (default mixing * dielectric matrix)
  average eigenvalue GAMMA=   1.0656
  2.1872  0.8270  0.8270  0.4213

 Free energy of the ion-electron system (eV)
  ---------------------------------------------------
  alpha Z        PSCENC =      1649.05367391
  Ewald energy   TEWEN  =    134958.21486162
  -Hartree energ DENC   =   -177090.69807297
  -exchange      EXHF   =         0.00000000
  -V(xc)+E(xc)   XCENC  =      1402.66939354
  PAW double counting   =     39669.98679287   -38962.96116003
  entropy T*S    EENTRO =        -0.02222859
  eigenvalues    EBANDS =    -10709.67816550
  atomic energy  EATOM  =     48333.26757577
  Solvation  Ediel_sol  =         0.00000000
  ---------------------------------------------------
  free energy    TOTEN  =      -750.16732937 eV

  energy without entropy =     -750.14510078  energy(sigma->0) =     -750.15621508


--------------------------------------------------------------------------------------------------------




--------------------------------------- Iteration      1(  10)  ---------------------------------------


    POTLOK:  cpu time    0.4397: real time    0.4398
    SETDIJ:  cpu time    0.0676: real time    0.0676
     EDDAV:  cpu time   33.0153: real time   33.0374
       DOS:  cpu time    0.0022: real time    0.0022
    CHARGE:  cpu time    1.5980: real time    1.5986
    MIXING:  cpu time    0.0203: real time    0.0203
    --------------------------------------------
      LOOP:  cpu time   35.1431: real time   35.1660

 eigenvalue-minimisations  :  3728
 total energy-change (2. order) : 0.4114860E+00  (-0.2175430E+00)
 number of electron     518.0000027 magnetization 
 augmentation part       16.9032868 magnetization 

 Broyden mixing:
  rms(total) = 0.20852E+00    rms(broyden)= 0.20849E+00
  rms(prec ) = 0.23985E+00
  weight for this iteration     100.00

 eigenvalues of (default mixing * dielectric matrix)
  average eigenvalue GAMMA=   1.0739
  2.1572  0.9558  0.9558  0.8692  0.4316

 Free energy of the ion-electron system (eV)
  ---------------------------------------------------
  alpha Z        PSCENC =      1649.05367391
  Ewald energy   TEWEN  =    134958.21486162
  -Hartree energ DENC   =   -177213.01388972
  -exchange      EXHF   =         0.00000000
  -V(xc)+E(xc)   XCENC  =      1402.49763365
  PAW double counting   =     39993.65518164   -39284.36220691
  entropy T*S    EENTRO =        -0.02037309
  eigenvalues    EBANDS =    -10589.04830019
  atomic energy  EATOM  =     48333.26757577
  Solvation  Ediel_sol  =         0.00000000
  ---------------------------------------------------
  free energy    TOTEN  =      -749.75584333 eV

  energy without entropy =     -749.73547024  energy(sigma->0) =     -749.74565678


--------------------------------------------------------------------------------------------------------




--------------------------------------- Iteration      1(  11)  ---------------------------------------


    POTLOK:  cpu time    0.4384: real time    0.4386
    SETDIJ:  cpu time    0.0677: real time    0.0677
     EDDAV:  cpu time   34.4101: real time   34.4245
       DOS:  cpu time    0.0021: real time    0.0022
    CHARGE:  cpu time    1.5997: real time    1.6002
    MIXING:  cpu time    0.0210: real time    0.0210
    --------------------------------------------
      LOOP:  cpu time   36.5391: real time   36.5544

 eigenvalue-minimisations  :  3936
 total energy-change (2. order) : 0.3852733E-01  (-0.7329423E-01)
 number of electron     518.0000026 magnetization 
 augmentation part       16.9258481 magnetization 

 Broyden mixing:
  rms(total) = 0.10986E+00    rms(broyden)= 0.10984E+00
  rms(prec ) = 0.13658E+00
  weight for this iteration     100.00

 eigenvalues of (default mixing * dielectric matrix)
  average eigenvalue GAMMA=   1.2058
  2.1589  2.1589  0.4324  0.8682  0.8083  0.8083

 Free energy of the ion-electron system (eV)
  ---------------------------------------------------
  alpha Z        PSCENC =      1649.05367391
  Ewald energy   TEWEN  =    134958.21486162
  -Hartree energ DENC   =   -177259.93472515
  -exchange      EXHF   =         0.00000000
  -V(xc)+E(xc)   XCENC  =      1403.01224164
  PAW double counting   =     39854.70209589   -39144.93180850
  entropy T*S    EENTRO =        -0.01689105
  eigenvalues    EBANDS =    -10543.08434014
  atomic energy  EATOM  =     48333.26757577
  Solvation  Ediel_sol  =         0.00000000
  ---------------------------------------------------
  free energy    TOTEN  =      -749.71731600 eV

  energy without entropy =     -749.70042496  energy(sigma->0) =     -749.70887048


--------------------------------------------------------------------------------------------------------




--------------------------------------- Iteration      1(  12)  ---------------------------------------


    POTLOK:  cpu time    0.4398: real time    0.4398
    SETDIJ:  cpu time    0.0666: real time    0.0667
     EDDAV:  cpu time   33.3332: real time   33.3495
       DOS:  cpu time    0.0023: real time    0.0023
    CHARGE:  cpu time    1.5927: real time    1.5933
    MIXING:  cpu time    0.0221: real time    0.0221
    --------------------------------------------
      LOOP:  cpu time   35.4567: real time   35.4737

 eigenvalue-minimisations  :  3776
 total energy-change (2. order) : 0.2365709E-01  (-0.1280730E-01)
 number of electron     518.0000026 magnetization 
 augmentation part       16.8991923 magnetization 

 Broyden mixing:
  rms(total) = 0.56974E-01    rms(broyden)= 0.56951E-01
  rms(prec ) = 0.89574E-01
  weight for this iteration     100.00

 eigenvalues of (default mixing * dielectric matrix)
  average eigenvalue GAMMA=   1.2051
  2.3134  2.3134  0.4334  0.8596  0.8596  0.8283  0.8283

 Free energy of the ion-electron system (eV)
  ---------------------------------------------------
  alpha Z        PSCENC =      1649.05367391
  Ewald energy   TEWEN  =    134958.21486162
  -Hartree energ DENC   =   -177326.07562308
  -exchange      EXHF   =         0.00000000
  -V(xc)+E(xc)   XCENC  =      1403.61837612
  PAW double counting   =     39699.91668053   -38989.25246596
  entropy T*S    EENTRO =        -0.02156645
  eigenvalues    EBANDS =    -10478.41517138
  atomic energy  EATOM  =     48333.26757577
  Solvation  Ediel_sol  =         0.00000000
  ---------------------------------------------------
  free energy    TOTEN  =      -749.69365891 eV

  energy without entropy =     -749.67209246  energy(sigma->0) =     -749.68287569


--------------------------------------------------------------------------------------------------------




--------------------------------------- Iteration      1(  13)  ---------------------------------------


    POTLOK:  cpu time    0.4442: real time    0.4444
    SETDIJ:  cpu time    0.0683: real time    0.0683
     EDDAV:  cpu time   34.2961: real time   34.3108
       DOS:  cpu time    0.0022: real time    0.0022
    CHARGE:  cpu time    1.6051: real time    1.6058
    MIXING:  cpu time    0.0228: real time    0.0228
    --------------------------------------------
      LOOP:  cpu time   36.4389: real time   36.4544

 eigenvalue-minimisations  :  3920
 total energy-change (2. order) : 0.8086951E-02  (-0.9600723E-02)
 number of electron     518.0000026 magnetization 
 augmentation part       16.8971570 magnetization 

 Broyden mixing:
  rms(total) = 0.50437E-01    rms(broyden)= 0.50409E-01
  rms(prec ) = 0.73304E-01
  weight for this iteration     100.00

 eigenvalues of (default mixing * dielectric matrix)
  average eigenvalue GAMMA=   1.1710
  2.3286  2.3286  1.0269  1.0269  0.7993  0.7993  0.4346  0.6237

 Free energy of the ion-electron system (eV)
  ---------------------------------------------------
  alpha Z        PSCENC =      1649.05367391
  Ewald energy   TEWEN  =    134958.21486162
  -Hartree energ DENC   =   -177373.02098076
  -exchange      EXHF   =         0.00000000
  -V(xc)+E(xc)   XCENC  =      1403.78982123
  PAW double counting   =     39652.97604656   -38941.94750576
  entropy T*S    EENTRO =        -0.01632932
  eigenvalues    EBANDS =    -10432.00273522
  atomic energy  EATOM  =     48333.26757577
  Solvation  Ediel_sol  =         0.00000000
  ---------------------------------------------------
  free energy    TOTEN  =      -749.68557196 eV

  energy without entropy =     -749.66924264  energy(sigma->0) =     -749.67740730


--------------------------------------------------------------------------------------------------------




--------------------------------------- Iteration      1(  14)  ---------------------------------------


    POTLOK:  cpu time    0.4430: real time    0.4431
    SETDIJ:  cpu time    0.0735: real time    0.0735
     EDDAV:  cpu time   33.5442: real time   33.5466
       DOS:  cpu time    0.0027: real time    0.0027
    CHARGE:  cpu time    1.6049: real time    1.6050
    MIXING:  cpu time    0.0240: real time    0.0240
    --------------------------------------------
      LOOP:  cpu time   35.6923: real time   35.6949

 eigenvalue-minimisations  :  3808
 total energy-change (2. order) : 0.4541646E-02  (-0.4319349E-02)
 number of electron     518.0000026 magnetization 
 augmentation part       16.8851848 magnetization 

 Broyden mixing:
  rms(total) = 0.21890E-01    rms(broyden)= 0.21866E-01
  rms(prec ) = 0.37659E-01
  weight for this iteration     100.00

 eigenvalues of (default mixing * dielectric matrix)
  average eigenvalue GAMMA=   1.2377
  2.7248  2.1622  1.8211  0.8577  0.8577  0.8567  0.8567  0.4348  0.5673

 Free energy of the ion-electron system (eV)
  ---------------------------------------------------
  alpha Z        PSCENC =      1649.05367391
  Ewald energy   TEWEN  =    134958.21486162
  -Hartree energ DENC   =   -177396.96443770
  -exchange      EXHF   =         0.00000000
  -V(xc)+E(xc)   XCENC  =      1403.84510307
  PAW double counting   =     39646.45847010   -38935.40834940
  entropy T*S    EENTRO =        -0.02008263
  eigenvalues    EBANDS =    -10408.12784505
  atomic energy  EATOM  =     48333.26757577
  Solvation  Ediel_sol  =         0.00000000
  ---------------------------------------------------
  free energy    TOTEN  =      -749.68103032 eV

  energy without entropy =     -749.66094769  energy(sigma->0) =     -749.67098900


--------------------------------------------------------------------------------------------------------




--------------------------------------- Iteration      1(  15)  ---------------------------------------


    POTLOK:  cpu time    0.4485: real time    0.4485
    SETDIJ:  cpu time    0.0735: real time    0.0735
     EDDAV:  cpu time   33.0509: real time   33.0532
       DOS:  cpu time    0.0025: real time    0.0025
    CHARGE:  cpu time    1.6041: real time    1.6042
    MIXING:  cpu time    0.0258: real time    0.0258
    --------------------------------------------
      LOOP:  cpu time   35.2053: real time   35.2078

 eigenvalue-minimisations  :  3744
 total energy-change (2. order) :-0.3059257E-02  (-0.1042205E-02)
 number of electron     518.0000026 magnetization 
 augmentation part       16.8849022 magnetization 

 Broyden mixing:
  rms(total) = 0.16007E-01    rms(broyden)= 0.16005E-01
  rms(prec ) = 0.27273E-01
  weight for this iteration     100.00

 eigenvalues of (default mixing * dielectric matrix)
  average eigenvalue GAMMA=   1.2439
  3.0004  2.3792  1.7552  0.4345  0.8968  0.8968  0.8832  0.8832  0.6547  0.6547

 Free energy of the ion-electron system (eV)
  ---------------------------------------------------
  alpha Z        PSCENC =      1649.05367391
  Ewald energy   TEWEN  =    134958.21486162
  -Hartree energ DENC   =   -177430.71231569
  -exchange      EXHF   =         0.00000000
  -V(xc)+E(xc)   XCENC  =      1403.91605407
  PAW double counting   =     39619.08732716   -38908.19041884
  entropy T*S    EENTRO =        -0.02001887
  eigenvalues    EBANDS =    -10374.30082870
  atomic energy  EATOM  =     48333.26757577
  Solvation  Ediel_sol  =         0.00000000
  ---------------------------------------------------
  free energy    TOTEN  =      -749.68408957 eV

  energy without entropy =     -749.66407070  energy(sigma->0) =     -749.67408014


--------------------------------------------------------------------------------------------------------




--------------------------------------- Iteration      1(  16)  ---------------------------------------


    POTLOK:  cpu time    0.4637: real time    0.4638
    SETDIJ:  cpu time    0.0542: real time    0.0542
     EDDAV:  cpu time   32.6619: real time   32.6640
       DOS:  cpu time    0.0023: real time    0.0023
    CHARGE:  cpu time    1.6030: real time    1.6031
    MIXING:  cpu time    0.0250: real time    0.0250
    --------------------------------------------
      LOOP:  cpu time   34.8102: real time   34.8125

 eigenvalue-minimisations  :  3680
 total energy-change (2. order) :-0.2137604E-02  (-0.4668024E-03)
 number of electron     518.0000026 magnetization 
 augmentation part       16.8858148 magnetization 

 Broyden mixing:
  rms(total) = 0.84304E-02    rms(broyden)= 0.84287E-02
  rms(prec ) = 0.15248E-01
  weight for this iteration     100.00

 eigenvalues of (default mixing * dielectric matrix)
  average eigenvalue GAMMA=   1.3426
  3.7159  2.4394  1.9976  1.3672  0.9136  0.9136  0.8663  0.8663  0.4345  0.6381
  0.6163

 Free energy of the ion-electron system (eV)
  ---------------------------------------------------
  alpha Z        PSCENC =      1649.05367391
  Ewald energy   TEWEN  =    134958.21486162
  -Hartree energ DENC   =   -177453.49396451
  -exchange      EXHF   =         0.00000000
  -V(xc)+E(xc)   XCENC  =      1403.96836703
  PAW double counting   =     39604.41106545   -38893.64726952
  entropy T*S    EENTRO =        -0.01953394
  eigenvalues    EBANDS =    -10351.44100299
  atomic energy  EATOM  =     48333.26757577
  Solvation  Ediel_sol  =         0.00000000
  ---------------------------------------------------
  free energy    TOTEN  =      -749.68622718 eV

  energy without entropy =     -749.66669324  energy(sigma->0) =     -749.67646021


--------------------------------------------------------------------------------------------------------




--------------------------------------- Iteration      1(  17)  ---------------------------------------


    POTLOK:  cpu time    0.4575: real time    0.4575
    SETDIJ:  cpu time    0.0538: real time    0.0538
     EDDAV:  cpu time   33.1456: real time   33.1533
       DOS:  cpu time    0.0023: real time    0.0023
    CHARGE:  cpu time    1.6039: real time    1.6040
    MIXING:  cpu time    0.0260: real time    0.0260
    --------------------------------------------
      LOOP:  cpu time   35.2891: real time   35.2969

 eigenvalue-minimisations  :  3760
 total energy-change (2. order) :-0.2194829E-02  (-0.2922556E-03)
 number of electron     518.0000026 magnetization 
 augmentation part       16.8863477 magnetization 

 Broyden mixing:
  rms(total) = 0.67785E-02    rms(broyden)= 0.67761E-02
  rms(prec ) = 0.10677E-01
  weight for this iteration     100.00

 eigenvalues of (default mixing * dielectric matrix)
  average eigenvalue GAMMA=   1.3696
  4.3129  2.5380  2.1252  1.1466  1.0270  1.0270  0.8482  0.8482  0.4345  0.8213
  0.7334  0.5724

 Free energy of the ion-electron system (eV)
  ---------------------------------------------------
  alpha Z        PSCENC =      1649.05367391
  Ewald energy   TEWEN  =    134958.21486162
  -Hartree energ DENC   =   -177471.79350896
  -exchange      EXHF   =         0.00000000
  -V(xc)+E(xc)   XCENC  =      1403.99456538
  PAW double counting   =     39601.50213784   -38890.80541206
  entropy T*S    EENTRO =        -0.01924741
  eigenvalues    EBANDS =    -10333.10306810
  atomic energy  EATOM  =     48333.26757577
  Solvation  Ediel_sol  =         0.00000000
  ---------------------------------------------------
  free energy    TOTEN  =      -749.68842201 eV

  energy without entropy =     -749.66917460  energy(sigma->0) =     -749.67879830


--------------------------------------------------------------------------------------------------------




--------------------------------------- Iteration      1(  18)  ---------------------------------------


    POTLOK:  cpu time    0.4561: real time    0.4562
    SETDIJ:  cpu time    0.0541: real time    0.0541
     EDDAV:  cpu time   29.2864: real time   29.2885
       DOS:  cpu time    0.0023: real time    0.0023
    CHARGE:  cpu time    1.5951: real time    1.5952
    MIXING:  cpu time    0.0277: real time    0.0277
    --------------------------------------------
      LOOP:  cpu time   31.4219: real time   31.4240

 eigenvalue-minimisations  :  3168
 total energy-change (2. order) :-0.1119500E-02  (-0.6438997E-04)
 number of electron     518.0000026 magnetization 
 augmentation part       16.8868005 magnetization 

 Broyden mixing:
  rms(total) = 0.38335E-02    rms(broyden)= 0.38327E-02
  rms(prec ) = 0.71721E-02
  weight for this iteration     100.00

 eigenvalues of (default mixing * dielectric matrix)
  average eigenvalue GAMMA=   1.4531
  4.8236  2.8102  2.2675  1.7531  0.4345  0.9785  0.9785  0.8507  0.8507  0.9287
  0.9287  0.7051  0.5803

 Free energy of the ion-electron system (eV)
  ---------------------------------------------------
  alpha Z        PSCENC =      1649.05367391
  Ewald energy   TEWEN  =    134958.21486162
  -Hartree energ DENC   =   -177478.53238696
  -exchange      EXHF   =         0.00000000
  -V(xc)+E(xc)   XCENC  =      1403.99114825
  PAW double counting   =     39603.72833582   -38893.02948678
  entropy T*S    EENTRO =        -0.01934447
  eigenvalues    EBANDS =    -10326.36391866
  atomic energy  EATOM  =     48333.26757577
  Solvation  Ediel_sol  =         0.00000000
  ---------------------------------------------------
  free energy    TOTEN  =      -749.68954151 eV

  energy without entropy =     -749.67019704  energy(sigma->0) =     -749.67986927


--------------------------------------------------------------------------------------------------------




--------------------------------------- Iteration      1(  19)  ---------------------------------------


    POTLOK:  cpu time    0.4573: real time    0.4573
    SETDIJ:  cpu time    0.0542: real time    0.0542
     EDDAV:  cpu time   28.8245: real time   28.8263
       DOS:  cpu time    0.0020: real time    0.0020
    CHARGE:  cpu time    1.6067: real time    1.6068
    MIXING:  cpu time    0.0292: real time    0.0292
    --------------------------------------------
      LOOP:  cpu time   30.9739: real time   30.9758

 eigenvalue-minimisations  :  3104
 total energy-change (2. order) :-0.9428780E-03  (-0.6329520E-04)
 number of electron     518.0000026 magnetization 
 augmentation part       16.8857344 magnetization 

 Broyden mixing:
  rms(total) = 0.24315E-02    rms(broyden)= 0.24310E-02
  rms(prec ) = 0.46060E-02
  weight for this iteration     100.00

 eigenvalues of (default mixing * dielectric matrix)
  average eigenvalue GAMMA=   1.5056
  5.3324  3.0968  2.2952  2.0548  1.1669  0.4345  0.9685  0.9685  0.8526  0.8526
  0.8820  0.8820  0.7101  0.5817

 Free energy of the ion-electron system (eV)
  ---------------------------------------------------
  alpha Z        PSCENC =      1649.05367391
  Ewald energy   TEWEN  =    134958.21486162
  -Hartree energ DENC   =   -177485.61040115
  -exchange      EXHF   =         0.00000000
  -V(xc)+E(xc)   XCENC  =      1403.99777340
  PAW double counting   =     39607.75707092   -38897.01832829
  entropy T*S    EENTRO =        -0.01943441
  eigenvalues    EBANDS =    -10319.33327615
  atomic energy  EATOM  =     48333.26757577
  Solvation  Ediel_sol  =         0.00000000
  ---------------------------------------------------
  free energy    TOTEN  =      -749.69048439 eV

  energy without entropy =     -749.67104997  energy(sigma->0) =     -749.68076718


--------------------------------------------------------------------------------------------------------




--------------------------------------- Iteration      1(  20)  ---------------------------------------


    POTLOK:  cpu time    0.4485: real time    0.4485
    SETDIJ:  cpu time    0.0540: real time    0.0540
     EDDAV:  cpu time   28.8431: real time   28.8449
       DOS:  cpu time    0.0021: real time    0.0021
    CHARGE:  cpu time    1.6037: real time    1.6039
    MIXING:  cpu time    0.0302: real time    0.0302
    --------------------------------------------
      LOOP:  cpu time   30.9816: real time   30.9835

 eigenvalue-minimisations  :  3104
 total energy-change (2. order) :-0.1023802E-02  (-0.3004883E-04)
 number of electron     518.0000026 magnetization 
 augmentation part       16.8852826 magnetization 

 Broyden mixing:
  rms(total) = 0.16813E-02    rms(broyden)= 0.16811E-02
  rms(prec ) = 0.31024E-02
  weight for this iteration     100.00

 eigenvalues of (default mixing * dielectric matrix)
  average eigenvalue GAMMA=   1.5925
  5.8983  3.4981  2.4077  2.2338  1.6421  0.4345  1.0205  1.0205  0.8544  0.8544
  0.9083  0.9083  0.9128  0.7131  0.5810

 Free energy of the ion-electron system (eV)
  ---------------------------------------------------
  alpha Z        PSCENC =      1649.05367391
  Ewald energy   TEWEN  =    134958.21486162
  -Hartree energ DENC   =   -177489.86361631
  -exchange      EXHF   =         0.00000000
  -V(xc)+E(xc)   XCENC  =      1404.00394280
  PAW double counting   =     39608.03543029   -38897.27899197
  entropy T*S    EENTRO =        -0.01945244
  eigenvalues    EBANDS =    -10315.10493185
  atomic energy  EATOM  =     48333.26757577
  Solvation  Ediel_sol  =         0.00000000
  ---------------------------------------------------
  free energy    TOTEN  =      -749.69150819 eV

  energy without entropy =     -749.67205574  energy(sigma->0) =     -749.68178197


--------------------------------------------------------------------------------------------------------




--------------------------------------- Iteration      1(  21)  ---------------------------------------


    POTLOK:  cpu time    0.4446: real time    0.4446
    SETDIJ:  cpu time    0.0540: real time    0.0540
     EDDAV:  cpu time   28.0887: real time   28.0922
       DOS:  cpu time    0.0019: real time    0.0020
    CHARGE:  cpu time    1.5973: real time    1.5974
    MIXING:  cpu time    0.0320: real time    0.0320
    --------------------------------------------
      LOOP:  cpu time   30.2186: real time   30.2222

 eigenvalue-minimisations  :  2976
 total energy-change (2. order) :-0.1959956E-02  (-0.1741290E-04)
 number of electron     518.0000026 magnetization 
 augmentation part       16.8854538 magnetization 

 Broyden mixing:
  rms(total) = 0.11285E-02    rms(broyden)= 0.11281E-02
  rms(prec ) = 0.17557E-02
  weight for this iteration     100.00

 eigenvalues of (default mixing * dielectric matrix)
  average eigenvalue GAMMA=   1.7234
  6.6243  4.5919  2.5690  2.4045  1.9147  1.2993  0.4345  1.0072  1.0072  0.8596
  0.8596  0.9246  0.9246  0.8499  0.7220  0.5808

 Free energy of the ion-electron system (eV)
  ---------------------------------------------------
  alpha Z        PSCENC =      1649.05367391
  Ewald energy   TEWEN  =    134958.21486162
  -Hartree energ DENC   =   -177492.93705702
  -exchange      EXHF   =         0.00000000
  -V(xc)+E(xc)   XCENC  =      1404.00324646
  PAW double counting   =     39607.69272492   -38896.94047923
  entropy T*S    EENTRO =        -0.01936760
  eigenvalues    EBANDS =    -10312.02864696
  atomic energy  EATOM  =     48333.26757577
  Solvation  Ediel_sol  =         0.00000000
  ---------------------------------------------------
  free energy    TOTEN  =      -749.69346814 eV

  energy without entropy =     -749.67410054  energy(sigma->0) =     -749.68378434


--------------------------------------------------------------------------------------------------------




--------------------------------------- Iteration      1(  22)  ---------------------------------------


    POTLOK:  cpu time    0.4432: real time    0.4432
    SETDIJ:  cpu time    0.0542: real time    0.0542
     EDDAV:  cpu time   27.0520: real time   27.0536
       DOS:  cpu time    0.0020: real time    0.0020
    CHARGE:  cpu time    1.5956: real time    1.5957
    MIXING:  cpu time    0.0332: real time    0.0332
    --------------------------------------------
      LOOP:  cpu time   29.1802: real time   29.1820

 eigenvalue-minimisations  :  2832
 total energy-change (2. order) :-0.1660840E-02  (-0.1893727E-04)
 number of electron     518.0000026 magnetization 
 augmentation part       16.8855707 magnetization 

 Broyden mixing:
  rms(total) = 0.54871E-03    rms(broyden)= 0.54854E-03
  rms(prec ) = 0.73903E-03
  weight for this iteration     100.00

 eigenvalues of (default mixing * dielectric matrix)
  average eigenvalue GAMMA=   1.8033
  7.6588  5.0122  2.8325  2.3911  2.0121  1.5104  0.4345  1.0287  1.0287  0.8542
  0.8542  0.9675  0.9675  0.9018  0.9018  0.7198  0.5808

 Free energy of the ion-electron system (eV)
  ---------------------------------------------------
  alpha Z        PSCENC =      1649.05367391
  Ewald energy   TEWEN  =    134958.21486162
  -Hartree energ DENC   =   -177493.96097442
  -exchange      EXHF   =         0.00000000
  -V(xc)+E(xc)   XCENC  =      1403.99886488
  PAW double counting   =     39607.28055228   -38896.53708074
  entropy T*S    EENTRO =        -0.01941762
  eigenvalues    EBANDS =    -10310.99318467
  atomic energy  EATOM  =     48333.26757577
  Solvation  Ediel_sol  =         0.00000000
  ---------------------------------------------------
  free energy    TOTEN  =      -749.69512898 eV

  energy without entropy =     -749.67571136  energy(sigma->0) =     -749.68542017


--------------------------------------------------------------------------------------------------------




--------------------------------------- Iteration      1(  23)  ---------------------------------------


    POTLOK:  cpu time    0.4449: real time    0.4450
    SETDIJ:  cpu time    0.0542: real time    0.0542
     EDDAV:  cpu time   28.0902: real time   28.1079
       DOS:  cpu time    0.0023: real time    0.0023
    CHARGE:  cpu time    1.5974: real time    1.5975
    MIXING:  cpu time    0.0346: real time    0.0346
    --------------------------------------------
      LOOP:  cpu time   30.2236: real time   30.2414

 eigenvalue-minimisations  :  2976
 total energy-change (2. order) :-0.5545117E-03  (-0.5643258E-05)
 number of electron     518.0000026 magnetization 
 augmentation part       16.8855756 magnetization 

 Broyden mixing:
  rms(total) = 0.27816E-03    rms(broyden)= 0.27813E-03
  rms(prec ) = 0.36062E-03
  weight for this iteration     100.00

 eigenvalues of (default mixing * dielectric matrix)
  average eigenvalue GAMMA=   1.8856
  8.5722  5.4559  2.9930  2.4623  2.2296  1.8750  1.2152  0.4345  1.0461  1.0461
  0.8566  0.8566  0.9384  0.9384  0.8597  0.8597  0.7206  0.5807

 Free energy of the ion-electron system (eV)
  ---------------------------------------------------
  alpha Z        PSCENC =      1649.05367391
  Ewald energy   TEWEN  =    134958.21486162
  -Hartree energ DENC   =   -177494.24097472
  -exchange      EXHF   =         0.00000000
  -V(xc)+E(xc)   XCENC  =      1403.99773468
  PAW double counting   =     39606.91806746   -38896.17580877
  entropy T*S    EENTRO =        -0.01940706
  eigenvalues    EBANDS =    -10310.71140639
  atomic energy  EATOM  =     48333.26757577
  Solvation  Ediel_sol  =         0.00000000
  ---------------------------------------------------
  free energy    TOTEN  =      -749.69568350 eV

  energy without entropy =     -749.67627644  energy(sigma->0) =     -749.68597997


--------------------------------------------------------------------------------------------------------




--------------------------------------- Iteration      1(  24)  ---------------------------------------


    POTLOK:  cpu time    0.4479: real time    0.4479
    SETDIJ:  cpu time    0.0542: real time    0.0542
     EDDAV:  cpu time   26.3234: real time   26.3252
       DOS:  cpu time    0.0021: real time    0.0021
    CHARGE:  cpu time    1.5985: real time    1.5986
    MIXING:  cpu time    0.0364: real time    0.0364
    --------------------------------------------
      LOOP:  cpu time   28.4625: real time   28.4644

 eigenvalue-minimisations  :  2720
 total energy-change (2. order) :-0.2671726E-03  (-0.2744577E-05)
 number of electron     518.0000026 magnetization 
 augmentation part       16.8856096 magnetization 

 Broyden mixing:
  rms(total) = 0.17208E-03    rms(broyden)= 0.17200E-03
  rms(prec ) = 0.21623E-03
  weight for this iteration     100.00

 eigenvalues of (default mixing * dielectric matrix)
  average eigenvalue GAMMA=   1.8879
  9.0303  5.5309  3.2033  2.5407  2.2860  1.8805  1.3663  0.4345  1.0578  1.0578
  0.5808  0.8542  0.8542  0.9426  0.9426  0.7203  0.8671  0.8671  0.8536

 Free energy of the ion-electron system (eV)
  ---------------------------------------------------
  alpha Z        PSCENC =      1649.05367391
  Ewald energy   TEWEN  =    134958.21486162
  -Hartree energ DENC   =   -177494.25367892
  -exchange      EXHF   =         0.00000000
  -V(xc)+E(xc)   XCENC  =      1403.99717062
  PAW double counting   =     39606.82203530   -38896.07942074
  entropy T*S    EENTRO =        -0.01939860
  eigenvalues    EBANDS =    -10310.69876963
  atomic energy  EATOM  =     48333.26757577
  Solvation  Ediel_sol  =         0.00000000
  ---------------------------------------------------
  free energy    TOTEN  =      -749.69595067 eV

  energy without entropy =     -749.67655207  energy(sigma->0) =     -749.68625137


--------------------------------------------------------------------------------------------------------




--------------------------------------- Iteration      1(  25)  ---------------------------------------


    POTLOK:  cpu time    0.4469: real time    0.4469
    SETDIJ:  cpu time    0.0542: real time    0.0542
     EDDAV:  cpu time   25.5171: real time   25.5188
       DOS:  cpu time    0.0022: real time    0.0022
    CHARGE:  cpu time    1.5997: real time    1.5998
    MIXING:  cpu time    0.0381: real time    0.0381
    --------------------------------------------
      LOOP:  cpu time   27.6586: real time   27.6603

 eigenvalue-minimisations  :  2592
 total energy-change (2. order) :-0.5281928E-04  (-0.4214579E-06)
 number of electron     518.0000026 magnetization 
 augmentation part       16.8855999 magnetization 

 Broyden mixing:
  rms(total) = 0.86141E-04    rms(broyden)= 0.86129E-04
  rms(prec ) = 0.10687E-03
  weight for this iteration     100.00

 eigenvalues of (default mixing * dielectric matrix)
  average eigenvalue GAMMA=   1.9030
  9.1774  5.7559  3.3464  2.6086  2.3732  1.8002  1.8002  0.4345  1.1240  1.1240
  0.5808  0.8589  0.8589  0.9633  0.9633  0.9310  0.9310  0.7201  0.8546  0.8546

 Free energy of the ion-electron system (eV)
  ---------------------------------------------------
  alpha Z        PSCENC =      1649.05367391
  Ewald energy   TEWEN  =    134958.21486162
  -Hartree energ DENC   =   -177494.26785929
  -exchange      EXHF   =         0.00000000
  -V(xc)+E(xc)   XCENC  =      1403.99729304
  PAW double counting   =     39606.76826290   -38896.02567917
  entropy T*S    EENTRO =        -0.01940374
  eigenvalues    EBANDS =    -10310.68472853
  atomic energy  EATOM  =     48333.26757577
  Solvation  Ediel_sol  =         0.00000000
  ---------------------------------------------------
  free energy    TOTEN  =      -749.69600349 eV

  energy without entropy =     -749.67659975  energy(sigma->0) =     -749.68630162


--------------------------------------------------------------------------------------------------------




--------------------------------------- Iteration      1(  26)  ---------------------------------------


    POTLOK:  cpu time    0.4488: real time    0.4488
    SETDIJ:  cpu time    0.0542: real time    0.0542
     EDDAV:  cpu time   24.3055: real time   24.3120
       DOS:  cpu time    0.0021: real time    0.0022
    CHARGE:  cpu time    1.5993: real time    1.5994
    MIXING:  cpu time    0.0406: real time    0.0423
    --------------------------------------------
      LOOP:  cpu time   26.4502: real time   26.4586

 eigenvalue-minimisations  :  2416
 total energy-change (2. order) :-0.2752279E-04  (-0.2252216E-06)
[...]
 -----------------------------------------------------------------------------------------------
   -.957E+01 -.831E+01 -.272E+04   0.991E+01 0.828E+01 0.271E+04   -.339E+00 0.392E-01 0.372E+01   -.498E-02 0.100E-02 0.576E-04
   0.711E+01 0.864E+01 -.272E+04   -.712E+01 -.897E+01 0.271E+04   -.195E-01 0.340E+00 0.375E+01   -.143E-02 0.348E-02 -.447E-03
   -.911E-02 -.910E-01 0.279E+04   0.945E-02 0.853E-01 -.278E+04   -.404E-02 0.645E-02 -.384E+01   -.859E-05 0.196E-03 -.693E-02
   0.108E+00 -.127E+00 0.279E+04   -.998E-01 0.110E+00 -.278E+04   -.264E-02 0.699E-02 -.390E+01   0.135E-03 -.168E-03 -.669E-02
   0.116E+01 -.783E+00 0.964E+03   -.117E+01 0.798E+00 -.964E+03   -.167E-01 0.159E-01 0.105E+00   -.296E-03 -.573E-04 -.171E-01
   0.708E+00 -.166E+01 0.964E+03   -.726E+00 0.168E+01 -.964E+03   -.166E-01 0.144E-01 0.185E+00   -.168E-03 0.154E-03 -.176E-01
   0.777E+01 -.930E+01 -.890E+03   -.786E+01 0.940E+01 0.890E+03   0.703E-01 -.852E-01 -.124E+00   -.209E-02 0.128E-02 -.148E-01
   0.156E+01 -.167E+01 -.869E+03   -.156E+01 0.166E+01 0.869E+03   -.257E-02 0.118E-01 -.712E-01   -.302E-04 -.781E-04 -.173E-01
   0.921E+01 -.169E+02 -.271E+04   -.960E+01 0.168E+02 0.271E+04   0.372E+00 0.167E+00 0.374E+01   0.481E-02 0.280E-02 -.267E-03
   -.530E+01 -.209E+02 -.268E+04   0.501E+01 0.189E+02 0.268E+04   0.292E+00 0.201E+01 0.353E+01   0.415E-05 0.271E-02 0.184E-02
   -.137E-01 -.356E-01 0.279E+04   -.582E-02 0.337E-02 -.278E+04   0.177E-01 0.111E-01 -.385E+01   -.277E-04 0.318E-03 -.703E-02
   -.923E-01 -.218E+00 0.279E+04   0.103E+00 0.202E+00 -.278E+04   0.824E-02 0.816E-02 -.389E+01   -.117E-03 -.239E-03 -.675E-02
   -.109E+01 -.456E+00 0.965E+03   0.109E+01 0.434E+00 -.965E+03   0.169E-01 -.198E-02 0.885E-01   0.143E-03 -.713E-04 -.177E-01
   -.464E+00 0.170E+01 0.958E+03   0.435E+00 -.197E+01 -.959E+03   -.589E-03 0.771E-01 0.362E+00   0.913E-04 0.431E-03 -.174E-01
   -.104E+02 -.860E+01 -.891E+03   0.105E+02 0.869E+01 0.891E+03   -.377E-01 -.741E-01 -.102E+00   0.250E-02 0.111E-02 -.154E-01
   -.170E+01 -.539E+01 -.872E+03   0.169E+01 0.530E+01 0.872E+03   -.578E-03 0.103E+00 0.806E-01   0.418E-03 0.904E-03 -.134E-01
   0.151E+02 0.648E+01 -.268E+04   -.133E+02 -.617E+01 0.268E+04   -.193E+01 -.317E+00 0.341E+01   -.627E-02 0.185E-03 0.402E-02
   0.160E+02 -.895E+01 -.271E+04   -.159E+02 0.929E+01 0.271E+04   -.137E+00 -.335E+00 0.374E+01   -.304E-02 -.408E-02 -.239E-03
   -.665E-01 0.112E+00 0.279E+04   0.927E-01 -.893E-01 -.278E+04   -.971E-02 -.200E-01 -.385E+01   -.126E-03 -.148E-03 -.688E-02
   0.195E+00 0.104E+00 0.279E+04   -.187E+00 -.117E+00 -.278E+04   -.550E-02 -.650E-02 -.390E+01   0.258E-03 0.433E-04 -.689E-02
   -.212E+01 0.537E+00 0.958E+03   0.239E+01 -.510E+00 -.959E+03   -.745E-01 -.151E-02 0.285E+00   -.748E-03 0.832E-04 -.175E-01
   0.388E+00 0.147E+01 0.965E+03   -.372E+00 -.147E+01 -.965E+03   0.821E-03 -.179E-01 0.170E+00   -.112E-03 -.618E-04 -.178E-01
   0.704E+01 0.118E+02 -.890E+03   -.712E+01 -.118E+02 0.891E+03   0.520E-01 0.499E-01 -.997E-01   -.163E-02 -.174E-02 -.157E-01
   0.526E+01 0.226E+01 -.873E+03   -.517E+01 -.226E+01 0.873E+03   -.114E+00 0.924E-02 0.663E-01   -.296E-03 -.156E-03 -.144E-01
   0.488E+01 0.259E+02 -.264E+04   -.805E+01 -.262E+02 0.264E+04   0.313E+01 0.329E+00 0.435E+01   0.389E-02 -.155E-02 -.140E-02
   -.240E+02 -.649E+01 -.264E+04   0.244E+02 0.957E+01 0.264E+04   -.360E+00 -.305E+01 0.437E+01   0.204E-02 -.400E-02 -.151E-02
   0.110E+00 -.116E-01 0.279E+04   -.108E+00 0.123E-01 -.278E+04   0.131E-01 -.154E-01 -.386E+01   -.274E-04 -.153E-03 -.698E-02
   -.195E+00 0.205E+00 0.279E+04   0.204E+00 -.215E+00 -.278E+04   0.586E-02 -.645E-02 -.383E+01   -.868E-04 0.544E-04 -.676E-02
   0.257E+01 0.816E+00 0.961E+03   -.287E+01 -.822E+00 -.961E+03   0.740E-01 -.117E-01 0.300E+00   0.463E-03 0.111E-03 -.181E-01
   -.728E+00 -.203E+01 0.961E+03   0.730E+00 0.232E+01 -.962E+03   0.981E-02 -.792E-01 0.384E+00   0.675E-04 -.380E-03 -.179E-01
   -.627E+01 0.740E+01 -.882E+03   0.631E+01 -.745E+01 0.882E+03   -.303E-01 0.419E-01 -.238E+00   0.186E-02 -.160E-02 -.173E-01
   -.567E+01 0.605E+01 -.918E+03   0.556E+01 -.595E+01 0.916E+03   0.969E-01 -.105E+00 0.196E+01   0.931E-03 -.701E-03 -.107E-01
   0.586E-01 -.791E-01 0.950E+03   -.472E-01 0.828E-01 -.952E+03   0.535E-02 0.146E-01 0.104E+01   0.351E-04 0.511E-04 -.250E-02
   0.538E-01 -.635E-01 0.950E+03   -.504E-01 0.517E-01 -.952E+03   -.152E-01 -.320E-02 0.104E+01   0.312E-04 -.412E-04 -.247E-02
   0.128E+01 -.134E+01 -.954E+03   -.129E+01 0.136E+01 0.955E+03   0.291E-01 -.305E-01 -.187E+01   -.169E-04 0.841E-04 -.220E-03
   -.193E+01 0.185E+01 -.943E+03   0.217E+01 -.209E+01 0.944E+03   -.216E+00 0.221E+00 -.169E+01   -.201E-02 0.141E-02 0.393E-03
   0.151E+01 -.971E+00 -.292E+03   -.149E+01 0.988E+00 0.292E+03   -.257E-01 -.217E-02 0.160E+00   -.204E-03 0.570E-03 -.579E-02
   0.541E+00 -.158E+01 -.292E+03   -.549E+00 0.158E+01 0.291E+03   -.368E-02 0.147E-01 0.160E+00   -.768E-03 0.169E-03 -.577E-02
   0.103E+00 -.867E-01 0.325E+03   -.949E-01 0.803E-01 -.325E+03   -.325E-02 0.727E-02 -.601E+00   -.274E-04 -.249E-04 -.635E-02
   0.103E+00 -.258E+00 0.322E+03   -.704E-01 0.231E+00 -.322E+03   -.518E-01 0.522E-01 -.518E+00   -.263E-04 -.545E-05 -.614E-02
   -.574E-01 0.736E-01 0.950E+03   0.460E-01 -.825E-01 -.952E+03   0.930E-02 0.519E-01 0.112E+01   -.234E-04 0.166E-03 -.253E-02
   -.650E-01 -.495E-01 0.951E+03   0.494E-01 0.473E-01 -.952E+03   0.753E-02 0.167E-01 0.103E+01   -.346E-04 -.630E-04 -.251E-02
   -.137E+01 -.822E+01 -.944E+03   0.133E+01 0.831E+01 0.946E+03   0.508E-01 -.713E-01 -.157E+01   0.124E-03 0.158E-02 -.681E-04
   0.675E+00 0.697E+01 -.941E+03   -.801E+00 -.719E+01 0.943E+03   0.138E+00 0.217E+00 -.177E+01   0.253E-02 0.878E-03 0.386E-03
   0.189E-01 -.799E+01 -.309E+03   -.199E-01 0.795E+01 0.309E+03   -.852E-02 0.587E-01 0.239E+00   0.519E-04 0.507E-03 -.360E-02
   -.358E+00 -.103E+01 -.290E+03   0.342E+00 0.102E+01 0.289E+03   0.138E-01 0.110E-01 0.175E+00   0.628E-03 0.241E-03 -.562E-02
   -.143E+00 -.433E+00 0.324E+03   0.141E+00 0.426E+00 -.324E+03   0.112E-01 0.659E-02 -.458E+00   0.771E-04 -.225E-04 -.603E-02
   -.204E+00 -.116E+00 0.322E+03   0.196E+00 0.927E-01 -.322E+03   0.603E-01 0.678E-01 -.553E+00   0.590E-04 0.488E-04 -.625E-02
   0.458E-01 0.108E+00 0.951E+03   -.430E-01 -.804E-01 -.952E+03   -.136E-01 -.115E-01 0.104E+01   0.590E-04 -.183E-05 -.250E-02
   -.991E-01 0.609E-01 0.950E+03   0.114E+00 -.504E-01 -.952E+03   -.517E-01 -.806E-02 0.111E+01   -.102E-03 0.208E-04 -.253E-02
   0.939E+01 0.198E+01 -.944E+03   -.947E+01 -.190E+01 0.946E+03   0.637E-01 -.675E-01 -.154E+01   -.829E-03 0.137E-03 0.931E-05
   -.736E+01 0.580E-01 -.941E+03   0.762E+01 0.157E+00 0.942E+03   -.248E+00 -.196E+00 -.177E+01   -.109E-02 -.175E-02 0.610E-03
   0.983E+00 0.560E+00 -.290E+03   -.972E+00 -.540E+00 0.290E+03   -.135E-01 -.222E-01 0.166E+00   -.196E-03 -.474E-03 -.581E-02
   0.737E+01 0.177E+00 -.310E+03   -.731E+01 -.167E+00 0.310E+03   -.919E-01 -.134E-03 0.247E+00   -.986E-03 0.108E-04 -.404E-02
   0.378E+00 0.198E+00 0.323E+03   -.368E+00 -.194E+00 -.323E+03   -.623E-02 -.592E-02 -.455E+00   0.442E-04 -.248E-05 -.619E-02
   -.449E-01 0.380E+00 0.322E+03   0.756E-01 -.368E+00 -.322E+03   -.699E-01 -.563E-01 -.548E+00   -.322E-04 -.110E-05 -.619E-02
   -.653E-01 -.539E-01 0.951E+03   0.481E-01 0.869E-01 -.952E+03   -.738E-02 -.479E-01 0.112E+01   -.800E-05 -.952E-04 -.250E-02
   0.955E-01 0.696E-01 0.950E+03   -.119E+00 -.526E-01 -.952E+03   0.480E-01 0.992E-02 0.111E+01   0.451E-04 0.678E-05 -.253E-02
   -.938E+02 0.915E+02 -.917E+03   0.104E+03 -.101E+03 0.909E+03   -.987E+01 0.887E+01 0.696E+01   0.420E-02 -.242E-02 0.415E-02
   0.703E+01 -.665E+01 -.926E+03   -.721E+01 0.684E+01 0.928E+03   0.212E+00 -.201E+00 -.193E+01   0.155E-02 -.129E-02 0.359E-05
   -.177E+01 0.758E+01 -.309E+03   0.177E+01 -.750E+01 0.309E+03   -.688E-02 -.720E-01 0.309E+00   0.120E-03 -.597E-03 -.432E-02
   -.687E+01 0.206E+01 -.309E+03   0.681E+01 -.206E+01 0.309E+03   0.733E-01 0.633E-02 0.314E+00   0.795E-03 -.581E-04 -.436E-02
   -.629E+00 0.632E+00 0.329E+03   0.642E+00 -.641E+00 -.329E+03   -.272E-01 0.258E-01 -.145E+00   0.593E-04 -.167E-06 -.611E-02
   0.174E+00 -.302E-02 0.322E+03   -.185E+00 0.171E-01 -.322E+03   0.310E-01 -.263E-01 -.536E+00   0.523E-04 -.538E-04 -.629E-02
   0.613E+02 -.551E+02 -.165E+04   -.825E+02 0.748E+02 0.168E+04   0.211E+02 -.197E+02 -.369E+02   0.989E-02 -.109E-01 0.118E-01
 -----------------------------------------------------------------------------------------------
   -.122E+02 0.118E+02 0.329E+02   0.171E-12 -.426E-13 0.250E-11   0.122E+02 -.118E+02 -.325E+02   0.101E-01 -.123E-01 -.405E+00
 
 
 POSITION                                       TOTAL-FORCE (eV/Angst)
 -----------------------------------------------------------------------------------
      0.01941      9.29175      6.86288        -0.002516      0.012614      0.015449
      2.32632      2.30590      6.86323        -0.029775      0.005318      0.012709
      0.00000      2.32370      0.00000        -0.004052      0.000865      1.335788
      2.32370      0.00000      0.00000         0.004858     -0.010167      1.210651
      0.00000      0.00000      2.32366        -0.028161      0.030265     -0.136286
      2.32370      2.32370      2.32366        -0.034879      0.027069     -0.055473
     -0.01071      2.33381      4.62491        -0.027548      0.022353      0.030637
      2.32228      0.00241      4.60524        -0.003122     -0.000612      0.004181
      4.62898      9.29497      6.85995        -0.014249      0.005728      0.032455
      6.97931      2.25637      6.92678        -0.001772      0.019482      0.097466
      4.64740      2.32370      0.00000        -0.002170     -0.020925      1.319354
      6.97110      0.00000      0.00000         0.018190     -0.007882      1.249418
      4.64740      0.00000      2.32366         0.016767     -0.024129     -0.120612
      6.97110      2.32370      2.32366        -0.029898     -0.196528     -0.146353
      4.65443      2.33237      4.62742         0.001348      0.016804      0.043412
      6.97063      9.29240      4.61135        -0.006994      0.014828      0.026008
      0.06066      4.63923      6.93272        -0.078924     -0.013523      0.127391
      2.32308      6.98948      6.86052        -0.014666      0.000353      0.029984
      0.00000      6.97110      0.00000         0.015956      0.002553      1.323675
      2.32370      4.64740      0.00000         0.002564     -0.020086      1.245618
      0.00000      4.64740      2.32366         0.187964      0.025175     -0.213440
      2.32370      6.97110      2.32366         0.016224     -0.020229     -0.037324
     -0.00949      6.96555      4.62727        -0.023524     -0.008398      0.037235
      2.32470      4.64906      4.61232        -0.024504      0.009605      0.036032
      4.57078      4.64919      6.95434        -0.025132      0.010859      0.132431
      6.97177      7.04765      6.95276        -0.004368      0.019862      0.097154
      4.64740      6.97110      0.00000         0.014416     -0.014883      1.312089
      6.97110      4.64740      0.00000         0.015116     -0.017119      1.169731
      4.64740      4.64740      2.32366        -0.225677     -0.017549     -0.202000
      6.97110      6.97110      2.32366         0.011320      0.214783     -0.131522
      4.65774      6.96213      4.63184         0.012513     -0.015349      0.045582
      6.96148      4.65662      4.54993        -0.004987     -0.002242     -0.011886
      2.32370      2.32370      0.00000         0.016468      0.018303     -0.612966
      0.00000      0.00000      0.00000        -0.012051     -0.015145     -0.623047
      2.32186      0.00391      6.96014         0.013498     -0.004978      0.013600
     -0.00112      2.32558      6.96407         0.019432     -0.022902      0.029833
      2.32665      2.32746      4.64704        -0.011623      0.015177      0.016065
     -0.00279      9.29283      4.64691        -0.013507      0.005894      0.012541
      2.32370      0.00000      2.32366         0.004507      0.000683     -0.551981
      0.00000      2.32370      2.32366        -0.020025      0.024463     -0.545333
      6.97110      2.32370      0.00000        -0.002449      0.043094     -0.568044
      4.64740      0.00000      0.00000        -0.008387      0.014415     -0.618800
      6.97279      9.28739      6.97626         0.009179      0.025096      0.053299
      4.65445      2.33764      6.97913         0.014102     -0.001710      0.071265
      6.97202      2.33968      4.67600        -0.009772      0.015331      0.044649
      4.64979      0.00371      4.64286        -0.002157      0.007600      0.027036
      6.97110      0.00000      2.32366         0.009319      0.000305     -0.464857
      4.64740      2.32370      2.32366         0.052679      0.044895     -0.549780
      2.32370      6.97110      0.00000        -0.011056      0.015672     -0.613259
      0.00000      4.64740      0.00000        -0.037632      0.002397     -0.572805
      2.33467      4.64886      6.97706        -0.008047      0.007003      0.066005
      9.28351      6.96955      6.97915         0.013721      0.017428      0.072780
      2.32072      6.96936      4.64410        -0.003184     -0.002967      0.025173
      9.27704      4.64756      4.67655        -0.035524      0.009966      0.049256
      2.32370      4.64740      2.32366         0.003703     -0.002221     -0.457385
      0.00000      6.97110      2.32366        -0.039605     -0.044506     -0.545098
      6.97110      6.97110      0.00000        -0.024966     -0.015101     -0.563095
      4.64740      4.64740      0.00000         0.023854      0.026852     -0.563424
      7.06295      4.59554      7.96717         0.343231     -0.218639     -0.828891
      4.63040      6.99124      6.94940         0.035962     -0.015344      0.081899
      6.97109      6.96226      4.67570        -0.009054      0.003317      0.061260
      4.65803      4.64850      4.67454         0.006122      0.007588      0.057187
      6.97110      4.64740      2.32366        -0.014181      0.016871     -0.174330
      4.64740      6.97110      2.32366         0.020012     -0.012289     -0.574283
      6.36269      5.24329      8.81855        -0.052890     -0.015441     -1.134028
 -----------------------------------------------------------------------------------
    total drift:                                0.021811      0.004897      0.038339


--------------------------------------------------------------------------------------------------------



  FREE ENERGIE OF THE ION-ELECTRON SYSTEM (eV)
  ---------------------------------------------------
  free  energy   TOTEN  =      -750.12335234 eV

  energy  without entropy=     -750.10071269  energy(sigma->0) =     -750.11203251
 
 d Force =-0.1400645E-01[-0.140E-01,-0.141E-01]  d Energy =-0.1395878E-01-0.477E-04
 d Force = 0.2948373E+02[ 0.295E+02, 0.295E+02]  d Ewald  = 0.2948373E+02-0.525E-05


--------------------------------------------------------------------------------------------------------


    POTLOK:  cpu time    0.5128: real time    0.5128


--------------------------------------------------------------------------------------------------------


 NEB: the previous image is higher in energy: F
 NEB: the next image is higher in energy    : T
 NEB: only next energy greater

 NEB: Tangent
 ----------------------------------------------
      0.00592     -0.00147     -0.00312
      0.00258     -0.00527     -0.00358
      0.00000      0.00000      0.00000
      0.00000      0.00000      0.00000
      0.00000      0.00000      0.00000
      0.00000      0.00000      0.00000
      0.00621     -0.00511     -0.00804
      0.00047     -0.00018     -0.00001
     -0.00135     -0.00149     -0.00672
     -0.00245     -0.02619     -0.02114
      0.00000      0.00000      0.00000
      0.00000      0.00000      0.00000
      0.00000      0.00000      0.00000
      0.00000      0.00000      0.00000
     -0.00175     -0.00403     -0.01063
      0.00111     -0.00038     -0.00938
      0.02700      0.00283     -0.01868
      0.00232      0.00191     -0.00705
      0.00000      0.00000      0.00000
      0.00000      0.00000      0.00000
      0.00000      0.00000      0.00000
      0.00000      0.00000      0.00000
      0.00495      0.00134     -0.01019
      0.00125     -0.00152     -0.00999
     -0.02478     -0.00241     -0.05421
      0.00210      0.02406     -0.05290
      0.00000      0.00000      0.00000
      0.00000      0.00000      0.00000
      0.00000      0.00000      0.00000
      0.00000      0.00000      0.00000
     -0.00683      0.00677     -0.01421
      0.00412     -0.00360     -0.00007
      0.00000      0.00000      0.00000
      0.00000      0.00000      0.00000
     -0.00196      0.00069     -0.00282
     -0.00930      0.00853      0.00900
      0.00046     -0.00292     -0.00124
      0.00289     -0.00030     -0.00114
      0.00000      0.00000      0.00000
      0.00000      0.00000      0.00000
      0.00000      0.00000      0.00000
      0.00000      0.00000      0.00000
     -0.00247      0.00133     -0.01863
      0.00557      0.00485     -0.00059
      0.00219     -0.00704     -0.00656
     -0.00127     -0.00205     -0.00240
      0.00000      0.00000      0.00000
      0.00000      0.00000      0.00000
      0.00000      0.00000      0.00000
      0.00000      0.00000      0.00000
     -0.00366      0.00004     -0.01977
     -0.00636     -0.00695     -0.00102
      0.00170      0.00127     -0.00239
      0.00841     -0.00159     -0.00733
      0.00000      0.00000      0.00000
      0.00000      0.00000      0.00000
      0.00000      0.00000      0.00000
      0.00000      0.00000      0.00000
     -0.09027      0.12754      0.64824
      0.00794     -0.00980      0.00076
      0.00226      0.00176     -0.01013
     -0.00278     -0.00171     -0.01013
      0.00000      0.00000      0.00000
      0.00000      0.00000      0.00000
      0.02688     -0.06021      0.73413

 NEB: forces: par spring, perp REAL, dneb     0.969667    0.378413    0.000000
 NEB: distance to prev, next image, angle between     0.633020    0.826953  167.198178
 NEB: projections on to tangent (spring, REAL)     0.969667   -1.456138

 stress matrix after NEB project (eV)
    -36.35319     -1.04532      0.79278
     -1.04532    -36.05294     -0.84306
      0.79278     -0.84306    -19.27674
  FORCES: max atom, RMS     0.759355    0.129106
  FORCE total and by dimension    1.040890    0.743602
  Stress total and by dimension   54.752404   36.353194
 
 OPT: Flag T
 OPT: QM Step


--------------------------------------------------------------------------------------------------------


     LOOP+:  cpu time  259.7304: real time  261.4258
    4ORBIT:  cpu time    0.0000: real time    0.0000

 total amount of memory used by VASP MPI-rank0   163583. kBytes
=======================================================================

   base      :      30000. kBytes
   nonlr-proj:      14445. kBytes
   fftplans  :       7895. kBytes
   grid      :      27008. kBytes
   one-center:       1010. kBytes
   wavefun   :      83225. kBytes
 
  
  
 General timing and accounting informations for this job:
 ========================================================
  
                  Total CPU time used (sec):    13477.380
                            User time (sec):    13380.769
                          System time (sec):       96.611
                         Elapsed time (sec):    13597.820
  
                   Maximum memory used (kb):      881292.
                   Average memory used (kb):           0.
  
                          Minor page faults:      9977213
                          Major page faults:            0
                 Voluntary context switches:       139878
