 vasp.5.4.4.18Apr17-6-g9f103f2a35 (build Aug 09 2024 17:42:55) complex          
  
 POSCAR found type information on POSCAR  Hf C  O 
 02/POSCAR found :  3 types and      65 ions
 scaLAPACK will be used

 ----------------------------------------------------------------------------- 
|                                                                             |
|           W    W    AA    RRRRR   N    N  II  N    N   GGGG   !!!           |
|           W    W   A  A   R    R  NN   N  II  NN   N  G    G  !!!           |
|           W    W  A    A  R    R  N N  N  II  N N  N  G       !!!           |
|           W WW W  AAAAAA  RRRRR   N  N N  II  N  N N  G  GGG   !            |
|           WW  WW  A    A  R   R   N   NN  II  N   NN  G    G                |
|           W    W  A    A  R    R  N    N  II  N    N   GGGG   !!!           |
|                                                                             |
|      For optimal performance we recommend to set                            |
|        NCORE= 4 - approx SQRT( number of cores)                             |
|      NCORE specifies how many cores store one orbital (NPAR=cpu/NCORE).     |
|      This setting can  greatly improve the performance of VASP for DFT.     |
|      The default,   NCORE=1            might be grossly inefficient         |
|      on modern multi-core architectures or massively parallel machines.     |
|      Do your own testing !!!!                                               |
|      Unfortunately you need to use the default for GW and RPA calculations. |
|      (for HF NCORE is supported but not extensively tested yet)             |
|                                                                             |
 ----------------------------------------------------------------------------- 

 LDA part: xc-table for Pade appr. of Perdew
 POSCAR found type information on POSCAR  Hf C  O 
 00/POSCAR found :  3 types and      65 ions
 POSCAR found type information on POSCAR  Hf C  O 
 05/POSCAR found :  3 types and      65 ions
 Jacobian:    24.8273015321007     
 POSCAR, INCAR and KPOINTS ok, starting setup
 FFT: planning ...
 WAVECAR not read
 entering main loop
       N       E                     dE             d eps       ncg     rms          rms(c)
DAV:   1     0.477838933031E+04    0.47784E+04   -0.29379E+05  3792   0.144E+03
DAV:   2    -0.528353039885E+03   -0.53067E+04   -0.51621E+04  3856   0.443E+02
DAV:   3    -0.898875610290E+03   -0.37052E+03   -0.36424E+03  3760   0.107E+02
DAV:   4    -0.912745293172E+03   -0.13870E+02   -0.13811E+02  4016   0.180E+01
DAV:   5    -0.913139324170E+03   -0.39403E+00   -0.39373E+00  4032   0.261E+00    0.596E+01
DAV:   6    -0.759282375587E+03    0.15386E+03   -0.88634E+02  3600   0.365E+01    0.232E+01
DAV:   7    -0.755341166848E+03    0.39412E+01   -0.85845E+01  4544   0.169E+01    0.145E+01
DAV:   8    -0.752272451714E+03    0.30687E+01   -0.40538E+01  3952   0.102E+01    0.102E+01
DAV:   9    -0.750167329374E+03    0.21051E+01   -0.90046E+00  4144   0.575E+00    0.357E+00
DAV:  10    -0.749755843328E+03    0.41149E+00   -0.21754E+00  3728   0.282E+00    0.209E+00
DAV:  11    -0.749717316003E+03    0.38527E-01   -0.73294E-01  3936   0.121E+00    0.110E+00
DAV:  12    -0.749693658914E+03    0.23657E-01   -0.12807E-01  3776   0.615E-01    0.570E-01
DAV:  13    -0.749685571963E+03    0.80870E-02   -0.96007E-02  3920   0.470E-01    0.504E-01
DAV:  14    -0.749681030318E+03    0.45416E-02   -0.43193E-02  3808   0.225E-01    0.219E-01
DAV:  15    -0.749684089575E+03   -0.30593E-02   -0.10422E-02  3744   0.178E-01    0.160E-01
DAV:  16    -0.749686227178E+03   -0.21376E-02   -0.46680E-03  3680   0.101E-01    0.843E-02
DAV:  17    -0.749688422007E+03   -0.21948E-02   -0.29226E-03  3760   0.689E-02    0.678E-02
DAV:  18    -0.749689541507E+03   -0.11195E-02   -0.64390E-04  3168   0.422E-02    0.383E-02
DAV:  19    -0.749690484385E+03   -0.94288E-03   -0.63295E-04  3104   0.337E-02    0.243E-02
DAV:  20    -0.749691508187E+03   -0.10238E-02   -0.30049E-04  3104   0.224E-02    0.168E-02
DAV:  21    -0.749693468143E+03   -0.19600E-02   -0.17413E-04  2976   0.154E-02    0.113E-02
DAV:  22    -0.749695128984E+03   -0.16608E-02   -0.18937E-04  2832   0.112E-02    0.549E-03
DAV:  23    -0.749695683495E+03   -0.55451E-03   -0.56433E-05  2976   0.550E-03    0.278E-03
DAV:  24    -0.749695950668E+03   -0.26717E-03   -0.27446E-05  2720   0.369E-03    0.172E-03
DAV:  25    -0.749696003487E+03   -0.52819E-04   -0.42146E-06  2592   0.164E-03    0.861E-04
DAV:  26    -0.749696031010E+03   -0.27523E-04   -0.22522E-06  2416   0.102E-03    0.364E-04
DAV:  27    -0.749696039187E+03   -0.81770E-05   -0.82984E-07  2400   0.627E-04
   1 F= -.74969604E+03 E0= -.74968634E+03  d E =-.749696E+03
quench:  g(F)=  0.000E+00 g(S)=  0.000E+00 dE (1.order)= 0.000E+00
 bond charge predicted
       N       E                     dE             d eps       ncg     rms          rms(c)
DAV:   1    -0.749698418725E+03   -0.23877E-02   -0.11500E-03  3584   0.543E-02    0.788E-03
DAV:   2    -0.749698427934E+03   -0.92093E-05   -0.90405E-05  3152   0.137E-02    0.179E-02
DAV:   3    -0.749698420843E+03    0.70917E-05   -0.32174E-05  2464   0.883E-03    0.404E-03
DAV:   4    -0.749698421326E+03   -0.48349E-06   -0.22884E-06  2176   0.237E-03
   2 F= -.74969842E+03 E0= -.74968871E+03  d E =-.238214E-02
quench:  g(F)=  0.000E+00 g(S)=  0.000E+00 dE (1.order)= 0.000E+00
 bond charge predicted
       N       E                     dE             d eps       ncg     rms          rms(c)
DAV:   1    -0.749703152949E+03   -0.47321E-02   -0.45897E-03  3440   0.109E-01    0.159E-02
DAV:   2    -0.749703186971E+03   -0.34022E-04   -0.36388E-04  3408   0.280E-02    0.358E-02
DAV:   3    -0.749703158936E+03    0.28036E-04   -0.12907E-04  2896   0.175E-02    0.837E-03
DAV:   4    -0.749703159620E+03   -0.68439E-06   -0.88812E-06  2512   0.443E-03
   3 F= -.74970316E+03 E0= -.74969344E+03  d E =-.473829E-02
quench:  g(F)=  0.000E+00 g(S)=  0.000E+00 dE (1.order)= 0.000E+00
 bond charge predicted
       N       E                     dE             d eps       ncg     rms          rms(c)
DAV:   1    -0.749710209088E+03   -0.70502E-02   -0.10296E-02  3440   0.163E-01    0.239E-02
DAV:   2    -0.749710284572E+03   -0.75483E-04   -0.81659E-04  3440   0.425E-02    0.536E-02
DAV:   3    -0.749710222340E+03    0.62232E-04   -0.28864E-04  3120   0.261E-02    0.127E-02
DAV:   4    -0.749710223178E+03   -0.83844E-06   -0.20430E-05  2800   0.652E-03
   4 F= -.74971022E+03 E0= -.74970048E+03  d E =-.706356E-02
quench:  g(F)=  0.000E+00 g(S)=  0.000E+00 dE (1.order)= 0.000E+00
 bond charge predicted
       N       E                     dE             d eps       ncg     rms          rms(c)
DAV:   1    -0.749719528536E+03   -0.93062E-02   -0.18240E-02  3440   0.216E-01    0.319E-02
DAV:   2    -0.749719662256E+03   -0.13372E-03   -0.14467E-03  3536   0.567E-02    0.715E-02
DAV:   3    -0.749719552863E+03    0.10939E-03   -0.50928E-04  3152   0.345E-02    0.171E-02
DAV:   4    -0.749719553191E+03   -0.32788E-06   -0.36665E-05  2928   0.865E-03
   5 F= -.74971955E+03 E0= -.74970979E+03  d E =-.933001E-02
quench:  g(F)=  0.000E+00 g(S)=  0.000E+00 dE (1.order)= 0.000E+00
 bond charge predicted
       N       E                     dE             d eps       ncg     rms          rms(c)
DAV:   1    -0.749731048194E+03   -0.11495E-01   -0.28369E-02  3408   0.270E-01    0.399E-02
DAV:   2    -0.749731258163E+03   -0.20997E-03   -0.22624E-03  3616   0.710E-02    0.896E-02
DAV:   3    -0.749731086839E+03    0.17132E-03   -0.79614E-04  3200   0.431E-02    0.214E-02
DAV:   4    -0.749731086362E+03    0.47708E-06   -0.58973E-05  2992   0.107E-02
   6 F= -.74973109E+03 E0= -.74972129E+03  d E =-.115332E-01
quench:  g(F)=  0.000E+00 g(S)=  0.000E+00 dE (1.order)= 0.000E+00
 bond charge predicted
       N       E                     dE             d eps       ncg     rms          rms(c)
DAV:   1    -0.749744680944E+03   -0.13594E-01   -0.40646E-02  3408   0.323E-01    0.480E-02
DAV:   2    -0.749744986151E+03   -0.30521E-03   -0.32692E-03  3776   0.854E-02    0.108E-01
DAV:   3    -0.749744737072E+03    0.24908E-03   -0.11551E-03  3296   0.517E-02    0.257E-02
DAV:   4    -0.749744735555E+03    0.15177E-05   -0.83544E-05  3104   0.125E-02
   7 F= -.74974474E+03 E0= -.74973490E+03  d E =-.136492E-01
quench:  g(F)=  0.000E+00 g(S)=  0.000E+00 dE (1.order)= 0.000E+00
 bond charge predicted
       N       E                     dE             d eps       ncg     rms          rms(c)
DAV:   1    -0.749760318501E+03   -0.15581E-01   -0.54961E-02  3408   0.375E-01    0.562E-02
DAV:   2    -0.749760738053E+03   -0.41955E-03   -0.44686E-03  3856   0.996E-02    0.127E-01
DAV:   3    -0.749760394176E+03    0.34388E-03   -0.15826E-03  3360   0.601E-02    0.302E-02
DAV:   4    -0.749760392377E+03    0.17986E-05   -0.11814E-04  3120   0.144E-02    0.142E-02
DAV:   5    -0.749760390210E+03    0.21671E-05   -0.15719E-05  2752   0.132E-02
   8 F= -.74976039E+03 E0= -.74975051E+03  d E =-.156547E-01
quench:  g(F)=  0.000E+00 g(S)=  0.000E+00 dE (1.order)= 0.000E+00
 bond charge predicted
       N       E                     dE             d eps       ncg     rms          rms(c)
DAV:   1    -0.749777825519E+03   -0.17433E-01   -0.71213E-02  3440   0.427E-01    0.638E-02
DAV:   2    -0.749778362057E+03   -0.53654E-03   -0.56866E-03  3872   0.107E-01    0.143E-01
DAV:   3    -0.749777930090E+03    0.43197E-03   -0.20270E-03  3536   0.666E-02    0.326E-02
DAV:   4    -0.749777931404E+03   -0.13141E-05   -0.14323E-04  3104   0.172E-02    0.162E-02
DAV:   5    -0.749777927585E+03    0.38195E-05   -0.20465E-05  2768   0.151E-02
   9 F= -.74977793E+03 E0= -.74976800E+03  d E =-.175374E-01
quench:  g(F)=  0.000E+00 g(S)=  0.000E+00 dE (1.order)= 0.000E+00
 bond charge predicted
       N       E                     dE             d eps       ncg     rms          rms(c)
DAV:   1    -0.749797069326E+03   -0.19138E-01   -0.89296E-02  3424   0.478E-01    0.717E-02
DAV:   2    -0.749797754045E+03   -0.68472E-03   -0.72123E-03  3952   0.120E-01    0.163E-01
DAV:   3    -0.749797198256E+03    0.55579E-03   -0.25841E-03  3520   0.750E-02    0.369E-02
DAV:   4    -0.749797200839E+03   -0.25828E-05   -0.18404E-04  3120   0.193E-02    0.182E-02
DAV:   5    -0.749797195932E+03    0.49075E-05   -0.25839E-05  2880   0.170E-02
  10 F= -.74979720E+03 E0= -.74978721E+03  d E =-.192683E-01
quench:  g(F)=  0.000E+00 g(S)=  0.000E+00 dE (1.order)= 0.000E+00
 bond charge predicted
       N       E                     dE             d eps       ncg     rms          rms(c)
DAV:   1    -0.749817877946E+03   -0.20677E-01   -0.10913E-01  3392   0.529E-01    0.800E-02
DAV:   2    -0.749818730795E+03   -0.85285E-03   -0.89392E-03  4000   0.133E-01    0.182E-01
DAV:   3    -0.749818033173E+03    0.69762E-03   -0.32247E-03  3520   0.836E-02    0.411E-02
DAV:   4    -0.749818036659E+03   -0.34860E-05   -0.22750E-04  3120   0.215E-02    0.202E-02
DAV:   5    -0.749818030792E+03    0.58676E-05   -0.33012E-05  3072   0.189E-02
  11 F= -.74981803E+03 E0= -.74980799E+03  d E =-.208349E-01
quench:  g(F)=  0.000E+00 g(S)=  0.000E+00 dE (1.order)= 0.000E+00
 bond charge predicted
       N       E                     dE             d eps       ncg     rms          rms(c)
DAV:   1    -0.749840048564E+03   -0.22012E-01   -0.13053E-01  3424   0.579E-01    0.883E-02
DAV:   2    -0.749841086319E+03   -0.10378E-02   -0.10825E-02  4032   0.146E-01    0.202E-01
DAV:   3    -0.749840231817E+03    0.85450E-03   -0.39334E-03  3648   0.920E-02    0.450E-02
DAV:   4    -0.749840235907E+03   -0.40899E-05   -0.27054E-04  3088   0.233E-02    0.221E-02
DAV:   5    -0.749840229283E+03    0.66233E-05   -0.39992E-05  3152   0.205E-02
  12 F= -.74984023E+03 E0= -.74983012E+03  d E =-.221985E-01
quench:  g(F)=  0.000E+00 g(S)=  0.000E+00 dE (1.order)= 0.000E+00
 bond charge predicted
       N       E                     dE             d eps       ncg     rms          rms(c)
DAV:   1    -0.749863370100E+03   -0.23134E-01   -0.15334E-01  3520   0.627E-01    0.964E-02
DAV:   2    -0.749864611003E+03   -0.12409E-02   -0.12873E-02  4064   0.159E-01    0.222E-01
DAV:   3    -0.749863580097E+03    0.10309E-02   -0.47285E-03  3712   0.100E-01    0.487E-02
DAV:   4    -0.749863585298E+03   -0.52013E-05   -0.31420E-04  3088   0.251E-02    0.238E-02
DAV:   5    -0.749863578248E+03    0.70497E-05   -0.46837E-05  3184   0.221E-02
  13 F= -.74986358E+03 E0= -.74985340E+03  d E =-.233490E-01
quench:  g(F)=  0.000E+00 g(S)=  0.000E+00 dE (1.order)= 0.000E+00
 bond charge predicted
       N       E                     dE             d eps       ncg     rms          rms(c)
DAV:   1    -0.749887601743E+03   -0.24016E-01   -0.17729E-01  3552   0.676E-01    0.104E-01
DAV:   2    -0.749889060062E+03   -0.14583E-02   -0.15039E-02  4048   0.171E-01    0.242E-01
DAV:   3    -0.749887837498E+03    0.12226E-02   -0.55758E-03  3808   0.108E-01    0.523E-02
DAV:   4    -0.749887844799E+03   -0.73010E-05   -0.36160E-04  3136   0.268E-02    0.255E-02
DAV:   5    -0.749887837225E+03    0.75741E-05   -0.54015E-05  3200   0.236E-02
  14 F= -.74988784E+03 E0= -.74987759E+03  d E =-.242590E-01
quench:  g(F)=  0.000E+00 g(S)=  0.000E+00 dE (1.order)= 0.000E+00
 bond charge predicted
       N       E                     dE             d eps       ncg     rms          rms(c)
DAV:   1    -0.749912529006E+03   -0.24684E-01   -0.20201E-01  3552   0.723E-01    0.112E-01
DAV:   2    -0.749914221303E+03   -0.16923E-02   -0.17340E-02  4064   0.183E-01    0.262E-01
DAV:   3    -0.749912790546E+03    0.14308E-02   -0.64763E-03  3904   0.116E-01    0.557E-02
DAV:   4    -0.749912800049E+03   -0.95036E-05   -0.40865E-04  3184   0.285E-02    0.271E-02
DAV:   5    -0.749912792165E+03    0.78845E-05   -0.61458E-05  3232   0.250E-02
  15 F= -.74991279E+03 E0= -.74990247E+03  d E =-.249549E-01
quench:  g(F)=  0.000E+00 g(S)=  0.000E+00 dE (1.order)= 0.000E+00
 bond charge predicted
       N       E                     dE             d eps       ncg     rms          rms(c)
DAV:   1    -0.749937900288E+03   -0.25100E-01   -0.22733E-01  3552   0.769E-01    0.120E-01
DAV:   2    -0.749939829279E+03   -0.19290E-02   -0.19651E-02  4080   0.194E-01    0.281E-01
DAV:   3    -0.749938189246E+03    0.16400E-02   -0.73789E-03  3920   0.123E-01    0.586E-02
DAV:   4    -0.749938200569E+03   -0.11323E-04   -0.44882E-04  3216   0.300E-02    0.286E-02
DAV:   5    -0.749938192455E+03    0.81138E-05   -0.68295E-05  3264   0.262E-02
  16 F= -.74993819E+03 E0= -.74992780E+03  d E =-.254003E-01
quench:  g(F)=  0.000E+00 g(S)=  0.000E+00 dE (1.order)= 0.000E+00
 bond charge predicted
       N       E                     dE             d eps       ncg     rms          rms(c)
DAV:   1    -0.749963412124E+03   -0.25212E-01   -0.25276E-01  3552   0.814E-01    0.126E-01
DAV:   2    -0.749965573505E+03   -0.21614E-02   -0.21902E-02  4064   0.204E-01    0.298E-01
DAV:   3    -0.749963727085E+03    0.18464E-02   -0.82640E-03  3968   0.130E-01    0.610E-02
DAV:   4    -0.749963740055E+03   -0.12969E-04   -0.48246E-04  3248   0.313E-02    0.298E-02
DAV:   5    -0.749963731931E+03    0.81237E-05   -0.74430E-05  3232   0.271E-02
  17 F= -.74996373E+03 E0= -.74995326E+03  d E =-.255395E-01
quench:  g(F)=  0.000E+00 g(S)=  0.000E+00 dE (1.order)= 0.000E+00
 bond charge predicted
       N       E                     dE             d eps       ncg     rms          rms(c)
DAV:   1    -0.749988799505E+03   -0.25059E-01   -0.27809E-01  3552   0.857E-01    0.131E-01
DAV:   2    -0.749991157657E+03   -0.23582E-02   -0.23759E-02  4048   0.212E-01    0.313E-01
DAV:   3    -0.749989131160E+03    0.20265E-02   -0.89888E-03  3984   0.135E-01    0.632E-02
DAV:   4    -0.749989145838E+03   -0.14677E-04   -0.51106E-04  3280   0.323E-02    0.307E-02
DAV:   5    -0.749989137958E+03    0.78799E-05   -0.79251E-05  3216   0.277E-02
  18 F= -.74998914E+03 E0= -.74997859E+03  d E =-.254060E-01
quench:  g(F)=  0.000E+00 g(S)=  0.000E+00 dE (1.order)= 0.000E+00
 bond charge predicted
       N       E                     dE             d eps       ncg     rms          rms(c)
DAV:   1    -0.750013822613E+03   -0.24677E-01   -0.30234E-01  3520   0.898E-01    0.136E-01
DAV:   2    -0.750016368463E+03   -0.25459E-02   -0.25506E-02  4032   0.219E-01    0.326E-01
DAV:   3    -0.750014170933E+03    0.21975E-02   -0.96823E-03  3968   0.139E-01    0.646E-02
DAV:   4    -0.750014187440E+03   -0.16507E-04   -0.53322E-04  3408   0.331E-02    0.314E-02
DAV:   5    -0.750014179827E+03    0.76131E-05   -0.82362E-05  3152   0.280E-02
  19 F= -.75001418E+03 E0= -.75000355E+03  d E =-.250419E-01
quench:  g(F)=  0.000E+00 g(S)=  0.000E+00 dE (1.order)= 0.000E+00
 bond charge predicted
       N       E                     dE             d eps       ncg     rms          rms(c)
DAV:   1    -0.750038203056E+03   -0.24016E-01   -0.32534E-01  3504   0.938E-01    0.139E-01
DAV:   2    -0.750040899054E+03   -0.26960E-02   -0.26865E-02  3984   0.226E-01    0.337E-01
DAV:   3    -0.750038568766E+03    0.23303E-02   -0.10213E-02  4000   0.142E-01    0.654E-02
DAV:   4    -0.750038587724E+03   -0.18958E-04   -0.54671E-04  3424   0.337E-02    0.319E-02
DAV:   5    -0.750038580504E+03    0.72205E-05   -0.85091E-05  3200   0.282E-02
  20 F= -.75003858E+03 E0= -.75002788E+03  d E =-.244007E-01
quench:  g(F)=  0.000E+00 g(S)=  0.000E+00 dE (1.order)= 0.000E+00
 bond charge predicted
       N       E                     dE             d eps       ncg     rms          rms(c)
DAV:   1    -0.750061725781E+03   -0.23138E-01   -0.34596E-01  3504   0.972E-01    0.140E-01
DAV:   2    -0.750064506842E+03   -0.27811E-02   -0.27574E-02  4016   0.228E-01    0.342E-01
DAV:   3    -0.750062108592E+03    0.23983E-02   -0.10476E-02  3984   0.144E-01    0.656E-02
DAV:   4    -0.750062129372E+03   -0.20781E-04   -0.54673E-04  3472   0.339E-02    0.324E-02
DAV:   5    -0.750062123230E+03    0.61424E-05   -0.85120E-05  3200   0.279E-02
  21 F= -.75006212E+03 E0= -.75005135E+03  d E =-.235427E-01
quench:  g(F)=  0.000E+00 g(S)=  0.000E+00 dE (1.order)= 0.000E+00
 bond charge predicted
       N       E                     dE             d eps       ncg     rms          rms(c)
DAV:   1    -0.750084152818E+03   -0.22023E-01   -0.36381E-01  3520   0.101E+00    0.139E-01
DAV:   2    -0.750086929552E+03   -0.27767E-02   -0.27416E-02  3968   0.229E-01    0.341E-01
DAV:   3    -0.750084560382E+03    0.23692E-02   -0.10342E-02  3968   0.142E-01    0.649E-02
DAV:   4    -0.750084582320E+03   -0.21938E-04   -0.52751E-04  3488   0.336E-02    0.327E-02
DAV:   5    -0.750084577655E+03    0.46647E-05   -0.83378E-05  3200   0.273E-02
  22 F= -.75008458E+03 E0= -.75007374E+03  d E =-.224544E-01
quench:  g(F)=  0.000E+00 g(S)=  0.000E+00 dE (1.order)= 0.000E+00
 bond charge predicted
       N       E                     dE             d eps       ncg     rms          rms(c)
DAV:   1    -0.750105363753E+03   -0.20781E-01   -0.37861E-01  3520   0.104E+00    0.136E-01
DAV:   2    -0.750108086790E+03   -0.27230E-02   -0.26781E-02  3952   0.228E-01    0.336E-01
DAV:   3    -0.750105797587E+03    0.22892E-02   -0.10001E-02  3952   0.139E-01    0.637E-02
DAV:   4    -0.750105820559E+03   -0.22972E-04   -0.49845E-04  3488   0.331E-02    0.329E-02
DAV:   5    -0.750105817281E+03    0.32787E-05   -0.81109E-05  3200   0.266E-02
  23 F= -.75010582E+03 E0= -.75009492E+03  d E =-.212396E-01
quench:  g(F)=  0.000E+00 g(S)=  0.000E+00 dE (1.order)= 0.000E+00
 bond charge predicted
       N       E                     dE             d eps       ncg     rms          rms(c)
DAV:   1    -0.750125326800E+03   -0.19506E-01   -0.38965E-01  3520   0.106E+00    0.131E-01
DAV:   2    -0.750127915783E+03   -0.25890E-02   -0.25383E-02  3872   0.226E-01    0.324E-01
DAV:   3    -0.750125789338E+03    0.21264E-02   -0.93014E-03  3952   0.134E-01    0.619E-02
DAV:   4    -0.750125813372E+03   -0.24034E-04   -0.45654E-04  3488   0.320E-02    0.329E-02
DAV:   5    -0.750125811192E+03    0.21797E-05   -0.76739E-05  3184   0.256E-02
  24 F= -.75012581E+03 E0= -.75011485E+03  d E =-.199939E-01
quench:  g(F)=  0.000E+00 g(S)=  0.000E+00 dE (1.order)= 0.000E+00
 bond charge predicted
       N       E                     dE             d eps       ncg     rms          rms(c)
DAV:   1    -0.750143927835E+03   -0.18114E-01   -0.39643E-01  3520   0.108E+00    0.124E-01
DAV:   2    -0.750146296631E+03   -0.23688E-02   -0.23196E-02  3792   0.219E-01    0.306E-01
DAV:   3    -0.750144418176E+03    0.18785E-02   -0.82581E-03  3888   0.125E-01    0.593E-02
DAV:   4    -0.750144442859E+03   -0.24683E-04   -0.39905E-04  3456   0.305E-02    0.327E-02
DAV:   5    -0.750144441783E+03    0.10767E-05   -0.71724E-05  3152   0.244E-02
  25 F= -.75014444E+03 E0= -.75013343E+03  d E =-.186306E-01
quench:  g(F)=  0.000E+00 g(S)=  0.000E+00 dE (1.order)= 0.000E+00
 bond charge predicted
       N       E                     dE             d eps       ncg     rms          rms(c)
DAV:   1    -0.750161130772E+03   -0.16688E-01   -0.40161E-01  3520   0.110E+00    0.116E-01
DAV:   2    -0.750163283671E+03   -0.21529E-02   -0.21084E-02  3776   0.213E-01    0.286E-01
DAV:   3    -0.750161644920E+03    0.16388E-02   -0.72439E-03  3872   0.117E-01    0.569E-02
DAV:   4    -0.750161670760E+03   -0.25840E-04   -0.34875E-04  3520   0.290E-02    0.326E-02
DAV:   5    -0.750161669880E+03    0.87985E-06   -0.66126E-05  3216   0.231E-02
  26 F= -.75016167E+03 E0= -.75015061E+03  d E =-.172281E-01
quench:  g(F)=  0.000E+00 g(S)=  0.000E+00 dE (1.order)= 0.000E+00
 bond charge predicted
       N       E                     dE             d eps       ncg     rms          rms(c)
DAV:   1    -0.750176976622E+03   -0.15306E-01   -0.40266E-01  3520   0.110E+00    0.108E-01
DAV:   2    -0.750178899798E+03   -0.19232E-02   -0.18878E-02  3776   0.206E-01    0.265E-01
DAV:   3    -0.750177505224E+03    0.13946E-02   -0.62107E-03  3824   0.108E-01    0.546E-02
DAV:   4    -0.750177530116E+03   -0.24892E-04   -0.29845E-04  3488   0.274E-02    0.323E-02
DAV:   5    -0.750177529548E+03    0.56764E-06   -0.62353E-05  3216   0.219E-02
  27 F= -.75017753E+03 E0= -.75016642E+03  d E =-.158597E-01
quench:  g(F)=  0.000E+00 g(S)=  0.000E+00 dE (1.order)= 0.000E+00
 bond charge predicted
       N       E                     dE             d eps       ncg     rms          rms(c)
DAV:   1    -0.750191431831E+03   -0.13902E-01   -0.40345E-01  3520   0.111E+00    0.101E-01
DAV:   2    -0.750193153340E+03   -0.17215E-02   -0.16958E-02  3776   0.199E-01    0.245E-01
DAV:   3    -0.750191971475E+03    0.11819E-02   -0.53174E-03  3696   0.996E-02    0.525E-02
DAV:   4    -0.750191994808E+03   -0.23334E-04   -0.26023E-04  3424   0.261E-02    0.320E-02
DAV:   5    -0.750191994550E+03    0.25828E-06   -0.60416E-05  3200   0.211E-02
  28 F= -.75019199E+03 E0= -.75018084E+03  d E =-.144650E-01
quench:  g(F)=  0.000E+00 g(S)=  0.000E+00 dE (1.order)= 0.000E+00
 bond charge predicted
       N       E                     dE             d eps       ncg     rms          rms(c)
DAV:   1    -0.750204465630E+03   -0.12471E-01   -0.40212E-01  3520   0.111E+00    0.971E-02
DAV:   2    -0.750206058705E+03   -0.15931E-02   -0.15720E-02  3776   0.194E-01    0.233E-01
DAV:   3    -0.750205002840E+03    0.10559E-02   -0.47801E-03  3648   0.940E-02    0.511E-02
DAV:   4    -0.750205024323E+03   -0.21484E-04   -0.23611E-04  3312   0.254E-02    0.318E-02
DAV:   5    -0.750205023952E+03    0.37182E-06   -0.59212E-05  3200   0.205E-02
  29 F= -.75020502E+03 E0= -.75019383E+03  d E =-.130294E-01
quench:  g(F)=  0.000E+00 g(S)=  0.000E+00 dE (1.order)= 0.000E+00
 bond charge predicted
       N       E                     dE             d eps       ncg     rms          rms(c)
DAV:   1    -0.750216028808E+03   -0.11004E-01   -0.39835E-01  3520   0.110E+00    0.947E-02
DAV:   2    -0.750217535245E+03   -0.15064E-02   -0.14858E-02  3792   0.189E-01    0.226E-01
DAV:   3    -0.750216552101E+03    0.98314E-03   -0.44803E-03  3584   0.906E-02    0.502E-02
DAV:   4    -0.750216571927E+03   -0.19826E-04   -0.22200E-04  3312   0.250E-02    0.314E-02
DAV:   5    -0.750216571374E+03    0.55225E-06   -0.58930E-05  3168   0.202E-02
  30 F= -.75021657E+03 E0= -.75020533E+03  d E =-.115474E-01
quench:  g(F)=  0.000E+00 g(S)=  0.000E+00 dE (1.order)= 0.000E+00
 bond charge predicted
       N       E                     dE             d eps       ncg     rms          rms(c)
DAV:   1    -0.750225926721E+03   -0.93548E-02   -0.39568E-01  3520   0.110E+00    0.950E-02
DAV:   2    -0.750227419415E+03   -0.14927E-02   -0.14644E-02  3792   0.188E-01    0.227E-01
DAV:   3    -0.750226431562E+03    0.98785E-03   -0.45167E-03  3584   0.905E-02    0.498E-02
DAV:   4    -0.750226450804E+03   -0.19242E-04   -0.22132E-04  3312   0.252E-02    0.310E-02
DAV:   5    -0.750226450276E+03    0.52753E-06   -0.59645E-05  3152   0.201E-02
  31 F= -.75022645E+03 E0= -.75021517E+03  d E =-.987890E-02
quench:  g(F)=  0.000E+00 g(S)=  0.000E+00 dE (1.order)= 0.000E+00
 bond charge predicted
       N       E                     dE             d eps       ncg     rms          rms(c)
DAV:   1    -0.750234114943E+03   -0.76641E-02   -0.38864E-01  3520   0.109E+00    0.965E-02
DAV:   2    -0.750235609284E+03   -0.14943E-02   -0.14560E-02  3792   0.185E-01    0.231E-01
DAV:   3    -0.750234588572E+03    0.10207E-02   -0.46763E-03  3616   0.915E-02    0.495E-02
DAV:   4    -0.750234607669E+03   -0.19097E-04   -0.22570E-04  3296   0.257E-02    0.305E-02
DAV:   5    -0.750234607095E+03    0.57321E-06   -0.61363E-05  3104   0.201E-02
  32 F= -.75023461E+03 E0= -.75022327E+03  d E =-.815682E-02
quench:  g(F)=  0.000E+00 g(S)=  0.000E+00 dE (1.order)= 0.000E+00
 bond charge predicted
       N       E                     dE             d eps       ncg     rms          rms(c)
DAV:   1    -0.750240537512E+03   -0.59298E-02   -0.38099E-01  3520   0.107E+00    0.983E-02
DAV:   2    -0.750242034768E+03   -0.14973E-02   -0.14486E-02  3808   0.183E-01    0.236E-01
DAV:   3    -0.750240981336E+03    0.10534E-02   -0.48505E-03  3648   0.926E-02    0.492E-02
DAV:   4    -0.750241000596E+03   -0.19260E-04   -0.23038E-04  3296   0.263E-02    0.300E-02
DAV:   5    -0.750241000390E+03    0.20592E-06   -0.63176E-05  3104   0.200E-02
  33 F= -.75024100E+03 E0= -.75022962E+03  d E =-.639329E-02
quench:  g(F)=  0.000E+00 g(S)=  0.000E+00 dE (1.order)= 0.000E+00
 bond charge predicted
       N       E                     dE             d eps       ncg     rms          rms(c)
DAV:   1    -0.750245106622E+03   -0.41060E-02   -0.37242E-01  3520   0.106E+00    0.102E-01
DAV:   2    -0.750246661150E+03   -0.15545E-02   -0.14887E-02  3824   0.182E-01    0.247E-01
DAV:   3    -0.750245513511E+03    0.11476E-02   -0.53060E-03  3648   0.959E-02    0.491E-02
DAV:   4    -0.750245534639E+03   -0.21129E-04   -0.24540E-04  3248   0.273E-02    0.297E-02
DAV:   5    -0.750245534811E+03   -0.17208E-06   -0.66310E-05  3104   0.201E-02
  34 F= -.75024553E+03 E0= -.75023411E+03  d E =-.453442E-02
quench:  g(F)=  0.000E+00 g(S)=  0.000E+00 dE (1.order)= 0.000E+00
 bond charge predicted
       N       E                     dE             d eps       ncg     rms          rms(c)
DAV:   1    -0.750247824695E+03   -0.22901E-02   -0.36180E-01  3520   0.103E+00    0.107E-01
DAV:   2    -0.750249456948E+03   -0.16323E-02   -0.15463E-02  3856   0.180E-01    0.260E-01
DAV:   3    -0.750248190029E+03    0.12669E-02   -0.58780E-03  3712   0.100E-01    0.493E-02
DAV:   4    -0.750248213244E+03   -0.23215E-04   -0.26001E-04  3248   0.283E-02    0.296E-02
DAV:   5    -0.750248213887E+03   -0.64285E-06   -0.69294E-05  3104   0.200E-02
  35 F= -.75024821E+03 E0= -.75023674E+03  d E =-.267908E-02
quench:  g(F)=  0.000E+00 g(S)=  0.000E+00 dE (1.order)= 0.000E+00
 bond charge predicted
       N       E                     dE             d eps       ncg     rms          rms(c)
DAV:   1    -0.750248666461E+03   -0.45322E-03   -0.35346E-01  3520   0.100E+00    0.113E-01
DAV:   2    -0.750250408517E+03   -0.17421E-02   -0.16342E-02  3856   0.179E-01    0.274E-01
DAV:   3    -0.750248998398E+03    0.14101E-02   -0.66067E-03  3760   0.105E-01    0.499E-02
DAV:   4    -0.750249024440E+03   -0.26042E-04   -0.28248E-04  3232   0.294E-02    0.300E-02
DAV:   5    -0.750249025697E+03   -0.12578E-05   -0.73222E-05  3120   0.200E-02
  36 F= -.75024903E+03 E0= -.75023750E+03  d E =-.811810E-03
quench:  g(F)=  0.000E+00 g(S)=  0.000E+00 dE (1.order)= 0.000E+00
 bond charge predicted
       N       E                     dE             d eps       ncg     rms          rms(c)
DAV:   1    -0.750247780250E+03    0.12442E-02   -0.34666E-01  3520   0.975E-01    0.118E-01
DAV:   2    -0.750249590255E+03   -0.18100E-02   -0.16884E-02  3872   0.177E-01    0.284E-01
DAV:   3    -0.750248094593E+03    0.14957E-02   -0.71230E-03  3840   0.108E-01    0.503E-02
DAV:   4    -0.750248121404E+03   -0.26811E-04   -0.29785E-04  3200   0.301E-02    0.304E-02
DAV:   5    -0.750248123781E+03   -0.23768E-05   -0.75833E-05  3104   0.200E-02
  37 F= -.75024812E+03 E0= -.75023655E+03  d E =0.901917E-03
quench:  g(F)=  0.000E+00 g(S)=  0.000E+00 dE (1.order)= 0.000E+00
 bond charge predicted
       N       E                     dE             d eps       ncg     rms          rms(c)
DAV:   1    -0.750245200758E+03    0.29206E-02   -0.34319E-01  3520   0.949E-01    0.125E-01
DAV:   2    -0.750247151259E+03   -0.19505E-02   -0.18075E-02  3904   0.177E-01    0.299E-01
DAV:   3    -0.750245498230E+03    0.16530E-02   -0.79798E-03  3856   0.114E-01    0.513E-02
DAV:   4    -0.750245527486E+03   -0.29256E-04   -0.32649E-04  3152   0.312E-02    0.310E-02
DAV:   5    -0.750245531045E+03   -0.35584E-05   -0.78207E-05  3120   0.200E-02
  38 F= -.75024553E+03 E0= -.75023391E+03  d E =0.259274E-02
quench:  g(F)=  0.000E+00 g(S)=  0.000E+00 dE (1.order)= 0.000E+00
 bond charge predicted
       N       E                     dE             d eps       ncg     rms          rms(c)
DAV:   1    -0.750240969965E+03    0.45575E-02   -0.34407E-01  3520   0.928E-01    0.133E-01
DAV:   2    -0.750243111133E+03   -0.21412E-02   -0.19733E-02  3872   0.179E-01    0.317E-01
DAV:   3    -0.750241260017E+03    0.18511E-02   -0.90566E-03  3920   0.120E-01    0.529E-02
DAV:   4    -0.750241290591E+03   -0.30574E-04   -0.35529E-04  3184   0.324E-02    0.320E-02
DAV:   5    -0.750241296238E+03   -0.56477E-05   -0.81676E-05  3120   0.201E-02
  39 F= -.75024130E+03 E0= -.75022964E+03  d E =0.423481E-02
quench:  g(F)=  0.000E+00 g(S)=  0.000E+00 dE (1.order)= 0.000E+00
 bond charge predicted
       N       E                     dE             d eps       ncg     rms          rms(c)
DAV:   1    -0.750235185816E+03    0.61048E-02   -0.34673E-01  3520   0.908E-01    0.139E-01
DAV:   2    -0.750237467590E+03   -0.22818E-02   -0.20996E-02  3968   0.179E-01    0.329E-01
DAV:   3    -0.750235476038E+03    0.19916E-02   -0.98649E-03  3936   0.124E-01    0.546E-02
DAV:   4    -0.750235506063E+03   -0.30025E-04   -0.38618E-04  3168   0.336E-02    0.329E-02
DAV:   5    -0.750235514805E+03   -0.87416E-05   -0.84764E-05  3120   0.203E-02
  40 F= -.75023551E+03 E0= -.75022383E+03  d E =0.578143E-02
quench:  g(F)=  0.000E+00 g(S)=  0.000E+00 dE (1.order)= 0.000E+00
 bond charge predicted
       N       E                     dE             d eps       ncg     rms          rms(c)
DAV:   1    -0.750227885676E+03    0.76204E-02   -0.35240E-01  3520   0.888E-01    0.147E-01
DAV:   2    -0.750230333104E+03   -0.24474E-02   -0.22521E-02  4016   0.180E-01    0.343E-01
DAV:   3    -0.750228183959E+03    0.21491E-02   -0.10808E-02  3920   0.129E-01    0.566E-02
DAV:   4    -0.750228212147E+03   -0.28188E-04   -0.41647E-04  3200   0.349E-02    0.339E-02
DAV:   5    -0.750228224347E+03   -0.12199E-04   -0.88699E-05  3136   0.205E-02    0.126E-02
DAV:   6    -0.750228225709E+03   -0.13624E-05   -0.23651E-05  2736   0.130E-02
  41 F= -.75022823E+03 E0= -.75021651E+03  d E =0.728910E-02
quench:  g(F)=  0.000E+00 g(S)=  0.000E+00 dE (1.order)= 0.000E+00
 bond charge predicted
       N       E                     dE             d eps       ncg     rms          rms(c)
DAV:   1    -0.750219536441E+03    0.86879E-02   -0.36010E-01  3520   0.867E-01    0.150E-01
DAV:   2    -0.750222101108E+03   -0.25647E-02   -0.23633E-02  4128   0.182E-01    0.351E-01
DAV:   3    -0.750219852496E+03    0.22486E-02   -0.11412E-02  3920   0.132E-01    0.571E-02
DAV:   4    -0.750219878836E+03   -0.26339E-04   -0.42601E-04  3168   0.350E-02    0.340E-02
DAV:   5    -0.750219892199E+03   -0.13364E-04   -0.87807E-05  3152   0.203E-02    0.131E-02
DAV:   6    -0.750219893455E+03   -0.12557E-05   -0.24051E-05  2704   0.133E-02
  42 F= -.75021989E+03 E0= -.75020817E+03  d E =0.833225E-02
quench:  g(F)=  0.000E+00 g(S)=  0.000E+00 dE (1.order)= 0.000E+00
 bond charge predicted
       N       E                     dE             d eps       ncg     rms          rms(c)
DAV:   1    -0.750210130980E+03    0.97612E-02   -0.36890E-01  3520   0.853E-01    0.160E-01
DAV:   2    -0.750213065023E+03   -0.29340E-02   -0.26993E-02  4272   0.190E-01    0.380E-01
DAV:   3    -0.750210424162E+03    0.26409E-02   -0.13297E-02  4048   0.142E-01    0.591E-02
DAV:   4    -0.750210458899E+03   -0.34737E-04   -0.48561E-04  3216   0.366E-02    0.352E-02
DAV:   5    -0.750210472339E+03   -0.13440E-04   -0.90922E-05  3120   0.208E-02    0.138E-02
DAV:   6    -0.750210473896E+03   -0.15568E-05   -0.25295E-05  2720   0.136E-02
  43 F= -.75021047E+03 E0= -.75019874E+03  d E =0.941956E-02
quench:  g(F)=  0.000E+00 g(S)=  0.000E+00 dE (1.order)= 0.000E+00
 bond charge predicted
       N       E                     dE             d eps       ncg     rms          rms(c)
DAV:   1    -0.750199706589E+03    0.10766E-01   -0.38350E-01  3520   0.842E-01    0.163E-01
DAV:   2    -0.750202660368E+03   -0.29538E-02   -0.27373E-02  4256   0.188E-01    0.379E-01
DAV:   3    -0.750200044390E+03    0.26160E-02   -0.13515E-02  4048   0.142E-01    0.611E-02
DAV:   4    -0.750200073015E+03   -0.28625E-04   -0.49841E-04  3184   0.374E-02    0.361E-02
DAV:   5    -0.750200086694E+03   -0.13679E-04   -0.93669E-05  3136   0.211E-02    0.143E-02
DAV:   6    -0.750200088995E+03   -0.23010E-05   -0.26794E-05  2704   0.141E-02
  44 F= -.75020009E+03 E0= -.75018837E+03  d E =0.103849E-01
quench:  g(F)=  0.000E+00 g(S)=  0.000E+00 dE (1.order)= 0.000E+00
 bond charge predicted
       N       E                     dE             d eps       ncg     rms          rms(c)
DAV:   1    -0.750188416645E+03    0.11670E-01   -0.39811E-01  3520   0.832E-01    0.167E-01
DAV:   2    -0.750191460851E+03   -0.30442E-02   -0.28401E-02  4240   0.189E-01    0.384E-01
DAV:   3    -0.750188782194E+03    0.26787E-02   -0.14051E-02  4080   0.144E-01    0.627E-02
DAV:   4    -0.750188808345E+03   -0.26151E-04   -0.51387E-04  3168   0.382E-02    0.369E-02
DAV:   5    -0.750188821163E+03   -0.12818E-04   -0.96317E-05  3136   0.214E-02    0.147E-02
DAV:   6    -0.750188824268E+03   -0.31051E-05   -0.28569E-05  2752   0.145E-02
  45 F= -.75018882E+03 E0= -.75017713E+03  d E =0.112647E-01
quench:  g(F)=  0.000E+00 g(S)=  0.000E+00 dE (1.order)= 0.000E+00
 bond charge predicted
       N       E                     dE             d eps       ncg     rms          rms(c)
DAV:   1    -0.750176267871E+03    0.12553E-01   -0.41561E-01  3520   0.826E-01    0.173E-01
DAV:   2    -0.750179517788E+03   -0.32499E-02   -0.30536E-02  4288   0.193E-01    0.397E-01
DAV:   3    -0.750176648829E+03    0.28690E-02   -0.15143E-02  4112   0.149E-01    0.647E-02
DAV:   4    -0.750176676626E+03   -0.27797E-04   -0.54741E-04  3152   0.392E-02    0.380E-02
DAV:   5    -0.750176688746E+03   -0.12120E-04   -0.99238E-05  3152   0.219E-02    0.152E-02
DAV:   6    -0.750176692266E+03   -0.35203E-05   -0.30502E-05  2752   0.149E-02
  46 F= -.75017669E+03 E0= -.75016504E+03  d E =0.121320E-01
quench:  g(F)=  0.000E+00 g(S)=  0.000E+00 dE (1.order)= 0.000E+00
 bond charge predicted
       N       E                     dE             d eps       ncg     rms          rms(c)
DAV:   1    -0.750163621998E+03    0.13067E-01   -0.42727E-01  3520   0.811E-01    0.176E-01
DAV:   2    -0.750166880953E+03   -0.32590E-02   -0.30952E-02  4304   0.192E-01    0.396E-01
DAV:   3    -0.750164020768E+03    0.28602E-02   -0.15384E-02  4128   0.149E-01    0.662E-02
DAV:   4    -0.750164044183E+03   -0.23415E-04   -0.56305E-04  3136   0.401E-02    0.387E-02
DAV:   5    -0.750164056552E+03   -0.12369E-04   -0.10133E-04  3136   0.221E-02    0.154E-02
DAV:   6    -0.750164060007E+03   -0.34545E-05   -0.31240E-05  2768   0.151E-02
  47 F= -.75016406E+03 E0= -.75015246E+03  d E =0.126323E-01
quench:  g(F)=  0.000E+00 g(S)=  0.000E+00 dE (1.order)= 0.000E+00
 bond charge predicted
       N       E                     dE             d eps       ncg     rms          rms(c)
DAV:   1    -0.750150508809E+03    0.13548E-01   -0.44198E-01  3520   0.800E-01    0.177E-01
DAV:   2    -0.750153717608E+03   -0.32088E-02   -0.30874E-02  4288   0.189E-01    0.391E-01
DAV:   3    -0.750150941417E+03    0.27762E-02   -0.15278E-02  4112   0.148E-01    0.675E-02
DAV:   4    -0.750150957847E+03   -0.16430E-04   -0.56914E-04  3104   0.406E-02    0.393E-02
DAV:   5    -0.750150970056E+03   -0.12209E-04   -0.10304E-04  3136   0.223E-02    0.156E-02
DAV:   6    -0.750150973213E+03   -0.31570E-05   -0.32276E-05  2784   0.153E-02
  48 F= -.75015097E+03 E0= -.75013945E+03  d E =0.130868E-01
quench:  g(F)=  0.000E+00 g(S)=  0.000E+00 dE (1.order)= 0.000E+00
 bond charge predicted
       N       E                     dE             d eps       ncg     rms          rms(c)
DAV:   1    -0.750136803637E+03    0.14166E-01   -0.46161E-01  3520   0.795E-01    0.177E-01
DAV:   2    -0.750139924839E+03   -0.31212E-02   -0.30500E-02  4304   0.186E-01    0.381E-01
DAV:   3    -0.750137287200E+03    0.26376E-02   -0.14911E-02  4080   0.146E-01    0.689E-02
DAV:   4    -0.750137296099E+03   -0.88986E-05   -0.57251E-04  3072   0.409E-02    0.400E-02
DAV:   5    -0.750137308652E+03   -0.12553E-04   -0.10493E-04  3104   0.225E-02    0.158E-02
DAV:   6    -0.750137311115E+03   -0.24631E-05   -0.33665E-05  2800   0.156E-02
  49 F= -.75013731E+03 E0= -.75012588E+03  d E =0.136621E-01
quench:  g(F)=  0.000E+00 g(S)=  0.000E+00 dE (1.order)= 0.000E+00
 bond charge predicted
       N       E                     dE             d eps       ncg     rms          rms(c)
DAV:   1    -0.750122817301E+03    0.14491E-01   -0.47810E-01  3520   0.789E-01    0.178E-01
DAV:   2    -0.750125876086E+03   -0.30588E-02   -0.30391E-02  4304   0.184E-01    0.373E-01
DAV:   3    -0.750123333821E+03    0.25423E-02   -0.14692E-02  4032   0.144E-01    0.698E-02
DAV:   4    -0.750123337386E+03   -0.35643E-05   -0.57676E-04  3056   0.415E-02    0.405E-02
DAV:   5    -0.750123350496E+03   -0.13110E-04   -0.10561E-04  3072   0.227E-02    0.158E-02
DAV:   6    -0.750123352335E+03   -0.18399E-05   -0.34527E-05  2800   0.158E-02
  50 F= -.75012335E+03 E0= -.75011203E+03  d E =0.139588E-01
quench:  g(F)=  0.000E+00 g(S)=  0.000E+00 dE (1.order)= 0.000E+00
