PBE-grap                                
           1
     9.294800    0.000000    0.000000
     0.000000    9.294800    0.000000
     0.000000    0.000000   21.971100
   Hf   C    O 
  32  32   1
Direct configuration=     1
   0.00136075  0.99912942  0.31261991
   0.25099053  0.24890910  0.31259999
   0.00000000  0.25000000  0.00000000
   0.25000000  0.00000000  0.00000000
   0.00000000  0.00000000  0.10576000
   0.25000000  0.25000000  0.10576000
   0.00047927  0.24969087  0.21001053
   0.24991990  0.00028999  0.20961024
   0.49882946  0.99980027  0.31221988
   0.75099975  0.24176248  0.31226445
   0.50000000  0.25000000  0.00000000
   0.75000000  0.00000000  0.00000000
   0.50000000  0.00000000  0.10576000
   0.75000000  0.25000000  0.10576000
   0.50015029  0.24987032  0.21005054
   0.75008999  0.99866064  0.20966993
   0.00825769  0.49921005  0.31225445
   0.25030967  0.75123058  0.31221999
   0.00000000  0.75000000  0.00000000
   0.25000000  0.50000000  0.00000000
   0.00000000  0.50000000  0.10576000
   0.25000000  0.75000000  0.10576000
   0.00029974  0.75006967  0.21006054
   0.25153900  0.50000007  0.20964988
   0.49851379  0.50004981  0.31445462
   0.75012019  0.75147633  0.31453459
   0.50000000  0.75000000  0.00000000
   0.75000000  0.50000000  0.00000000
   0.50000000  0.50000000  0.10576000
   0.75000000  0.75000000  0.10576000
   0.50055992  0.74959022  0.21045989
   0.74850020  0.50164995  0.21117348
   0.25000000  0.25000000  0.00000000
   0.00000000  0.00000000  0.00000000
   0.24953980  0.00059022  0.31645018
   0.00061896  0.24952099  0.31652922
   0.25059001  0.24994007  0.21135981
   0.00016990  0.99955000  0.21136981
   0.25000000  0.00000000  0.10576000
   0.00000000  0.25000000  0.10576000
   0.75000000  0.25000000  0.00000000
   0.50000000  0.00000000  0.00000000
   0.75051953  0.99861911  0.31700972
   0.49948078  0.25078092  0.31664944
   0.75041991  0.25019213  0.21206011
   0.50013012  0.00037987  0.21091001
   0.75000000  0.00000000  0.10576000
   0.50000000  0.25000000  0.10576000
   0.25000000  0.75000000  0.00000000
   0.00000000  0.50000000  0.00000000
   0.25151102  0.49967049  0.31696973
   0.99939922  0.75066935  0.31665942
   0.24969013  0.74998986  0.21093002
   0.99994783  0.49977010  0.21206009
   0.25000000  0.50000000  0.10576000
   0.00000000  0.75000000  0.10576000
   0.75000000  0.75000000  0.00000000
   0.50000000  0.50000000  0.00000000
   0.75211577  0.49895424  0.35121222
   0.49354412  0.75646584  0.31398096
   0.75057933  0.75038711  0.21117151
   0.49977286  0.49959064  0.21109153
   0.75000000  0.50000000  0.10576000
   0.50000000  0.75000000  0.10576000
   0.68425915  0.56683091  0.40215794
Direct configuration=     2
   0.00136226  0.99912825  0.31261973
   0.25099158  0.24890730  0.31259995
   0.00000000  0.25000000  0.00000000
   0.25000000  0.00000000  0.00000000
   0.00000000  0.00000000  0.10576000
   0.25000000  0.25000000  0.10576000
   0.00047781  0.24969261  0.21001158
   0.24991970  0.00028999  0.20961071
   0.49882838  0.99980082  0.31221964
   0.75099924  0.24176742  0.31227335
   0.50000000  0.25000000  0.00000000
   0.75000000  0.00000000  0.00000000
   0.50000000  0.00000000  0.10576000
   0.75000000  0.25000000  0.10576000
   0.50015086  0.24987097  0.21005166
   0.75008997  0.99866193  0.20966980
   0.00825308  0.49921014  0.31226336
   0.25030901  0.75123174  0.31221997
   0.00000000  0.75000000  0.00000000
   0.25000000  0.50000000  0.00000000
   0.00000000  0.50000000  0.10576000
   0.25000000  0.75000000  0.10576000
   0.00029920  0.75006900  0.21006161
   0.25153699  0.50000021  0.20964965
   0.49850138  0.50004942  0.31446385
   0.75012056  0.75148901  0.31454373
   0.50000000  0.75000000  0.00000000
   0.75000000  0.50000000  0.00000000
   0.50000000  0.50000000  0.10576000
   0.75000000  0.75000000  0.10576000
   0.50055977  0.74959066  0.21045968
   0.74850059  0.50164985  0.21116044
   0.25000000  0.25000000  0.00000000
   0.00000000  0.00000000  0.00000000
   0.24953941  0.00059067  0.31645055
   0.00061688  0.24952297  0.31652766
   0.25059002  0.24994022  0.21135944
   0.00016971  0.99954999  0.21136944
   0.25000000  0.00000000  0.10576000
   0.00000000  0.25000000  0.10576000
   0.75000000  0.25000000  0.00000000
   0.50000000  0.00000000  0.00000000
   0.75051860  0.99861734  0.31700915
   0.49948235  0.25078276  0.31664832
   0.75041974  0.25019638  0.21206032
   0.50013037  0.00037962  0.21091005
   0.75000000  0.00000000  0.10576000
   0.50000000  0.25000000  0.10576000
   0.25000000  0.75000000  0.00000000
   0.00000000  0.50000000  0.00000000
   0.25151306  0.49967148  0.31696920
   0.99939766  0.75066805  0.31665826
   0.24969039  0.74998958  0.21093007
   0.99994350  0.49977029  0.21206028
   0.25000000  0.50000000  0.10576000
   0.00000000  0.75000000  0.10576000
   0.75000000  0.75000000  0.00000000
   0.50000000  0.50000000  0.00000000
   0.75210736  0.49896268  0.35123662
   0.49355237  0.75645750  0.31398290
   0.75057799  0.75038133  0.21117453
   0.49977857  0.49959193  0.21109460
   0.75000000  0.50000000  0.10576000
   0.50000000  0.75000000  0.10576000
   0.68427743  0.56681275  0.40213381
Direct configuration=     3
   0.00136452  0.99912652  0.31261944
   0.25099315  0.24890461  0.31259989
   0.00000000  0.25000000  0.00000000
   0.25000000  0.00000000  0.00000000
   0.00000000  0.00000000  0.10576000
   0.25000000  0.25000000  0.10576000
   0.00047561  0.24969523  0.21001315
   0.24991939  0.00028997  0.20961141
   0.49882676  0.99980164  0.31221926
   0.75099848  0.24177480  0.31228666
   0.50000000  0.25000000  0.00000000
   0.75000000  0.00000000  0.00000000
   0.50000000  0.00000000  0.10576000
   0.75000000  0.25000000  0.10576000
   0.50015172  0.24987197  0.21005333
   0.75008993  0.99866385  0.20966960
   0.00824619  0.49921028  0.31227669
   0.25030802  0.75123347  0.31221992
   0.00000000  0.75000000  0.00000000
   0.25000000  0.50000000  0.00000000
   0.00000000  0.50000000  0.10576000
   0.25000000  0.75000000  0.10576000
   0.00029838  0.75006798  0.21006321
   0.25153399  0.50000043  0.20964931
   0.49848271  0.50004885  0.31447763
   0.75012112  0.75150806  0.31455739
   0.50000000  0.75000000  0.00000000
   0.75000000  0.50000000  0.00000000
   0.50000000  0.50000000  0.10576000
   0.75000000  0.75000000  0.10576000
   0.50055956  0.74959131  0.21045936
   0.74850119  0.50164970  0.21114090
   0.25000000  0.25000000  0.00000000
   0.00000000  0.00000000  0.00000000
   0.24953882  0.00059133  0.31645111
   0.00061374  0.24952596  0.31652534
   0.25059004  0.24994045  0.21135889
   0.00016941  0.99954997  0.21136888
   0.25000000  0.00000000  0.10576000
   0.00000000  0.25000000  0.10576000
   0.75000000  0.25000000  0.00000000
   0.50000000  0.00000000  0.00000000
   0.75051721  0.99861469  0.31700832
   0.49948473  0.25078553  0.31664667
   0.75041948  0.25020276  0.21206067
   0.50013074  0.00037925  0.21091010
   0.75000000  0.00000000  0.10576000
   0.50000000  0.25000000  0.10576000
   0.25000000  0.75000000  0.00000000
   0.00000000  0.50000000  0.00000000
   0.25151611  0.49967296  0.31696841
   0.99939531  0.75066608  0.31665654
   0.24969079  0.74998916  0.21093015
   0.99993699  0.49977059  0.21206059
   0.25000000  0.50000000  0.10576000
   0.00000000  0.75000000  0.10576000
   0.75000000  0.75000000  0.00000000
   0.50000000  0.50000000  0.00000000
   0.75209486  0.49897521  0.35127315
   0.49356477  0.75644498  0.31398583
   0.75057598  0.75037267  0.21117907
   0.49978712  0.49959385  0.21109922
   0.75000000  0.50000000  0.10576000
   0.50000000  0.75000000  0.10576000
   0.68430478  0.56678557  0.40209762
Direct configuration=     4
   0.00136756  0.99912424  0.31261902
   0.25099521  0.24890102  0.31259979
   0.00000000  0.25000000  0.00000000
   0.25000000  0.00000000  0.00000000
   0.00000000  0.00000000  0.10576000
   0.25000000  0.25000000  0.10576000
   0.00047264  0.24969875  0.21001523
   0.24991898  0.00028996  0.20961233
   0.49882460  0.99980271  0.31221875
   0.75099753  0.24178474  0.31230441
   0.50000000  0.25000000  0.00000000
   0.75000000  0.00000000  0.00000000
   0.50000000  0.00000000  0.10576000
   0.75000000  0.25000000  0.10576000
   0.50015289  0.24987333  0.21005554
   0.75008989  0.99866642  0.20966935
   0.00823704  0.49921047  0.31229442
   0.25030672  0.75123579  0.31221985
   0.00000000  0.75000000  0.00000000
   0.25000000  0.50000000  0.00000000
   0.00000000  0.50000000  0.10576000
   0.25000000  0.75000000  0.10576000
   0.00029724  0.75006660  0.21006533
   0.25152998  0.50000070  0.20964886
   0.49845769  0.50004804  0.31449591
   0.75012196  0.75153362  0.31457554
   0.50000000  0.75000000  0.00000000
   0.75000000  0.50000000  0.00000000
   0.50000000  0.50000000  0.10576000
   0.75000000  0.75000000  0.10576000
   0.50055930  0.74959212  0.21045893
   0.74850193  0.50164965  0.21111482
   0.25000000  0.25000000  0.00000000
   0.00000000  0.00000000  0.00000000
   0.24953803  0.00059220  0.31645186
   0.00060953  0.24952996  0.31652228
   0.25059007  0.24994076  0.21135818
   0.00016901  0.99954995  0.21136816
   0.25000000  0.00000000  0.10576000
   0.00000000  0.25000000  0.10576000
   0.75000000  0.25000000  0.00000000
   0.50000000  0.00000000  0.00000000
   0.75051534  0.99861116  0.31700723
   0.49948793  0.25078924  0.31664450
   0.75041913  0.25021126  0.21206116
   0.50013124  0.00037874  0.21091019
   0.75000000  0.00000000  0.10576000
   0.50000000  0.25000000  0.10576000
   0.25000000  0.75000000  0.00000000
   0.00000000  0.50000000  0.00000000
   0.25152015  0.49967492  0.31696739
   0.99939215  0.75066340  0.31665429
   0.24969131  0.74998858  0.21093027
   0.99992831  0.49977098  0.21206103
   0.25000000  0.50000000  0.10576000
   0.00000000  0.75000000  0.10576000
   0.75000000  0.75000000  0.00000000
   0.50000000  0.50000000  0.00000000
   0.75207849  0.49899161  0.35132166
   0.49358136  0.75642821  0.31398979
   0.75057329  0.75036114  0.21118516
   0.49979851  0.49959642  0.21110540
   0.75000000  0.50000000  0.10576000
   0.50000000  0.75000000  0.10576000
   0.68434096  0.56674954  0.40204940
Direct configuration=     5
   0.00137136  0.99912144  0.31261846
   0.25099773  0.24889653  0.31259963
   0.00000000  0.25000000  0.00000000
   0.25000000  0.00000000  0.00000000
   0.00000000  0.00000000  0.10576000
   0.25000000  0.25000000  0.10576000
   0.00046888  0.24970318  0.21001782
   0.24991847  0.00028994  0.20961346
   0.49882188  0.99980403  0.31221809
   0.75099629  0.24179722  0.31232651
   0.50000000  0.25000000  0.00000000
   0.75000000  0.00000000  0.00000000
   0.50000000  0.00000000  0.10576000
   0.75000000  0.25000000  0.10576000
   0.50015439  0.24987510  0.21005830
   0.75008990  0.99866973  0.20966906
   0.00822562  0.49921063  0.31231649
   0.25030511  0.75123868  0.31221973
   0.00000000  0.75000000  0.00000000
   0.25000000  0.50000000  0.00000000
   0.00000000  0.50000000  0.10576000
   0.25000000  0.75000000  0.10576000
   0.00029575  0.75006484  0.21006798
   0.25152498  0.50000105  0.20964832
   0.49842624  0.50004703  0.31451858
   0.75012306  0.75156599  0.31459805
   0.50000000  0.75000000  0.00000000
   0.75000000  0.50000000  0.00000000
   0.50000000  0.50000000  0.10576000
   0.75000000  0.75000000  0.10576000
   0.50055904  0.74959308  0.21045842
   0.74850282  0.50164948  0.21108221
   0.25000000  0.25000000  0.00000000
   0.00000000  0.00000000  0.00000000
   0.24953707  0.00059327  0.31645282
   0.00060422  0.24953501  0.31651850
   0.25059010  0.24994115  0.21135731
   0.00016849  0.99954991  0.21136727
   0.25000000  0.00000000  0.10576000
   0.00000000  0.25000000  0.10576000
   0.75000000  0.25000000  0.00000000
   0.50000000  0.00000000  0.00000000
   0.75051301  0.99860678  0.31700591
   0.49949201  0.25079390  0.31664186
   0.75041869  0.25022189  0.21206184
   0.50013186  0.00037809  0.21091033
   0.75000000  0.00000000  0.10576000
   0.50000000  0.25000000  0.10576000
   0.25000000  0.75000000  0.00000000
   0.00000000  0.50000000  0.00000000
   0.25152517  0.49967737  0.31696615
   0.99938817  0.75065998  0.31665155
   0.24969197  0.74998785  0.21093045
   0.99991754  0.49977141  0.21206161
   0.25000000  0.50000000  0.10576000
   0.00000000  0.75000000  0.10576000
   0.75000000  0.75000000  0.00000000
   0.50000000  0.50000000  0.00000000
   0.75205856  0.49901167  0.35138201
   0.49360213  0.75640727  0.31399480
   0.75056984  0.75034676  0.21119277
   0.49981273  0.49959958  0.21111312
   0.75000000  0.50000000  0.10576000
   0.50000000  0.75000000  0.10576000
   0.68438598  0.56670484  0.40198914
Direct configuration=     6
   0.00137592  0.99911815  0.31261773
   0.25100069  0.24889102  0.31259935
   0.00000000  0.25000000  0.00000000
   0.25000000  0.00000000  0.00000000
   0.00000000  0.00000000  0.10576000
   0.25000000  0.25000000  0.10576000
   0.00046428  0.24970857  0.21002091
   0.24991788  0.00029001  0.20961482
   0.49881861  0.99980557  0.31221725
   0.75099471  0.24181203  0.31235298
   0.50000000  0.25000000  0.00000000
   0.75000000  0.00000000  0.00000000
   0.50000000  0.00000000  0.10576000
   0.75000000  0.25000000  0.10576000
   0.50015619  0.24987733  0.21006167
   0.75008992  0.99867371  0.20966874
   0.00821202  0.49921085  0.31234305
   0.25030321  0.75124216  0.31221954
   0.00000000  0.75000000  0.00000000
   0.25000000  0.50000000  0.00000000
   0.00000000  0.50000000  0.10576000
   0.25000000  0.75000000  0.10576000
   0.00029386  0.75006266  0.21007112
   0.25151898  0.50000145  0.20964769
   0.49838821  0.50004581  0.31454547
   0.75012427  0.75160518  0.31462477
   0.50000000  0.75000000  0.00000000
   0.75000000  0.50000000  0.00000000
   0.50000000  0.50000000  0.10576000
   0.75000000  0.75000000  0.10576000
   0.50055879  0.74959414  0.21045782
   0.74850389  0.50164925  0.21104311
   0.25000000  0.25000000  0.00000000
   0.00000000  0.00000000  0.00000000
   0.24953593  0.00059453  0.31645400
   0.00059778  0.24954113  0.31651405
   0.25059013  0.24994164  0.21135629
   0.00016784  0.99954987  0.21136624
   0.25000000  0.00000000  0.10576000
   0.00000000  0.25000000  0.10576000
   0.75000000  0.25000000  0.00000000
   0.50000000  0.00000000  0.00000000
   0.75051021  0.99860158  0.31700439
   0.49949699  0.25079956  0.31663879
   0.75041816  0.25023461  0.21206266
   0.50013263  0.00037731  0.21091052
   0.75000000  0.00000000  0.10576000
   0.50000000  0.25000000  0.10576000
   0.25000000  0.75000000  0.00000000
   0.00000000  0.50000000  0.00000000
   0.25153114  0.49968031  0.31696472
   0.99938332  0.75065578  0.31664835
   0.24969276  0.74998696  0.21093069
   0.99990473  0.49977193  0.21206241
   0.25000000  0.50000000  0.10576000
   0.00000000  0.75000000  0.10576000
   0.75000000  0.75000000  0.00000000
   0.50000000  0.50000000  0.00000000
   0.75203534  0.49903503  0.35145398
   0.49362719  0.75638201  0.31400094
   0.75056573  0.75032964  0.21120192
   0.49982974  0.49960338  0.21112244
   0.75000000  0.50000000  0.10576000
   0.50000000  0.75000000  0.10576000
   0.68443980  0.56665150  0.40191689
Direct configuration=     7
   0.00138123  0.99911442  0.31261680
   0.25100402  0.24888459  0.31259894
   0.00000000  0.25000000  0.00000000
   0.25000000  0.00000000  0.00000000
   0.00000000  0.00000000  0.10576000
   0.25000000  0.25000000  0.10576000
   0.00045881  0.24971494  0.21002448
   0.24991719  0.00029011  0.20961635
   0.49881476  0.99980733  0.31221622
   0.75099291  0.24182908  0.31238367
   0.50000000  0.25000000  0.00000000
   0.75000000  0.00000000  0.00000000
   0.50000000  0.00000000  0.10576000
   0.75000000  0.25000000  0.10576000
   0.50015837  0.24988006  0.21006556
   0.75008993  0.99867837  0.20966838
   0.00819641  0.49921118  0.31237391
   0.25030104  0.75124624  0.31221927
   0.00000000  0.75000000  0.00000000
   0.25000000  0.50000000  0.00000000
   0.00000000  0.50000000  0.10576000
   0.25000000  0.75000000  0.10576000
   0.00029148  0.75006001  0.21007496
   0.25151198  0.50000193  0.20964699
   0.49834368  0.50004464  0.31457664
   0.75012559  0.75165133  0.31465556
   0.50000000  0.75000000  0.00000000
   0.75000000  0.50000000  0.00000000
   0.50000000  0.50000000  0.10576000
   0.75000000  0.75000000  0.10576000
   0.50055861  0.74959525  0.21045714
   0.74850537  0.50164902  0.21099751
   0.25000000  0.25000000  0.00000000
   0.00000000  0.00000000  0.00000000
   0.24953462  0.00059598  0.31645541
   0.00059018  0.24954836  0.31650896
   0.25059017  0.24994224  0.21135515
   0.00016705  0.99954981  0.21136508
   0.25000000  0.00000000  0.10576000
   0.00000000  0.25000000  0.10576000
   0.75000000  0.25000000  0.00000000
   0.50000000  0.00000000  0.00000000
   0.75050693  0.99859557  0.31700269
   0.49950295  0.25080623  0.31663533
   0.75041753  0.25024945  0.21206372
   0.50013353  0.00037640  0.21091079
   0.75000000  0.00000000  0.10576000
   0.50000000  0.25000000  0.10576000
   0.25000000  0.75000000  0.00000000
   0.00000000  0.50000000  0.00000000
   0.25153803  0.49968374  0.31696313
   0.99937759  0.75065074  0.31664474
   0.24969368  0.74998591  0.21093102
   0.99988977  0.49977254  0.21206346
   0.25000000  0.50000000  0.10576000
   0.00000000  0.75000000  0.10576000
   0.75000000  0.75000000  0.00000000
   0.50000000  0.50000000  0.00000000
   0.75200913  0.49906123  0.35153738
   0.49365661  0.75635235  0.31400826
   0.75056092  0.75030971  0.21121266
   0.49984953  0.49960782  0.21113338
   0.75000000  0.50000000  0.10576000
   0.50000000  0.75000000  0.10576000
   0.68450204  0.56658985  0.40183263
Direct configuration=     8
   0.00138730  0.99911033  0.31261569
   0.25100768  0.24887725  0.31259841
   0.00000000  0.25000000  0.00000000
   0.25000000  0.00000000  0.00000000
   0.00000000  0.00000000  0.10576000
   0.25000000  0.25000000  0.10576000
   0.00045228  0.24972251  0.21002853
   0.24991651  0.00029016  0.20961815
   0.49881035  0.99980926  0.31221501
   0.75099099  0.24184819  0.31241869
   0.50000000  0.25000000  0.00000000
   0.75000000  0.00000000  0.00000000
   0.50000000  0.00000000  0.10576000
   0.75000000  0.25000000  0.10576000
   0.50016103  0.24988334  0.21007012
   0.75008996  0.99868374  0.20966805
   0.00817866  0.49921140  0.31240904
   0.25029867  0.75125091  0.31221892
   0.00000000  0.75000000  0.00000000
   0.25000000  0.50000000  0.00000000
   0.00000000  0.50000000  0.10576000
   0.25000000  0.75000000  0.10576000
   0.00028850  0.75005685  0.21007946
   0.25150399  0.50000247  0.20964626
   0.49829218  0.50004331  0.31461175
   0.75012685  0.75170497  0.31469031
   0.50000000  0.75000000  0.00000000
   0.75000000  0.50000000  0.00000000
   0.50000000  0.50000000  0.10576000
   0.75000000  0.75000000  0.10576000
   0.50055855  0.74959637  0.21045643
   0.74850690  0.50164869  0.21094525
   0.25000000  0.25000000  0.00000000
   0.00000000  0.00000000  0.00000000
   0.24953315  0.00059760  0.31645706
   0.00058136  0.24955676  0.31650326
   0.25059021  0.24994297  0.21135385
   0.00016611  0.99954974  0.21136376
   0.25000000  0.00000000  0.10576000
   0.00000000  0.25000000  0.10576000
   0.75000000  0.25000000  0.00000000
   0.50000000  0.00000000  0.00000000
   0.75050318  0.99858878  0.31700084
   0.49950989  0.25081365  0.31663155
   0.75041680  0.25026645  0.21206505
   0.50013459  0.00037535  0.21091111
   0.75000000  0.00000000  0.10576000
   0.50000000  0.25000000  0.10576000
   0.25000000  0.75000000  0.00000000
   0.00000000  0.50000000  0.00000000
   0.25154584  0.49968767  0.31696141
   0.99937092  0.75064479  0.31664078
   0.24969474  0.74998468  0.21093142
   0.99987266  0.49977325  0.21206476
   0.25000000  0.50000000  0.10576000
   0.00000000  0.75000000  0.10576000
   0.75000000  0.75000000  0.00000000
   0.50000000  0.50000000  0.00000000
   0.75198066  0.49908974  0.35163188
   0.49369034  0.75631840  0.31401674
   0.75055542  0.75028698  0.21122502
   0.49987212  0.49961292  0.21114597
   0.75000000  0.50000000  0.10576000
   0.50000000  0.75000000  0.10576000
   0.68457227  0.56652019  0.40173649
Direct configuration=     9
   0.00139415  0.99910592  0.31261433
   0.25101162  0.24886901  0.31259771
   0.00000000  0.25000000  0.00000000
   0.25000000  0.00000000  0.00000000
   0.00000000  0.00000000  0.10576000
   0.25000000  0.25000000  0.10576000
   0.00044450  0.24973129  0.21003302
   0.24991574  0.00029024  0.20962010
   0.49880537  0.99981138  0.31221357
   0.75098883  0.24186938  0.31245773
   0.50000000  0.25000000  0.00000000
   0.75000000  0.00000000  0.00000000
   0.50000000  0.00000000  0.10576000
   0.75000000  0.25000000  0.10576000
   0.50016418  0.24988728  0.21007521
   0.75009015  0.99868998  0.20966771
   0.00815867  0.49921159  0.31244824
   0.25029607  0.75125620  0.31221845
   0.00000000  0.75000000  0.00000000
   0.25000000  0.50000000  0.00000000
   0.00000000  0.50000000  0.10576000
   0.25000000  0.75000000  0.10576000
   0.00028492  0.75005316  0.21008448
   0.25149499  0.50000308  0.20964551
   0.49823303  0.50004157  0.31465071
   0.75012828  0.75176602  0.31472875
   0.50000000  0.75000000  0.00000000
   0.75000000  0.50000000  0.00000000
   0.50000000  0.50000000  0.10576000
   0.75000000  0.75000000  0.10576000
   0.50055867  0.74959742  0.21045568
   0.74850879  0.50164835  0.21088642
   0.25000000  0.25000000  0.00000000
   0.00000000  0.00000000  0.00000000
   0.24953155  0.00059940  0.31645899
   0.00057127  0.24956641  0.31649704
   0.25059027  0.24994386  0.21135248
   0.00016500  0.99954968  0.21136235
   0.25000000  0.00000000  0.10576000
   0.00000000  0.25000000  0.10576000
   0.75000000  0.25000000  0.00000000
   0.50000000  0.00000000  0.00000000
   0.75049896  0.99858125  0.31699892
   0.49951797  0.25082215  0.31662753
   0.75041598  0.25028564  0.21206673
   0.50013582  0.00037417  0.21091156
   0.75000000  0.00000000  0.10576000
   0.50000000  0.25000000  0.10576000
   0.25000000  0.75000000  0.00000000
   0.00000000  0.50000000  0.00000000
   0.25155454  0.49969210  0.31695964
   0.99936326  0.75063783  0.31663656
   0.24969595  0.74998328  0.21093195
   0.99985335  0.49977408  0.21206643
   0.25000000  0.50000000  0.10576000
   0.00000000  0.75000000  0.10576000
   0.75000000  0.75000000  0.00000000
   0.50000000  0.50000000  0.00000000
   0.75195059  0.49911958  0.35173723
   0.49372852  0.75627986  0.31402655
   0.75054936  0.75026152  0.21123902
   0.49989749  0.49961869  0.21116029
   0.75000000  0.50000000  0.10576000
   0.50000000  0.75000000  0.10576000
   0.68465028  0.56644281  0.40162847
Direct configuration=    10
   0.00140177  0.99910126  0.31261269
   0.25101576  0.24885985  0.31259680
   0.00000000  0.25000000  0.00000000
   0.25000000  0.00000000  0.00000000
   0.00000000  0.00000000  0.10576000
   0.25000000  0.25000000  0.10576000
   0.00043563  0.24974125  0.21003798
   0.24991487  0.00029034  0.20962219
   0.49879978  0.99981363  0.31221190
   0.75098668  0.24189280  0.31250076
   0.50000000  0.25000000  0.00000000
   0.75000000  0.00000000  0.00000000
   0.50000000  0.00000000  0.10576000
   0.75000000  0.25000000  0.10576000
   0.50016786  0.24989194  0.21008082
   0.75009039  0.99869724  0.20966735
   0.00813687  0.49921153  0.31249143
   0.25029316  0.75126234  0.31221760
   0.00000000  0.75000000  0.00000000
   0.25000000  0.50000000  0.00000000
   0.00000000  0.50000000  0.10576000
   0.25000000  0.75000000  0.10576000
   0.00028065  0.75004888  0.21009002
   0.25148499  0.50000375  0.20964477
   0.49816632  0.50003964  0.31469320
   0.75012980  0.75183522  0.31477077
   0.50000000  0.75000000  0.00000000
   0.75000000  0.50000000  0.00000000
   0.50000000  0.50000000  0.10576000
   0.75000000  0.75000000  0.10576000
   0.50055904  0.74959833  0.21045491
   0.74851115  0.50164762  0.21082080
   0.25000000  0.25000000  0.00000000
   0.00000000  0.00000000  0.00000000
   0.24952984  0.00060133  0.31646123
   0.00055986  0.24957732  0.31649037
   0.25059034  0.24994491  0.21135106
   0.00016371  0.99954959  0.21136090
   0.25000000  0.00000000  0.10576000
   0.00000000  0.25000000  0.10576000
   0.75000000  0.25000000  0.00000000
   0.50000000  0.00000000  0.00000000
   0.75049427  0.99857300  0.31699698
   0.49952728  0.25083177  0.31662339
   0.75041505  0.25030701  0.21206886
   0.50013723  0.00037284  0.21091218
   0.75000000  0.00000000  0.10576000
   0.50000000  0.25000000  0.10576000
   0.25000000  0.75000000  0.00000000
   0.00000000  0.50000000  0.00000000
   0.25156407  0.49969703  0.31695787
   0.99935457  0.75062978  0.31663219
   0.24969730  0.74998167  0.21093267
   0.99983186  0.49977500  0.21206853
   0.25000000  0.50000000  0.10576000
   0.00000000  0.75000000  0.10576000
   0.75000000  0.75000000  0.00000000
   0.50000000  0.50000000  0.00000000
   0.75191976  0.49915017  0.35185308
   0.49377118  0.75623698  0.31403788
   0.75054248  0.75023327  0.21125469
   0.49992533  0.49962511  0.21117643
   0.75000000  0.50000000  0.10576000
   0.50000000  0.75000000  0.10576000
   0.68473531  0.56635825  0.40150874
Direct configuration=    11
   0.00141048  0.99909659  0.31261069
   0.25102000  0.24884978  0.31259564
   0.00000000  0.25000000  0.00000000
   0.25000000  0.00000000  0.00000000
   0.00000000  0.00000000  0.10576000
   0.25000000  0.25000000  0.10576000
   0.00042560  0.24975241  0.21004354
   0.24991387  0.00029050  0.20962438
   0.49879353  0.99981603  0.31220994
   0.75098386  0.24191826  0.31254785
   0.50000000  0.25000000  0.00000000
   0.75000000  0.00000000  0.00000000
   0.50000000  0.00000000  0.10576000
   0.75000000  0.25000000  0.10576000
   0.50017212  0.24989746  0.21008694
   0.75009064  0.99870533  0.20966704
   0.00811300  0.49921122  0.31253858
   0.25029005  0.75126918  0.31221655
   0.00000000  0.75000000  0.00000000
   0.25000000  0.50000000  0.00000000
   0.00000000  0.50000000  0.10576000
   0.25000000  0.75000000  0.10576000
   0.00027557  0.75004398  0.21009605
   0.25147395  0.50000451  0.20964404
   0.49809184  0.50003742  0.31473903
   0.75013144  0.75191282  0.31481609
   0.50000000  0.75000000  0.00000000
   0.75000000  0.50000000  0.00000000
   0.50000000  0.50000000  0.10576000
   0.75000000  0.75000000  0.10576000
   0.50055970  0.74959904  0.21045414
   0.74851369  0.50164677  0.21074832
   0.25000000  0.25000000  0.00000000
   0.00000000  0.00000000  0.00000000
   0.24952799  0.00060342  0.31646382
   0.00054703  0.24958961  0.31648333
   0.25059039  0.24994616  0.21134961
   0.00016217  0.99954952  0.21135941
   0.25000000  0.00000000  0.10576000
   0.00000000  0.25000000  0.10576000
   0.75000000  0.25000000  0.00000000
   0.50000000  0.00000000  0.00000000
   0.75048907  0.99856410  0.31699508
   0.49953790  0.25084260  0.31661920
   0.75041399  0.25033062  0.21207149
   0.50013881  0.00037139  0.21091299
   0.75000000  0.00000000  0.10576000
   0.50000000  0.25000000  0.10576000
   0.25000000  0.75000000  0.00000000
   0.00000000  0.50000000  0.00000000
   0.25157438  0.49970248  0.31695617
   0.99934476  0.75062056  0.31662776
   0.24969877  0.74997987  0.21093358
   0.99980825  0.49977588  0.21207106
   0.25000000  0.50000000  0.10576000
   0.00000000  0.75000000  0.10576000
   0.75000000  0.75000000  0.00000000
   0.50000000  0.50000000  0.00000000
   0.75188986  0.49917995  0.35197899
   0.49381873  0.75618920  0.31405086
   0.75053487  0.75020228  0.21127217
   0.49995587  0.49963224  0.21119443
   0.75000000  0.50000000  0.10576000
   0.50000000  0.75000000  0.10576000
   0.68482707  0.56626686  0.40137757
Direct configuration=    12
   0.00142001  0.99909182  0.31260830
   0.25102427  0.24883875  0.31259416
   0.00000000  0.25000000  0.00000000
   0.25000000  0.00000000  0.00000000
   0.00000000  0.00000000  0.10576000
   0.25000000  0.25000000  0.10576000
   0.00041429  0.24976491  0.21004956
   0.24991275  0.00029068  0.20962664
   0.49878660  0.99981851  0.31220765
   0.75098092  0.24194524  0.31259878
   0.50000000  0.25000000  0.00000000
   0.75000000  0.00000000  0.00000000
   0.50000000  0.00000000  0.10576000
   0.75000000  0.25000000  0.10576000
   0.50017703  0.24990390  0.21009390
   0.75009088  0.99871458  0.20966673
   0.00808752  0.49921095  0.31258972
   0.25028679  0.75127671  0.31221526
   0.00000000  0.75000000  0.00000000
   0.25000000  0.50000000  0.00000000
   0.00000000  0.50000000  0.10576000
   0.25000000  0.75000000  0.10576000
   0.00026952  0.75003842  0.21010275
   0.25146184  0.50000530  0.20964335
   0.49800888  0.50003552  0.31478834
   0.75013340  0.75199936  0.31486442
   0.50000000  0.75000000  0.00000000
   0.75000000  0.50000000  0.00000000
   0.50000000  0.50000000  0.10576000
   0.75000000  0.75000000  0.10576000
   0.50056074  0.74959942  0.21045339
   0.74851706  0.50164609  0.21066873
   0.25000000  0.25000000  0.00000000
   0.00000000  0.00000000  0.00000000
   0.24952620  0.00060585  0.31646674
   0.00053271  0.24960331  0.31647600
   0.25059044  0.24994762  0.21134818
   0.00016038  0.99954941  0.21135792
   0.25000000  0.00000000  0.10576000
   0.00000000  0.25000000  0.10576000
   0.75000000  0.25000000  0.00000000
   0.50000000  0.00000000  0.00000000
   0.75048336  0.99855454  0.31699329
   0.49954997  0.25085468  0.31661508
   0.75041279  0.25035648  0.21207472
   0.50014059  0.00036976  0.21091403
   0.75000000  0.00000000  0.10576000
   0.50000000  0.25000000  0.10576000
   0.25000000  0.75000000  0.00000000
   0.00000000  0.50000000  0.00000000
   0.25158545  0.49970841  0.31695460
   0.99933375  0.75060998  0.31662337
   0.24970038  0.74997783  0.21093475
   0.99978236  0.49977684  0.21207419
   0.25000000  0.50000000  0.10576000
   0.00000000  0.75000000  0.10576000
   0.75000000  0.75000000  0.00000000
   0.50000000  0.50000000  0.00000000
   0.75186107  0.49920878  0.35211440
   0.49387146  0.75613621  0.31406568