 vasp.6.3.2 27Jun22 (build Aug 05 2024 15:42:26) complex                        
  
 executed on             LinuxIFC date 2025.06.04  20:33:56
 running  294 mpi-ranks, with    1 threads/rank
 each image running on   42 cores
 distrk:  each k-point on   42 cores,    1 groups
 distr:  one band on NCORE=   1 cores,   42 groups


--------------------------------------------------------------------------------------------------------


 INCAR:
   ADDGRID = True
   ALGO = Fast
   EDIFF = 1e-06
   EDIFFG = -0.05
   ENCUT = 520.0
   IBRION = 1
   ISIF = 2
   ISMEAR = 0
   ISPIN = 2
   ISYM = 0
   LASPH = True
   LDAU = True
   LDAUJ = 0 0 0 0
   LDAUL = 0 0 2 0
   LDAUPRINT = 1
   LDAUTYPE = 2
   LDAUU = 0 0 4.38 0
   LMAXMIX = 4
   LORBIT = 11
   LREAL = False
   LWAVE = False
   MAGMOM = 93*0.6
   NELM = 100
   NELMIN = 3
   NSW = 450
   POTIM = 0.2
   PREC = Accurate
   SIGMA = 0.05
   IMAGES = 7
   SPRING = -5.0
   ICHAIN = 0
   LCLIMB = .TRUE.
   LNEBCELL = .FALSE.
   IOPT = 3

 POTCAR:   PAW_PBE Li_sv 23Jan2001                
 POTCAR:   PAW_PBE Nb_pv 08Apr2002                
 POTCAR:   PAW_PBE Mo_pv 08Apr2002                
 POTCAR:   PAW_PBE O 08Apr2002                    
 POTCAR:   PAW_PBE Li_sv 23Jan2001                
   VRHFIN =Li: 1s2s2p                                                                               
   LEXCH  = PE                                                                                      
   EATOM  =   202.7858 eV,   14.9043 Ry                                                             
                                                                                                    
   TITEL  = PAW_PBE Li_sv 23Jan2001                                                                 
   LULTRA =        F    use ultrasoft PP ?                                                          
   IUNSCR =        0    unscreen: 0-lin 1-nonlin 2-no                                               
   RPACOR =     .000    partial core radius                                                         
   POMASS =    7.010; ZVAL   =    3.000    mass and valenz                                          
   RCORE  =    2.050    outmost cutoff radius                                                       
   RWIGS  =    2.050; RWIGS  =    1.085    wigner-seitz radius (au A)                               
   ENMAX  =  271.649; ENMIN  =  203.737 eV                                                          
   ICORE  =        2    local potential                                                             
   LCOR   =        T    correct aug charges                                                         
   LPAW   =        T    paw PP                                                                      
   EAUG   =  428.394                                                                                
   RMAX   =    2.797    core radius for proj-oper                                                   
   RAUG   =    1.300    factor for augmentation sphere                                              
   RDEP   =    2.094    radius for radial grids                                                     
   RDEPT  =    1.550    core radius for aug-charge                                                  
   QCUT   =   -4.468; QGAM   =    8.937    optimization parameters                                  
                                                                                                    
   Description                                                                                      
     l     E      TYP  RCUT    TYP  RCUT                                                            
     0   .000     23  1.550                                                                         
     0   .000     23  2.050                                                                         
     0   .000     23  1.550                                                                         
     0   .000     23  2.050                                                                         
     1  -.200     23  2.050                                                                         
     1  1.500     23  2.050                                                                         
     2   .000      7  1.550                                                                         
  local pseudopotential read in
  atomic valenz-charges read in
  non local Contribution for L=           0  read in
    real space projection operators read in
  non local Contribution for L=           0  read in
    real space projection operators read in
  non local Contribution for L=           1  read in
    real space projection operators read in
  non local Contribution for L=           1  read in
    real space projection operators read in
    PAW grid and wavefunctions read in
 
   number of l-projection  operators is LMAX  =           4
   number of lm-projection operators is LMMAX =           8
 
 POTCAR:   PAW_PBE Nb_pv 08Apr2002                
   VRHFIN =Nb: 4p5s4d                                                                               
   LEXCH  = PE                                                                                      
   EATOM  =  1043.3919 eV,   76.6871 Ry                                                             
                                                                                                    
   TITEL  = PAW_PBE Nb_pv 08Apr2002                                                                 
   LULTRA =        F    use ultrasoft PP ?                                                          
   IUNSCR =        1    unscreen: 0-lin 1-nonlin 2-no                                               
   RPACOR =    2.200    partial core radius                                                         
   POMASS =   92.000; ZVAL   =   11.000    mass and valenz                                          
   RCORE  =    2.750    outmost cutoff radius                                                       
   RWIGS  =    2.840; RWIGS  =    1.503    wigner-seitz radius (au A)                               
   ENMAX  =  208.608; ENMIN  =  156.456 eV                                                          
   RCLOC  =    2.201    cutoff for local pot                                                        
   LCOR   =        T    correct aug charges                                                         
   LPAW   =        T    paw PP                                                                      
   EAUG   =  355.067                                                                                
   DEXC   =    -.005                                                                                
   RMAX   =    3.192    core radius for proj-oper                                                   
   RAUG   =    1.300    factor for augmentation sphere                                              
   RDEP   =    2.776    radius for radial grids                                                     
   QCUT   =   -3.916; QGAM   =    7.831    optimization parameters                                  
                                                                                                    
   Description                                                                                      
     l     E      TYP  RCUT    TYP  RCUT                                                            
     1   .000     23  2.600                                                                         
     1  -.100     23  2.600                                                                         
     2   .000     23  2.600                                                                         
     2   .000     23  2.600                                                                         
     0   .000     23  2.750                                                                         
     0  1.500     23  2.750                                                                         
     3   .000      7   .000                                                                         
  local pseudopotential read in
  partial core-charges read in
  atomic valenz-charges read in
  non local Contribution for L=           1  read in
    real space projection operators read in
  non local Contribution for L=           1  read in
    real space projection operators read in
  non local Contribution for L=           2  read in
    real space projection operators read in
  non local Contribution for L=           2  read in
    real space projection operators read in
  non local Contribution for L=           0  read in
    real space projection operators read in
  non local Contribution for L=           0  read in
    real space projection operators read in
    PAW grid and wavefunctions read in
 
   number of l-projection  operators is LMAX  =           6
   number of lm-projection operators is LMMAX =          18
 
 POTCAR:   PAW_PBE Mo_pv 08Apr2002                
   VRHFIN =Mo: 4p5s4d                                                                               
   LEXCH  = PE                                                                                      
   EATOM  =  1284.3009 eV,   94.3935 Ry                                                             
                                                                                                    
   TITEL  = PAW_PBE Mo_pv 08Apr2002                                                                 
   LULTRA =        F    use ultrasoft PP ?                                                          
   IUNSCR =        1    unscreen: 0-lin 1-nonlin 2-no                                               
   RPACOR =    2.200    partial core radius                                                         
   POMASS =   95.940; ZVAL   =   12.000    mass and valenz                                          
   RCORE  =    2.600    outmost cutoff radius                                                       
   RWIGS  =    2.750; RWIGS  =    1.455    wigner-seitz radius (au A)                               
   ENMAX  =  224.584; ENMIN  =  168.438 eV                                                          
   RCLOC  =    1.902    cutoff for local pot                                                        
   LCOR   =        T    correct aug charges                                                         
   LPAW   =        T    paw PP                                                                      
   EAUG   =  392.427                                                                                
   DEXC   =    -.006                                                                                
   RMAX   =    3.077    core radius for proj-oper                                                   
   RAUG   =    1.300    factor for augmentation sphere                                              
   RDEP   =    2.641    radius for radial grids                                                     
   QCUT   =   -4.063; QGAM   =    8.126    optimization parameters                                  
                                                                                                    
   Description                                                                                      
     l     E      TYP  RCUT    TYP  RCUT                                                            
     1   .000     23  2.500                                                                         
     1  -.200     23  2.500                                                                         
     2   .000     23  2.500                                                                         
     2   .000     23  2.500                                                                         
     0   .000     23  2.600                                                                         
     0  1.000     23  2.600                                                                         
     3   .000      7   .000                                                                         
  local pseudopotential read in
  partial core-charges read in
  atomic valenz-charges read in
  non local Contribution for L=           1  read in
    real space projection operators read in
  non local Contribution for L=           1  read in
    real space projection operators read in
  non local Contribution for L=           2  read in
    real space projection operators read in
  non local Contribution for L=           2  read in
    real space projection operators read in
  non local Contribution for L=           0  read in
    real space projection operators read in
  non local Contribution for L=           0  read in
    real space projection operators read in
    PAW grid and wavefunctions read in
 
   number of l-projection  operators is LMAX  =           6
   number of lm-projection operators is LMMAX =          18
 
 POTCAR:   PAW_PBE O 08Apr2002                    
   VRHFIN =O: s2p4                                                                                  
   LEXCH  = PE                                                                                      
   EATOM  =   432.3788 eV,   31.7789 Ry                                                             
                                                                                                    
   TITEL  = PAW_PBE O 08Apr2002                                                                     
   LULTRA =        F    use ultrasoft PP ?                                                          
   IUNSCR =        0    unscreen: 0-lin 1-nonlin 2-no                                               
   RPACOR =     .000    partial core radius                                                         
   POMASS =   16.000; ZVAL   =    6.000    mass and valenz                                          
   RCORE  =    1.520    outmost cutoff radius                                                       
   RWIGS  =    1.550; RWIGS  =     .820    wigner-seitz radius (au A)                               
   ENMAX  =  400.000; ENMIN  =  300.000 eV                                                          
   ICORE  =        2    local potential                                                             
   LCOR   =        T    correct aug charges                                                         
   LPAW   =        T    paw PP                                                                      
   EAUG   =  605.392                                                                                
   DEXC   =     .000                                                                                
   RMAX   =    2.264    core radius for proj-oper                                                   
   RAUG   =    1.300    factor for augmentation sphere                                              
   RDEP   =    1.550    radius for radial grids                                                     
   QCUT   =   -5.520; QGAM   =   11.041    optimization parameters                                  
                                                                                                    
   Description                                                                                      
     l     E      TYP  RCUT    TYP  RCUT                                                            
     0   .000     23  1.200                                                                         
     0  -.700     23  1.200                                                                         
     1   .000     23  1.520                                                                         
     1   .600     23  1.520                                                                         
     2   .000      7  1.500                                                                         
  local pseudopotential read in
  atomic valenz-charges read in
  non local Contribution for L=           0  read in
    real space projection operators read in
  non local Contribution for L=           0  read in
    real space projection operators read in
  non local Contribution for L=           1  read in
    real space projection operators read in
  non local Contribution for L=           1  read in
    real space projection operators read in
    PAW grid and wavefunctions read in
 
   number of l-projection  operators is LMAX  =           4
   number of lm-projection operators is LMMAX =           8
 
 -----------------------------------------------------------------------------
|                                                                             |
|               ----> ADVICE to this user running VASP <----                  |
|                                                                             |
|     You have a (more or less) 'large supercell' and for larger cells it     |
|     might be more efficient to use real-space projection operators.         |
|     Therefore, try LREAL= Auto in the INCAR file.                           |
|     Mind: If you want to do very accurate calculations, keep the            |
|     reciprocal projection scheme (i.e. LREAL=.FALSE.).                      |
|                                                                             |
 -----------------------------------------------------------------------------

 PAW_PBE Li_sv 23Jan2001                :
 energy of atom  1       EATOM= -202.7858
 kinetic energy error for atom=    0.0020 (will be added to EATOM!!)
 PAW_PBE Nb_pv 08Apr2002                :
 energy of atom  2       EATOM=-1043.3919
 kinetic energy error for atom=    0.0011 (will be added to EATOM!!)
 PAW_PBE Mo_pv 08Apr2002                :
 energy of atom  3       EATOM=-1284.3009
 kinetic energy error for atom=    0.0019 (will be added to EATOM!!)
 PAW_PBE O 08Apr2002                    :
 energy of atom  4       EATOM= -432.3788
 kinetic energy error for atom=    0.0208 (will be added to EATOM!!)
 
 
 POSCAR: Li   Nb   Mo   O
  positions in direct lattice
  No initial velocities read in
 exchange correlation table for  LEXCH =        8
   RHO(1)=    0.500       N(1)  =     2000
   RHO(2)=  100.500       N(2)  =     4000
 
 POSCAR: Li   Nb   Mo   O
  positions in direct lattice
  No initial velocities read in
 
 POSCAR: Li   Nb   Mo   O
  positions in direct lattice
  No initial velocities read in
 


--------------------------------------------------------------------------------------------------------


 ion  position               nearest neighbor table
   1  0.354  0.565  0.610-  65 1.80  74 1.84  73 1.99  53 2.04  13 2.78  18 2.79  22 2.80  21 2.96
                            18 3.10
   2  0.367  0.008  0.046-  42 1.84  34 1.89  33 2.00  33 2.03  90 2.18  86 2.33   9 3.46   9 3.48

   3  0.635  0.008  0.955-  35 1.86  43 1.87  32 2.00  32 2.03  91 2.20  87 2.30   8 3.45   8 3.48

   4  0.867  0.508  0.046-  44 1.85  36 1.88  31 2.00  31 2.03  92 2.19  88 2.33   7 3.47   7 3.49

   5  0.131  0.509  0.955-  45 1.83  37 1.90  30 2.00  30 2.03  93 2.16  89 2.34   6 3.46   6 3.49

   6  0.249  0.003  0.137-  54 1.81  34 1.98  89 2.02  89 2.02  46 2.07  30 2.36   5 3.46   5 3.49

   7  0.753  0.003  0.862-  55 1.81  88 2.01  88 2.02  47 2.02  35 2.02  31 2.36   4 3.47   4 3.49

   8  0.748  0.503  0.138-  56 1.81  36 2.00  87 2.02  87 2.02  48 2.03  32 2.37   3 3.45   3 3.48

   9  0.250  0.503  0.864-  57 1.81  37 1.96  86 2.01  86 2.02  49 2.09  33 2.35   2 3.46   2 3.48

  10  0.129  0.997  0.228-  46 1.84  62 1.90  85 2.00  85 2.03  38 2.15  50 2.32  25 3.44  25 3.46

  11  0.869  0.999  0.767-  63 1.85  47 1.87  84 2.01  84 2.03  39 2.22  51 2.29  24 3.42  24 3.43

  12  0.631  0.499  0.232-  64 1.85  48 1.86  83 2.01  83 2.03  40 2.21  52 2.30  23 3.42  23 3.43

  13  0.370  0.496  0.773-  49 1.82  65 1.90  82 2.01  82 2.04  41 2.14  53 2.40   1 2.78  22 3.52
                            22 3.54
  14  0.419  0.967  0.380-  81 1.85  29 1.93  58 2.02  81 2.05  66 2.07  54 2.14
  15  0.584  0.967  0.618-  80 1.85  29 1.93  67 2.01  80 2.05  59 2.08  55 2.14
  16  0.918  0.467  0.382-  79 1.85  28 1.93  68 2.03  79 2.05  60 2.05  56 2.15
  17  0.082  0.466  0.621-  78 1.85  28 1.93  61 2.02  78 2.05  69 2.07  57 2.13
  18  0.295  0.003  0.465-  66 1.83  62 1.96  73 2.01  73 2.02  74 2.07  70 2.37   1 2.79   1 3.10
                            21 3.52  21 3.52
  19  0.702  0.004  0.526-  67 1.86  75 1.95  72 2.01  72 2.01  63 2.06  71 2.29  20 3.44  20 3.44

  20  0.798  0.504  0.472-  68 1.85  76 1.96  71 2.01  71 2.02  64 2.05  72 2.31  19 3.44  19 3.44

  21  0.200  0.503  0.527-  69 1.83  77 1.93  70 2.02  70 2.02  65 2.11  73 2.40   1 2.96  18 3.52
                            18 3.52
  22  0.468  0.002  0.715-  59 1.83  74 2.01  53 2.01  53 2.02  43 2.03  82 2.38   1 2.80  13 3.52
                            13 3.54
  23  0.537  0.002  0.287-  58 1.86  75 1.93  52 2.01  52 2.01  42 2.10  83 2.29  12 3.42  12 3.43

  24  0.963  0.502  0.712-  61 1.86  76 1.92  51 2.01  51 2.01  45 2.11  84 2.29  11 3.42  11 3.43

  25  0.035  0.501  0.287-  60 1.84  77 1.96  50 2.01  50 2.01  44 2.08  85 2.32  10 3.44  10 3.46

  26  0.999  0.252  1.000-  39 1.78  92 1.79  93 1.80  38 1.80
  27  0.500  0.753  0.000-  40 1.79  91 1.79  90 1.80  41 1.81
  28  0.001  0.491  0.501-  16 1.93  17 1.93
  29  0.500  0.991  0.500-  14 1.93  15 1.93
  30  0.148  0.004  0.991-   5 2.00   5 2.03   6 2.36
  31  0.850  0.004  0.010-   4 2.00   4 2.03   7 2.36
  32  0.649  0.504  0.991-   3 2.00   3 2.03   8 2.37
  33  0.351  0.504  0.009-   2 2.00   2 2.03   9 2.35
  34  0.303  0.003  0.081-   2 1.89   6 1.98
  35  0.696  0.004  0.918-   3 1.86   7 2.02
  36  0.803  0.503  0.082-   4 1.88   8 2.00
  37  0.196  0.502  0.920-   5 1.90   9 1.96
  38  0.033  0.999  0.098-  26 1.80  10 2.15
  39  0.966  0.001  0.902-  26 1.78  11 2.22
  40  0.534  0.502  0.098-  27 1.79  12 2.21
  41  0.466  0.500  0.901-  27 1.81  13 2.14
  42  0.450  0.004  0.155-   2 1.84  23 2.10
  43  0.550  0.003  0.844-   3 1.87  22 2.03
  44  0.950  0.504  0.156-   4 1.85  25 2.08
  45  0.050  0.505  0.844-   5 1.83  24 2.11
  46  0.180  0.001  0.177-  10 1.84   6 2.07
  47  0.820  0.003  0.823-  11 1.87   7 2.02
  48  0.680  0.503  0.177-  12 1.86   8 2.03
  49  0.318  0.500  0.821-  13 1.82   9 2.09
  50  0.049  0.001  0.271-  25 2.01  25 2.01  10 2.32
  51  0.950  0.002  0.730-  24 2.01  24 2.01  11 2.29
  52  0.550  0.502  0.269-  23 2.01  23 2.01  12 2.30
  53  0.449  0.502  0.725-  22 2.01  22 2.02   1 2.04  13 2.40
  54  0.325  0.999  0.249-   6 1.81  14 2.14
  55  0.675  0.999  0.750-   7 1.81  15 2.14
  56  0.826  0.499  0.250-   8 1.81  16 2.15
  57  0.173  0.500  0.751-   9 1.81  17 2.13
  58  0.476  0.999  0.326-  23 1.86  14 2.02
  59  0.525  0.999  0.673-  22 1.83  15 2.08
  60  0.977  0.499  0.327-  25 1.84  16 2.05
  61  0.024  0.498  0.673-  24 1.86  17 2.02
  62  0.206  0.002  0.348-  10 1.90  18 1.96
  63  0.793  0.002  0.651-  11 1.85  19 2.06
  64  0.707  0.502  0.349-  12 1.85  20 2.05
  65  0.298  0.502  0.651-   1 1.80  13 1.90  21 2.11
  66  0.353  0.001  0.424-  18 1.83  14 2.07
  67  0.648  0.999  0.574-  19 1.86  15 2.01
  68  0.853  0.500  0.426-  20 1.85  16 2.03
  69  0.149  0.500  0.578-  21 1.83  17 2.07
  70  0.222  0.003  0.520-  21 2.02  21 2.02  18 2.37
  71  0.779  0.003  0.481-  20 2.01  20 2.02  19 2.29
  72  0.722  0.503  0.518-  19 2.01  19 2.01  20 2.31
  73  0.281  0.503  0.482-   1 1.99  18 2.01  18 2.02  21 2.40
  74  0.377  0.002  0.596-   1 1.84  22 2.01  18 2.07
  75  0.622  0.003  0.404-  23 1.93  19 1.95
  76  0.878  0.503  0.596-  24 1.92  20 1.96
  77  0.122  0.502  0.405-  21 1.93  25 1.96
  78  0.091  0.992  0.631-  17 1.85  17 2.05
  79  0.910  0.993  0.369-  16 1.85  16 2.05
  80  0.590  0.493  0.631-  15 1.85  15 2.05
  81  0.410  0.492  0.369-  14 1.85  14 2.05
  82  0.394  0.000  0.770-  13 2.01  13 2.04  22 2.38
  83  0.606  0.001  0.232-  12 2.01  12 2.03  23 2.29
  84  0.894  0.501  0.768-  11 2.01  11 2.03  24 2.29
  85  0.106  0.500  0.232-  10 2.00  10 2.03  25 2.32
  86  0.275  0.003  0.897-   9 2.01   9 2.02   2 2.33
  87  0.724  0.004  0.103-   8 2.02   8 2.02   3 2.30
  88  0.776  0.504  0.897-   7 2.01   7 2.02   4 2.33
  89  0.224  0.504  0.104-   6 2.02   6 2.02   5 2.34
  90  0.429  0.004  0.987-  27 1.80   2 2.18
  91  0.571  0.004  0.013-  27 1.79   3 2.20
  92  0.928  0.503  0.987-  26 1.79   4 2.19
  93  0.071  0.504  0.013-  26 1.80   5 2.16
 

IMPORTANT INFORMATION: All symmetrisations will be switched off!
NOSYMM: (Re-)initialisation of all symmetry stuff for point group C_1.


----------------------------------------------------------------------------------------

                                     Primitive cell                                     

  volume of cell :    1336.3476

  direct lattice vectors                    reciprocal lattice vectors
    22.785142899  0.000000000  0.000000000     0.043888248  0.000000000  0.028932614
     0.000000000  3.876850367  0.000000000     0.000000000  0.257941346 -0.000000041
    -9.973051630  0.000002413 15.128248185     0.000000000  0.000000000  0.066101507

  length of vectors
    22.785142899  3.876850367 18.119758606     0.052566857  0.257941346  0.066101507

  position of ions in fractional coordinates (direct lattice)
     0.353710094  0.565073148  0.610312804
     0.367193775  0.007853221  0.045546153
     0.634818858  0.008235847  0.955251550
     0.866563507  0.508015100  0.046304434
     0.131352855  0.509222468  0.954851917
     0.248938150  0.003491163  0.136925191
     0.752705578  0.003102041  0.862090778
     0.748391768  0.503229034  0.138213251
     0.249546996  0.503495073  0.864453088
     0.128571574  0.996738557  0.228157405
     0.868871359  0.998747864  0.766945064
     0.631320170  0.498718560  0.232412229
     0.370034340  0.495553676  0.773242727
     0.419025310  0.966691443  0.379764727
     0.584327582  0.967078952  0.617876438
     0.917914372  0.466777316  0.381706666
     0.082007385  0.466249474  0.620608920
     0.294783664  0.003336920  0.464556277
     0.702262471  0.003559611  0.525836672
     0.798344676  0.503630552  0.472372936
     0.200303505  0.503215295  0.527235547
     0.468357442  0.001685730  0.715489685
     0.536567054  0.001948937  0.286760093
     0.963115370  0.501655954  0.711924953
     0.035407550  0.501177056  0.287341824
     0.999057829  0.252384002  0.999690546
     0.500422429  0.753041278  0.000173616
     0.000670660  0.491184315  0.500513630
     0.500380873  0.990830023  0.499746547
     0.148380903  0.004464160  0.991075250
     0.850465264  0.004157848  0.009507432
     0.649329704  0.504350090  0.990719170
     0.350755318  0.504029982  0.008754812
     0.303117082  0.002833123  0.081022416
     0.696431969  0.003775126  0.917907900
     0.803223183  0.503418719  0.082001132
     0.196465193  0.502145944  0.920137307
     0.033283107  0.998683251  0.098401489
     0.965676641  0.000505778  0.901993943
     0.534375928  0.501660243  0.098132464
     0.465981652  0.499590039  0.900980057
     0.449601608  0.004131854  0.155463906
     0.550258871  0.003410077  0.844093521
     0.949775083  0.503613389  0.156339562
     0.050016127  0.505047910  0.844409614
     0.179543609  0.001487896  0.177014142
     0.820411632  0.003270443  0.822957125
     0.679959119  0.503051218  0.177003913
     0.317699798  0.499909824  0.821394967
     0.049379329  0.001077794  0.270741966
     0.950312694  0.001860758  0.730080131
     0.549722583  0.501867345  0.269400541
     0.449460573  0.501530426  0.725350177
     0.325499063  0.999392710  0.249418513
     0.675136764  0.999154641  0.750210402
     0.825577293  0.499183841  0.250139322
     0.173475420  0.499926414  0.751414809
     0.476463794  0.998773655  0.326086888
     0.524740799  0.999486615  0.672877769
     0.976605227  0.499177050  0.327499729
     0.023800867  0.497998935  0.673424104
     0.206152885  0.001877014  0.348067785
     0.792778430  0.001966485  0.651007495
     0.707484142  0.502252211  0.348771464
     0.297754384  0.502106900  0.650852666
     0.352526207  0.000503067  0.423628248
     0.648045707  0.999358552  0.574032240
     0.853004645  0.500207132  0.425665027
     0.149357194  0.500199960  0.577684332
     0.222062945  0.002815670  0.520423568
     0.778760497  0.003104432  0.480999464
     0.721898594  0.502963794  0.518421141
     0.281489131  0.502948184  0.482335967
     0.377433326  0.002482710  0.596089214
     0.621893463  0.002716447  0.403692553
     0.878260155  0.502807855  0.595880305
     0.122480969  0.502353527  0.405085334
     0.090992832  0.992308801  0.630857869
     0.910137376  0.992764785  0.369131012
     0.590271954  0.492667572  0.631077345
     0.409939491  0.492444753  0.368856250
     0.394415296  0.000091757  0.770069551
     0.605821097  0.001303863  0.231561002
     0.894494663  0.501101850  0.768183748
     0.105811318  0.500015772  0.231544386
     0.275255774  0.003051169  0.896729174
     0.724066384  0.003698201  0.102801962
     0.775613845  0.503652299  0.896855927
     0.224207135  0.503516951  0.103892530
     0.429004961  0.004202568  0.986976871
     0.571308472  0.004100528  0.012812497
     0.927873838  0.503200406  0.986551047
     0.070759401  0.504200131  0.013451754

  ion indices of the primitive-cell ions
   primitive index   ion index
                 1           1
                 2           2
                 3           3
                 4           4
                 5           5
                 6           6
                 7           7
                 8           8
                 9           9
                10          10
                11          11
                12          12
                13          13
                14          14
                15          15
                16          16
                17          17
                18          18
                19          19
                20          20
                21          21
                22          22
                23          23
                24          24
                25          25
                26          26
                27          27
                28          28
                29          29
                30          30
                31          31
                32          32
                33          33
                34          34
                35          35
                36          36
                37          37
                38          38
                39          39
                40          40
                41          41
                42          42
                43          43
                44          44
                45          45
                46          46
                47          47
                48          48
                49          49
                50          50
                51          51
                52          52
                53          53
                54          54
                55          55
                56          56
                57          57
                58          58
                59          59
                60          60
                61          61
                62          62
                63          63
                64          64
                65          65
                66          66
                67          67
                68          68
                69          69
                70          70
                71          71
                72          72
                73          73
                74          74
                75          75
                76          76
                77          77
                78          78
                79          79
                80          80
                81          81
                82          82
                83          83
                84          84
                85          85
                86          86
                87          87
                88          88
                89          89
                90          90
                91          91
                92          92
                93          93

----------------------------------------------------------------------------------------

 
 
 KPOINTS: pymatgen with grid density = 1000 / numb

Automatic generation of k-mesh.
 Grid dimensions read from file:
 generate k-points for:    1    6    1

 Generating k-lattice:

  Cartesian coordinates                     Fractional coordinates (reciprocal lattice)
     0.043888248  0.000000000  0.028932614     1.000000000  0.000000000 -0.000000000
     0.000000000  0.042990224 -0.000000007     0.000000000  0.166666667  0.000000000
     0.000000000  0.000000000  0.066101507     0.000000000  0.000000000  1.000000000

  Length of vectors
     0.052566857  0.042990224  0.066101507

  Shift w.r.t. Gamma in fractional coordinates (k-lattice)
     0.000000000  0.000000000  0.000000000

 
 Subroutine IBZKPT returns following result:
 ===========================================
 
 Found      4 irreducible k-points:
 
 Following reciprocal coordinates:
            Coordinates               Weight
  0.000000  0.000000  0.000000      1.000000
  0.000000  0.166667  0.000000      2.000000
  0.000000  0.333333  0.000000      2.000000
  0.000000  0.500000  0.000000      1.000000
 
 Following cartesian coordinates:
            Coordinates               Weight
  0.000000  0.000000  0.000000      1.000000
  0.000000  0.042990 -0.000000      2.000000
  0.000000  0.085980 -0.000000      2.000000
  0.000000  0.128971 -0.000000      1.000000
 


--------------------------------------------------------------------------------------------------------




 Dimension of arrays:
   k-points           NKPTS =      4   k-points in BZ     NKDIM =      4   number of bands    NBANDS=    462
   number of dos      NEDOS =    301   number of ions     NIONS =     93
   non local maximal  LDIM  =      6   non local SUM 2l+1 LMDIM =     18
   total plane-waves  NPLWV = 756000
   max r-space proj   IRMAX =      1   max aug-charges    IRDMAX= 278808
   dimension x,y,z NGX =   180 NGY =   30 NGZ =  140
   dimension x,y,z NGXF=   360 NGYF=   60 NGZF=  280
   support grid    NGXF=   720 NGYF=  120 NGZF=  560
   ions per type =               1  24   2  66
   NGX,Y,Z   is equivalent  to a cutoff of  13.13, 12.86, 12.84 a.u.
   NGXF,Y,Z  is equivalent  to a cutoff of  26.27, 25.73, 25.69 a.u.

 SYSTEM =  unknown system                          
 POSCAR =  Li   Nb   Mo   O                        

 Startparameter for this run:
   NWRITE =      2    write-flag & timer
   PREC   = accura    normal or accurate (medium, high low for compatibility)
   ISTART =      0    job   : 0-new  1-cont  2-samecut
   ICHARG =      2    charge: 1-file 2-atom 10-const
   ISPIN  =      2    spin polarized calculation?
   LNONCOLLINEAR =      F non collinear calculations
   LSORBIT =      F    spin-orbit coupling
   INIWAV =      1    electr: 0-lowe 1-rand  2-diag
   LASPH  =      T    aspherical Exc in radial PAW
 Electronic Relaxation 1
   ENCUT  =  520.0 eV  38.22 Ry    6.18 a.u.  42.37  7.21 33.69*2*pi/ulx,y,z
   ENINI  =  520.0     initial cutoff
   ENAUG  =  605.4 eV  augmentation charge cutoff
   NELM   =    100;   NELMIN=  3; NELMDL= -5     # of ELM steps 
   EDIFF  = 0.1E-05   stopping-criterion for ELM
   LREAL  =      F    real-space projection
   NLSPLINE    = F    spline interpolate recip. space projectors
   LCOMPAT=      F    compatible to vasp.4.4
   GGA_COMPAT  = T    GGA compatible to vasp.4.4-vasp.4.6
   LMAXPAW     = -100 max onsite density
   LMAXMIX     =    4 max onsite mixed and CHGCAR
   VOSKOWN=      0    Vosko Wilk Nusair interpolation
   ROPT   =    0.00000   0.00000   0.00000   0.00000
 Ionic relaxation
   EDIFFG = -.5E-01   stopping-criterion for IOM
   NSW    =    450    number of steps for IOM
   NBLOCK =      1;   KBLOCK =    450    inner block; outer block 
   IBRION =      1    ionic relax: 0-MD 1-quasi-New 2-CG
   NFREE  =      0    steps in history (QN), initial steepest desc. (CG)
   ISIF   =      2    stress and relaxation
   IWAVPR =     11    prediction:  0-non 1-charg 2-wave 3-comb
   ISYM   =      0    0-nonsym 1-usesym 2-fastsym
   LCORR  =      T    Harris-Foulkes like correction to forces

   POTIM  = 0.2000    time-step for ionic-motion
   TEIN   =    0.0    initial temperature
   TEBEG  =    0.0;   TEEND  =   0.0 temperature during run
   SMASS  =  -3.00    Nose mass-parameter (am)
   estimated Nose-frequenzy (Omega)   =  0.10E-29 period in steps = 0.31E+47 mass=  -0.119E-25a.u.
   SCALEE = 1.0000    scale energy and forces
   NPACO  =    256;   APACO  = 10.0  distance and # of slots for P.C.
   PSTRESS=    0.0 pullay stress

  Mass of Ions in am
   POMASS =   7.01 92.00 95.94 16.00
  Ionic Valenz
   ZVAL   =   3.00 11.00 12.00  6.00
  Atomic Wigner-Seitz radii
   RWIGS  =  -1.00 -1.00 -1.00 -1.00
  virtual crystal weights 
   VCA    =   1.00  1.00  1.00  1.00
   NELECT =     687.0000    total number of electrons
   NUPDOWN=      -1.0000    fix difference up-down

 DOS related values:
   EMIN   =  10.00;   EMAX   =-10.00  energy-range for DOS
   EFERMI =   0.00
   ISMEAR =     0;   SIGMA  =   0.05  broadening in eV -4-tet -1-fermi 0-gaus

 Electronic relaxation 2 (details)
   IALGO  =     68    algorithm
   LDIAG  =      T    sub-space diagonalisation (order eigenvalues)
   LSUBROT=      F    optimize rotation matrix (better conditioning)
   TURBO    =      0    0=normal 1=particle mesh
   IRESTART =      0    0=no restart 2=restart with 2 vectors
   NREBOOT  =      0    no. of reboots
   NMIN     =      0    reboot dimension
   EREF     =   0.00    reference energy to select bands
   IMIX   =      4    mixing-type and parameters
     AMIX     =   0.40;   BMIX     =  1.00
     AMIX_MAG =   1.60;   BMIX_MAG =  1.00
     AMIN     =   0.10
     WC   =   100.;   INIMIX=   1;  MIXPRE=   1;  MAXMIX= -45

 Intra band minimization:
   WEIMIN = 0.0010     energy-eigenvalue tresh-hold
   EBREAK =  0.54E-09  absolut break condition
   DEPER  =   0.30     relativ break condition  

   TIME   =   0.40     timestep for ELM

  volume/ion in A,a.u.               =      14.37        96.97
  Fermi-wavevector in a.u.,A,eV,Ry     =   1.311457  2.478294 23.400912  1.719918
  Thomas-Fermi vector in A             =   2.441917
 
 Write flags
   LWAVE        =      F    write WAVECAR
   LDOWNSAMPLE  =      F    k-point downsampling of WAVECAR
   LCHARG       =      T    write CHGCAR
   LVTOT        =      F    write LOCPOT, total local potential
   LVHAR        =      F    write LOCPOT, Hartree potential only
   LELF         =      F    write electronic localiz. function (ELF)
   LORBIT       =     11    0 simple, 1 ext, 2 COOP (PROOUT), +10 PAW based schemes


 Dipole corrections
   LMONO  =      F    monopole corrections only (constant potential shift)
   LDIPOL =      F    correct potential (dipole corrections)
   IDIPOL =      0    1-x, 2-y, 3-z, 4-all directions 
   EPSILON=  1.0000000 bulk dielectric constant

 LDA+U is selected, type is set to LDAUTYPE =  2
   angular momentum for each species LDAUL =     0    0    2    0
   U (eV)           for each species LDAUU =   0.0  0.0  4.4  0.0
   J (eV)           for each species LDAUJ =   0.0  0.0  0.0  0.0
 Exchange correlation treatment:
   GGA     =    --    GGA type
   LEXCH   =     8    internal setting for exchange type
   LIBXC   =     F    Libxc                    
   VOSKOWN =     0    Vosko Wilk Nusair interpolation
   LHFCALC =     F    Hartree Fock is set to
   LHFONE  =     F    Hartree Fock one center treatment
   AEXX    =    0.0000 exact exchange contribution

 Linear response parameters
   LEPSILON=     F    determine dielectric tensor
   LRPA    =     F    only Hartree local field effects (RPA)
   LNABLA  =     F    use nabla operator in PAW spheres
   LVEL    =     F    velocity operator in full k-point grid
   CSHIFT  =0.1000    complex shift for real part using Kramers Kronig
   OMEGAMAX=  -1.0    maximum frequency
   DEG_THRESHOLD= 0.2000000E-02 threshold for treating states as degnerate
   RTIME   =   -0.100 relaxation time in fs
  (WPLASMAI=    0.000 imaginary part of plasma frequency in eV, 0.658/RTIME)
   DFIELD  = 0.0000000 0.0000000 0.0000000 field for delta impulse in time
 
  Optional k-point grid parameters
   LKPOINTS_OPT  =     F    use optional k-point grid
   KPOINTS_OPT_MODE=     1    mode for optional k-point grid
 
 Orbital magnetization related:
   ORBITALMAG=     F  switch on orbital magnetization
   LCHIMAG   =     F  perturbation theory with respect to B field
   DQ        =  0.001000  dq finite difference perturbation B field
   LLRAUG    =     F  two centre corrections for induced B field



--------------------------------------------------------------------------------------------------------


 quasi-Newton-method for relaxation of ions
 charge density and potential will be updated during run
 spin polarized calculation
 RMM-DIIS sequential band-by-band and
  variant of blocked Davidson during initial phase
 perform sub-space diagonalisation
    before iterative eigenvector-optimisation
 modified Broyden-mixing scheme, WC =      100.0
 initial mixing is a Kerker type mixing with AMIX =  0.4000 and BMIX =      1.0000
 Hartree-type preconditioning will be used
 using additional bands          118
 reciprocal scheme for non local part
 use partial core corrections
 calculate Harris-corrections to forces 
   (improved forces if not selfconsistent)
 use gradient corrections 
 use of overlap-Matrix (Vanderbilt PP)
 Gauss-broadening in eV      SIGMA  =   0.05


--------------------------------------------------------------------------------------------------------


  energy-cutoff  :      520.00
  volume of cell :     1336.35
      direct lattice vectors                 reciprocal lattice vectors
    22.785142899  0.000000000  0.000000000     0.043888248  0.000000000  0.028932614
     0.000000000  3.876850367  0.000000000     0.000000000  0.257941346 -0.000000041
    -9.973051630  0.000002413 15.128248185     0.000000000  0.000000000  0.066101507

  length of vectors
    22.785142899  3.876850367 18.119758606     0.052566857  0.257941346  0.066101507


 
 k-points in units of 2pi/SCALE and weight: pymatgen with grid density = 1000 / numb
   0.00000000  0.00000000  0.00000000       0.167
   0.00000000  0.04299022 -0.00000001       0.333
   0.00000000  0.08598045 -0.00000001       0.333
   0.00000000  0.12897067 -0.00000002       0.167
 
 k-points in reciprocal lattice and weights: pymatgen with grid density = 1000 / numb
   0.00000000  0.00000000  0.00000000       0.167
   0.00000000  0.16666667  0.00000000       0.333
   0.00000000  0.33333333  0.00000000       0.333
   0.00000000  0.50000000  0.00000000       0.167
 
 position of ions in fractional coordinates (direct lattice) 
   0.35371009  0.56507315  0.61031280
   0.36719377  0.00785322  0.04554615
   0.63481886  0.00823585  0.95525155
   0.86656351  0.50801510  0.04630443
   0.13135286  0.50922247  0.95485192
   0.24893815  0.00349116  0.13692519
   0.75270558  0.00310204  0.86209078
   0.74839177  0.50322903  0.13821325
   0.24954700  0.50349507  0.86445309
   0.12857157  0.99673856  0.22815741
   0.86887136  0.99874786  0.76694506
   0.63132017  0.49871856  0.23241223
   0.37003434  0.49555368  0.77324273
   0.41902531  0.96669144  0.37976473
   0.58432758  0.96707895  0.61787644
   0.91791437  0.46677732  0.38170667
   0.08200739  0.46624947  0.62060892
   0.29478366  0.00333692  0.46455628
   0.70226247  0.00355961  0.52583667
   0.79834468  0.50363055  0.47237294
   0.20030351  0.50321530  0.52723555
   0.46835744  0.00168573  0.71548969
   0.53656705  0.00194894  0.28676009
   0.96311537  0.50165595  0.71192495
   0.03540755  0.50117706  0.28734182
   0.99905783  0.25238400  0.99969055
   0.50042243  0.75304128  0.00017362
   0.00067066  0.49118431  0.50051363
   0.50038087  0.99083002  0.49974655
   0.14838090  0.00446416  0.99107525
   0.85046526  0.00415785  0.00950743
   0.64932970  0.50435009  0.99071917
   0.35075532  0.50402998  0.00875481
   0.30311708  0.00283312  0.08102242
   0.69643197  0.00377513  0.91790790
   0.80322318  0.50341872  0.08200113
   0.19646519  0.50214594  0.92013731
   0.03328311  0.99868325  0.09840149
   0.96567664  0.00050578  0.90199394
   0.53437593  0.50166024  0.09813246
   0.46598165  0.49959004  0.90098006
   0.44960161  0.00413185  0.15546391
   0.55025887  0.00341008  0.84409352
   0.94977508  0.50361339  0.15633956
   0.05001613  0.50504791  0.84440961
   0.17954361  0.00148790  0.17701414
   0.82041163  0.00327044  0.82295712
   0.67995912  0.50305122  0.17700391
   0.31769980  0.49990982  0.82139497
   0.04937933  0.00107779  0.27074197
   0.95031269  0.00186076  0.73008013
   0.54972258  0.50186734  0.26940054
   0.44946057  0.50153043  0.72535018
   0.32549906  0.99939271  0.24941851
   0.67513676  0.99915464  0.75021040
   0.82557729  0.49918384  0.25013932
   0.17347542  0.49992641  0.75141481
   0.47646379  0.99877365  0.32608689
   0.52474080  0.99948662  0.67287777
   0.97660523  0.49917705  0.32749973
   0.02380087  0.49799893  0.67342410
   0.20615289  0.00187701  0.34806778
   0.79277843  0.00196648  0.65100750
   0.70748414  0.50225221  0.34877146
   0.29775438  0.50210690  0.65085267
   0.35252621  0.00050307  0.42362825
   0.64804571  0.99935855  0.57403224
   0.85300464  0.50020713  0.42566503
   0.14935719  0.50019996  0.57768433
   0.22206295  0.00281567  0.52042357
   0.77876050  0.00310443  0.48099946
   0.72189859  0.50296379  0.51842114
   0.28148913  0.50294818  0.48233597
   0.37743333  0.00248271  0.59608921
   0.62189346  0.00271645  0.40369255
   0.87826016  0.50280785  0.59588031
   0.12248097  0.50235353  0.40508533
   0.09099283  0.99230880  0.63085787
   0.91013738  0.99276479  0.36913101
   0.59027195  0.49266757  0.63107734
   0.40993949  0.49244475  0.36885625
   0.39441530  0.00009176  0.77006955
   0.60582110  0.00130386  0.23156100
   0.89449466  0.50110185  0.76818375
   0.10581132  0.50001577  0.23154439
   0.27525577  0.00305117  0.89672917
   0.72406638  0.00369820  0.10280196
   0.77561384  0.50365230  0.89685593
   0.22420713  0.50351695  0.10389253
   0.42900496  0.00420257  0.98697687
   0.57130847  0.00410053  0.01281250
   0.92787384  0.50320041  0.98655105
   0.07075940  0.50420013  0.01345175
 
 position of ions in cartesian coordinates  (Angst):
   1.97265394  2.19070551  9.23296356
   7.91232850  0.03044587  0.68903351
   4.93766537  0.03193145 14.45128253
  19.28297683  1.96949864  0.70050497
  -6.52989388  1.97418162 14.44523677
   4.30652932  0.01353505  2.07143827
   8.55282832  0.01202823 13.04192325
  15.67380549  1.95094400  2.09092436
  -2.93527131  1.95197714 13.07766085
   0.65409611  3.86420679  3.45162185
  12.14857535  3.87199787 11.60253527
  12.06686112  1.93345779  3.51598988
   0.71969567  1.92118932 11.69780788
   5.76013832  3.74771899  5.74517505
   7.15187383  3.74922188  9.34738811
  17.10802984  1.80962673  5.77455317
  -4.32081480  1.80758094  9.38872576
   2.08364417  0.01293786  7.02792265
  10.75695446  0.01380135  7.95498768
  13.47939784  1.95250143  7.14617502
  -0.69420334  1.95089167  7.97615021
   3.53597567  0.00653705 10.82410553
   9.36588379  0.00755643  4.33817786
  14.84465701  1.94484679 10.77017738
  -2.05890876  1.94298915  4.34697842
  12.79370996  0.97845742 15.12356669
  11.40046508  2.91942836  0.00262650
  -4.97636719  1.90424930  7.57189441
   6.41725159  3.84130094  7.56028980
  -6.50316456  0.01730927 14.99323236
  19.28315446  0.01611938  0.14383079
   4.91457666  1.95529222 14.98784549
   7.90469786  1.95404884  0.13244497
   6.09852530  0.01098379  1.22572722
   6.71395906  0.01463781 13.88633851
  17.48375348  1.95167924  1.24053348
  -4.70008937  1.94674691 13.92006554
  -0.22300279  3.87174577  1.48864215
  13.00744808  0.00196300 13.64558823
  11.19715176  1.94486193  1.48457227
   1.63193789  1.93683800 13.63024991
   8.69378732  0.01601895  2.35189655
   4.11953875  0.01322239 12.76965628
  20.08157848  1.95243413  2.36514369
  -7.28171606  1.95799721 12.77443820
   2.32555561  0.00576878  2.67791387
  10.48580238  0.01268101 12.44989963
  13.72769653  1.95025473  2.67775912
  -0.95297912  1.93807757 12.42626691
  -1.57500855  0.00417910  4.09585166
  14.37188370  0.00721564 11.04483342
   9.83876210  1.94566525  4.07555824
   3.00706863  1.94436016 10.97327749
   4.92907894  3.87449659  3.77326517
   7.90120058  3.87357484 11.34936915
  16.31624423  1.93526166  3.78416974
  -3.54123645  1.93814171 11.36758972
   7.60421426  3.87209680  4.93312337
   5.24564936  3.87486168 10.17946188
  18.98591794  1.93523552  4.95449717
  -6.17378721  1.93066898 10.18772698
   1.22592496  0.00727774  5.26565583
  11.57103845  0.00762534  9.84860296
  12.64181145  1.94715751  5.27630127
   0.29338895  1.94659489  9.84626066
   3.80749362  0.00195134  6.40875327
   9.04096088  3.87436496  8.68410219
  15.19065344  1.93922923  6.43956617
  -2.35815065  1.93920179  8.73935195
  -0.13047518  0.01091719  7.87309690
  12.94713672  0.01203658  7.27667927
  11.27832181  1.94991662  7.84280369
   1.60340858  1.94985601  7.29689822
   2.65504376  0.00962653  9.01778557
  10.14388476  0.01053223  6.10716114
  14.06853809  1.94931225  9.01462515
  -1.24919057  1.94755043  6.12823146
  -4.21829342  3.84703426  9.54377440
  17.05624753  3.84880141  5.58430556
   7.15566389  1.90999998  9.54709469
   5.66190746  1.90913551  5.58014890
   1.30686548  0.00035759 11.64980329
  11.49435044  0.00505544  3.50311231
  12.72005254  1.94269875 11.62127440
   0.10172189  1.93848689  3.50286093
  -2.67138421  0.01183109 13.56594151
  15.47270675  0.01433762  1.55521359
   8.72808182  1.95258677 13.56785905
   4.07246604  1.95206013  1.57171199
  -0.06823195  0.01629511 14.93123105
  12.88956548  0.01589716  0.19383064
  11.30281348  1.95083506 14.92478908
   1.47810802  1.95470850  0.20350148
 


--------------------------------------------------------------------------------------------------------


 k-point   1 :   0.0000 0.0000 0.0000  plane waves:   36029
 k-point   2 :   0.0000 0.1667 0.0000  plane waves:   35947
 k-point   3 :   0.0000 0.3333 0.0000  plane waves:   35982
 k-point   4 :   0.0000 0.5000 0.0000  plane waves:   36018

 maximum and minimum number of plane-waves per node :     36029    35947

 maximum number of plane-waves:     36029
 maximum index in each direction: 
   IXMAX=   42   IYMAX=    7   IZMAX=   33
   IXMIN=  -42   IYMIN=   -7   IZMIN=  -33


 serial   3D FFT for wavefunctions
 parallel 3D FFT for charge:
    minimum data exchange during FFTs selected (reduces bandwidth)


 total amount of memory used by VASP MPI-rank0   321868. kBytes
=======================================================================

   base      :      30000. kBytes
   nonl-proj :     136648. kBytes
   fftplans  :      24917. kBytes
   grid      :      75254. kBytes
   one-center:       2892. kBytes
   wavefun   :      52157. kBytes
 
     INWAV:  cpu time      0.0001: real time      0.0001
 Broyden mixing: mesh for mixing (old mesh)
   NGX = 85   NGY = 15   NGZ = 67
  (NGX  =360   NGY  = 60   NGZ  =280)
  gives a total of  85425 points

 initial charge density was supplied:
 charge density of overlapping atoms calculated
 number of electron     687.0000000 magnetization      55.8000000
 keeping initial charge density in first step


--------------------------------------------------------------------------------------------------------


 Maximum index for augmentation-charges         9918 (set IRDMAX)


--------------------------------------------------------------------------------------------------------


 First call to EWALD:  gamma=   0.161
 Maximum number of real-space cells 2x 7x 2
 Maximum number of reciprocal cells 5x 1x 4

    FEWALD:  cpu time      0.0031: real time      0.0031


--------------------------------------- Iteration      1(   1)  ---------------------------------------


    POTLOK:  cpu time      0.2021: real time      0.2039
    SETDIJ:  cpu time      0.9821: real time      0.9872
atom =   1  type =  1  l = 0
 
 onsite density matrix
 
spin component  1
 
  1.2642
 
spin component  2
 
  0.8428
 
 occupancies and eigenvectors
 
  o =  0.8428  v =  0.0000  1.0000      0.0000  0.0000
  o =  1.2642  v =  1.0000  0.0000      0.0000  0.0000
 
atom =   2  type =  2  l = 0
 
 onsite density matrix
 
spin component  1
 
  0.1347
 
spin component  2
 
  0.1207
 
 occupancies and eigenvectors
 
  o =  0.1207  v =  0.0000  1.0000      0.0000  0.0000
  o =  0.1347  v =  1.0000  0.0000      0.0000  0.0000
 
atom =   3  type =  2  l = 0
 
 onsite density matrix
 
spin component  1
 
  0.1347
 
spin component  2
 
  0.1207
 
 occupancies and eigenvectors
 
  o =  0.1207  v =  0.0000  1.0000      0.0000  0.0000
  o =  0.1347  v =  1.0000  0.0000      0.0000  0.0000
 
atom =   4  type =  2  l = 0
 
 onsite density matrix
 
spin component  1
 
  0.1347
 
spin component  2
 
  0.1207
 
 occupancies and eigenvectors
 
  o =  0.1207  v =  0.0000  1.0000      0.0000  0.0000
  o =  0.1347  v =  1.0000  0.0000      0.0000  0.0000
 
atom =   5  type =  2  l = 0
 
 onsite density matrix
 
spin component  1
 
  0.1347
 
spin component  2
 
  0.1207
 
 occupancies and eigenvectors
 
  o =  0.1207  v =  0.0000  1.0000      0.0000  0.0000
  o =  0.1347  v =  1.0000  0.0000      0.0000  0.0000
 
atom =   6  type =  2  l = 0
 
 onsite density matrix
 
spin component  1
 
  0.1347
 
spin component  2
 
  0.1207
 
 occupancies and eigenvectors
 
  o =  0.1207  v =  0.0000  1.0000      0.0000  0.0000
  o =  0.1347  v =  1.0000  0.0000      0.0000  0.0000
 
atom =   7  type =  2  l = 0
 
 onsite density matrix
 
spin component  1
 
  0.1347
 
spin component  2
 
  0.1207
 
 occupancies and eigenvectors
 
  o =  0.1207  v =  0.0000  1.0000      0.0000  0.0000
  o =  0.1347  v =  1.0000  0.0000      0.0000  0.0000
 
atom =   8  type =  2  l = 0
 
 onsite density matrix
 
spin component  1
 
  0.1347
 
spin component  2
 
  0.1207
 
 occupancies and eigenvectors
 
  o =  0.1207  v =  0.0000  1.0000      0.0000  0.0000
  o =  0.1347  v =  1.0000  0.0000      0.0000  0.0000
 
atom =   9  type =  2  l = 0
 
 onsite density matrix
 
spin component  1
 
  0.1347
 
spin component  2
 
  0.1207
 
 occupancies and eigenvectors
 
  o =  0.1207  v =  0.0000  1.0000      0.0000  0.0000
  o =  0.1347  v =  1.0000  0.0000      0.0000  0.0000
 
atom =  10  type =  2  l = 0
 
 onsite density matrix
 
spin component  1
 
  0.1347
 
spin component  2
 
  0.1207
 
 occupancies and eigenvectors
 
  o =  0.1207  v =  0.0000  1.0000      0.0000  0.0000
  o =  0.1347  v =  1.0000  0.0000      0.0000  0.0000
 
atom =  11  type =  2  l = 0
 
 onsite density matrix
 
spin component  1
 
  0.1347
 
spin component  2
 
  0.1207
 
 occupancies and eigenvectors
 
  o =  0.1207  v =  0.0000  1.0000      0.0000  0.0000
  o =  0.1347  v =  1.0000  0.0000      0.0000  0.0000
 
atom =  12  type =  2  l = 0
 
 onsite density matrix
 
spin component  1
 
  0.1347
 
spin component  2
 
  0.1207
 
 occupancies and eigenvectors
 
  o =  0.1207  v =  0.0000  1.0000      0.0000  0.0000
  o =  0.1347  v =  1.0000  0.0000      0.0000  0.0000
 
atom =  13  type =  2  l = 0
 
 onsite density matrix
 
spin component  1
 
  0.1347
 
spin component  2
 
  0.1207
 
 occupancies and eigenvectors
 
  o =  0.1207  v =  0.0000  1.0000      0.0000  0.0000
  o =  0.1347  v =  1.0000  0.0000      0.0000  0.0000
 
atom =  14  type =  2  l = 0
 
 onsite density matrix
 
spin component  1
 
  0.1347
 
spin component  2
 
  0.1207
 
 occupancies and eigenvectors
 
  o =  0.1207  v =  0.0000  1.0000      0.0000  0.0000
  o =  0.1347  v =  1.0000  0.0000      0.0000  0.0000
 
atom =  15  type =  2  l = 0
 
 onsite density matrix
 
spin component  1
 
  0.1347
 
spin component  2
 
  0.1207
 
 occupancies and eigenvectors
 
  o =  0.1207  v =  0.0000  1.0000      0.0000  0.0000
  o =  0.1347  v =  1.0000  0.0000      0.0000  0.0000
 
atom =  16  type =  2  l = 0
 
 onsite density matrix
 
spin component  1
 
  0.1347
 
spin component  2
 
  0.1207
 
 occupancies and eigenvectors
 
  o =  0.1207  v =  0.0000  1.0000      0.0000  0.0000
  o =  0.1347  v =  1.0000  0.0000      0.0000  0.0000
 
atom =  17  type =  2  l = 0
 
 onsite density matrix
 
spin component  1
 
  0.1347
 
spin component  2
 
  0.1207
 
 occupancies and eigenvectors
 
  o =  0.1207  v =  0.0000  1.0000      0.0000  0.0000
  o =  0.1347  v =  1.0000  0.0000      0.0000  0.0000
 
atom =  18  type =  2  l = 0
 
 onsite density matrix
 
spin component  1
 
  0.1347
 
spin component  2
 
  0.1207
 
 occupancies and eigenvectors
 
  o =  0.1207  v =  0.0000  1.0000      0.0000  0.0000
  o =  0.1347  v =  1.0000  0.0000      0.0000  0.0000
 
atom =  19  type =  2  l = 0
 
 onsite density matrix
 
spin component  1
 
  0.1347
 
spin component  2
 
  0.1207
 
 occupancies and eigenvectors
 
  o =  0.1207  v =  0.0000  1.0000      0.0000  0.0000
  o =  0.1347  v =  1.0000  0.0000      0.0000  0.0000
 
atom =  20  type =  2  l = 0
 
 onsite density matrix
 
spin component  1
 
  0.1347
 
spin component  2
 
  0.1207
 
 occupancies and eigenvectors
 
  o =  0.1207  v =  0.0000  1.0000      0.0000  0.0000
  o =  0.1347  v =  1.0000  0.0000      0.0000  0.0000
 
atom =  21  type =  2  l = 0
 
 onsite density matrix
 
spin component  1
 
  0.1347
 
spin component  2
 
  0.1207
 
 occupancies and eigenvectors
 
  o =  0.1207  v =  0.0000  1.0000      0.0000  0.0000
  o =  0.1347  v =  1.0000  0.0000      0.0000  0.0000
 
atom =  22  type =  2  l = 0
 
 onsite density matrix
 
spin component  1
 
  0.1347
 
spin component  2
 
  0.1207
 
 occupancies and eigenvectors
 
  o =  0.1207  v =  0.0000  1.0000      0.0000  0.0000
  o =  0.1347  v =  1.0000  0.0000      0.0000  0.0000
 
atom =  23  type =  2  l = 0
 
 onsite density matrix
 
spin component  1
 
  0.1347
 
spin component  2
 
  0.1207
 
 occupancies and eigenvectors
 
  o =  0.1207  v =  0.0000  1.0000      0.0000  0.0000
  o =  0.1347  v =  1.0000  0.0000      0.0000  0.0000
 
atom =  24  type =  2  l = 0
 
 onsite density matrix
 
spin component  1
 
  0.1347
 
spin component  2
 
  0.1207
 
 occupancies and eigenvectors
 
  o =  0.1207  v =  0.0000  1.0000      0.0000  0.0000
  o =  0.1347  v =  1.0000  0.0000      0.0000  0.0000
 
atom =  25  type =  2  l = 0
 
 onsite density matrix
 
spin component  1
 
  0.1347
 
spin component  2
 
  0.1207
 
 occupancies and eigenvectors
 
  o =  0.1207  v =  0.0000  1.0000      0.0000  0.0000
  o =  0.1347  v =  1.0000  0.0000      0.0000  0.0000
 
atom =  26  type =  3  l = 2
 
 onsite density matrix
 
spin component  1
 
  0.4151  0.0000  0.0000  0.0000  0.0000
  0.0000  0.4151  0.0000  0.0000  0.0000
  0.0000  0.0000  0.4151  0.0000 -0.0000
  0.0000  0.0000  0.0000  0.4151  0.0000
  0.0000  0.0000 -0.0000  0.0000  0.4151
 
spin component  2
 
  0.3756  0.0000  0.0000  0.0000  0.0000
  0.0000  0.3756  0.0000  0.0000  0.0000
  0.0000  0.0000  0.3756  0.0000 -0.0000
  0.0000  0.0000  0.0000  0.3756  0.0000
  0.0000  0.0000 -0.0000  0.0000  0.3756
 
 occupancies and eigenvectors
 
  o =  0.3756  v =  0.0000  0.0000  0.0000  0.0000  0.0000  0.0000  0.0000  1.0000  0.0000  0.0000      0.0000  0.0000  0.0000  0.0000  0.0000  0.0000  0.0000  0.0000  0.0000  0.0000
  o =  0.3756  v =  0.0000  0.0000  0.0000  0.0000  0.0000  1.0000  0.0000  0.0000  0.0000  0.0000      0.0000  0.0000  0.0000  0.0000  0.0000  0.0000  0.0000  0.0000  0.0000  0.0000
  o =  0.3756  v =  0.0000  0.0000  0.0000  0.0000  0.0000  0.0000  1.0000  0.0000  0.0000  0.0000      0.0000  0.0000  0.0000  0.0000  0.0000  0.0000  0.0000  0.0000  0.0000  0.0000
  o =  0.3756  v =  0.0000  0.0000  0.0000  0.0000  0.0000  0.0000  0.0000  0.0000  1.0000  0.0000      0.0000  0.0000  0.0000  0.0000  0.0000  0.0000  0.0000  0.0000  0.0000  0.0000
  o =  0.3756  v =  0.0000  0.0000  0.0000  0.0000  0.0000  0.0000  0.0000  0.0000  0.0000  1.0000      0.0000  0.0000  0.0000  0.0000  0.0000  0.0000  0.0000  0.0000  0.0000  0.0000
  o =  0.4151  v =  0.0000  0.0000  1.0000  0.0000  0.0000  0.0000  0.0000  0.0000  0.0000  0.0000      0.0000  0.0000  0.0000  0.0000  0.0000  0.0000  0.0000  0.0000  0.0000  0.0000
  o =  0.4151  v =  0.0000  1.0000  0.0000  0.0000  0.0000  0.0000  0.0000  0.0000  0.0000  0.0000      0.0000  0.0000  0.0000  0.0000  0.0000  0.0000  0.0000  0.0000  0.0000  0.0000
  o =  0.4151  v =  1.0000  0.0000  0.0000  0.0000  0.0000  0.0000  0.0000  0.0000  0.0000  0.0000      0.0000  0.0000  0.0000  0.0000  0.0000  0.0000  0.0000  0.0000  0.0000  0.0000
  o =  0.4151  v =  0.0000  0.0000  0.0000  1.0000  0.0000  0.0000  0.0000  0.0000  0.0000  0.0000      0.0000  0.0000  0.0000  0.0000  0.0000  0.0000  0.0000  0.0000  0.0000  0.0000
  o =  0.4151  v =  0.0000  0.0000  0.0000  0.0000  1.0000  0.0000  0.0000  0.0000  0.0000  0.0000      0.0000  0.0000  0.0000  0.0000  0.0000  0.0000  0.0000  0.0000  0.0000  0.0000
 
atom =  27  type =  3  l = 2
 
 onsite density matrix
 
spin component  1
 
  0.4151  0.0000  0.0000  0.0000  0.0000
  0.0000  0.4151  0.0000  0.0000  0.0000
  0.0000  0.0000  0.4151  0.0000 -0.0000
  0.0000  0.0000  0.0000  0.4151  0.0000
  0.0000  0.0000 -0.0000  0.0000  0.4151
 
spin component  2
 
  0.3756  0.0000  0.0000  0.0000  0.0000
  0.0000  0.3756  0.0000  0.0000  0.0000
  0.0000  0.0000  0.3756  0.0000 -0.0000
  0.0000  0.0000  0.0000  0.3756  0.0000
  0.0000  0.0000 -0.0000  0.0000  0.3756
 
 occupancies and eigenvectors
 
  o =  0.3756  v =  0.0000  0.0000  0.0000  0.0000  0.0000  0.0000  0.0000  1.0000  0.0000  0.0000      0.0000  0.0000  0.0000  0.0000  0.0000  0.0000  0.0000  0.0000  0.0000  0.0000
  o =  0.3756  v =  0.0000  0.0000  0.0000  0.0000  0.0000  1.0000  0.0000  0.0000  0.0000  0.0000      0.0000  0.0000  0.0000  0.0000  0.0000  0.0000  0.0000  0.0000  0.0000  0.0000
  o =  0.3756  v =  0.0000  0.0000  0.0000  0.0000  0.0000  0.0000  1.0000  0.0000  0.0000  0.0000      0.0000  0.0000  0.0000  0.0000  0.0000  0.0000  0.0000  0.0000  0.0000  0.0000
  o =  0.3756  v =  0.0000  0.0000  0.0000  0.0000  0.0000  0.0000  0.0000  0.0000  1.0000  0.0000      0.0000  0.0000  0.0000  0.0000  0.0000  0.0000  0.0000  0.0000  0.0000  0.0000
  o =  0.3756  v =  0.0000  0.0000  0.0000  0.0000  0.0000  0.0000  0.0000  0.0000  0.0000  1.0000      0.0000  0.0000  0.0000  0.0000  0.0000  0.0000  0.0000  0.0000  0.0000  0.0000
  o =  0.4151  v =  0.0000  0.0000  1.0000  0.0000  0.0000  0.0000  0.0000  0.0000  0.0000  0.0000      0.0000  0.0000  0.0000  0.0000  0.0000  0.0000  0.0000  0.0000  0.0000  0.0000
  o =  0.4151  v =  0.0000  1.0000  0.0000  0.0000  0.0000  0.0000  0.0000  0.0000  0.0000  0.0000      0.0000  0.0000  0.0000  0.0000  0.0000  0.0000  0.0000  0.0000  0.0000  0.0000
  o =  0.4151  v =  1.0000  0.0000  0.0000  0.0000  0.0000  0.0000  0.0000  0.0000  0.0000  0.0000      0.0000  0.0000  0.0000  0.0000  0.0000  0.0000  0.0000  0.0000  0.0000  0.0000
  o =  0.4151  v =  0.0000  0.0000  0.0000  1.0000  0.0000  0.0000  0.0000  0.0000  0.0000  0.0000      0.0000  0.0000  0.0000  0.0000  0.0000  0.0000  0.0000  0.0000  0.0000  0.0000
  o =  0.4151  v =  0.0000  0.0000  0.0000  0.0000  1.0000  0.0000  0.0000  0.0000  0.0000  0.0000      0.0000  0.0000  0.0000  0.0000  0.0000  0.0000  0.0000  0.0000  0.0000  0.0000
 
atom =  28  type =  4  l = 0
 
 onsite density matrix
 
spin component  1
 
  0.8936
 
spin component  2
 
  0.7311
 
 occupancies and eigenvectors
 
  o =  0.7311  v =  0.0000  1.0000      0.0000  0.0000
  o =  0.8936  v =  1.0000  0.0000      0.0000  0.0000
 
atom =  29  type =  4  l = 0
 
 onsite density matrix
 
spin component  1
 
  0.8936
 
spin component  2
 
  0.7311
 
 occupancies and eigenvectors
 
  o =  0.7311  v =  0.0000  1.0000      0.0000  0.0000
  o =  0.8936  v =  1.0000  0.0000      0.0000  0.0000
 
atom =  30  type =  4  l = 0
 
 onsite density matrix
 
spin component  1
 
  0.8936
 
spin component  2
 
  0.7311
 
 occupancies and eigenvectors
 
  o =  0.7311  v =  0.0000  1.0000      0.0000  0.0000
  o =  0.8936  v =  1.0000  0.0000      0.0000  0.0000
 
atom =  31  type =  4  l = 0
 
 onsite density matrix
 
spin component  1
 
  0.8936
 
spin component  2
 
  0.7311
 
 occupancies and eigenvectors
 
  o =  0.7311  v =  0.0000  1.0000      0.0000  0.0000
  o =  0.8936  v =  1.0000  0.0000      0.0000  0.0000
 
atom =  32  type =  4  l = 0
 
 onsite density matrix
 
spin component  1
 
  0.8936
 
spin component  2
 
  0.7311
 
 occupancies and eigenvectors
 
  o =  0.7311  v =  0.0000  1.0000      0.0000  0.0000
  o =  0.8936  v =  1.0000  0.0000      0.0000  0.0000
 
atom =  33  type =  4  l = 0
 
 onsite density matrix
 
spin component  1
 
  0.8936
 
spin component  2
 
  0.7311
 
 occupancies and eigenvectors
 
  o =  0.7311  v =  0.0000  1.0000      0.0000  0.0000
  o =  0.8936  v =  1.0000  0.0000      0.0000  0.0000
 
atom =  34  type =  4  l = 0
 
 onsite density matrix
 
spin component  1
 
  0.8936
 
spin component  2
 
  0.7311
 
 occupancies and eigenvectors
 
  o =  0.7311  v =  0.0000  1.0000      0.0000  0.0000
  o =  0.8936  v =  1.0000  0.0000      0.0000  0.0000
 
atom =  35  type =  4  l = 0
 
 onsite density matrix
 
spin component  1
 
  0.8936
 
spin component  2
 
  0.7311
 
 occupancies and eigenvectors
 
  o =  0.7311  v =  0.0000  1.0000      0.0000  0.0000
  o =  0.8936  v =  1.0000  0.0000      0.0000  0.0000
 
atom =  36  type =  4  l = 0
 
 onsite density matrix
 
spin component  1
 
  0.8936
 
spin component  2
 
  0.7311
 
 occupancies and eigenvectors
 
  o =  0.7311  v =  0.0000  1.0000      0.0000  0.0000
  o =  0.8936  v =  1.0000  0.0000      0.0000  0.0000
 
atom =  37  type =  4  l = 0
 
 onsite density matrix
 
spin component  1
 
  0.8936
 
spin component  2
 
  0.7311
 
 occupancies and eigenvectors
 
  o =  0.7311  v =  0.0000  1.0000      0.0000  0.0000
  o =  0.8936  v =  1.0000  0.0000      0.0000  0.0000
 
atom =  38  type =  4  l = 0
 
 onsite density matrix
 
spin component  1
 
  0.8936
 
spin component  2
 
  0.7311
 
 occupancies and eigenvectors
 
  o =  0.7311  v =  0.0000  1.0000      0.0000  0.0000
  o =  0.8936  v =  1.0000  0.0000      0.0000  0.0000
 
atom =  39  type =  4  l = 0
 
 onsite density matrix
 
spin component  1
 
  0.8936
 
spin component  2
 
  0.7311
 
 occupancies and eigenvectors
 
  o =  0.7311  v =  0.0000  1.0000      0.0000  0.0000
  o =  0.8936  v =  1.0000  0.0000      0.0000  0.0000
 
atom =  40  type =  4  l = 0
 
 onsite density matrix
 
spin component  1
 
  0.8936
 
spin component  2
 
  0.7311
 
 occupancies and eigenvectors
 
  o =  0.7311  v =  0.0000  1.0000      0.0000  0.0000
  o =  0.8936  v =  1.0000  0.0000      0.0000  0.0000
 
atom =  41  type =  4  l = 0
 
 onsite density matrix
 
spin component  1
 
  0.8936
 
spin component  2
 
  0.7311
 
 occupancies and eigenvectors
 
  o =  0.7311  v =  0.0000  1.0000      0.0000  0.0000
  o =  0.8936  v =  1.0000  0.0000      0.0000  0.0000
 
atom =  42  type =  4  l = 0
 
 onsite density matrix
 
spin component  1
 
  0.8936
 
spin component  2
 
  0.7311
 
 occupancies and eigenvectors
 
  o =  0.7311  v =  0.0000  1.0000      0.0000  0.0000
  o =  0.8936  v =  1.0000  0.0000      0.0000  0.0000
 
atom =  43  type =  4  l = 0
 
 onsite density matrix
 
spin component  1
 
  0.8936
 
spin component  2
 
  0.7311
 
 occupancies and eigenvectors
 
  o =  0.7311  v =  0.0000  1.0000      0.0000  0.0000
  o =  0.8936  v =  1.0000  0.0000      0.0000  0.0000
 
atom =  44  type =  4  l = 0
 
 onsite density matrix
 
spin component  1
 
  0.8936
 
spin component  2
 
  0.7311
 
 occupancies and eigenvectors
 
  o =  0.7311  v =  0.0000  1.0000      0.0000  0.0000
  o =  0.8936  v =  1.0000  0.0000      0.0000  0.0000
 
atom =  45  type =  4  l = 0
 
 onsite density matrix
 
spin component  1
 
  0.8936
 
spin component  2
 
  0.7311
 
 occupancies and eigenvectors
 
  o =  0.7311  v =  0.0000  1.0000      0.0000  0.0000
  o =  0.8936  v =  1.0000  0.0000      0.0000  0.0000
 
atom =  46  type =  4  l = 0
 
 onsite density matrix
 
spin component  1
 
  0.8936
 
spin component  2
 
  0.7311
 
 occupancies and eigenvectors
 
  o =  0.7311  v =  0.0000  1.0000      0.0000  0.0000
  o =  0.8936  v =  1.0000  0.0000      0.0000  0.0000
 
atom =  47  type =  4  l = 0
 
 onsite density matrix
 
spin component  1
 
  0.8936
 
spin component  2
 
  0.7311
 
 occupancies and eigenvectors
 
  o =  0.7311  v =  0.0000  1.0000      0.0000  0.0000
  o =  0.8936  v =  1.0000  0.0000      0.0000  0.0000
 
atom =  48  type =  4  l = 0
 
 onsite density matrix
 
spin component  1
 
  0.8936
 
spin component  2
 
  0.7311
 
 occupancies and eigenvectors
 
  o =  0.7311  v =  0.0000  1.0000      0.0000  0.0000
  o =  0.8936  v =  1.0000  0.0000      0.0000  0.0000
 
atom =  49  type =  4  l = 0
 
 onsite density matrix
 
spin component  1
 
  0.8936
 
spin component  2
 
  0.7311
 
 occupancies and eigenvectors
 
  o =  0.7311  v =  0.0000  1.0000      0.0000  0.0000
  o =  0.8936  v =  1.0000  0.0000      0.0000  0.0000
 
atom =  50  type =  4  l = 0
 
 onsite density matrix
 
spin component  1
 
  0.8936
 
spin component  2
 
  0.7311
 
 occupancies and eigenvectors
 
  o =  0.7311  v =  0.0000  1.0000      0.0000  0.0000
  o =  0.8936  v =  1.0000  0.0000      0.0000  0.0000
 
atom =  51  type =  4  l = 0
 
 onsite density matrix
 
spin component  1
 
  0.8936
 
spin component  2
 
  0.7311
 
 occupancies and eigenvectors
 
  o =  0.7311  v =  0.0000  1.0000      0.0000  0.0000
  o =  0.8936  v =  1.0000  0.0000      0.0000  0.0000
 
atom =  52  type =  4  l = 0
 
 onsite density matrix
 
spin component  1
 
  0.8936
 
spin component  2
 
  0.7311
 
 occupancies and eigenvectors
 
  o =  0.7311  v =  0.0000  1.0000      0.0000  0.0000
  o =  0.8936  v =  1.0000  0.0000      0.0000  0.0000
 
atom =  53  type =  4  l = 0
 
 onsite density matrix
 
spin component  1
 
  0.8936
 
spin component  2
 
  0.7311
 
 occupancies and eigenvectors
 
  o =  0.7311  v =  0.0000  1.0000      0.0000  0.0000
  o =  0.8936  v =  1.0000  0.0000      0.0000  0.0000
 
atom =  54  type =  4  l = 0
 
 onsite density matrix
 
spin component  1
 
  0.8936
 
spin component  2
 
  0.7311
 
 occupancies and eigenvectors
 
  o =  0.7311  v =  0.0000  1.0000      0.0000  0.0000
  o =  0.8936  v =  1.0000  0.0000      0.0000  0.0000
 
atom =  55  type =  4  l = 0
 
 onsite density matrix
 
spin component  1
 
  0.8936
 
spin component  2
 
  0.7311
 
 occupancies and eigenvectors
 
  o =  0.7311  v =  0.0000  1.0000      0.0000  0.0000
  o =  0.8936  v =  1.0000  0.0000      0.0000  0.0000
 
atom =  56  type =  4  l = 0
 
 onsite density matrix
 
spin component  1
 
  0.8936
 
spin component  2
 
  0.7311
 
 occupancies and eigenvectors
 
  o =  0.7311  v =  0.0000  1.0000      0.0000  0.0000
  o =  0.8936  v =  1.0000  0.0000      0.0000  0.0000
 
atom =  57  type =  4  l = 0
 
 onsite density matrix
 
spin component  1
 
  0.8936
 
spin component  2
 
  0.7311
 
 occupancies and eigenvectors
 
  o =  0.7311  v =  0.0000  1.0000      0.0000  0.0000
  o =  0.8936  v =  1.0000  0.0000      0.0000  0.0000
 
atom =  58  type =  4  l = 0
 
 onsite density matrix
 
spin component  1
 
  0.8936
 
spin component  2
 
  0.7311
 
 occupancies and eigenvectors
 
  o =  0.7311  v =  0.0000  1.0000      0.0000  0.0000
  o =  0.8936  v =  1.0000  0.0000      0.0000  0.0000
 
atom =  59  type =  4  l = 0
 
 onsite density matrix
 
spin component  1
 
  0.8936
 
spin component  2
 
  0.7311
 
 occupancies and eigenvectors
 
  o =  0.7311  v =  0.0000  1.0000      0.0000  0.0000
  o =  0.8936  v =  1.0000  0.0000      0.0000  0.0000
 
atom =  60  type =  4  l = 0
 
 onsite density matrix
 
spin component  1
 
  0.8936
 
spin component  2
 
  0.7311
 
 occupancies and eigenvectors
 
  o =  0.7311  v =  0.0000  1.0000      0.0000  0.0000
  o =  0.8936  v =  1.0000  0.0000      0.0000  0.0000
 
atom =  61  type =  4  l = 0
 
 onsite density matrix
 
spin component  1
 
  0.8936
 
spin component  2
 
  0.7311
 
 occupancies and eigenvectors
 
  o =  0.7311  v =  0.0000  1.0000      0.0000  0.0000
  o =  0.8936  v =  1.0000  0.0000      0.0000  0.0000
 
atom =  62  type =  4  l = 0
 
 onsite density matrix
 
spin component  1
 
  0.8936
 
spin component  2
 
  0.7311
 
 occupancies and eigenvectors
 
  o =  0.7311  v =  0.0000  1.0000      0.0000  0.0000
  o =  0.8936  v =  1.0000  0.0000      0.0000  0.0000
 
atom =  63  type =  4  l = 0
 
 onsite density matrix
 
spin component  1
 
  0.8936
 
spin component  2
 
  0.7311
 
 occupancies and eigenvectors
 
  o =  0.7311  v =  0.0000  1.0000      0.0000  0.0000
  o =  0.8936  v =  1.0000  0.0000      0.0000  0.0000
 
atom =  64  type =  4  l = 0
 
 onsite density matrix
 
spin component  1
 
  0.8936
 
spin component  2
 
  0.7311
 
 occupancies and eigenvectors
 
  o =  0.7311  v =  0.0000  1.0000      0.0000  0.0000
  o =  0.8936  v =  1.0000  0.0000      0.0000  0.0000
 
atom =  65  type =  4  l = 0
 
 onsite density matrix
 
spin component  1
 
  0.8936
 
spin component  2
 
  0.7311
 
 occupancies and eigenvectors
 
  o =  0.7311  v =  0.0000  1.0000      0.0000  0.0000
  o =  0.8936  v =  1.0000  0.0000      0.0000  0.0000
 
atom =  66  type =  4  l = 0
 
 onsite density matrix
 
spin component  1
 
  0.8936
 
spin component  2
 
  0.7311
 
 occupancies and eigenvectors
 
  o =  0.7311  v =  0.0000  1.0000      0.0000  0.0000
  o =  0.8936  v =  1.0000  0.0000      0.0000  0.0000
 
atom =  67  type =  4  l = 0
 
 onsite density matrix
 
spin component  1
 
  0.8936
 
spin component  2
 
  0.7311
 
 occupancies and eigenvectors
 
  o =  0.7311  v =  0.0000  1.0000      0.0000  0.0000
  o =  0.8936  v =  1.0000  0.0000      0.0000  0.0000
 
atom =  68  type =  4  l = 0
 
 onsite density matrix
 
spin component  1
 
  0.8936
 
spin component  2
 
  0.7311
 
 occupancies and eigenvectors
 
  o =  0.7311  v =  0.0000  1.0000      0.0000  0.0000
  o =  0.8936  v =  1.0000  0.0000      0.0000  0.0000
 
atom =  69  type =  4  l = 0
 
 onsite density matrix
 
spin component  1
 
  0.8936
 
spin component  2
 
  0.7311
 
 occupancies and eigenvectors
 
  o =  0.7311  v =  0.0000  1.0000      0.0000  0.0000
  o =  0.8936  v =  1.0000  0.0000      0.0000  0.0000
 
atom =  70  type =  4  l = 0
 
 onsite density matrix
 
spin component  1
 
  0.8936
 
spin component  2
 
  0.7311
 
 occupancies and eigenvectors
 
  o =  0.7311  v =  0.0000  1.0000      0.0000  0.0000
  o =  0.8936  v =  1.0000  0.0000      0.0000  0.0000
 
atom =  71  type =  4  l = 0
 
 onsite density matrix
 
spin component  1
 
  0.8936
 
spin component  2
 
  0.7311
 
 occupancies and eigenvectors
 
  o =  0.7311  v =  0.0000  1.0000      0.0000  0.0000
  o =  0.8936  v =  1.0000  0.0000      0.0000  0.0000
 
atom =  72  type =  4  l = 0
 
 onsite density matrix
 
spin component  1
 
  0.8936
 
spin component  2
 
  0.7311
 
 occupancies and eigenvectors
 
  o =  0.7311  v =  0.0000  1.0000      0.0000  0.0000
  o =  0.8936  v =  1.0000  0.0000      0.0000  0.0000
 
atom =  73  type =  4  l = 0
 
 onsite density matrix
 
spin component  1
 
  0.8936
 
spin component  2
 
  0.7311
 
 occupancies and eigenvectors
 
  o =  0.7311  v =  0.0000  1.0000      0.0000  0.0000
  o =  0.8936  v =  1.0000  0.0000      0.0000  0.0000
 
atom =  74  type =  4  l = 0
 
 onsite density matrix
 
spin component  1
 
  0.8936
 
spin component  2
 
  0.7311
 
 occupancies and eigenvectors
 
  o =  0.7311  v =  0.0000  1.0000      0.0000  0.0000
  o =  0.8936  v =  1.0000  0.0000      0.0000  0.0000
 
atom =  75  type =  4  l = 0
 
 onsite density matrix
 
spin component  1
 
  0.8936
 
spin component  2
 
  0.7311
 
 occupancies and eigenvectors
 
  o =  0.7311  v =  0.0000  1.0000      0.0000  0.0000
  o =  0.8936  v =  1.0000  0.0000      0.0000  0.0000
 
atom =  76  type =  4  l = 0
 
 onsite density matrix
 
spin component  1
 
  0.8936
 
spin component  2
 
  0.7311
 
 occupancies and eigenvectors
 
  o =  0.7311  v =  0.0000  1.0000      0.0000  0.0000
  o =  0.8936  v =  1.0000  0.0000      0.0000  0.0000
 
atom =  77  type =  4  l = 0
 
 onsite density matrix
 
spin component  1
 
  0.8936
 
spin component  2
 
  0.7311
 
 occupancies and eigenvectors
 
  o =  0.7311  v =  0.0000  1.0000      0.0000  0.0000
  o =  0.8936  v =  1.0000  0.0000      0.0000  0.0000
 
atom =  78  type =  4  l = 0
 
 onsite density matrix
 
spin component  1
 
  0.8936
 
spin component  2
 
  0.7311
 
 occupancies and eigenvectors
 
  o =  0.7311  v =  0.0000  1.0000      0.0000  0.0000
  o =  0.8936  v =  1.0000  0.0000      0.0000  0.0000
 
atom =  79  type =  4  l = 0
 
 onsite density matrix
 
spin component  1
 
  0.8936
 
spin component  2
 
  0.7311
 
 occupancies and eigenvectors
 
  o =  0.7311  v =  0.0000  1.0000      0.0000  0.0000
  o =  0.8936  v =  1.0000  0.0000      0.0000  0.0000
 
atom =  80  type =  4  l = 0
 
 onsite density matrix
 
spin component  1
 
  0.8936
 
spin component  2
 
  0.7311
 
 occupancies and eigenvectors
 
  o =  0.7311  v =  0.0000  1.0000      0.0000  0.0000
  o =  0.8936  v =  1.0000  0.0000      0.0000  0.0000
 
atom =  81  type =  4  l = 0
 
 onsite density matrix
 
spin component  1
 
  0.8936
 
spin component  2
 
  0.7311
 
 occupancies and eigenvectors
 
  o =  0.7311  v =  0.0000  1.0000      0.0000  0.0000
  o =  0.8936  v =  1.0000  0.0000      0.0000  0.0000
 
atom =  82  type =  4  l = 0
 
 onsite density matrix
 
spin component  1
 
  0.8936
 
spin component  2
 
  0.7311
 
 occupancies and eigenvectors
 
  o =  0.7311  v =  0.0000  1.0000      0.0000  0.0000
  o =  0.8936  v =  1.0000  0.0000      0.0000  0.0000
 
atom =  83  type =  4  l = 0
 
 onsite density matrix
 
spin component  1
 
  0.8936
 
spin component  2
 
  0.7311
 
 occupancies and eigenvectors
 
  o =  0.7311  v =  0.0000  1.0000      0.0000  0.0000
  o =  0.8936  v =  1.0000  0.0000      0.0000  0.0000
 
atom =  84  type =  4  l = 0
 
 onsite density matrix
 
spin component  1
 
  0.8936
 
spin component  2
 
  0.7311
 
 occupancies and eigenvectors
 
  o =  0.7311  v =  0.0000  1.0000      0.0000  0.0000
  o =  0.8936  v =  1.0000  0.0000      0.0000  0.0000
 
atom =  85  type =  4  l = 0
 
 onsite density matrix
 
spin component  1
 
  0.8936
 
spin component  2
 
  0.7311
 
 occupancies and eigenvectors
 
  o =  0.7311  v =  0.0000  1.0000      0.0000  0.0000
  o =  0.8936  v =  1.0000  0.0000      0.0000  0.0000
 
atom =  86  type =  4  l = 0
 
 onsite density matrix
 
spin component  1
 
  0.8936
 
spin component  2
 
  0.7311
 
 occupancies and eigenvectors
 
  o =  0.7311  v =  0.0000  1.0000      0.0000  0.0000
  o =  0.8936  v =  1.0000  0.0000      0.0000  0.0000
 
atom =  87  type =  4  l = 0
 
 onsite density matrix
 
spin component  1
 
  0.8936
 
spin component  2
 
  0.7311
 
 occupancies and eigenvectors
 
  o =  0.7311  v =  0.0000  1.0000      0.0000  0.0000
  o =  0.8936  v =  1.0000  0.0000      0.0000  0.0000
 
atom =  88  type =  4  l = 0
 
 onsite density matrix
 
spin component  1
 
  0.8936
 
spin component  2
 
  0.7311
 
 occupancies and eigenvectors
 
  o =  0.7311  v =  0.0000  1.0000      0.0000  0.0000
  o =  0.8936  v =  1.0000  0.0000      0.0000  0.0000
 
atom =  89  type =  4  l = 0
 
 onsite density matrix
 
spin component  1
 
  0.8936
 
spin component  2
 
  0.7311
 
 occupancies and eigenvectors
 
  o =  0.7311  v =  0.0000  1.0000      0.0000  0.0000
  o =  0.8936  v =  1.0000  0.0000      0.0000  0.0000
 
[...]
     -0.02601     -0.00537     -0.00105         0.008279      0.001709      0.000333
      0.00481      0.00266     -0.01781        -0.001530     -0.000846      0.005667
      0.02435      0.00090      0.05454        -0.007751     -0.000287     -0.017358
      0.00225      0.00820     -0.01757        -0.000715     -0.002609      0.005592
     -0.00671      0.02058     -0.00402         0.002135     -0.006548      0.001280
      0.06440      0.01542     -0.01256        -0.020496     -0.004907      0.003996
      0.00985     -0.00575      0.00171        -0.003136      0.001830     -0.000545
      0.01426      0.00901     -0.01605        -0.004539     -0.002867      0.005108
     -0.00033      0.00349      0.01758         0.000105     -0.001110     -0.005596
      0.00271     -0.00871      0.02489        -0.000864      0.002771     -0.007922
      0.01751      0.02381     -0.03071        -0.005571     -0.007579      0.009775
      0.00347      0.01924     -0.01123        -0.001104     -0.006123      0.003575
      0.01040      0.00212      0.03117        -0.003310     -0.000673     -0.009919
     -0.00263     -0.00189      0.02119         0.000836      0.000603     -0.006744
      0.02964      0.03404      0.00363        -0.009435     -0.010833     -0.001155
     -0.00447     -0.00678     -0.02721         0.001424      0.002158      0.008661
      0.00200      0.00326     -0.01299        -0.000636     -0.001038      0.004135
     -0.00285      0.02000     -0.00079         0.000907     -0.006364      0.000251
     -0.02955      0.02140     -0.00639         0.009405     -0.006811      0.002034
     -0.01057      0.00925     -0.00629         0.003363     -0.002943      0.002002
      0.02877     -0.07248      0.01757        -0.009157      0.023068     -0.005590
      0.00617      0.01310      0.01534        -0.001965     -0.004170     -0.004883
      0.02643     -0.00028     -0.01633        -0.008412      0.000089      0.005198
     -0.00796      0.01234     -0.04014         0.002533     -0.003928      0.012775
      0.00079      0.00112     -0.00728        -0.000252     -0.000356      0.002318
     -0.00537     -0.00458      0.01164         0.001708      0.001456     -0.003706
      0.00002      0.10177     -0.18985        -0.000005     -0.032389      0.060420
      0.01328      0.00321      0.01077        -0.004227     -0.001022     -0.003429
      0.00774      0.00145     -0.00896        -0.002464     -0.000460      0.002853
     -0.02300     -0.00085      0.00240         0.007320      0.000271     -0.000763
      0.07550     -0.09411      0.05039        -0.024027      0.029952     -0.016038
     -0.01938     -0.00802      0.00279         0.006167      0.002552     -0.000889
     -0.02029      0.00096      0.01781         0.006456     -0.000306     -0.005668
     -0.00426      0.00137      0.01924         0.001355     -0.000435     -0.006122
     -0.05343      0.00798      0.01158         0.017005     -0.002541     -0.003684
     -0.02315     -0.01955     -0.00256         0.007369      0.006222      0.000814
     -0.02026     -0.04266     -0.02568         0.006449      0.013578      0.008173
     -0.00605     -0.00216     -0.00833         0.001925      0.000687      0.002650
      0.00769      0.00983     -0.03239        -0.002447     -0.003128      0.010308
      0.01875     -0.07677     -0.04132        -0.005968      0.024434      0.013150
     -0.00135      0.00026     -0.00442         0.000428     -0.000082      0.001408
     -0.00987      0.00199      0.00193         0.003140     -0.000633     -0.000614
      0.27567      0.02271     -0.12083        -0.087733     -0.007227      0.038456
     -0.00714     -0.08580      0.04547         0.002271      0.027307     -0.014470
     -0.00490     -0.00854      0.01574         0.001559      0.002719     -0.005010
      0.00852      0.00125      0.01934        -0.002711     -0.000399     -0.006154
      0.09166      0.03976      0.12244        -0.029172     -0.012654     -0.038969
      0.00074     -0.00820     -0.06251        -0.000236      0.002609      0.019894
     -0.00708     -0.00024     -0.00346         0.002254      0.000076      0.001100
     -0.01106     -0.00110      0.00070         0.003521      0.000351     -0.000221
      0.01972     -0.12576     -0.07929        -0.006275      0.040024      0.025236
     -0.04465     -0.16860      0.02580         0.014211      0.053657     -0.008210
     -0.02421      0.00090      0.00415         0.007704     -0.000287     -0.001320
     -0.01059     -0.00000     -0.00146         0.003369      0.000000      0.000465
     -0.02042      0.01792      0.03231         0.006498     -0.005705     -0.010283
      0.03644      0.01806     -0.02795        -0.011597     -0.005747      0.008894
     -0.01589      0.00227      0.02082         0.005057     -0.000723     -0.006626
     -0.03195     -0.00776      0.01713         0.010168      0.002470     -0.005451
     -0.03588     -0.02193      0.01665         0.011418      0.006979     -0.005300
      0.04540      0.03241      0.03709        -0.014450     -0.010316     -0.011804
     -0.01338      0.00170      0.00508         0.004259     -0.000540     -0.001617
      0.00917      0.00119     -0.00682        -0.002920     -0.000379      0.002170
     -0.00771     -0.00993     -0.01760         0.002455      0.003161      0.005601
      0.04485      0.03248     -0.02823        -0.014275     -0.010336      0.008984
     -0.00615     -0.00570      0.01849         0.001958      0.001813     -0.005886
     -0.00117      0.00315      0.00264         0.000374     -0.001002     -0.000841
      0.00819      0.00811     -0.00552        -0.002608     -0.002580      0.001756
      0.00140      0.03352      0.00265        -0.000447     -0.010668     -0.000844
     -0.00340      0.01445     -0.00692         0.001081     -0.004598      0.002202
     -0.00539     -0.00076     -0.01112         0.001715      0.000241      0.003538
      0.00757      0.00212     -0.02122        -0.002409     -0.000674      0.006754
 -----------------------------------------------------------------------------------
 CHAIN + TOTAL  (eV/Angst)
 ----------------------------------------------
      0.00822     -0.00733     -0.00278
     -0.00428     -0.00345      0.00082
     -0.00538      0.00472      0.00237
     -0.00141      0.00544      0.00335
     -0.00410      0.00061      0.00039
     -0.00380      0.00347      0.00093
     -0.00372      0.00550      0.00312
     -0.00047      0.00425      0.00082
     -0.00412     -0.00408     -0.00016
     -0.00529      0.00344      0.00091
     -0.00419      0.00126      0.00198
     -0.00089      0.00323     -0.00025
     -0.00253      0.00386     -0.00150
     -0.00143      0.01262      0.00082
     -0.00222      0.00854      0.00249
     -0.00206      0.00119      0.00144
     -0.00503     -0.00057      0.00130
     -0.00367      0.00268     -0.00037
     -0.00065      0.00246      0.00059
     -0.00191      0.00166     -0.00018
     -0.00351      0.00522      0.00417
     -0.00287      0.00084      0.00216
      0.00025      0.00443      0.00039
     -0.00451      0.00056      0.00082
     -0.00220      0.00415      0.00528
     -0.00709      0.00334      0.00370
     -0.00182      0.00186      0.00013
     -0.00947     -0.00038      0.00468
     -0.00957      0.01193      0.00377
     -0.00530      0.00150      0.00229
     -0.00448      0.00559      0.00317
     -0.00507      0.00588      0.00126
     -0.00435     -0.00279      0.00097
     -0.00452     -0.00185      0.00006
     -0.00568      0.00569     -0.00197
     -0.00491      0.00583     -0.00030
     -0.00651     -0.00080     -0.00239
     -0.00616      0.00369      0.00141
     -0.00336      0.00250      0.00174
     -0.00249      0.00107     -0.00052
     -0.00307      0.00402     -0.00174
     -0.00505     -0.00210      0.00169
     -0.00724      0.00466      0.00196
     -0.00636      0.00718      0.00399
     -0.00960      0.00109      0.00447
     -0.00312      0.00230      0.00239
     -0.00324      0.00305      0.00491
     -0.00256      0.00586      0.00062
     -0.00326      0.00187     -0.00583
     -0.00380      0.00627      0.00287
     -0.00747      0.00111      0.00260
     -0.00283      0.00270      0.00065
     -0.00133      0.00150      0.00151
     -0.00177      0.00978      0.00084
     -0.00086      0.00805     -0.00026
     -0.00162      0.00335      0.00048
     -0.00262     -0.00333      0.00155
      0.00039      0.01194      0.00631
     -0.00175      0.00564      0.00549
     -0.00262      0.00333      0.00838
     -0.00336      0.00003      0.00869
     -0.00737      0.00398      0.00145
     -0.00785      0.00127      0.00373
     -0.00396      0.00201      0.00074
      0.00486      0.00697     -0.00402
     -0.00499      0.01097     -0.00390
     -0.00559      0.00683     -0.00426
     -0.00455      0.00144     -0.00176
     -0.00370      0.00449      0.00236
     -0.00379      0.00655      0.00171
     -0.00354      0.00183      0.00241
     -0.00358      0.00165      0.00302
     -0.00121      0.00284     -0.00213
      0.00057      0.00013     -0.00051
      0.00138      0.00138     -0.00040
     -0.00176      0.00134      0.00114
      0.00038      0.00883      0.00201
     -0.00592     -0.00133      0.00233
     -0.00293     -0.00001      0.00082
     -0.00358      0.00477      0.00097
      0.00062      0.00788     -0.00046
     -0.00231      0.00480     -0.00097
     -0.00211      0.00317     -0.00145
     -0.00599      0.00141      0.00219
     -0.00510      0.00503      0.00020
     -0.00386     -0.00257      0.00079
     -0.00362      0.00633      0.00052
     -0.00584      0.00524      0.00118
     -0.00447      0.00139      0.00191
     -0.00483      0.00063      0.00058
     -0.00537      0.00366      0.00056
     -0.00294      0.00376      0.00193
     -0.00350      0.00249      0.00518
 ----------------------------------------------
 Quasi-Newton relaxation of ions (Broydens 2nd method)
  g(Force)  = 0.733E-03   g(Stress)= 0.000E+00

 retain information from N=  4 steps
 eigenvalues of (default step * inverse Hessian matrix)
  average eigenvalue of G=   5.2160
 eigenvalue spectrum of G is  6.2957  6.2957  6.2562  2.0167


--------------------------------------------------------------------------------------------------------


  
 reached required accuracy - stopping structural energy minimisation
     LOOP+:  cpu time    432.8506: real time    436.9931
    4ORBIT:  cpu time      0.0000: real time      0.0000



 total charge

# of ion       s       p       d       tot
------------------------------------------
    1        2.101   0.306   0.000   2.407
    2        0.424   6.573   2.828   9.824
    3        0.423   6.573   2.817   9.813
    4        0.424   6.571   2.832   9.827
    5        0.425   6.577   2.832   9.834
    6        0.422   6.577   2.809   9.807
    7        0.421   6.577   2.803   9.802
    8        0.422   6.576   2.814   9.811
    9        0.425   6.581   2.819   9.825
   10        0.422   6.573   2.831   9.826
   11        0.425   6.572   2.852   9.849
   12        0.425   6.572   2.850   9.846
   13        0.425   6.567   2.864   9.857
   14        0.420   6.610   2.744   9.774
   15        0.419   6.607   2.743   9.769
   16        0.420   6.608   2.742   9.770
   17        0.421   6.612   2.745   9.777
   18        0.421   6.576   2.838   9.835
   19        0.418   6.578   2.775   9.771
   20        0.418   6.578   2.784   9.780
   21        0.419   6.562   2.815   9.797
   22        0.419   6.572   2.815   9.807
   23        0.418   6.575   2.780   9.773
   24        0.419   6.577   2.789   9.785
   25        0.418   6.573   2.780   9.771
   26        0.489   6.631   3.928  11.049
   27        0.489   6.631   3.925  11.044
   28        1.574   3.476   0.000   5.050
   29        1.574   3.476   0.000   5.050
   30        1.565   3.490   0.000   5.055
   31        1.565   3.490   0.000   5.054
   32        1.565   3.491   0.000   5.056
   33        1.565   3.490   0.000   5.055
   34        1.574   3.478   0.000   5.052
   35        1.575   3.473   0.000   5.049
   36        1.575   3.477   0.000   5.052
   37        1.575   3.483   0.000   5.057
   38        1.581   3.456   0.000   5.037
   39        1.584   3.445   0.000   5.029
   40        1.584   3.447   0.000   5.030
   41        1.581   3.455   0.000   5.037
   42        1.577   3.462   0.000   5.039
   43        1.574   3.470   0.000   5.044
   44        1.576   3.462   0.000   5.038
   45        1.577   3.460   0.000   5.037
   46        1.576   3.466   0.000   5.043
   47        1.575   3.474   0.000   5.049
   48        1.575   3.473   0.000   5.048
   49        1.578   3.471   0.000   5.049
   50        1.565   3.490   0.000   5.056
   51        1.565   3.495   0.000   5.060
   52        1.565   3.493   0.000   5.058
   53        1.563   3.510   0.000   5.073
   54        1.579   3.455   0.000   5.034
   55        1.580   3.454   0.000   5.033
   56        1.580   3.452   0.000   5.032
   57        1.579   3.454   0.000   5.033
   58        1.575   3.470   0.000   5.045
   59        1.577   3.460   0.000   5.037
   60        1.576   3.466   0.000   5.042
   61        1.576   3.471   0.000   5.047
   62        1.575   3.478   0.000   5.053
   63        1.577   3.468   0.000   5.045
   64        1.577   3.469   0.000   5.045
   65        1.569   3.480   0.000   5.049
   66        1.577   3.464   0.000   5.041
   67        1.575   3.472   0.000   5.047
   68        1.576   3.470   0.000   5.046
   69        1.577   3.469   0.000   5.045
   70        1.564   3.480   0.000   5.045
   71        1.565   3.493   0.000   5.058
   72        1.565   3.493   0.000   5.058
   73        1.563   3.516   0.000   5.078
   74        1.562   3.490   0.000   5.052
   75        1.575   3.472   0.000   5.047
   76        1.575   3.472   0.000   5.047
   77        1.574   3.471   0.000   5.045
   78        1.581   3.470   0.000   5.050
   79        1.580   3.468   0.000   5.049
   80        1.580   3.469   0.000   5.049
   81        1.581   3.470   0.000   5.050
   82        1.564   3.481   0.000   5.045
   83        1.564   3.496   0.000   5.059
   84        1.564   3.497   0.000   5.061
   85        1.565   3.492   0.000   5.057
   86        1.565   3.489   0.000   5.054
   87        1.565   3.489   0.000   5.054
   88        1.565   3.488   0.000   5.053
   89        1.565   3.488   0.000   5.053
   90        1.581   3.451   0.000   5.032
   91        1.583   3.449   0.000   5.031
   92        1.583   3.450   0.000   5.033
   93        1.582   3.455   0.000   5.037
--------------------------------------------------
tot        117.032 400.773  75.155 592.960



 magnetization (x)

# of ion       s       p       d       tot
------------------------------------------
    1        0.000   0.000   0.000   0.000
    2       -0.000  -0.000   0.000   0.000
    3       -0.000  -0.000  -0.000  -0.000
    4       -0.000   0.000   0.000   0.000
    5       -0.000  -0.000   0.000   0.000
    6        0.000   0.000   0.000   0.000
    7       -0.000  -0.000   0.000  -0.000
    8        0.000  -0.000   0.000   0.000
    9        0.000   0.000   0.000   0.000
   10        0.000   0.000  -0.000  -0.000
   11        0.000   0.000   0.000   0.000
   12        0.000  -0.000   0.000   0.000
   13       -0.000   0.000   0.000   0.000
   14        0.000   0.000   0.000   0.000
   15        0.000   0.000   0.000   0.000
   16       -0.000   0.000  -0.000  -0.000
   17       -0.000  -0.000  -0.000  -0.000
   18        0.000   0.000  -0.000  -0.000
   19        0.000   0.000   0.000   0.000
   20       -0.000  -0.000  -0.000  -0.000
   21       -0.000  -0.000  -0.000  -0.000
   22       -0.000  -0.000  -0.000  -0.000
   23        0.000   0.000   0.000   0.000
   24       -0.000  -0.000  -0.000  -0.000
   25        0.000   0.000   0.000   0.000
   26       -0.000  -0.000  -0.000  -0.000
   27       -0.000   0.000  -0.000  -0.000
   28       -0.000   0.000   0.000   0.000
   29        0.000  -0.000   0.000  -0.000
   30       -0.000  -0.000   0.000  -0.000
   31       -0.000   0.000   0.000   0.000
   32        0.000   0.000   0.000   0.000
   33       -0.000  -0.000   0.000  -0.000
   34       -0.000  -0.000   0.000  -0.000
   35        0.000   0.000   0.000   0.000
   36        0.000   0.000   0.000   0.000
   37        0.000   0.000   0.000   0.000
   38        0.000   0.000   0.000   0.000
   39       -0.000   0.000   0.000   0.000
   40        0.000  -0.000   0.000  -0.000
   41        0.000   0.000   0.000   0.000
   42       -0.000   0.000   0.000  -0.000
   43        0.000  -0.000   0.000  -0.000
   44        0.000   0.000   0.000   0.000
   45        0.000   0.000   0.000   0.000
   46       -0.000   0.000   0.000   0.000
   47        0.000  -0.000   0.000  -0.000
   48       -0.000  -0.000   0.000  -0.000
   49       -0.000   0.000   0.000   0.000
   50        0.000   0.000   0.000   0.000
   51       -0.000   0.000   0.000   0.000
   52       -0.000  -0.000   0.000  -0.000
   53       -0.000   0.000   0.000   0.000
   54       -0.000  -0.000   0.000  -0.000
   55        0.000  -0.000   0.000  -0.000
   56        0.000   0.000   0.000   0.000
   57       -0.000   0.000   0.000   0.000
   58        0.000  -0.000   0.000  -0.000
   59        0.000   0.000   0.000   0.000
   60       -0.000  -0.000   0.000  -0.000
   61        0.000   0.000   0.000   0.000
   62       -0.000   0.000   0.000   0.000
   63       -0.000  -0.000   0.000  -0.000
   64        0.000  -0.000   0.000   0.000
   65       -0.000  -0.000   0.000  -0.000
   66        0.000   0.000   0.000   0.000
   67        0.000  -0.000   0.000  -0.000
   68       -0.000   0.000   0.000   0.000
   69       -0.000   0.000   0.000   0.000
   70        0.000   0.000   0.000   0.000
   71       -0.000  -0.000   0.000  -0.000
   72       -0.000  -0.000   0.000  -0.000
   73       -0.000   0.000   0.000   0.000
   74       -0.000   0.000   0.000   0.000
   75       -0.000  -0.000   0.000  -0.000
   76       -0.000   0.000   0.000   0.000
   77        0.000  -0.000   0.000  -0.000
   78        0.000  -0.000   0.000  -0.000
   79        0.000  -0.000   0.000  -0.000
   80       -0.000  -0.000   0.000  -0.000
   81       -0.000  -0.000   0.000  -0.000
   82       -0.000  -0.000   0.000  -0.000
   83        0.000  -0.000   0.000   0.000
   84       -0.000  -0.000   0.000  -0.000
   85       -0.000  -0.000   0.000  -0.000
   86        0.000   0.000   0.000   0.000
   87       -0.000  -0.000   0.000  -0.000
   88       -0.000  -0.000   0.000  -0.000
   89       -0.000  -0.000   0.000  -0.000
   90       -0.000  -0.000   0.000  -0.000
   91        0.000   0.000   0.000   0.000
   92       -0.000  -0.000   0.000  -0.000
   93       -0.000   0.000   0.000   0.000
--------------------------------------------------
tot         -0.000   0.000   0.000   0.000
 

 total amount of memory used by VASP MPI-rank0   321868. kBytes
=======================================================================

   base      :      30000. kBytes
   nonl-proj :     136648. kBytes
   fftplans  :      24917. kBytes
   grid      :      75254. kBytes
   one-center:       2892. kBytes
   wavefun   :      52157. kBytes
 
  
  
 General timing and accounting informations for this job:
 ========================================================
  
                  Total CPU time used (sec):    25625.695
                            User time (sec):    25523.091
                          System time (sec):      102.604
                         Elapsed time (sec):    25832.515
  
                   Maximum memory used (kb):      703532.
                   Average memory used (kb):          N/A
  
                          Minor page faults:       960208
                          Major page faults:         2934
                 Voluntary context switches:         8850
