<?xml version="1.0" encoding="ISO-8859-1"?>
<modeling>
 <generator>
  <i name="program" type="string">vasp </i>
  <i name="version" type="string">6.3.2  </i>
  <i name="subversion" type="string">27Jun22 (build Aug 05 2024 15:42:26) complex                          parallel </i>
  <i name="platform" type="string">LinuxIFC </i>
  <i name="date" type="string">2025 06 04 </i>
  <i name="time" type="string">20:33:56 </i>
 </generator>
 <incar>
  <i type="string" name="PREC">Accurate</i>
  <i type="string" name="ALGO">Fast</i>
  <i type="logical" name="ADDGRID"> T  </i>
  <i type="int" name="ISPIN">     2</i>
  <i type="int" name="NELM">   100</i>
  <i type="int" name="NELMIN">     3</i>
  <i type="int" name="IBRION">     1</i>
  <i name="EDIFF">      0.00000100</i>
  <i name="EDIFFG">     -0.05000000</i>
  <i type="int" name="NSW">   450</i>
  <i type="int" name="ISIF">     2</i>
  <i type="int" name="ISYM">     0</i>
  <i name="ENCUT">    520.00000000</i>
  <i name="POTIM">      0.20000000</i>
  <v name="MAGMOM">      0.60000000      0.60000000      0.60000000      0.60000000      0.60000000      0.60000000      0.60000000      0.60000000      0.60000000      0.60000000      0.60000000      0.60000000      0.60000000      0.60000000      0.60000000      0.60000000      0.60000000      0.60000000      0.60000000      0.60000000
      0.60000000      0.60000000      0.60000000      0.60000000      0.60000000      0.60000000      0.60000000      0.60000000      0.60000000      0.60000000      0.60000000      0.60000000      0.60000000      0.60000000      0.60000000      0.60000000      0.60000000      0.60000000      0.60000000      0.60000000
      0.60000000      0.60000000      0.60000000      0.60000000      0.60000000      0.60000000      0.60000000      0.60000000      0.60000000      0.60000000      0.60000000      0.60000000      0.60000000      0.60000000      0.60000000      0.60000000      0.60000000      0.60000000      0.60000000      0.60000000
      0.60000000      0.60000000      0.60000000      0.60000000      0.60000000      0.60000000      0.60000000      0.60000000      0.60000000      0.60000000      0.60000000      0.60000000      0.60000000      0.60000000      0.60000000      0.60000000      0.60000000      0.60000000      0.60000000      0.60000000
      0.60000000      0.60000000      0.60000000      0.60000000      0.60000000      0.60000000      0.60000000      0.60000000      0.60000000      0.60000000      0.60000000      0.60000000      0.60000000</v>
  <i type="logical" name="LREAL"> F  </i>
  <i type="int" name="ISMEAR">     0</i>
  <i name="SIGMA">      0.05000000</i>
  <i type="int" name="LMAXMIX">     4</i>
  <i type="logical" name="LWAVE"> F  </i>
  <i type="int" name="LORBIT">    11</i>
  <i type="logical" name="LASPH"> T  </i>
  <i type="logical" name="LDAU"> T  </i>
  <i type="int" name="LDAUTYPE">     2</i>
  <v type="int" name="LDAUL">     0     0     2     0</v>
  <v name="LDAUU">      0.00000000      0.00000000      4.38000000      0.00000000</v>
  <v name="LDAUJ">      0.00000000      0.00000000      0.00000000      0.00000000</v>
  <i type="int" name="LDAUPRINT">     1</i>
  <i name="SPRING">     -5.00000000</i>
 </incar>
 <primitive_cell>
  <structure name="primitive_cell" >
   <crystal>
    <varray name="basis" >
     <v>      22.78514290       0.00000000       0.00000000 </v>
     <v>       0.00000000       3.87685037       0.00000000 </v>
     <v>      -9.97305163       0.00000241      15.12824818 </v>
    </varray>
    <i name="volume">   1336.34759474 </i>
    <varray name="rec_basis" >
     <v>       0.04388825       0.00000000       0.02893261 </v>
     <v>       0.00000000       0.25794135      -0.00000004 </v>
     <v>       0.00000000       0.00000000       0.06610151 </v>
    </varray>
   </crystal>
   <varray name="positions" >
    <v>       0.35371009       0.56507315       0.61031280 </v>
    <v>       0.36719377       0.00785322       0.04554615 </v>
    <v>       0.63481886       0.00823585       0.95525155 </v>
    <v>       0.86656351       0.50801510       0.04630443 </v>
    <v>       0.13135286       0.50922247       0.95485192 </v>
    <v>       0.24893815       0.00349116       0.13692519 </v>
    <v>       0.75270558       0.00310204       0.86209078 </v>
    <v>       0.74839177       0.50322903       0.13821325 </v>
    <v>       0.24954700       0.50349507       0.86445309 </v>
    <v>       0.12857157       0.99673856       0.22815741 </v>
    <v>       0.86887136       0.99874786       0.76694506 </v>
    <v>       0.63132017       0.49871856       0.23241223 </v>
    <v>       0.37003434       0.49555368       0.77324273 </v>
    <v>       0.41902531       0.96669144       0.37976473 </v>
    <v>       0.58432758       0.96707895       0.61787644 </v>
    <v>       0.91791437       0.46677732       0.38170667 </v>
    <v>       0.08200739       0.46624947       0.62060892 </v>
    <v>       0.29478366       0.00333692       0.46455628 </v>
    <v>       0.70226247       0.00355961       0.52583667 </v>
    <v>       0.79834468       0.50363055       0.47237294 </v>
    <v>       0.20030351       0.50321530       0.52723555 </v>
    <v>       0.46835744       0.00168573       0.71548969 </v>
    <v>       0.53656705       0.00194894       0.28676009 </v>
    <v>       0.96311537       0.50165595       0.71192495 </v>
    <v>       0.03540755       0.50117706       0.28734182 </v>
    <v>       0.99905783       0.25238400       0.99969055 </v>
    <v>       0.50042243       0.75304128       0.00017362 </v>
    <v>       0.00067066       0.49118431       0.50051363 </v>
    <v>       0.50038087       0.99083002       0.49974655 </v>
    <v>       0.14838090       0.00446416       0.99107525 </v>
    <v>       0.85046526       0.00415785       0.00950743 </v>
    <v>       0.64932970       0.50435009       0.99071917 </v>
    <v>       0.35075532       0.50402998       0.00875481 </v>
    <v>       0.30311708       0.00283312       0.08102242 </v>
    <v>       0.69643197       0.00377513       0.91790790 </v>
    <v>       0.80322318       0.50341872       0.08200113 </v>
    <v>       0.19646519       0.50214594       0.92013731 </v>
    <v>       0.03328311       0.99868325       0.09840149 </v>
    <v>       0.96567664       0.00050578       0.90199394 </v>
    <v>       0.53437593       0.50166024       0.09813246 </v>
    <v>       0.46598165       0.49959004       0.90098006 </v>
    <v>       0.44960161       0.00413185       0.15546391 </v>
    <v>       0.55025887       0.00341008       0.84409352 </v>
    <v>       0.94977508       0.50361339       0.15633956 </v>
    <v>       0.05001613       0.50504791       0.84440961 </v>
    <v>       0.17954361       0.00148790       0.17701414 </v>
    <v>       0.82041163       0.00327044       0.82295712 </v>
    <v>       0.67995912       0.50305122       0.17700391 </v>
    <v>       0.31769980       0.49990982       0.82139497 </v>
    <v>       0.04937933       0.00107779       0.27074197 </v>
    <v>       0.95031269       0.00186076       0.73008013 </v>
    <v>       0.54972258       0.50186734       0.26940054 </v>
    <v>       0.44946057       0.50153043       0.72535018 </v>
    <v>       0.32549906       0.99939271       0.24941851 </v>
    <v>       0.67513676       0.99915464       0.75021040 </v>
    <v>       0.82557729       0.49918384       0.25013932 </v>
    <v>       0.17347542       0.49992641       0.75141481 </v>
    <v>       0.47646379       0.99877365       0.32608689 </v>
    <v>       0.52474080       0.99948662       0.67287777 </v>
    <v>       0.97660523       0.49917705       0.32749973 </v>
    <v>       0.02380087       0.49799893       0.67342410 </v>
    <v>       0.20615289       0.00187701       0.34806778 </v>
    <v>       0.79277843       0.00196648       0.65100750 </v>
    <v>       0.70748414       0.50225221       0.34877146 </v>
    <v>       0.29775438       0.50210690       0.65085267 </v>
    <v>       0.35252621       0.00050307       0.42362825 </v>
    <v>       0.64804571       0.99935855       0.57403224 </v>
    <v>       0.85300464       0.50020713       0.42566503 </v>
    <v>       0.14935719       0.50019996       0.57768433 </v>
    <v>       0.22206295       0.00281567       0.52042357 </v>
    <v>       0.77876050       0.00310443       0.48099946 </v>
    <v>       0.72189859       0.50296379       0.51842114 </v>
    <v>       0.28148913       0.50294818       0.48233597 </v>
    <v>       0.37743333       0.00248271       0.59608921 </v>
    <v>       0.62189346       0.00271645       0.40369255 </v>
    <v>       0.87826016       0.50280785       0.59588031 </v>
    <v>       0.12248097       0.50235353       0.40508533 </v>
    <v>       0.09099283       0.99230880       0.63085787 </v>
    <v>       0.91013738       0.99276479       0.36913101 </v>
    <v>       0.59027195       0.49266757       0.63107734 </v>
    <v>       0.40993949       0.49244475       0.36885625 </v>
    <v>       0.39441530       0.00009176       0.77006955 </v>
    <v>       0.60582110       0.00130386       0.23156100 </v>
    <v>       0.89449466       0.50110185       0.76818375 </v>
    <v>       0.10581132       0.50001577       0.23154439 </v>
    <v>       0.27525577       0.00305117       0.89672917 </v>
    <v>       0.72406638       0.00369820       0.10280196 </v>
    <v>       0.77561384       0.50365230       0.89685593 </v>
    <v>       0.22420713       0.50351695       0.10389253 </v>
    <v>       0.42900496       0.00420257       0.98697687 </v>
    <v>       0.57130847       0.00410053       0.01281250 </v>
    <v>       0.92787384       0.50320041       0.98655105 </v>
    <v>       0.07075940       0.50420013       0.01345175 </v>
   </varray>
  </structure>
  <varray name="primitive_index" >
   <v type="int" >        1 </v>
   <v type="int" >        2 </v>
   <v type="int" >        3 </v>
   <v type="int" >        4 </v>
   <v type="int" >        5 </v>
   <v type="int" >        6 </v>
   <v type="int" >        7 </v>
   <v type="int" >        8 </v>
   <v type="int" >        9 </v>
   <v type="int" >       10 </v>
   <v type="int" >       11 </v>
   <v type="int" >       12 </v>
   <v type="int" >       13 </v>
   <v type="int" >       14 </v>
   <v type="int" >       15 </v>
   <v type="int" >       16 </v>
   <v type="int" >       17 </v>
   <v type="int" >       18 </v>
   <v type="int" >       19 </v>
   <v type="int" >       20 </v>
   <v type="int" >       21 </v>
   <v type="int" >       22 </v>
   <v type="int" >       23 </v>
   <v type="int" >       24 </v>
   <v type="int" >       25 </v>
   <v type="int" >       26 </v>
   <v type="int" >       27 </v>
   <v type="int" >       28 </v>
   <v type="int" >       29 </v>
   <v type="int" >       30 </v>
   <v type="int" >       31 </v>
   <v type="int" >       32 </v>
   <v type="int" >       33 </v>
   <v type="int" >       34 </v>
   <v type="int" >       35 </v>
   <v type="int" >       36 </v>
   <v type="int" >       37 </v>
   <v type="int" >       38 </v>
   <v type="int" >       39 </v>
   <v type="int" >       40 </v>
   <v type="int" >       41 </v>
   <v type="int" >       42 </v>
   <v type="int" >       43 </v>
   <v type="int" >       44 </v>
   <v type="int" >       45 </v>
   <v type="int" >       46 </v>
   <v type="int" >       47 </v>
   <v type="int" >       48 </v>
   <v type="int" >       49 </v>
   <v type="int" >       50 </v>
   <v type="int" >       51 </v>
   <v type="int" >       52 </v>
   <v type="int" >       53 </v>
   <v type="int" >       54 </v>
   <v type="int" >       55 </v>
   <v type="int" >       56 </v>
   <v type="int" >       57 </v>
   <v type="int" >       58 </v>
   <v type="int" >       59 </v>
   <v type="int" >       60 </v>
   <v type="int" >       61 </v>
   <v type="int" >       62 </v>
   <v type="int" >       63 </v>
   <v type="int" >       64 </v>
   <v type="int" >       65 </v>
   <v type="int" >       66 </v>
   <v type="int" >       67 </v>
   <v type="int" >       68 </v>
   <v type="int" >       69 </v>
   <v type="int" >       70 </v>
   <v type="int" >       71 </v>
   <v type="int" >       72 </v>
   <v type="int" >       73 </v>
   <v type="int" >       74 </v>
   <v type="int" >       75 </v>
   <v type="int" >       76 </v>
   <v type="int" >       77 </v>
   <v type="int" >       78 </v>
   <v type="int" >       79 </v>
   <v type="int" >       80 </v>
   <v type="int" >       81 </v>
   <v type="int" >       82 </v>
   <v type="int" >       83 </v>
   <v type="int" >       84 </v>
   <v type="int" >       85 </v>
   <v type="int" >       86 </v>
   <v type="int" >       87 </v>
   <v type="int" >       88 </v>
   <v type="int" >       89 </v>
   <v type="int" >       90 </v>
   <v type="int" >       91 </v>
   <v type="int" >       92 </v>
   <v type="int" >       93 </v>
  </varray>
 </primitive_cell>
 <kpoints>
  <generation param="Gamma">
   <v type="int" name="divisions">       1        6        1 </v>
   <v name="usershift">      0.00000000       0.00000000       0.00000000 </v>
   <v name="genvec1">      1.00000000       0.00000000      -0.00000000 </v>
   <v name="genvec2">      0.00000000       0.16666667       0.00000000 </v>
   <v name="genvec3">      0.00000000       0.00000000       1.00000000 </v>
   <v name="shift">      0.00000000       0.00000000       0.00000000 </v>
  </generation>
  <varray name="kpointlist" >
   <v>       0.00000000       0.00000000       0.00000000 </v>
   <v>       0.00000000       0.16666667       0.00000000 </v>
   <v>       0.00000000       0.33333333       0.00000000 </v>
   <v>       0.00000000       0.50000000       0.00000000 </v>
  </varray>
  <varray name="weights" >
   <v>       0.16666667 </v>
   <v>       0.33333333 </v>
   <v>       0.33333333 </v>
   <v>       0.16666667 </v>
  </varray>
 </kpoints>
 <parameters>
  <separator name="general" >
   <i type="string" name="SYSTEM">unknown system</i>
   <i type="logical" name="LCOMPAT"> F  </i>
  </separator>
  <separator name="electronic" >
   <i type="string" name="PREC">accura</i>
   <i name="ENMAX">    520.00000000</i>
   <i name="ENAUG">    605.39200000</i>
   <i name="EDIFF">      0.00000100</i>
   <i type="int" name="IALGO">    68</i>
   <i type="int" name="IWAVPR">    11</i>
   <i type="int" name="NBANDS">   462</i>
   <i type="int" name="NBANDSLOW">    -1</i>
   <i type="int" name="NBANDSHIGH">    -1</i>
   <i name="NELECT">    687.00000000</i>
   <i type="int" name="TURBO">     0</i>
   <i type="int" name="IRESTART">     0</i>
   <i type="int" name="NREBOOT">     0</i>
   <i type="int" name="NMIN">     0</i>
   <i name="EREF">      0.00000000</i>
   <separator name="electronic smearing" >
    <i type="int" name="ISMEAR">     0</i>
    <i name="SIGMA">      0.05000000</i>
    <i name="KSPACING">      0.50000000</i>
    <i type="logical" name="KGAMMA"> T  </i>
    <i type="logical" name="KBLOWUP"> T  </i>
   </separator>
   <separator name="electronic projectors" >
    <i type="logical" name="LREAL"> F  </i>
    <v name="ROPT">      0.00000000      0.00000000      0.00000000      0.00000000</v>
    <i type="int" name="LMAXPAW">  -100</i>
    <i type="int" name="LMAXMIX">     4</i>
    <i type="logical" name="NLSPLINE"> F  </i>
   </separator>
   <separator name="electronic startup" >
    <i type="int" name="ISTART">     0</i>
    <i type="int" name="ICHARG">     2</i>
    <i type="int" name="INIWAV">     1</i>
   </separator>
   <separator name="electronic spin" >
    <i type="int" name="ISPIN">     2</i>
    <i type="logical" name="LNONCOLLINEAR"> F  </i>
    <v name="MAGMOM">      0.60000000      0.60000000      0.60000000      0.60000000      0.60000000      0.60000000      0.60000000      0.60000000      0.60000000      0.60000000      0.60000000      0.60000000      0.60000000      0.60000000      0.60000000      0.60000000      0.60000000      0.60000000      0.60000000      0.60000000
      0.60000000      0.60000000      0.60000000      0.60000000      0.60000000      0.60000000      0.60000000      0.60000000      0.60000000      0.60000000      0.60000000      0.60000000      0.60000000      0.60000000      0.60000000      0.60000000      0.60000000      0.60000000      0.60000000      0.60000000
      0.60000000      0.60000000      0.60000000      0.60000000      0.60000000      0.60000000      0.60000000      0.60000000      0.60000000      0.60000000      0.60000000      0.60000000      0.60000000      0.60000000      0.60000000      0.60000000      0.60000000      0.60000000      0.60000000      0.60000000
      0.60000000      0.60000000      0.60000000      0.60000000      0.60000000      0.60000000      0.60000000      0.60000000      0.60000000      0.60000000      0.60000000      0.60000000      0.60000000      0.60000000      0.60000000      0.60000000      0.60000000      0.60000000      0.60000000      0.60000000
      0.60000000      0.60000000      0.60000000      0.60000000      0.60000000      0.60000000      0.60000000      0.60000000      0.60000000      0.60000000      0.60000000      0.60000000      0.60000000</v>
    <i name="NUPDOWN">     -1.00000000</i>
    <i type="logical" name="LSORBIT"> F  </i>
    <v name="SAXIS">      0.00000000      0.00000000      1.00000000</v>
    <i type="logical" name="LSPIRAL"> F  </i>
    <v name="QSPIRAL">      0.00000000      0.00000000      0.00000000</v>
    <i type="logical" name="LZEROZ"> F  </i>
   </separator>
   <separator name="electronic exchange-correlation" >
    <i type="logical" name="LASPH"> T  </i>
    <i type="logical" name="LMETAGGA"> F  </i>
   </separator>
   <separator name="electronic convergence" >
    <i type="int" name="NELM">   100</i>
    <i type="int" name="NELMDL">    -5</i>
    <i type="int" name="NELMIN">     3</i>
    <i name="ENINI">    520.00000000</i>
    <separator name="electronic convergence detail" >
     <i type="logical" name="LDIAG"> T  </i>
     <i type="logical" name="LSUBROT"> F  </i>
     <i name="WEIMIN">      0.00100000</i>
     <i name="EBREAK">      0.00000000</i>
     <i name="DEPER">      0.30000000</i>
     <i type="int" name="NRMM">     4</i>
     <i name="TIME">      0.40000000</i>
    </separator>
   </separator>
   <separator name="electronic mixer" >
    <i name="AMIX">      0.40000000</i>
    <i name="BMIX">      1.00000000</i>
    <i name="AMIN">      0.10000000</i>
    <i name="AMIX_MAG">      1.60000000</i>
    <i name="BMIX_MAG">      1.00000000</i>
    <separator name="electronic mixer details" >
     <i type="int" name="IMIX">     4</i>
     <i type="logical" name="MIXFIRST"> F  </i>
     <i type="int" name="MAXMIX">   -45</i>
     <i name="WC">    100.00000000</i>
     <i type="int" name="INIMIX">     1</i>
     <i type="int" name="MIXPRE">     1</i>
     <i type="int" name="MREMOVE">     5</i>
    </separator>
   </separator>
   <separator name="electronic dipolcorrection" >
    <i type="logical" name="LDIPOL"> F  </i>
    <i type="logical" name="LMONO"> F  </i>
    <i type="int" name="IDIPOL">     0</i>
    <i name="EPSILON">      1.00000000</i>
    <v name="DIPOL">   -100.00000000   -100.00000000   -100.00000000</v>
    <i name="EFIELD">      0.00000000</i>
   </separator>
  </separator>
  <separator name="grids" >
   <i type="int" name="NGX">   180</i>
   <i type="int" name="NGY">    30</i>
   <i type="int" name="NGZ">   140</i>
   <i type="int" name="NGXF">   360</i>
   <i type="int" name="NGYF">    60</i>
   <i type="int" name="NGZF">   280</i>
   <i type="logical" name="ADDGRID"> T  </i>
  </separator>
  <separator name="ionic" >
   <i type="int" name="NSW">   450</i>
   <i type="int" name="IBRION">     1</i>
   <i type="int" name="MDALGO">     0</i>
   <i type="int" name="ISIF">     2</i>
   <i name="PSTRESS">      0.00000000</i>
   <i name="EDIFFG">     -0.05000000</i>
   <i type="int" name="NFREE">     0</i>
   <i name="POTIM">      0.20000000</i>
   <i name="SMASS">     -3.00000000</i>
   <i name="SCALEE">      1.00000000</i>
  </separator>
  <separator name="ionic md" >
   <i name="TEBEG">      0.00010000</i>
   <i name="TEEND">      0.00010000</i>
   <i type="int" name="NBLOCK">     1</i>
   <i type="int" name="KBLOCK">   450</i>
   <i type="int" name="NPACO">   256</i>
   <i name="APACO">     10.00000000</i>
  </separator>
  <separator name="symmetry" >
   <i type="int" name="ISYM">     0</i>
   <i name="SYMPREC">      0.00001000</i>
  </separator>
  <separator name="dos" >
   <i type="int" name="LORBIT">    11</i>
   <v name="RWIGS">     -1.00000000     -1.00000000     -1.00000000     -1.00000000</v>
   <i type="int" name="NEDOS">   301</i>
   <i name="EMIN">     10.00000000</i>
   <i name="EMAX">    -10.00000000</i>
   <i name="EFERMI">      0.00000000</i>
  </separator>
  <separator name="writing" >
   <i type="int" name="NWRITE">     2</i>
   <i type="logical" name="LWAVE"> F  </i>
   <i type="logical" name="LDOWNSAMPLE"> F  </i>
   <i type="logical" name="LCHARG"> T  </i>
   <i type="logical" name="LPARD"> F  </i>
   <i type="logical" name="LVTOT"> F  </i>
   <i type="logical" name="LVHAR"> F  </i>
   <i type="logical" name="LELF"> F  </i>
   <i type="logical" name="LOPTICS"> F  </i>
   <v name="STM">      0.00000000      0.00000000      0.00000000      0.00000000      0.00000000      0.00000000      0.00000000</v>
  </separator>
  <separator name="performance" >
   <i type="int" name="NPAR">    42</i>
   <i type="int" name="NSIM">     4</i>
   <i type="int" name="NBLK">    -1</i>
   <i type="logical" name="LPLANE"> T  </i>
   <i type="logical" name="LSCALAPACK"> T  </i>
   <i type="logical" name="LSCAAWARE"> F  </i>
   <i type="logical" name="LSCALU"> F  </i>
   <i type="logical" name="LASYNC"> F  </i>
   <i type="logical" name="LORBITALREAL"> F  </i>
  </separator>
  <separator name="miscellaneous" >
   <i type="int" name="IDIOT">     3</i>
   <i type="int" name="PHON_NSTRUCT">    -1</i>
   <i type="logical" name="LMUSIC"> F  </i>
   <v name="POMASS">      7.01000000     92.00000000     95.94000000     16.00000000</v>
   <v name="DARWINR">      0.00000000      0.00000000      0.00000000      0.00000000</v>
   <v name="DARWINV">      1.00000000      1.00000000      1.00000000      1.00000000</v>
   <i type="logical" name="LCORR"> T  </i>
  </separator>
  <i type="logical" name="GGA_COMPAT"> T  </i>
  <i type="logical" name="LBERRY"> F  </i>
  <i type="int" name="ICORELEVEL">     0</i>
  <i type="logical" name="LDAU"> T  </i>
  <v type="int" name="LDAUTYPE">     2</v>
  <v type="int" name="LDAUL">     0</v>
  <v name="LDAUU">      0.00000000</v>
  <v name="LDAUJ">      0.00000000</v>
  <i type="int" name="LDAUPRINT">     1</i>
  <i type="int" name="I_CONSTRAINED_M">     0</i>
  <separator name="electronic exchange-correlation" >
   <i type="string" name="GGA">--</i>
   <i type="int" name="VOSKOWN">     0</i>
   <i type="logical" name="LHFCALC"> F  </i>
   <i type="string" name="PRECFOCK"></i>
   <i type="logical" name="LSYMGRAD"> F  </i>
   <i type="logical" name="LHFONE"> F  </i>
   <i type="logical" name="LRHFCALC"> F  </i>
   <i type="logical" name="LTHOMAS"> F  </i>
   <i type="logical" name="LMODELHF"> F  </i>
   <i type="logical" name="LFOCKACE"> F  </i>
   <i name="ENCUT4O">     -1.00000000</i>
   <i type="int" name="EXXOEP">     0</i>
   <i type="int" name="FOURORBIT">     0</i>
   <i name="AEXX">      0.00000000</i>
   <i name="HFALPHA">      0.00000000</i>
   <i name="MCALPHA">      0.00000000</i>
   <i name="ALDAX">      1.00000000</i>
   <i name="AGGAX">      1.00000000</i>
   <i name="ALDAC">      1.00000000</i>
   <i name="AGGAC">      1.00000000</i>
   <i type="int" name="NKREDX">     1</i>
   <i type="int" name="NKREDY">     1</i>
   <i type="int" name="NKREDZ">     1</i>
   <i type="logical" name="SHIFTRED"> F  </i>
   <i type="logical" name="ODDONLY"> F  </i>
   <i type="logical" name="EVENONLY"> F  </i>
   <i type="int" name="LMAXFOCK">     0</i>
   <i type="int" name="NMAXFOCKAE">     0</i>
   <i type="logical" name="LFOCKAEDFT"> F  </i>
   <i name="HFSCREEN">      0.00000000</i>
   <i name="HFSCREENC">      0.00000000</i>
   <i type="int" name="NBANDSGWLOW">     0</i>
  </separator>
  <separator name="vdW DFT" >
   <i type="logical" name="LUSE_VDW"> F  </i>
   <i name="Zab_VDW">     -0.84910000</i>
   <i name="PARAM1">      0.12340000</i>
   <i name="PARAM2">      1.00000000</i>
   <i name="PARAM3">      0.00000000</i>
  </separator>
  <separator name="model GW" >
   <i type="int" name="MODEL_GW">     0</i>
   <i name="MODEL_EPS0">      8.62159739</i>
   <i name="MODEL_ALPHA">      1.00000000</i>
  </separator>
  <separator name="linear response parameters" >
   <i type="logical" name="LEPSILON"> F  </i>
   <i type="logical" name="LRPA"> F  </i>
   <i type="logical" name="LNABLA"> F  </i>
   <i type="logical" name="LVEL"> F  </i>
   <i name="CSHIFT">      0.10000000</i>
   <i name="OMEGAMAX">     -1.00000000</i>
   <i name="DEG_THRESHOLD">      0.00200000</i>
   <i name="RTIME">     -0.10000000</i>
   <i name="WPLASMAI">      0.00000000</i>
   <v name="DFIELD">      0.00000000      0.00000000      0.00000000</v>
   <v name="WPLASMA">      0.00000000      0.00000000      0.00000000      0.00000000      0.00000000      0.00000000      0.00000000      0.00000000      0.00000000</v>
  </separator>
  <separator name="orbital magnetization" >
   <i type="logical" name="NUCIND"> F  </i>
   <v name="MAGPOS">      0.00000000      0.00000000      0.00000000</v>
   <i type="logical" name="LNICSALL"> T  </i>
   <i type="logical" name="ORBITALMAG"> F  </i>
   <i type="logical" name="LMAGBLOCH"> F  </i>
   <i type="logical" name="LCHIMAG"> F  </i>
   <i type="logical" name="LGAUGE"> T  </i>
   <i type="int" name="MAGATOM">     0</i>
   <v name="MAGDIPOL">      0.00000000      0.00000000      0.00000000</v>
   <v name="AVECCONST">      0.00000000      0.00000000      0.00000000</v>
  </separator>
  <separator name="response functions" >
   <i type="logical" name="LFINITE_TEMPERATURE"> F  </i>
   <i type="logical" name="LADDER"> F  </i>
   <i type="logical" name="LRPAFORCE"> F  </i>
   <i type="logical" name="LFXC"> F  </i>
   <i type="logical" name="LHARTREE"> T  </i>
   <i type="int" name="IBSE">     0</i>
   <v type="int" name="KPOINT">    -1     0     0     0</v>
   <i type="logical" name="LTCTC"> F  </i>
   <i type="logical" name="LTCTE"> F  </i>
   <i type="logical" name="LTETE"> F  </i>
   <i type="logical" name="LTRIPLET"> F  </i>
   <i type="logical" name="LFXCEPS"> F  </i>
   <i type="logical" name="LFXHEG"> F  </i>
   <i type="int" name="NATURALO">     2</i>
   <i type="logical" name="LHOLEGF"> F  </i>
   <i type="logical" name="L2ORDER"> F  </i>
   <i type="logical" name="LDMP1"> F  </i>
   <i type="logical" name="LMP2LT"> F  </i>
   <i type="logical" name="LSMP2LT"> F  </i>
   <i type="logical" name="LGWLF"> F  </i>
   <i name="ENCUTGW">     -2.00000000</i>
   <i name="ENCUTGWSOFT">     -2.00000000</i>
   <i name="ENCUTLF">     -1.00000000</i>
   <i type="logical" name="LESF_SPLINES"> F  </i>
   <i type="int" name="LMAXMP2">    -1</i>
   <i name="SCISSOR">      0.00000000</i>
   <i type="int" name="NOMEGA">     0</i>
   <i type="int" name="NOMEGAR">     0</i>
   <i type="int" name="NBANDSGW">    -1</i>
   <i type="int" name="NBANDSO">    -1</i>
   <i type="int" name="NBANDSV">    -1</i>
   <i type="int" name="NELMGW">     1</i>
   <i type="int" name="NELMHF">     1</i>
   <i type="int" name="DIM">     3</i>
   <i type="int" name="IESPILON">     4</i>
   <i type="int" name="ANTIRES">     0</i>
   <i name="OMEGAMAX">    -30.00000000</i>
   <i name="OMEGAMIN">    -30.00000000</i>
   <i name="OMEGATL">   -200.00000000</i>
   <i type="int" name="OMEGAGRID">     0</i>
   <i name="CSHIFT">     -0.10000000</i>
   <i type="logical" name="LSELFENERGY"> F  </i>
   <i type="logical" name="LSPECTRAL"> F  </i>
   <i type="logical" name="LSPECTRALGW"> F  </i>
   <i type="logical" name="LSINGLES"> F  </i>
   <i type="logical" name="LFERMIGW"> F  </i>
   <i type="logical" name="ODDONLYGW"> F  </i>
   <i type="logical" name="EVENONLYGW"> F  </i>
   <i type="int" name="NKREDLFX">     1</i>
   <i type="int" name="NKREDLFY">     1</i>
   <i type="int" name="NKREDLFZ">     1</i>
   <i type="int" name="MAXMEM">  2800</i>
   <i type="int" name="TELESCOPE">     0</i>
   <i type="int" name="NTAUPAR">    -1</i>
   <i type="int" name="NOMEGAPAR">    -1</i>
   <i name="DAMP_NEWTON">      0.80000001</i>
   <i name="LAMBDA">      1.00000000</i>
  </separator>
  <separator name="External order field" >
   <i name="OFIELD_KAPPA">      0.00000000</i>
   <v name="OFIELD_K">      0.00000000      0.00000000      0.00000000</v>
   <i name="OFIELD_Q6_NEAR">      0.00000000</i>
   <i name="OFIELD_Q6_FAR">      0.00000000</i>
   <i name="OFIELD_A">      0.00000000</i>
  </separator>
  <separator name="optional k-points parameters" >
   <i type="int" name="KPOINTS_OPT_MODE">     1</i>
   <i type="logical" name="LKPOINTS_OPT"> F  </i>
  </separator>
 </parameters>
 <atominfo>
  <atoms>      93 </atoms>
  <types>       4 </types>
  <array name="atoms" >
   <dimension dim="1">ion</dimension>
   <field type="string">element</field>
   <field type="int">atomtype</field>
   <set>
    <rc><c>Li</c><c>   1</c></rc>
    <rc><c>Nb</c><c>   2</c></rc>
    <rc><c>Nb</c><c>   2</c></rc>
    <rc><c>Nb</c><c>   2</c></rc>
    <rc><c>Nb</c><c>   2</c></rc>
    <rc><c>Nb</c><c>   2</c></rc>
    <rc><c>Nb</c><c>   2</c></rc>
    <rc><c>Nb</c><c>   2</c></rc>
    <rc><c>Nb</c><c>   2</c></rc>
    <rc><c>Nb</c><c>   2</c></rc>
    <rc><c>Nb</c><c>   2</c></rc>
    <rc><c>Nb</c><c>   2</c></rc>
    <rc><c>Nb</c><c>   2</c></rc>
    <rc><c>Nb</c><c>   2</c></rc>
    <rc><c>Nb</c><c>   2</c></rc>
    <rc><c>Nb</c><c>   2</c></rc>
    <rc><c>Nb</c><c>   2</c></rc>
    <rc><c>Nb</c><c>   2</c></rc>
    <rc><c>Nb</c><c>   2</c></rc>
    <rc><c>Nb</c><c>   2</c></rc>
    <rc><c>Nb</c><c>   2</c></rc>
    <rc><c>Nb</c><c>   2</c></rc>
    <rc><c>Nb</c><c>   2</c></rc>
    <rc><c>Nb</c><c>   2</c></rc>
    <rc><c>Nb</c><c>   2</c></rc>
    <rc><c>Mo</c><c>   3</c></rc>
    <rc><c>Mo</c><c>   3</c></rc>
    <rc><c>O </c><c>   4</c></rc>
    <rc><c>O </c><c>   4</c></rc>
    <rc><c>O </c><c>   4</c></rc>
    <rc><c>O </c><c>   4</c></rc>
    <rc><c>O </c><c>   4</c></rc>
    <rc><c>O </c><c>   4</c></rc>
    <rc><c>O </c><c>   4</c></rc>
    <rc><c>O </c><c>   4</c></rc>
    <rc><c>O </c><c>   4</c></rc>
    <rc><c>O </c><c>   4</c></rc>
    <rc><c>O </c><c>   4</c></rc>
    <rc><c>O </c><c>   4</c></rc>
    <rc><c>O </c><c>   4</c></rc>
    <rc><c>O </c><c>   4</c></rc>
    <rc><c>O </c><c>   4</c></rc>
    <rc><c>O </c><c>   4</c></rc>
    <rc><c>O </c><c>   4</c></rc>
    <rc><c>O </c><c>   4</c></rc>
    <rc><c>O </c><c>   4</c></rc>
    <rc><c>O </c><c>   4</c></rc>
    <rc><c>O </c><c>   4</c></rc>
    <rc><c>O </c><c>   4</c></rc>
    <rc><c>O </c><c>   4</c></rc>
    <rc><c>O </c><c>   4</c></rc>
    <rc><c>O </c><c>   4</c></rc>
    <rc><c>O </c><c>   4</c></rc>
    <rc><c>O </c><c>   4</c></rc>
    <rc><c>O </c><c>   4</c></rc>
    <rc><c>O </c><c>   4</c></rc>
    <rc><c>O </c><c>   4</c></rc>
    <rc><c>O </c><c>   4</c></rc>
    <rc><c>O </c><c>   4</c></rc>
    <rc><c>O </c><c>   4</c></rc>
    <rc><c>O </c><c>   4</c></rc>
    <rc><c>O </c><c>   4</c></rc>
    <rc><c>O </c><c>   4</c></rc>
    <rc><c>O </c><c>   4</c></rc>
    <rc><c>O </c><c>   4</c></rc>
    <rc><c>O </c><c>   4</c></rc>
    <rc><c>O </c><c>   4</c></rc>
    <rc><c>O </c><c>   4</c></rc>
    <rc><c>O </c><c>   4</c></rc>
    <rc><c>O </c><c>   4</c></rc>
    <rc><c>O </c><c>   4</c></rc>
    <rc><c>O </c><c>   4</c></rc>
    <rc><c>O </c><c>   4</c></rc>
    <rc><c>O </c><c>   4</c></rc>
    <rc><c>O </c><c>   4</c></rc>
    <rc><c>O </c><c>   4</c></rc>
    <rc><c>O </c><c>   4</c></rc>
    <rc><c>O </c><c>   4</c></rc>
    <rc><c>O </c><c>   4</c></rc>
    <rc><c>O </c><c>   4</c></rc>
    <rc><c>O </c><c>   4</c></rc>
    <rc><c>O </c><c>   4</c></rc>
    <rc><c>O </c><c>   4</c></rc>
    <rc><c>O </c><c>   4</c></rc>
    <rc><c>O </c><c>   4</c></rc>
    <rc><c>O </c><c>   4</c></rc>
    <rc><c>O </c><c>   4</c></rc>
    <rc><c>O </c><c>   4</c></rc>
    <rc><c>O </c><c>   4</c></rc>
    <rc><c>O </c><c>   4</c></rc>
    <rc><c>O </c><c>   4</c></rc>
    <rc><c>O </c><c>   4</c></rc>
    <rc><c>O </c><c>   4</c></rc>
   </set>
  </array>
  <array name="atomtypes" >
   <dimension dim="1">type</dimension>
   <field type="int">atomspertype</field>
   <field type="string">element</field>
   <field>mass</field>
   <field>valence</field>
   <field type="string">pseudopotential</field>
   <set>
    <rc><c>   1</c><c>Li</c><c>      7.01000000</c><c>      3.00000000</c><c> PAW_PBE Li_sv 23Jan2001                </c></rc>
    <rc><c>  24</c><c>Nb</c><c>     92.00000000</c><c>     11.00000000</c><c> PAW_PBE Nb_pv 08Apr2002                </c></rc>
    <rc><c>   2</c><c>Mo</c><c>     95.94000000</c><c>     12.00000000</c><c> PAW_PBE Mo_pv 08Apr2002                </c></rc>
    <rc><c>  66</c><c>O </c><c>     16.00000000</c><c>      6.00000000</c><c> PAW_PBE O 08Apr2002                    </c></rc>
   </set>
  </array>
 </atominfo>
 <structure name="initialpos" >
  <crystal>
   <varray name="basis" >
    <v>      22.78514290       0.00000000       0.00000000 </v>
    <v>       0.00000000       3.87685037       0.00000000 </v>
    <v>      -9.97305163       0.00000241      15.12824818 </v>
   </varray>
   <i name="volume">   1336.34759474 </i>
   <varray name="rec_basis" >
    <v>       0.04388825       0.00000000       0.02893261 </v>
    <v>       0.00000000       0.25794135      -0.00000004 </v>
    <v>       0.00000000       0.00000000       0.06610151 </v>
   </varray>
  </crystal>
  <varray name="positions" >
   <v>       0.35371009       0.56507315       0.61031280 </v>
   <v>       0.36719377       0.00785322       0.04554615 </v>
   <v>       0.63481886       0.00823585       0.95525155 </v>
   <v>       0.86656351       0.50801510       0.04630443 </v>
   <v>       0.13135286       0.50922247       0.95485192 </v>
   <v>       0.24893815       0.00349116       0.13692519 </v>
   <v>       0.75270558       0.00310204       0.86209078 </v>
   <v>       0.74839177       0.50322903       0.13821325 </v>
   <v>       0.24954700       0.50349507       0.86445309 </v>
   <v>       0.12857157       0.99673856       0.22815741 </v>
   <v>       0.86887136       0.99874786       0.76694506 </v>
   <v>       0.63132017       0.49871856       0.23241223 </v>
   <v>       0.37003434       0.49555368       0.77324273 </v>
   <v>       0.41902531       0.96669144       0.37976473 </v>
   <v>       0.58432758       0.96707895       0.61787644 </v>
   <v>       0.91791437       0.46677732       0.38170667 </v>
   <v>       0.08200739       0.46624947       0.62060892 </v>
   <v>       0.29478366       0.00333692       0.46455628 </v>
   <v>       0.70226247       0.00355961       0.52583667 </v>
   <v>       0.79834468       0.50363055       0.47237294 </v>
   <v>       0.20030351       0.50321530       0.52723555 </v>
   <v>       0.46835744       0.00168573       0.71548969 </v>
   <v>       0.53656705       0.00194894       0.28676009 </v>
   <v>       0.96311537       0.50165595       0.71192495 </v>
   <v>       0.03540755       0.50117706       0.28734182 </v>
   <v>       0.99905783       0.25238400       0.99969055 </v>
   <v>       0.50042243       0.75304128       0.00017362 </v>
   <v>       0.00067066       0.49118431       0.50051363 </v>
   <v>       0.50038087       0.99083002       0.49974655 </v>
   <v>       0.14838090       0.00446416       0.99107525 </v>
   <v>       0.85046526       0.00415785       0.00950743 </v>
   <v>       0.64932970       0.50435009       0.99071917 </v>
   <v>       0.35075532       0.50402998       0.00875481 </v>
   <v>       0.30311708       0.00283312       0.08102242 </v>
   <v>       0.69643197       0.00377513       0.91790790 </v>
   <v>       0.80322318       0.50341872       0.08200113 </v>
   <v>       0.19646519       0.50214594       0.92013731 </v>
   <v>       0.03328311       0.99868325       0.09840149 </v>
   <v>       0.96567664       0.00050578       0.90199394 </v>
   <v>       0.53437593       0.50166024       0.09813246 </v>
   <v>       0.46598165       0.49959004       0.90098006 </v>
   <v>       0.44960161       0.00413185       0.15546391 </v>
   <v>       0.55025887       0.00341008       0.84409352 </v>
   <v>       0.94977508       0.50361339       0.15633956 </v>
   <v>       0.05001613       0.50504791       0.84440961 </v>
   <v>       0.17954361       0.00148790       0.17701414 </v>
   <v>       0.82041163       0.00327044       0.82295712 </v>
   <v>       0.67995912       0.50305122       0.17700391 </v>
   <v>       0.31769980       0.49990982       0.82139497 </v>
   <v>       0.04937933       0.00107779       0.27074197 </v>
   <v>       0.95031269       0.00186076       0.73008013 </v>
   <v>       0.54972258       0.50186734       0.26940054 </v>
   <v>       0.44946057       0.50153043       0.72535018 </v>
   <v>       0.32549906       0.99939271       0.24941851 </v>
   <v>       0.67513676       0.99915464       0.75021040 </v>
   <v>       0.82557729       0.49918384       0.25013932 </v>
   <v>       0.17347542       0.49992641       0.75141481 </v>
   <v>       0.47646379       0.99877365       0.32608689 </v>
   <v>       0.52474080       0.99948662       0.67287777 </v>
   <v>       0.97660523       0.49917705       0.32749973 </v>
   <v>       0.02380087       0.49799893       0.67342410 </v>
   <v>       0.20615289       0.00187701       0.34806778 </v>
   <v>       0.79277843       0.00196648       0.65100750 </v>
   <v>       0.70748414       0.50225221       0.34877146 </v>
   <v>       0.29775438       0.50210690       0.65085267 </v>
   <v>       0.35252621       0.00050307       0.42362825 </v>
   <v>       0.64804571       0.99935855       0.57403224 </v>
   <v>       0.85300464       0.50020713       0.42566503 </v>
   <v>       0.14935719       0.50019996       0.57768433 </v>
   <v>       0.22206295       0.00281567       0.52042357 </v>
   <v>       0.77876050       0.00310443       0.48099946 </v>
   <v>       0.72189859       0.50296379       0.51842114 </v>
   <v>       0.28148913       0.50294818       0.48233597 </v>
   <v>       0.37743333       0.00248271       0.59608921 </v>
   <v>       0.62189346       0.00271645       0.40369255 </v>
   <v>       0.87826016       0.50280785       0.59588031 </v>
   <v>       0.12248097       0.50235353       0.40508533 </v>
   <v>       0.09099283       0.99230880       0.63085787 </v>
   <v>       0.91013738       0.99276479       0.36913101 </v>
   <v>       0.59027195       0.49266757       0.63107734 </v>
   <v>       0.40993949       0.49244475       0.36885625 </v>
   <v>       0.39441530       0.00009176       0.77006955 </v>
   <v>       0.60582110       0.00130386       0.23156100 </v>
   <v>       0.89449466       0.50110185       0.76818375 </v>
   <v>       0.10581132       0.50001577       0.23154439 </v>
   <v>       0.27525577       0.00305117       0.89672917 </v>
   <v>       0.72406638       0.00369820       0.10280196 </v>
   <v>       0.77561384       0.50365230       0.89685593 </v>
   <v>       0.22420713       0.50351695       0.10389253 </v>
   <v>       0.42900496       0.00420257       0.98697687 </v>
   <v>       0.57130847       0.00410053       0.01281250 </v>
   <v>       0.92787384       0.50320041       0.98655105 </v>
   <v>       0.07075940       0.50420013       0.01345175 </v>
  </varray>
 </structure>
 <calculation>
  <scstep>
   <time name="dav">   36.33   36.65</time>
   <time name="total">   37.52   37.85</time>
   <energy>
    <i name="alphaZ">   3514.54571391 </i>
    <i name="ewald"> -37023.76834389 </i>
    <i name="hartreedc"> -17958.60864122 </i>
    <i name="XCdc">   2526.84186551 </i>
    <i name="pawpsdc">  35089.64318688 </i>
    <i name="pawaedc"> -34806.48135010 </i>
    <i name="eentropy">     -0.02810818 </i>
    <i name="bandstr">   2057.39319048 </i>
    <i name="atom">  56348.38862387 </i>
    <i name="e_fr_energy">   9747.92613726 </i>
    <i name="e_wo_entrp">   9747.95424544 </i>
    <i name="e_0_energy">   9747.94019135 </i>
   </energy>
  </scstep>
  <scstep>
   <time name="dav">   35.80   36.04</time>
   <time name="total">   35.81   36.05</time>
   <energy>
    <i name="e_fr_energy">    829.25554152 </i>
    <i name="e_wo_entrp">    829.29166811 </i>
    <i name="e_0_energy">    829.27360481 </i>
   </energy>
  </scstep>
  <scstep>
   <time name="dav">   53.14   53.50</time>
   <time name="total">   53.14   53.50</time>
   <energy>
    <i name="e_fr_energy">   -919.54735808 </i>
    <i name="e_wo_entrp">   -919.54055719 </i>
    <i name="e_0_energy">   -919.54395764 </i>
   </energy>
  </scstep>
  <scstep>
   <time name="dav">   50.72   51.07</time>
   <time name="total">   50.73   51.07</time>
   <energy>
    <i name="e_fr_energy">  -1017.53039207 </i>
    <i name="e_wo_entrp">  -1017.51786853 </i>
    <i name="e_0_energy">  -1017.52413030 </i>
   </energy>
  </scstep>
  <scstep>
   <time name="dav">   53.77   54.13</time>
   <time name="total">   55.48   55.85</time>
   <energy>
    <i name="e_fr_energy">  -1019.13614720 </i>
    <i name="e_wo_entrp">  -1019.12363800 </i>
    <i name="e_0_energy">  -1019.12989260 </i>
   </energy>
  </scstep>
  <scstep>
   <time name="diag">    3.88    3.91</time>
   <time name="diis">   34.06   34.30</time>
   <time name="orth">    0.51    0.51</time>
   <time name="total">   41.20   41.48</time>
   <energy>
    <i name="e_fr_energy">   -754.65422795 </i>
    <i name="e_wo_entrp">   -754.64511024 </i>
    <i name="e_0_energy">   -754.64966910 </i>
   </energy>
  </scstep>
  <scstep>
   <time name="diag">    4.11    4.14</time>
   <time name="diis">   32.52   32.75</time>
   <time name="orth">    0.47    0.47</time>
   <time name="total">   39.80   40.06</time>
   <energy>
    <i name="e_fr_energy">   -750.54078351 </i>
    <i name="e_wo_entrp">   -750.53170903 </i>
    <i name="e_0_energy">   -750.53624627 </i>
   </energy>
  </scstep>
  <scstep>
   <time name="diag">    3.52    3.54</time>
   <time name="diis">   30.34   30.66</time>
   <time name="orth">    0.48    0.48</time>
   <time name="total">   37.25   37.60</time>
   <energy>
    <i name="e_fr_energy">   -761.97924122 </i>
    <i name="e_wo_entrp">   -761.96892700 </i>
    <i name="e_0_energy">   -761.97408411 </i>
   </energy>
  </scstep>
  <scstep>
   <time name="diag">    4.29    4.31</time>
   <time name="diis">   27.83   28.01</time>
   <time name="orth">    0.48    0.48</time>
   <time name="total">   35.66   35.88</time>
   <energy>
    <i name="e_fr_energy">   -782.70895575 </i>
    <i name="e_wo_entrp">   -782.69669690 </i>
    <i name="e_0_energy">   -782.70282632 </i>
   </energy>
  </scstep>
  <scstep>
   <time name="diag">    4.29    4.31</time>
   <time name="diis">   29.08   29.28</time>
   <time name="orth">    0.42    0.43</time>
   <time name="total">   36.42   36.65</time>
   <energy>
    <i name="e_fr_energy">   -795.13516618 </i>
    <i name="e_wo_entrp">   -795.12014790 </i>
    <i name="e_0_energy">   -795.12765704 </i>
   </energy>
  </scstep>
  <scstep>
   <time name="diag">    3.77    3.79</time>
   <time name="diis">   31.45   32.04</time>
   <time name="orth">    0.47    0.47</time>
   <time name="total">   38.56   39.19</time>
   <energy>
    <i name="e_fr_energy">   -805.11611104 </i>
    <i name="e_wo_entrp">   -805.10117683 </i>
    <i name="e_0_energy">   -805.10864393 </i>
   </energy>
  </scstep>
  <scstep>
   <time name="diag">    3.52    3.54</time>
   <time name="diis">   31.73   31.94</time>
   <time name="orth">    0.47    0.48</time>
   <time name="total">   38.64   38.89</time>
   <energy>
    <i name="e_fr_energy">   -813.21100014 </i>
    <i name="e_wo_entrp">   -813.19637098 </i>
    <i name="e_0_energy">   -813.20368556 </i>
   </energy>
  </scstep>
  <scstep>
   <time name="diag">    4.23    4.25</time>
   <time name="diis">   28.38   28.56</time>
   <time name="orth">    0.47    0.48</time>
   <time name="total">   36.15   36.37</time>
   <energy>
    <i name="e_fr_energy">   -813.77706436 </i>
    <i name="e_wo_entrp">   -813.76260397 </i>
    <i name="e_0_energy">   -813.76983416 </i>
   </energy>
  </scstep>
  <scstep>
   <time name="diag">    4.28    4.31</time>
   <time name="diis">   29.57   30.19</time>
   <time name="orth">    0.45    0.45</time>
   <time name="total">   37.15   37.81</time>
   <energy>
    <i name="e_fr_energy">   -813.85555405 </i>
    <i name="e_wo_entrp">   -813.84064022 </i>
    <i name="e_0_energy">   -813.84809713 </i>
   </energy>
  </scstep>
  <scstep>
   <time name="diag">    4.10    4.12</time>
   <time name="diis">   32.75   32.97</time>
   <time name="orth">    0.43    0.43</time>
   <time name="total">   39.73   39.99</time>
   <energy>
    <i name="e_fr_energy">   -813.86016893 </i>
    <i name="e_wo_entrp">   -813.84346674 </i>
    <i name="e_0_energy">   -813.85181783 </i>
   </energy>
  </scstep>
  <scstep>
   <time name="diag">    3.53    3.55</time>
   <time name="diis">   33.60   33.82</time>
   <time name="orth">    0.47    0.47</time>
   <time name="total">   40.52   40.78</time>
   <energy>
    <i name="e_fr_energy">   -813.85888011 </i>
    <i name="e_wo_entrp">   -813.84225824 </i>
    <i name="e_0_energy">   -813.85056918 </i>
   </energy>
  </scstep>
  <scstep>
   <time name="diag">    3.94    3.95</time>
   <time name="diis">   32.95   33.60</time>
   <time name="orth">    0.47    0.47</time>
   <time name="total">   40.40   41.08</time>
   <energy>
    <i name="e_fr_energy">   -813.85827346 </i>
    <i name="e_wo_entrp">   -813.84141478 </i>
    <i name="e_0_energy">   -813.84984412 </i>
   </energy>
  </scstep>
  <scstep>
   <time name="diag">    4.29    4.31</time>
   <time name="diis">   29.84   30.03</time>
   <time name="orth">    0.47    0.47</time>
   <time name="total">   37.69   37.92</time>
   <energy>
    <i name="e_fr_energy">   -813.85849102 </i>
    <i name="e_wo_entrp">   -813.84148464 </i>
    <i name="e_0_energy">   -813.84998783 </i>
   </energy>
  </scstep>
  <scstep>
   <time name="diag">    4.28    4.30</time>
   <time name="diis">   30.24   30.44</time>
   <time name="orth">    0.43    0.44</time>
   <time name="total">   37.93   38.16</time>
   <energy>
    <i name="e_fr_energy">   -813.85853015 </i>
    <i name="e_wo_entrp">   -813.84141045 </i>
    <i name="e_0_energy">   -813.84997030 </i>
   </energy>
  </scstep>
  <scstep>
   <time name="diag">    3.91    3.93</time>
   <time name="diis">   34.40   34.63</time>
   <time name="orth">    0.42    0.43</time>
   <time name="total">   41.46   41.73</time>
   <energy>
    <i name="e_fr_energy">   -813.85862861 </i>
    <i name="e_wo_entrp">   -813.84144240 </i>
    <i name="e_0_energy">   -813.85003551 </i>
   </energy>
  </scstep>
  <scstep>
   <time name="diag">    3.52    3.54</time>
   <time name="diis">   29.22   29.42</time>
   <time name="orth">    0.47    0.47</time>
   <time name="total">   36.15   36.38</time>
   <energy>
    <i name="e_fr_energy">   -813.85863866 </i>
    <i name="e_wo_entrp">   -813.84141345 </i>
    <i name="e_0_energy">   -813.85002605 </i>
   </energy>
  </scstep>
  <scstep>
   <time name="diag">    4.30    4.32</time>
   <time name="diis">   28.31   28.48</time>
   <time name="orth">    0.47    0.47</time>
   <time name="total">   36.16   36.38</time>
   <energy>
    <i name="e_fr_energy">   -813.85865126 </i>
    <i name="e_wo_entrp">   -813.84140906 </i>
    <i name="e_0_energy">   -813.85003016 </i>
   </energy>
  </scstep>
  <scstep>
   <time name="diag">    4.31    4.34</time>
   <time name="diis">   28.16   28.35</time>
   <time name="orth">    0.42    0.43</time>
   <time name="total">   35.68   35.91</time>
   <energy>
    <i name="e_fr_energy">   -813.85865214 </i>
    <i name="e_wo_entrp">   -813.84140868 </i>
    <i name="e_0_energy">   -813.85003041 </i>
   </energy>
  </scstep>
  <scstep>
   <time name="diag">    3.83    3.85</time>
   <time name="diis">   30.32   30.86</time>
   <time name="orth">    0.47    0.47</time>
   <time name="total">   37.64   38.21</time>
   <energy>
    <i name="e_fr_energy">   -813.85865728 </i>
    <i name="e_wo_entrp">   -813.84140766 </i>
    <i name="e_0_energy">   -813.85003247 </i>
   </energy>
  </scstep>
  <scstep>
   <time name="diag">    3.98    4.00</time>
   <time name="diis">   22.75   22.89</time>
   <time name="orth">    0.47    0.47</time>
   <time name="total">   30.28   30.45</time>
   <energy>
    <i name="e_fr_energy">   -813.85865876 </i>
    <i name="e_wo_entrp">   -813.84140907 </i>
    <i name="e_0_energy">   -813.85003392 </i>
   </energy>
  </scstep>
  <scstep>
   <time name="diag">    4.29    4.31</time>
   <time name="diis">   23.02   23.18</time>
   <time name="orth">    0.42    0.42</time>
   <time name="total">   28.97   29.16</time>
   <energy>
    <i name="alphaZ">   3514.54571391 </i>
    <i name="ewald"> -37023.76834389 </i>
    <i name="hartreedc"> -18318.70899589 </i>
    <i name="XCdc">   2568.41785233 </i>
    <i name="pawpsdc">  39635.47854242 </i>
    <i name="pawaedc"> -39517.17543487 </i>
    <i name="eentropy">     -0.01725040 </i>
    <i name="bandstr">  -8021.01936674 </i>
    <i name="atom">  56348.38862387 </i>
    <i name="e_fr_energy">   -813.85865927 </i>
    <i name="e_wo_entrp">   -813.84140887 </i>
    <i name="e_0_energy">   -813.85003407 </i>
   </energy>
  </scstep>
  <structure>
   <crystal>
    <varray name="basis" >
     <v>      22.78514290       0.00000000       0.00000000 </v>
     <v>       0.00000000       3.87685037       0.00000000 </v>
     <v>      -9.97305163       0.00000241      15.12824818 </v>
    </varray>
    <i name="volume">   1336.34759474 </i>
    <varray name="rec_basis" >
     <v>       0.04388825       0.00000000       0.02893261 </v>
     <v>       0.00000000       0.25794135      -0.00000004 </v>
     <v>       0.00000000       0.00000000       0.06610151 </v>
    </varray>
   </crystal>
   <varray name="positions" >
    <v>       0.35371009       0.56507315       0.61031280 </v>
    <v>       0.36719377       0.00785322       0.04554615 </v>
    <v>       0.63481886       0.00823585       0.95525155 </v>
    <v>       0.86656351       0.50801510       0.04630443 </v>
    <v>       0.13135286       0.50922247       0.95485192 </v>
    <v>       0.24893815       0.00349116       0.13692519 </v>
    <v>       0.75270558       0.00310204       0.86209078 </v>
    <v>       0.74839177       0.50322903       0.13821325 </v>
    <v>       0.24954700       0.50349507       0.86445309 </v>
    <v>       0.12857157       0.99673856       0.22815741 </v>
    <v>       0.86887136       0.99874786       0.76694506 </v>
    <v>       0.63132017       0.49871856       0.23241223 </v>
    <v>       0.37003434       0.49555368       0.77324273 </v>
    <v>       0.41902531       0.96669144       0.37976473 </v>
    <v>       0.58432758       0.96707895       0.61787644 </v>
    <v>       0.91791437       0.46677732       0.38170667 </v>
    <v>       0.08200739       0.46624947       0.62060892 </v>
    <v>       0.29478366       0.00333692       0.46455628 </v>
    <v>       0.70226247       0.00355961       0.52583667 </v>
    <v>       0.79834468       0.50363055       0.47237294 </v>
    <v>       0.20030351       0.50321530       0.52723555 </v>
    <v>       0.46835744       0.00168573       0.71548969 </v>
    <v>       0.53656705       0.00194894       0.28676009 </v>
    <v>       0.96311537       0.50165595       0.71192495 </v>
    <v>       0.03540755       0.50117706       0.28734182 </v>
    <v>       0.99905783       0.25238400       0.99969055 </v>
    <v>       0.50042243       0.75304128       0.00017362 </v>
    <v>       0.00067066       0.49118431       0.50051363 </v>
    <v>       0.50038087       0.99083002       0.49974655 </v>
    <v>       0.14838090       0.00446416       0.99107525 </v>
    <v>       0.85046526       0.00415785       0.00950743 </v>
    <v>       0.64932970       0.50435009       0.99071917 </v>
    <v>       0.35075532       0.50402998       0.00875481 </v>
    <v>       0.30311708       0.00283312       0.08102242 </v>
    <v>       0.69643197       0.00377513       0.91790790 </v>
    <v>       0.80322318       0.50341872       0.08200113 </v>
    <v>       0.19646519       0.50214594       0.92013731 </v>
    <v>       0.03328311       0.99868325       0.09840149 </v>
    <v>       0.96567664       0.00050578       0.90199394 </v>
    <v>       0.53437593       0.50166024       0.09813246 </v>
    <v>       0.46598165       0.49959004       0.90098006 </v>
    <v>       0.44960161       0.00413185       0.15546391 </v>
    <v>       0.55025887       0.00341008       0.84409352 </v>
    <v>       0.94977508       0.50361339       0.15633956 </v>
    <v>       0.05001613       0.50504791       0.84440961 </v>
    <v>       0.17954361       0.00148790       0.17701414 </v>
    <v>       0.82041163       0.00327044       0.82295712 </v>
    <v>       0.67995912       0.50305122       0.17700391 </v>
    <v>       0.31769980       0.49990982       0.82139497 </v>
    <v>       0.04937933       0.00107779       0.27074197 </v>
    <v>       0.95031269       0.00186076       0.73008013 </v>
    <v>       0.54972258       0.50186734       0.26940054 </v>
    <v>       0.44946057       0.50153043       0.72535018 </v>
    <v>       0.32549906       0.99939271       0.24941851 </v>
    <v>       0.67513676       0.99915464       0.75021040 </v>
    <v>       0.82557729       0.49918384       0.25013932 </v>
    <v>       0.17347542       0.49992641       0.75141481 </v>
    <v>       0.47646379       0.99877365       0.32608689 </v>
    <v>       0.52474080       0.99948662       0.67287777 </v>
    <v>       0.97660523       0.49917705       0.32749973 </v>
    <v>       0.02380087       0.49799893       0.67342410 </v>
    <v>       0.20615289       0.00187701       0.34806778 </v>
    <v>       0.79277843       0.00196648       0.65100750 </v>
    <v>       0.70748414       0.50225221       0.34877146 </v>
    <v>       0.29775438       0.50210690       0.65085267 </v>
    <v>       0.35252621       0.00050307       0.42362825 </v>
    <v>       0.64804571       0.99935855       0.57403224 </v>
    <v>       0.85300464       0.50020713       0.42566503 </v>
    <v>       0.14935719       0.50019996       0.57768433 </v>
    <v>       0.22206295       0.00281567       0.52042357 </v>
    <v>       0.77876050       0.00310443       0.48099946 </v>
    <v>       0.72189859       0.50296379       0.51842114 </v>
    <v>       0.28148913       0.50294818       0.48233597 </v>
    <v>       0.37743333       0.00248271       0.59608921 </v>
    <v>       0.62189346       0.00271645       0.40369255 </v>
    <v>       0.87826016       0.50280785       0.59588031 </v>
    <v>       0.12248097       0.50235353       0.40508533 </v>
    <v>       0.09099283       0.99230880       0.63085787 </v>
    <v>       0.91013738       0.99276479       0.36913101 </v>
    <v>       0.59027195       0.49266757       0.63107734 </v>
    <v>       0.40993949       0.49244475       0.36885625 </v>
    <v>       0.39441530       0.00009176       0.77006955 </v>
    <v>       0.60582110       0.00130386       0.23156100 </v>
    <v>       0.89449466       0.50110185       0.76818375 </v>
    <v>       0.10581132       0.50001577       0.23154439 </v>
    <v>       0.27525577       0.00305117       0.89672917 </v>
    <v>       0.72406638       0.00369820       0.10280196 </v>
    <v>       0.77561384       0.50365230       0.89685593 </v>
    <v>       0.22420713       0.50351695       0.10389253 </v>
    <v>       0.42900496       0.00420257       0.98697687 </v>
    <v>       0.57130847       0.00410053       0.01281250 </v>
    <v>       0.92787384       0.50320041       0.98655105 </v>
    <v>       0.07075940       0.50420013       0.01345175 </v>
   </varray>
  </structure>
  <varray name="forces" >
   <v>       0.66024789      -0.80806021      -0.30838923 </v>
   <v>       0.00025569       0.00164686      -0.00057314 </v>
   <v>      -0.00316769       0.00105258      -0.00214469 </v>
   <v>       0.00763327       0.00159068       0.00812724 </v>
   <v>      -0.00034619       0.00150278      -0.00009607 </v>
   <v>      -0.00214215       0.00058258       0.00457100 </v>
   <v>      -0.00171599       0.00007305      -0.00366324 </v>
   <v>      -0.00144351       0.00007439      -0.00144101 </v>
   <v>      -0.00220594      -0.00027298      -0.00455168 </v>
   <v>       0.00361961       0.00072118       0.00489477 </v>
   <v>       0.00047185       0.00137733      -0.00143845 </v>
   <v>       0.00040070       0.00147224      -0.00239340 </v>
   <v>      -0.14959621      -0.07046540       0.20319430 </v>
   <v>      -0.00332054      -0.00409638       0.01061744 </v>
   <v>      -0.01238547      -0.00399115      -0.00525794 </v>
   <v>      -0.00174651      -0.00258447       0.00391858 </v>
   <v>       0.01203329      -0.00518545       0.00130593 </v>
   <v>       0.07849017       0.16773549      -0.04187563 </v>
   <v>      -0.00073995      -0.00082268      -0.00036892 </v>
   <v>       0.00096732      -0.00071183       0.00032213 </v>
   <v>      -0.15624038      -0.03991305      -0.03610418 </v>
   <v>       0.07104893       0.14135695      -0.04302602 </v>
   <v>       0.00072028       0.00098742      -0.00060840 </v>
   <v>       0.00098810       0.00067722      -0.00161223 </v>
   <v>       0.00946301       0.00017558       0.02250155 </v>
   <v>       0.00050481      -0.00167100       0.00496350 </v>
   <v>      -0.00160937       0.00257778      -0.01313245 </v>
   <v>      -0.00237125      -0.00367175      -0.00678683 </v>
   <v>       0.00572134      -0.00175291      -0.00241351 </v>
   <v>      -0.00399640       0.00083286       0.00245660 </v>
   <v>      -0.00115978       0.00075333      -0.00309028 </v>
   <v>      -0.00075545       0.00127114      -0.00214525 </v>
   <v>      -0.00147031       0.00087716       0.00311166 </v>
   <v>      -0.00137452       0.00087913       0.00450567 </v>
   <v>       0.00039168       0.00147894       0.00009581 </v>
   <v>       0.00208576       0.00152806      -0.00234797 </v>
   <v>      -0.00488685       0.00099451       0.00255454 </v>
   <v>      -0.00126530       0.00116769       0.00071072 </v>
   <v>      -0.00173307      -0.00004342       0.00084749 </v>
   <v>       0.00174269      -0.00047356       0.00038032 </v>
   <v>      -0.00096728       0.00109053       0.00200117 </v>
   <v>       0.00114379       0.00112068       0.00114695 </v>
   <v>       0.00110177       0.01190091      -0.00365731 </v>
   <v>       0.00236183       0.00132664       0.00237310 </v>
   <v>      -0.00144152       0.00120258       0.00212802 </v>
   <v>       0.00174686       0.00068139      -0.00213712 </v>
   <v>      -0.00182107       0.00110163      -0.00036511 </v>
   <v>       0.00448580       0.00140628      -0.00559187 </v>
   <v>       0.01498088      -0.00397205      -0.01688808 </v>
   <v>      -0.00116482      -0.00004752      -0.00622308 </v>
   <v>      -0.00054856       0.00084456       0.00171048 </v>
   <v>       0.00102719       0.00070081      -0.00005649 </v>
   <v>      -0.14016962       0.13982729      -0.09627347 </v>
   <v>      -0.00338499      -0.00020103      -0.00009177 </v>
   <v>       0.00152374      -0.00083300       0.00225995 </v>
   <v>      -0.00124799      -0.00139544      -0.00102893 </v>
   <v>      -0.00208625      -0.00203372       0.00262580 </v>
   <v>       0.00323802      -0.00006980      -0.00126066 </v>
   <v>      -0.00566396      -0.00201083       0.01164339 </v>
   <v>      -0.00012159      -0.00107500      -0.00352108 </v>
   <v>      -0.00225810      -0.00081969       0.00227151 </v>
   <v>       0.01111548       0.01257184       0.01454655 </v>
   <v>       0.00039842       0.00039649      -0.00039465 </v>
   <v>       0.00421660       0.00095554      -0.00206879 </v>
   <v>      -0.46207905      -0.00132954       0.14961647 </v>
   <v>      -0.01367033      -0.00337107      -0.00289035 </v>
   <v>       0.00394469      -0.00165142      -0.00077639 </v>
   <v>       0.00418270      -0.00159637      -0.00067976 </v>
   <v>       0.00394957      -0.00226713      -0.00106039 </v>
   <v>       0.02671765      -0.02718730      -0.02471763 </v>
   <v>       0.00141410      -0.00000739       0.00105412 </v>
   <v>      -0.00031401      -0.00034488      -0.00174320 </v>
   <v>      -0.02717399       0.13562778       0.16740345 </v>
   <v>       0.04539170       0.36972081      -0.01151548 </v>
   <v>       0.00399160       0.00081708      -0.00080896 </v>
   <v>      -0.00105841       0.00072892      -0.00033092 </v>
   <v>      -0.00324752      -0.00075117      -0.00197727 </v>
   <v>      -0.00698465       0.00075620       0.00340167 </v>
   <v>       0.00148310      -0.00181661      -0.00371404 </v>
   <v>       0.00182604      -0.00029169       0.00113972 </v>
   <v>       0.00143273       0.00071998      -0.00421280 </v>
   <v>       0.03887447      -0.03019789       0.02682380 </v>
   <v>       0.00103867       0.00091353      -0.00075792 </v>
   <v>      -0.00178956       0.00048706       0.00020075 </v>
   <v>       0.00168794       0.00010461       0.00107896 </v>
   <v>      -0.00515198       0.00035046       0.00678480 </v>
   <v>       0.00069486       0.00123970      -0.00228302 </v>
   <v>       0.00212355       0.00081757       0.00083140 </v>
   <v>      -0.00001383       0.00079132       0.00099619 </v>
   <v>      -0.00353811       0.00006624       0.00060888 </v>
   <v>       0.00277898       0.00298060      -0.00180982 </v>
   <v>      -0.00158708       0.00176670      -0.00094983 </v>
   <v>      -0.00250202       0.00058411       0.00152032 </v>
  </varray>
  <varray name="stress" >
   <v>       8.62723482       1.13142513      -2.40729328 </v>
   <v>       1.13142287       6.49866598      -0.49282356 </v>
   <v>      -2.40727876      -0.49282362       6.06397425 </v>
  </varray>
  <energy>
   <i name="e_fr_energy">   -813.85865927 </i>
   <i name="e_wo_entrp">   -813.84140887 </i>
   <i name="e_0_energy">   -813.85003407 </i>
  </energy>
  <time name="totalsc"> 1471.77 1482.97</time>
 </calculation>
 <calculation>
  <scstep>
   <time name="dav">   40.99   41.27</time>
   <time name="total">   43.78   44.07</time>
   <energy>
    <i name="alphaZ">   3514.54571391 </i>
    <i name="ewald"> -37026.61893382 </i>
    <i name="hartreedc"> -18315.87058938 </i>
    <i name="XCdc">   2568.41380471 </i>
    <i name="pawpsdc">  39635.49605564 </i>
    <i name="pawaedc"> -39517.19227131 </i>
    <i name="eentropy">     -0.01727346 </i>
    <i name="bandstr">  -8021.00957290 </i>
    <i name="atom">  56348.38862387 </i>
    <i name="e_fr_energy">   -813.86444275 </i>
    <i name="e_wo_entrp">   -813.84716928 </i>
    <i name="e_0_energy">   -813.85580601 </i>
   </energy>
  </scstep>
  <scstep>
   <time name="diag">    3.91    3.94</time>
   <time name="diis">   34.60   35.21</time>
   <time name="orth">    0.48    0.48</time>
   <time name="total">   42.02   42.66</time>
   <energy>
    <i name="e_fr_energy">   -813.86937856 </i>
    <i name="e_wo_entrp">   -813.85210646 </i>
    <i name="e_0_energy">   -813.86074251 </i>
   </energy>
  </scstep>
  <scstep>
   <time name="diag">    4.17    4.19</time>
   <time name="diis">   30.75   30.94</time>
   <time name="orth">    0.48    0.48</time>
   <time name="total">   38.50   38.73</time>
   <energy>
    <i name="e_fr_energy">   -813.87050651 </i>
    <i name="e_wo_entrp">   -813.85321269 </i>
    <i name="e_0_energy">   -813.86185960 </i>
   </energy>
  </scstep>
  <scstep>
   <time name="diag">    4.29    4.32</time>
   <time name="diis">   33.88   34.11</time>
   <time name="orth">    0.43    0.43</time>
   <time name="total">   41.47   41.74</time>
   <energy>
    <i name="e_fr_energy">   -813.87060451 </i>
    <i name="e_wo_entrp">   -813.85332564 </i>
    <i name="e_0_energy">   -813.86196507 </i>
   </energy>
  </scstep>
  <scstep>
   <time name="diag">    4.09    4.11</time>
   <time name="diis">   34.42   35.19</time>
   <time name="orth">    0.43    0.43</time>
   <time name="total">   41.29   42.08</time>
   <energy>
    <i name="e_fr_energy">   -813.87059727 </i>
    <i name="e_wo_entrp">   -813.85330690 </i>
    <i name="e_0_energy">   -813.86195209 </i>
   </energy>
  </scstep>
  <scstep>
   <time name="diag">    3.53    3.55</time>
   <time name="diis">   30.41   30.61</time>
   <time name="orth">    0.47    0.48</time>
   <time name="total">   37.31   37.54</time>
   <energy>
    <i name="e_fr_energy">   -813.87059232 </i>
    <i name="e_wo_entrp">   -813.85330720 </i>
    <i name="e_0_energy">   -813.86194976 </i>
   </energy>
  </scstep>
  <scstep>
   <time name="diag">    4.30    4.32</time>
   <time name="diis">   27.55   27.73</time>
   <time name="orth">    0.45    0.45</time>
   <time name="total">   35.03   35.25</time>
   <energy>
    <i name="e_fr_energy">   -813.87059167 </i>
    <i name="e_wo_entrp">   -813.85330830 </i>
    <i name="e_0_energy">   -813.86194999 </i>
   </energy>
  </scstep>
  <scstep>
   <time name="diag">    4.01    4.03</time>
   <time name="diis">   28.19   28.82</time>
   <time name="orth">    0.47    0.47</time>
   <time name="total">   35.49   36.16</time>
   <energy>
    <i name="e_fr_energy">   -813.87059114 </i>
    <i name="e_wo_entrp">   -813.85330488 </i>
    <i name="e_0_energy">   -813.86194801 </i>
   </energy>
  </scstep>
  <scstep>
   <time name="diag">    3.54    3.56</time>
   <time name="diis">   20.44   20.55</time>
   <time name="orth">    0.48    0.48</time>
   <time name="total">   27.51   27.66</time>
   <energy>
    <i name="e_fr_energy">   -813.87059219 </i>
    <i name="e_wo_entrp">   -813.85330811 </i>
    <i name="e_0_energy">   -813.86195015 </i>
   </energy>
  </scstep>
  <scstep>
   <time name="diag">    4.28    4.31</time>
   <time name="diis">   19.33   19.47</time>
   <time name="orth">    0.47    0.47</time>
   <time name="total">   25.28   25.45</time>
   <energy>
    <i name="alphaZ">   3514.54571391 </i>
    <i name="ewald"> -37026.61893382 </i>
    <i name="hartreedc"> -18316.19514265 </i>
    <i name="XCdc">   2568.42432388 </i>
    <i name="pawpsdc">  39636.94977584 </i>
    <i name="pawaedc"> -39518.65119003 </i>
    <i name="eentropy">     -0.01728526 </i>
    <i name="bandstr">  -8020.69647771 </i>
    <i name="atom">  56348.38862387 </i>
    <i name="e_fr_energy">   -813.87059196 </i>
    <i name="e_wo_entrp">   -813.85330670 </i>
    <i name="e_0_energy">   -813.86194933 </i>
   </energy>
  </scstep>
  <structure>
   <crystal>
    <varray name="basis" >
     <v>      22.78514290       0.00000000       0.00000000 </v>
     <v>       0.00000000       3.87685037       0.00000000 </v>
     <v>      -9.97305163       0.00000241      15.12824818 </v>
    </varray>
    <i name="volume">   1336.34759474 </i>
    <varray name="rec_basis" >
     <v>       0.04388825       0.00000000       0.02893261 </v>
     <v>       0.00000000       0.25794135      -0.00000004 </v>
     <v>       0.00000000       0.00000000       0.06610151 </v>
    </varray>
   </crystal>
   <varray name="positions" >
    <v>       0.35369680       0.56508412       0.61019415 </v>
    <v>       0.36719159       0.00785687       0.04555369 </v>
    <v>       0.63480382       0.00823434       0.95523427 </v>
    <v>       0.86655117       0.50801993       0.04628595 </v>
    <v>       0.13135363       0.50923351       0.95485679 </v>
    <v>       0.24893464       0.00349589       0.13693875 </v>
    <v>       0.75269251       0.00310412       0.86207592 </v>
    <v>       0.74837967       0.50322788       0.13820701 </v>
    <v>       0.24954491       0.50349187       0.86445228 </v>
    <v>       0.12859532       0.99675183       0.22819716 </v>
    <v>       0.86887329       0.99875221       0.76694744 </v>
    <v>       0.63132213       0.49872223       0.23241961 </v>
    <v>       0.37004033       0.49521012       0.77353387 </v>
    <v>       0.41902683       0.96666968       0.37977413 </v>
    <v>       0.58430832       0.96706102       0.61786233 </v>
    <v>       0.91790819       0.46677083       0.38170975 </v>
    <v>       0.08202199       0.46623896       0.62060267 </v>
    <v>       0.29485816       0.00417126       0.46454947 </v>
    <v>       0.70226416       0.00355466       0.52584192 </v>
    <v>       0.79835073       0.50362767       0.47238491 </v>
    <v>       0.20011672       0.50301041       0.52712996 </v>
    <v>       0.46837391       0.00238080       0.71540814 </v>
    <v>       0.53656910       0.00195096       0.28676337 </v>
    <v>       0.96312425       0.50165926       0.71192935 </v>
    <v>       0.03538784       0.50118144       0.28731463 </v>
    <v>       0.99906509       0.25236822       0.99970449 </v>
    <v>       0.50042024       0.75305253       0.00017089 </v>
    <v>       0.00065863       0.49116177       0.50050234 </v>
    <v>       0.50039069       0.99082728       0.49973305 </v>
    <v>       0.14838362       0.00446841       0.99108293 </v>
    <v>       0.85045284       0.00415846       0.00948687 </v>
    <v>       0.64932384       0.50435653       0.99071205 </v>
    <v>       0.35075784       0.50403424       0.00876930 </v>
    <v>       0.30312157       0.00284148       0.08104075 </v>
    <v>       0.69642893       0.00378304       0.91790139 </v>
    <v>       0.80321742       0.50342445       0.08198713 </v>
    <v>       0.19645983       0.50214881       0.92013726 </v>
    <v>       0.03329058       0.99869702       0.09840929 </v>
    <v>       0.96567388       0.00049642       0.90199987 </v>
    <v>       0.53437808       0.50165763       0.09814363 </v>
    <v>       0.46599182       0.49960571       0.90098945 </v>
    <v>       0.44960560       0.00413278       0.15546975 </v>
    <v>       0.55025261       0.00346421       0.84408457 </v>
    <v>       0.94976537       0.50361606       0.15632456 </v>
    <v>       0.05001784       0.50505552       0.84441554 </v>
    <v>       0.17954866       0.00149858       0.17702336 </v>
    <v>       0.82040285       0.00327344       0.82295000 </v>
    <v>       0.67995769       0.50305646       0.17699836 </v>
    <v>       0.31773444       0.49989688       0.82142294 </v>
    <v>       0.04936521       0.00108027       0.27072644 </v>
    <v>       0.95031623       0.00186460       0.73008403 </v>
    <v>       0.54972644       0.50186796       0.26940631 </v>
    <v>       0.44930834       0.50221906       0.72527431 </v>
    <v>       0.32549433       0.99939603       0.24942664 </v>
    <v>       0.67512857       0.99915542       0.75020578 </v>
    <v>       0.82557148       0.49917735       0.25012948 </v>
    <v>       0.17349009       0.49991413       0.75141451 </v>
    <v>       0.47646250       0.99876900       0.32608336 </v>
    <v>       0.52471423       0.99947621       0.67285740 </v>
    <v>       0.97659565       0.49917595       0.32748360 </v>
    <v>       0.02380453       0.49800236       0.67343029 </v>
    <v>       0.20617803       0.00193724       0.34810231 </v>
    <v>       0.79278128       0.00196764       0.65100857 </v>
    <v>       0.70748901       0.50225476       0.34877375 </v>
    <v>       0.29742551       0.50209214       0.65107988 </v>
    <v>       0.35253589       0.00048962       0.42366421 </v>
    <v>       0.64805102       0.99934896       0.57403626 </v>
    <v>       0.85300412       0.50019970       0.42566102 </v>
    <v>       0.14933868       0.50018468       0.57764968 </v>
    <v>       0.22208395       0.00267479       0.52042922 </v>
    <v>       0.77876267       0.00310378       0.48100390 </v>
    <v>       0.72189813       0.50296151       0.51842051 </v>
    <v>       0.28152830       0.50361886       0.48253178 </v>
    <v>       0.37743456       0.00431596       0.59609690 </v>
    <v>       0.62189536       0.00271839       0.40369576 </v>
    <v>       0.87826295       0.50281076       0.59588153 </v>
    <v>       0.12246359       0.50234710       0.40506428 </v>
    <v>       0.09099039       0.99231984       0.63086746 </v>
    <v>       0.91013452       0.99275873       0.36911983 </v>
    <v>       0.59026871       0.49266875       0.63107801 </v>
    <v>       0.40993077       0.49244945       0.36885334 </v>
    <v>       0.39442833      -0.00006348       0.77007414 </v>
    <v>       0.60582296       0.00130528       0.23156598 </v>
    <v>       0.89449349       0.50110268       0.76818548 </v>
    <v>       0.10581194       0.50002148       0.23155301 </v>
    <v>       0.27525767       0.00305268       0.89674529 </v>
    <v>       0.72406415       0.00370285       0.10279694 </v>
    <v>       0.77561241       0.50365588       0.89685114 </v>
    <v>       0.22420807       0.50352340       0.10389784 </v>
    <v>       0.42900883       0.00420535       0.98698465 </v>
    <v>       0.57131292       0.00412855       0.01282194 </v>
    <v>       0.92787498       0.50319881       0.98655657 </v>
    <v>       0.07076158       0.50419642       0.01345473 </v>
   </varray>
  </structure>
  <varray name="forces" >
   <v>       0.59404726      -0.79216268      -0.26586253 </v>
   <v>      -0.00304432       0.00118740       0.00639050 </v>
   <v>      -0.00038566       0.00099320      -0.00751279 </v>
   <v>       0.00464077       0.00153242       0.00458376 </v>
   <v>      -0.00668920       0.00138413       0.00260325 </v>
   <v>      -0.00418181       0.00060289      -0.00041498 </v>
   <v>      -0.00097198       0.00013993       0.00459462 </v>
   <v>       0.00180370       0.00009510      -0.00268672 </v>
   <v>      -0.01890262       0.00005712       0.00745200 </v>
   <v>       0.00347315       0.00066642       0.00380442 </v>
   <v>      -0.00160083       0.00138803       0.00121392 </v>
   <v>       0.00332135       0.00150634      -0.00202326 </v>
   <v>      -0.02085529      -0.06435036       0.01708968 </v>
   <v>       0.00971408      -0.00342552      -0.00358226 </v>
   <v>       0.00479975      -0.00368717       0.00080886 </v>
   <v>      -0.00597563      -0.00257050      -0.00159286 </v>
   <v>      -0.00081533      -0.00422777      -0.00270496 </v>
   <v>      -0.01300596       0.15621313       0.00075249 </v>
   <v>       0.00167929      -0.00063030      -0.00049889 </v>
   <v>       0.00084486      -0.00064383      -0.00023673 </v>
   <v>      -0.02352628      -0.03528773       0.01785099 </v>
   <v>      -0.02794430       0.13488658      -0.00484588 </v>
   <v>       0.00386827       0.00101601      -0.00006375 </v>
   <v>      -0.00260127       0.00070298      -0.00044506 </v>
   <v>       0.00152866       0.00024556       0.00992887 </v>
   <v>      -0.00291292       0.00019622       0.00020333 </v>
   <v>       0.00655184       0.00571915       0.00877781 </v>
   <v>       0.00224182      -0.00358925       0.00254700 </v>
   <v>       0.00202811      -0.00144598      -0.00301861 </v>
   <v>      -0.00354679       0.00092559       0.00171947 </v>
   <v>      -0.00083765       0.00084429      -0.00179118 </v>
   <v>      -0.00171141       0.00156338      -0.00173344 </v>
   <v>      -0.00086412       0.00108310      -0.00002724 </v>
   <v>       0.00245084       0.00096781       0.00304732 </v>
   <v>       0.00064589       0.00145378      -0.00016497 </v>
   <v>       0.00194467       0.00149968      -0.00168690 </v>
   <v>       0.00580718       0.00091842      -0.00206684 </v>
   <v>      -0.00094255      -0.00025617       0.00383888 </v>
   <v>      -0.00167859       0.00044984       0.00195666 </v>
   <v>       0.00194694       0.00453549      -0.00851340 </v>
   <v>       0.00326222      -0.00395653       0.01628300 </v>
   <v>      -0.00015723       0.00118381      -0.00164943 </v>
   <v>       0.00453271       0.01725406      -0.00372426 </v>
   <v>       0.00461526       0.00134470       0.00772861 </v>
   <v>      -0.00084979       0.00122793       0.00225959 </v>
   <v>       0.00043300       0.00059357      -0.00108586 </v>
   <v>       0.00086645       0.00111957      -0.00204751 </v>
   <v>       0.00049201       0.00140845      -0.00380019 </v>
   <v>      -0.11469767      -0.00544840       0.05935627 </v>
   <v>      -0.00080229      -0.00018751      -0.00435984 </v>
   <v>       0.00001503       0.00085250       0.00136830 </v>
   <v>       0.00091026       0.00065816      -0.00030722 </v>
   <v>      -0.10206228       0.13248845      -0.09828172 </v>
   <v>      -0.00164319      -0.00022160       0.00681111 </v>
   <v>      -0.00229518      -0.00095379      -0.00609987 </v>
   <v>      -0.00103118      -0.00140585      -0.00053344 </v>
   <v>       0.00050519      -0.00174923       0.00243871 </v>
   <v>      -0.00339944      -0.00033281       0.00207499 </v>
   <v>       0.04757986       0.00084544      -0.00823794 </v>
   <v>       0.00394570      -0.00099251      -0.00363974 </v>
   <v>       0.00456287      -0.00089265      -0.00013567 </v>
   <v>       0.01216971       0.01779978       0.00793620 </v>
   <v>       0.00022246       0.00037282      -0.00077518 </v>
   <v>       0.00380149       0.00090048      -0.00327722 </v>
   <v>      -0.37216294       0.00542305       0.15626044 </v>
   <v>       0.03849532       0.00042291      -0.02261452 </v>
   <v>      -0.00321406      -0.00185847       0.00080241 </v>
   <v>       0.00309603      -0.00158583       0.00008651 </v>
   <v>      -0.07971970      -0.00377575       0.01851386 </v>
   <v>       0.00706774      -0.01311330      -0.03126210 </v>
   <v>       0.00158577       0.00000180       0.00074935 </v>
   <v>      -0.00006943      -0.00046472      -0.00162137 </v>
   <v>      -0.00559130       0.13154863       0.13946272 </v>
   <v>       0.04408166       0.32476531      -0.01847809 </v>
   <v>       0.00279970       0.00082436      -0.00156202 </v>
   <v>      -0.00051101       0.00067543      -0.00025795 </v>
   <v>      -0.01864817      -0.00158747      -0.03588300 </v>
   <v>      -0.00525604      -0.00031599       0.00342761 </v>
   <v>       0.00214725      -0.00188781      -0.00333290 </v>
   <v>      -0.00056945      -0.00087499       0.00036584 </v>
   <v>      -0.00070163      -0.00042694      -0.00210018 </v>
   <v>       0.02283899      -0.01778605       0.04167876 </v>
   <v>       0.00102787       0.00103898      -0.00063726 </v>
   <v>      -0.00129908       0.00056900      -0.00024718 </v>
   <v>       0.00245716       0.00061737       0.00227204 </v>
   <v>      -0.00262442       0.00025595       0.00211367 </v>
   <v>       0.00050626       0.00128199      -0.00143675 </v>
   <v>       0.00188033       0.00077402      -0.00030031 </v>
   <v>       0.00029748       0.00077873       0.00129566 </v>
   <v>      -0.00462102       0.00125407      -0.00222228 </v>
   <v>      -0.00495654      -0.00054084      -0.00235368 </v>
   <v>       0.00117036       0.00039003      -0.00049886 </v>
   <v>      -0.00082702       0.00119098       0.00178732 </v>
  </varray>
  <varray name="stress" >
   <v>       9.12184205       1.02496125      -2.58203696 </v>
   <v>       1.02495914       6.14326888      -0.42834026 </v>
   <v>      -2.58202266      -0.42834233       6.19752239 </v>
  </varray>
  <energy>
   <i name="e_fr_energy">   -813.87059196 </i>
   <i name="e_wo_entrp">   -813.85330670 </i>
   <i name="e_0_energy">   -813.86194933 </i>
  </energy>
  <time name="totalsc">  696.87  703.00</time>
 </calculation>
 <calculation>
[...]
        <r>  0.0000  0.0000  0.0000  0.0001  0.0000  0.0000  0.0000  0.0000  0.0000 </r>
        <r>  0.0023  0.0001  0.0160  0.0029  0.0000  0.0000  0.0000  0.0000  0.0000 </r>
        <r>  0.0017  0.0001  0.0148  0.0018  0.0000  0.0000  0.0000  0.0000  0.0000 </r>
        <r>  0.0000  0.0000  0.0002  0.0001  0.0000  0.0000  0.0000  0.0000  0.0000 </r>
        <r>  0.0001  0.0000  0.0002  0.0002  0.0000  0.0000  0.0000  0.0000  0.0000 </r>
        <r>  0.0006  0.0000  0.0064  0.0004  0.0000  0.0000  0.0000  0.0000  0.0000 </r>
        <r>  0.0006  0.0000  0.0061  0.0001  0.0000  0.0000  0.0000  0.0000  0.0000 </r>
        <r>  0.0000  0.0000  0.0000  0.0000  0.0000  0.0000  0.0000  0.0000  0.0000 </r>
        <r>  0.0000  0.0001  0.0000  0.0000  0.0000  0.0000  0.0000  0.0000  0.0000 </r>
        <r>  0.0003  0.0000  0.0038  0.0022  0.0000  0.0000  0.0000  0.0000  0.0000 </r>
        <r>  0.0003  0.0000  0.0052  0.0016  0.0000  0.0000  0.0000  0.0000  0.0000 </r>
        <r>  0.0000  0.0000  0.0001  0.0000  0.0000  0.0000  0.0000  0.0000  0.0000 </r>
        <r>  0.0000  0.0000  0.0001  0.0001  0.0000  0.0000  0.0000  0.0000  0.0000 </r>
        <r>  0.0002  0.0003  0.0000  0.0012  0.0000  0.0000  0.0000  0.0000  0.0000 </r>
        <r>  0.0004  0.0002  0.0002  0.0014  0.0000  0.0000  0.0000  0.0000  0.0000 </r>
        <r>  0.0000  0.0001  0.0000  0.0000  0.0000  0.0000  0.0000  0.0000  0.0000 </r>
        <r>  0.0000  0.0000  0.0000  0.0000  0.0000  0.0000  0.0000  0.0000  0.0000 </r>
        <r>  0.0006  0.0000  0.0041  0.0008  0.0000  0.0000  0.0000  0.0000  0.0000 </r>
        <r>  0.0004  0.0000  0.0041  0.0001  0.0000  0.0000  0.0000  0.0000  0.0000 </r>
        <r>  0.0000  0.0000  0.0003  0.0000  0.0000  0.0000  0.0000  0.0000  0.0000 </r>
        <r>  0.0000  0.0000  0.0002  0.0000  0.0000  0.0000  0.0000  0.0000  0.0000 </r>
        <r>  0.0005  0.0002  0.0032  0.0149  0.0000  0.0000  0.0000  0.0000  0.0000 </r>
        <r>  0.0013  0.0006  0.0043  0.0150  0.0000  0.0000  0.0000  0.0000  0.0000 </r>
        <r>  0.0001  0.0000  0.0002  0.0006  0.0000  0.0000  0.0000  0.0000  0.0000 </r>
        <r>  0.0001  0.0000  0.0002  0.0007  0.0000  0.0000  0.0000  0.0000  0.0000 </r>
        <r>  0.0011  0.0000  0.0235  0.0006  0.0000  0.0000  0.0000  0.0000  0.0000 </r>
        <r>  0.0004  0.0000  0.0210  0.0008  0.0000  0.0000  0.0000  0.0000  0.0000 </r>
        <r>  0.0000  0.0000  0.0005  0.0000  0.0000  0.0000  0.0000  0.0000  0.0000 </r>
        <r>  0.0000  0.0001  0.0006  0.0000  0.0000  0.0000  0.0000  0.0000  0.0000 </r>
        <r>  0.0023  0.0001  0.0020  0.0054  0.0000  0.0000  0.0000  0.0000  0.0000 </r>
        <r>  0.0025  0.0003  0.0007  0.0083  0.0000  0.0000  0.0000  0.0000  0.0000 </r>
        <r>  0.0001  0.0005  0.0000  0.0004  0.0000  0.0000  0.0000  0.0000  0.0000 </r>
        <r>  0.0001  0.0002  0.0000  0.0003  0.0000  0.0000  0.0000  0.0000  0.0000 </r>
        <r>  0.0002  0.0003  0.0000  0.0001  0.0000  0.0000  0.0000  0.0000  0.0000 </r>
        <r>  0.0004  0.0003  0.0000  0.0001  0.0000  0.0000  0.0000  0.0000  0.0000 </r>
        <r>  0.0000  0.0091  0.0000  0.0000  0.0000  0.0000  0.0000  0.0000  0.0000 </r>
        <r>  0.0000  0.0058  0.0000  0.0000  0.0000  0.0000  0.0000  0.0000  0.0000 </r>
        <r>  0.0027  0.0001  0.0001  0.0010  0.0000  0.0000  0.0000  0.0000  0.0000 </r>
        <r>  0.0016  0.0000  0.0001  0.0003  0.0000  0.0000  0.0000  0.0000  0.0000 </r>
        <r>  0.0000  0.0005  0.0000  0.0000  0.0000  0.0000  0.0000  0.0000  0.0000 </r>
        <r>  0.0000  0.0001  0.0001  0.0000  0.0000  0.0000  0.0000  0.0000  0.0000 </r>
        <r>  0.0000  0.0000  0.0000  0.0000  0.0000  0.0000  0.0000  0.0000  0.0000 </r>
        <r>  0.0000  0.0000  0.0000  0.0000  0.0000  0.0000  0.0000  0.0000  0.0000 </r>
        <r>  0.0000  0.0011  0.0000  0.0000  0.0000  0.0000  0.0000  0.0000  0.0000 </r>
        <r>  0.0000  0.0005  0.0000  0.0000  0.0000  0.0000  0.0000  0.0000  0.0000 </r>
        <r>  0.0005  0.0004  0.0001  0.0009  0.0000  0.0000  0.0000  0.0000  0.0000 </r>
        <r>  0.0006  0.0002  0.0004  0.0011  0.0000  0.0000  0.0000  0.0000  0.0000 </r>
        <r>  0.0000  0.0108  0.0001  0.0000  0.0000  0.0000  0.0000  0.0000  0.0000 </r>
        <r>  0.0000  0.0123  0.0000  0.0000  0.0000  0.0000  0.0000  0.0000  0.0000 </r>
        <r>  0.0002  0.0001  0.0006  0.0000  0.0000  0.0000  0.0000  0.0000  0.0000 </r>
        <r>  0.0001  0.0001  0.0004  0.0000  0.0000  0.0000  0.0000  0.0000  0.0000 </r>
        <r>  0.0000  0.0023  0.0000  0.0000  0.0000  0.0000  0.0000  0.0000  0.0000 </r>
        <r>  0.0000  0.0023  0.0000  0.0000  0.0000  0.0000  0.0000  0.0000  0.0000 </r>
        <r>  0.0001  0.0000  0.0001  0.0003  0.0000  0.0000  0.0000  0.0000  0.0000 </r>
        <r>  0.0001  0.0000  0.0000  0.0003  0.0000  0.0000  0.0000  0.0000  0.0000 </r>
        <r>  0.0000  0.0000  0.0006  0.0003  0.0000  0.0000  0.0000  0.0000  0.0000 </r>
        <r>  0.0000  0.0000  0.0006  0.0003  0.0000  0.0000  0.0000  0.0000  0.0000 </r>
       </set>
       <set comment="band 462">
        <r>  0.0019  0.0001  0.0038  0.0226  0.0000  0.0000  0.0000  0.0000  0.0000 </r>
        <r>  0.0000  0.0001  0.0001  0.0001  0.0000  0.0002  0.0001  0.0002  0.0000 </r>
        <r>  0.0000  0.0000  0.0001  0.0000  0.0000  0.0001  0.0000  0.0001  0.0000 </r>
        <r>  0.0002  0.0000  0.0005  0.0000  0.0000  0.0000  0.0004  0.0001  0.0012 </r>
        <r>  0.0000  0.0000  0.0000  0.0001  0.0000  0.0000  0.0003  0.0003  0.0003 </r>
        <r>  0.0000  0.0000  0.0000  0.0000  0.0001  0.0000  0.0000  0.0000  0.0000 </r>
        <r>  0.0000  0.0000  0.0000  0.0000  0.0000  0.0000  0.0001  0.0000  0.0000 </r>
        <r>  0.0000  0.0000  0.0000  0.0000  0.0000  0.0000  0.0002  0.0005  0.0005 </r>
        <r>  0.0002  0.0000  0.0004  0.0000  0.0000  0.0000  0.0001  0.0004  0.0000 </r>
        <r>  0.0000  0.0000  0.0000  0.0000  0.0001  0.0001  0.0000  0.0000  0.0000 </r>
        <r>  0.0000  0.0000  0.0001  0.0000  0.0002  0.0000  0.0004  0.0001  0.0000 </r>
        <r>  0.0001  0.0000  0.0001  0.0002  0.0000  0.0000  0.0020  0.0002  0.0008 </r>
        <r>  0.0001  0.0000  0.0014  0.0000  0.0000  0.0000  0.0032  0.0008  0.0020 </r>
        <r>  0.0005  0.0007  0.0000  0.0000  0.0003  0.0008  0.0001  0.0000  0.0025 </r>
        <r>  0.0006  0.0007  0.0000  0.0000  0.0008  0.0001  0.0003  0.0005  0.0022 </r>
        <r>  0.0012  0.0001  0.0000  0.0000  0.0000  0.0000  0.0000  0.0015  0.0062 </r>
        <r>  0.0001  0.0000  0.0001  0.0000  0.0000  0.0000  0.0026  0.0024  0.0000 </r>
        <r>  0.0001  0.0011  0.0000  0.0002  0.0118  0.0017  0.0000  0.0002  0.0002 </r>
        <r>  0.0001  0.0001  0.0000  0.0002  0.0000  0.0000  0.0000  0.0003  0.0001 </r>
        <r>  0.0002  0.0000  0.0001  0.0004  0.0000  0.0000  0.0013  0.0002  0.0006 </r>
        <r>  0.0004  0.0000  0.0004  0.0009  0.0000  0.0000  0.0072  0.0001  0.0087 </r>
        <r>  0.0001  0.0015  0.0001  0.0003  0.0023  0.0096  0.0006  0.0004  0.0001 </r>
        <r>  0.0001  0.0000  0.0000  0.0001  0.0001  0.0000  0.0010  0.0004  0.0001 </r>
        <r>  0.0000  0.0000  0.0001  0.0001  0.0000  0.0000  0.0000  0.0000  0.0005 </r>
        <r>  0.0002  0.0000  0.0003  0.0003  0.0000  0.0000  0.0041  0.0018  0.0019 </r>
        <r>  0.0000  0.0000  0.0000  0.0000  0.0000  0.0000  0.0000  0.0000  0.0000 </r>
        <r>  0.0001  0.0000  0.0002  0.0000  0.0001  0.0001  0.0000  0.0000  0.0000 </r>
        <r>  0.0002  0.0001  0.0006  0.0001  0.0000  0.0000  0.0000  0.0000  0.0000 </r>
        <r>  0.0003  0.0155  0.0000  0.0000  0.0000  0.0000  0.0000  0.0000  0.0000 </r>
        <r>  0.0000  0.0000  0.0000  0.0000  0.0000  0.0000  0.0000  0.0000  0.0000 </r>
        <r>  0.0000  0.0006  0.0000  0.0000  0.0000  0.0000  0.0000  0.0000  0.0000 </r>
        <r>  0.0000  0.0001  0.0001  0.0000  0.0000  0.0000  0.0000  0.0000  0.0000 </r>
        <r>  0.0001  0.0000  0.0000  0.0000  0.0000  0.0000  0.0000  0.0000  0.0000 </r>
        <r>  0.0000  0.0003  0.0000  0.0000  0.0000  0.0000  0.0000  0.0000  0.0000 </r>
        <r>  0.0000  0.0000  0.0000  0.0000  0.0000  0.0000  0.0000  0.0000  0.0000 </r>
        <r>  0.0000  0.0000  0.0001  0.0001  0.0000  0.0000  0.0000  0.0000  0.0000 </r>
        <r>  0.0000  0.0000  0.0001  0.0002  0.0000  0.0000  0.0000  0.0000  0.0000 </r>
        <r>  0.0000  0.0000  0.0000  0.0000  0.0000  0.0000  0.0000  0.0000  0.0000 </r>
        <r>  0.0000  0.0000  0.0000  0.0000  0.0000  0.0000  0.0000  0.0000  0.0000 </r>
        <r>  0.0000  0.0000  0.0004  0.0000  0.0000  0.0000  0.0000  0.0000  0.0000 </r>
        <r>  0.0003  0.0000  0.0007  0.0000  0.0000  0.0000  0.0000  0.0000  0.0000 </r>
        <r>  0.0001  0.0004  0.0003  0.0000  0.0000  0.0000  0.0000  0.0000  0.0000 </r>
        <r>  0.0001  0.0020  0.0003  0.0000  0.0000  0.0000  0.0000  0.0000  0.0000 </r>
        <r>  0.0001  0.0000  0.0008  0.0001  0.0000  0.0000  0.0000  0.0000  0.0000 </r>
        <r>  0.0000  0.0000  0.0000  0.0000  0.0000  0.0000  0.0000  0.0000  0.0000 </r>
        <r>  0.0000  0.0002  0.0000  0.0000  0.0000  0.0000  0.0000  0.0000  0.0000 </r>
        <r>  0.0000  0.0001  0.0000  0.0000  0.0000  0.0000  0.0000  0.0000  0.0000 </r>
        <r>  0.0001  0.0000  0.0000  0.0001  0.0000  0.0000  0.0000  0.0000  0.0000 </r>
        <r>  0.0002  0.0000  0.0013  0.0000  0.0000  0.0000  0.0000  0.0000  0.0000 </r>
        <r>  0.0000  0.0018  0.0000  0.0000  0.0000  0.0000  0.0000  0.0000  0.0000 </r>
        <r>  0.0000  0.0002  0.0000  0.0000  0.0000  0.0000  0.0000  0.0000  0.0000 </r>
        <r>  0.0000  0.0000  0.0000  0.0001  0.0000  0.0000  0.0000  0.0000  0.0000 </r>
        <r>  0.0023  0.0000  0.0009  0.0067  0.0000  0.0000  0.0000  0.0000  0.0000 </r>
        <r>  0.0001  0.0017  0.0001  0.0000  0.0000  0.0000  0.0000  0.0000  0.0000 </r>
        <r>  0.0001  0.0013  0.0001  0.0001  0.0000  0.0000  0.0000  0.0000  0.0000 </r>
        <r>  0.0001  0.0000  0.0000  0.0000  0.0000  0.0000  0.0000  0.0000  0.0000 </r>
        <r>  0.0001  0.0000  0.0010  0.0000  0.0000  0.0000  0.0000  0.0000  0.0000 </r>
        <r>  0.0001  0.0022  0.0002  0.0005  0.0000  0.0000  0.0000  0.0000  0.0000 </r>
        <r>  0.0002  0.0181  0.0003  0.0007  0.0000  0.0000  0.0000  0.0000  0.0000 </r>
        <r>  0.0005  0.0001  0.0002  0.0006  0.0000  0.0000  0.0000  0.0000  0.0000 </r>
        <r>  0.0000  0.0000  0.0001  0.0002  0.0000  0.0000  0.0000  0.0000  0.0000 </r>
        <r>  0.0000  0.0023  0.0000  0.0000  0.0000  0.0000  0.0000  0.0000  0.0000 </r>
        <r>  0.0000  0.0003  0.0001  0.0001  0.0000  0.0000  0.0000  0.0000  0.0000 </r>
        <r>  0.0000  0.0000  0.0006  0.0000  0.0000  0.0000  0.0000  0.0000  0.0000 </r>
        <r>  0.0009  0.0000  0.0024  0.0004  0.0000  0.0000  0.0000  0.0000  0.0000 </r>
        <r>  0.0002  0.0179  0.0000  0.0006  0.0000  0.0000  0.0000  0.0000  0.0000 </r>
        <r>  0.0001  0.0026  0.0000  0.0006  0.0000  0.0000  0.0000  0.0000  0.0000 </r>
        <r>  0.0004  0.0000  0.0001  0.0009  0.0000  0.0000  0.0000  0.0000  0.0000 </r>
        <r>  0.0000  0.0000  0.0001  0.0009  0.0000  0.0000  0.0000  0.0000  0.0000 </r>
        <r>  0.0000  0.0067  0.0000  0.0000  0.0000  0.0000  0.0000  0.0000  0.0000 </r>
        <r>  0.0000  0.0005  0.0000  0.0000  0.0000  0.0000  0.0000  0.0000  0.0000 </r>
        <r>  0.0001  0.0000  0.0000  0.0001  0.0000  0.0000  0.0000  0.0000  0.0000 </r>
        <r>  0.0023  0.0001  0.0005  0.0065  0.0000  0.0000  0.0000  0.0000  0.0000 </r>
        <r>  0.0001  0.0283  0.0000  0.0003  0.0000  0.0000  0.0000  0.0000  0.0000 </r>
        <r>  0.0001  0.0003  0.0000  0.0002  0.0000  0.0000  0.0000  0.0000  0.0000 </r>
        <r>  0.0000  0.0000  0.0001  0.0000  0.0000  0.0000  0.0000  0.0000  0.0000 </r>
        <r>  0.0001  0.0000  0.0018  0.0001  0.0000  0.0000  0.0000  0.0000  0.0000 </r>
        <r>  0.0000  0.0001  0.0000  0.0000  0.0000  0.0000  0.0000  0.0000  0.0000 </r>
        <r>  0.0000  0.0009  0.0000  0.0000  0.0000  0.0000  0.0000  0.0000  0.0000 </r>
        <r>  0.0022  0.0005  0.0005  0.0011  0.0000  0.0000  0.0000  0.0000  0.0000 </r>
        <r>  0.0023  0.0004  0.0011  0.0001  0.0000  0.0000  0.0000  0.0000  0.0000 </r>
        <r>  0.0000  0.0000  0.0000  0.0000  0.0000  0.0000  0.0000  0.0000  0.0000 </r>
        <r>  0.0000  0.0009  0.0000  0.0000  0.0000  0.0000  0.0000  0.0000  0.0000 </r>
        <r>  0.0000  0.0001  0.0000  0.0001  0.0000  0.0000  0.0000  0.0000  0.0000 </r>
        <r>  0.0000  0.0000  0.0000  0.0000  0.0000  0.0000  0.0000  0.0000  0.0000 </r>
        <r>  0.0000  0.0000  0.0000  0.0000  0.0000  0.0000  0.0000  0.0000  0.0000 </r>
        <r>  0.0000  0.0001  0.0000  0.0000  0.0000  0.0000  0.0000  0.0000  0.0000 </r>
        <r>  0.0000  0.0000  0.0003  0.0000  0.0000  0.0000  0.0000  0.0000  0.0000 </r>
        <r>  0.0000  0.0000  0.0002  0.0000  0.0000  0.0000  0.0000  0.0000  0.0000 </r>
        <r>  0.0000  0.0001  0.0000  0.0000  0.0000  0.0000  0.0000  0.0000  0.0000 </r>
        <r>  0.0000  0.0001  0.0001  0.0000  0.0000  0.0000  0.0000  0.0000  0.0000 </r>
        <r>  0.0000  0.0000  0.0000  0.0000  0.0000  0.0000  0.0000  0.0000  0.0000 </r>
        <r>  0.0000  0.0000  0.0000  0.0001  0.0000  0.0000  0.0000  0.0000  0.0000 </r>
       </set>
      </set>
     </set>
    </set>
   </array>
  </projected>
 </calculation>
 <structure name="finalpos" >
  <crystal>
   <varray name="basis" >
    <v>      22.78514290       0.00000000       0.00000000 </v>
    <v>       0.00000000       3.87685037       0.00000000 </v>
    <v>      -9.97305163       0.00000241      15.12824818 </v>
   </varray>
   <i name="volume">   1336.34759474 </i>
   <varray name="rec_basis" >
    <v>       0.04388825       0.00000000       0.02893261 </v>
    <v>       0.00000000       0.25794135      -0.00000004 </v>
    <v>       0.00000000       0.00000000       0.06610151 </v>
   </varray>
  </crystal>
  <varray name="positions" >
   <v>       0.35545679       0.54004308       0.60880085 </v>
   <v>       0.36713587       0.00729544       0.04632852 </v>
   <v>       0.63404615       0.01585562       0.95497766 </v>
   <v>       0.86593716       0.51037107       0.04594002 </v>
   <v>       0.13065639       0.51010847       0.95568552 </v>
   <v>       0.24871632       0.00491950       0.13735822 </v>
   <v>       0.75199252       0.00487980       0.86193071 </v>
   <v>       0.74788233       0.50671230       0.13796520 </v>
   <v>       0.24885036       0.50210146       0.86535799 </v>
   <v>       0.12840059       1.00168617       0.22882753 </v>
   <v>       0.86855362       0.99952418       0.76743007 </v>
   <v>       0.63116390       0.50010481       0.23255973 </v>
   <v>       0.36869972       0.50171071       0.77442123 </v>
   <v>       0.41853290       0.97210885       0.37973869 </v>
   <v>       0.58354282       0.97123871       0.61797910 </v>
   <v>       0.91735005       0.46616346       0.38183243 </v>
   <v>       0.08116206       0.46496154       0.62110998 </v>
   <v>       0.29429166       0.02510002       0.46502506 </v>
   <v>       0.70204551       0.00423350       0.52646420 </v>
   <v>       0.79806327       0.50375967       0.47271849 </v>
   <v>       0.19871353       0.51374536       0.52717160 </v>
   <v>       0.46732494       0.02070204       0.71576162 </v>
   <v>       0.53661867       0.00377913       0.28731038 </v>
   <v>       0.96266530       0.50239565       0.71264079 </v>
   <v>       0.03462072       0.50515712       0.28702927 </v>
   <v>       0.99867718       0.25331092       1.00024737 </v>
   <v>       0.50037480       0.75701150       0.00070659 </v>
   <v>      -0.00078228       0.48892954       0.50118058 </v>
   <v>       0.49989213       0.99467670       0.49986599 </v>
   <v>       0.14787406       0.00527292       0.99208700 </v>
   <v>       0.84982752       0.00632990       0.00904672 </v>
   <v>       0.64866856       0.50976387       0.99011339 </v>
   <v>       0.35036948       0.50345899       0.01007460 </v>
   <v>       0.30315919       0.00249076       0.08225311 </v>
   <v>       0.69540213       0.00637289       0.91714183 </v>
   <v>       0.80255431       0.50614945       0.08141061 </v>
   <v>       0.19532858       0.50157057       0.92045209 </v>
   <v>       0.03301596       1.00215786       0.09935558 </v>
   <v>       0.96545327       0.00132367       0.90256533 </v>
   <v>       0.53426984       0.50249386       0.09820329 </v>
   <v>       0.46623123       0.50534737       0.90159244 </v>
   <v>       0.44965155       0.00397451       0.15612740 </v>
   <v>       0.54919233       0.01996317       0.84385612 </v>
   <v>       0.94916469       0.50755611       0.15610491 </v>
   <v>       0.04917893       0.50589759       0.84540533 </v>
   <v>       0.17952780       0.00265035       0.17804208 </v>
   <v>       0.81995109       0.00452736       0.82314781 </v>
   <v>       0.67965542       0.50589525       0.17685114 </v>
   <v>       0.31890393       0.49927330       0.82599757 </v>
   <v>       0.04860226       0.00636552       0.27044445 </v>
   <v>       0.94987552       0.00255873       0.73067261 </v>
   <v>       0.54980735       0.50307668       0.26980608 </v>
   <v>       0.44709749       0.52017747       0.72451617 </v>
   <v>       0.32515630       1.00271262       0.25008633 </v>
   <v>       0.67459819       1.00171985       0.74989129 </v>
   <v>       0.82511402       0.50009431       0.24974642 </v>
   <v>       0.17379380       0.49829113       0.75158162 </v>
   <v>       0.47643154       1.00300514       0.32663199 </v>
   <v>       0.52360685       1.00961618       0.67292368 </v>
   <v>       0.97630485       0.50013034       0.32782703 </v>
   <v>       0.02382999       0.49863784       0.67502005 </v>
   <v>       0.20589222       0.01714391       0.34907334 </v>
   <v>       0.79254173       0.00235838       0.65133697 </v>
   <v>       0.70731523       0.50292521       0.34885113 </v>
   <v>       0.29479078       0.51519480       0.65311809 </v>
   <v>       0.35222255       0.01417638       0.42436049 </v>
   <v>       0.64746086       1.00176833       0.57413984 </v>
   <v>       0.85219652       0.49984289       0.42522952 </v>
   <v>       0.14610052       0.50389242       0.57535613 </v>
   <v>       0.22092314       0.01649861       0.52078270 </v>
   <v>       0.77856989       0.00345756       0.48136350 </v>
   <v>       0.72167742       0.50344473       0.51878381 </v>
   <v>       0.28133996       0.52350254       0.48432069 </v>
   <v>       0.37617640       0.02734463       0.59669690 </v>
   <v>       0.62194244       0.00311460       0.40403026 </v>
   <v>       0.87819682       0.50335000       0.59612824 </v>
   <v>       0.12192240       0.51206633       0.40461884 </v>
   <v>       0.09005097       0.99172532       0.63218962 </v>
   <v>       0.90977670       0.99243437       0.36862489 </v>
   <v>       0.58946336       0.49703772       0.63122150 </v>
   <v>       0.40956031       0.49821621       0.36892460 </v>
   <v>       0.39363227       0.01049771       0.77131499 </v>
   <v>       0.60568931       0.00253023       0.23169321 </v>
   <v>       0.89402463       0.50177258       0.76863326 </v>
   <v>       0.10584738       0.50599748       0.23225421 </v>
   <v>       0.27428216       0.00202807       0.89812585 </v>
   <v>       0.72359403       0.00766478       0.10223676 </v>
   <v>       0.77504452       0.50551957       0.89661783 </v>
   <v>       0.22382023       0.50439285       0.10449559 </v>
   <v>       0.42853616       0.00506870       0.98751893 </v>
   <v>       0.57139791       0.00750094       0.01331084 </v>
   <v>       0.92749306       0.50535957       0.98662933 </v>
   <v>       0.07042569       0.50608944       0.01461174 </v>
  </varray>
 </structure>
</modeling>
