 vasp.6.4.2 20Jul23 (build May 29 2025 16:14:50) complex                         
 executed on              LinuxNV date 2025.06.06  13:22:31
 running    2 mpi-ranks, with    1 threads/rank, on    1 nodes
 distrk:  each k-point on    2 cores,    1 groups
 distr:  one band on NCORE=   1 cores,    2 groups
 OpenACC runtime initialized ...    2 GPUs detected


--------------------------------------------------------------------------------------------------------


 INCAR:
   SYSTEM = Si
   ISTART = 1
   ICHARG = 2
   NCORE = 8
   ISPIN = 2
   NELM = 200
   ENCUT = 400
   PREC = Accurate
   ISMEAR = 0
   SIGMA = 0.01
   EDIFF = 1E-10
   NELECT = 1072
   IBRION = 3
   NSW = 500
   POTIM = 0.1
   ISIF = 0
   IOPT = 1
   EDIFFG = -0.010

 POTCAR:    PAW_PBE Li_sv 10Sep2004               
 POTCAR:    PAW_PBE F 08Apr2002                   
 -----------------------------------------------------------------------------
|                                                                             |
|           W    W    AA    RRRRR   N    N  II  N    N   GGGG   !!!           |
|           W    W   A  A   R    R  NN   N  II  NN   N  G    G  !!!           |
|           W    W  A    A  R    R  N N  N  II  N N  N  G       !!!           |
|           W WW W  AAAAAA  RRRRR   N  N N  II  N  N N  G  GGG   !            |
|           WW  WW  A    A  R   R   N   NN  II  N   NN  G    G                |
|           W    W  A    A  R    R  N    N  II  N    N   GGGG   !!!           |
|                                                                             |
|     You use a magnetic or noncollinear calculation, but did not specify     |
|     the initial magnetic moment with the MAGMOM tag. Note that a            |
|     default of 1 will be used for all atoms. This ferromagnetic setup       |
|     may break the symmetry of the crystal, in particular it may rule        |
|     out finding an antiferromagnetic solution. Thence, we recommend         |
|     setting the initial magnetic moment manually or verifying carefully     |
|     that this magnetic setup is desired.                                    |
|                                                                             |
 -----------------------------------------------------------------------------

 POTCAR:    PAW_PBE Li_sv 10Sep2004               
   SHA256 =  7e51fe1804c037e1dccc81a9c376d94d693a7559600c847f4b41960edb8ab895 Li_sv/POTCAR          
   COPYR  = (c) Copyright 10Sep2004 Georg Kresse                                                    
   COPYR  = This file is part of the software VASP. Any use, copying, and all other rights are regul
   COPYR  = If you do not have a valid VASP license, you may not use, copy or distribute this file. 
   VRHFIN =Li: 1s2s2p                                                                               
   LEXCH  = PE                                                                                      
   EATOM  =   202.7858 eV,   14.9043 Ry                                                             
                                                                                                    
   TITEL  = PAW_PBE Li_sv 10Sep2004                                                                 
   LULTRA =        F    use ultrasoft PP ?                                                          
   IUNSCR =        0    unscreen: 0-lin 1-nonlin 2-no                                               
   RPACOR =    0.000    partial core radius                                                         
   POMASS =    7.010; ZVAL   =    3.000    mass and valenz                                          
   RCORE  =    1.700    outmost cutoff radius                                                       
   RWIGS  =    2.050; RWIGS  =    1.085    wigner-seitz radius (au A)                               
   ENMAX  =  499.034; ENMIN  =  374.276 eV                                                          
   ICORE  =        2    local potential                                                             
   LCOR   =        T    correct aug charges                                                         
   LPAW   =        T    paw PP                                                                      
   EAUG   =  628.945                                                                                
   RMAX   =    1.732    core radius for proj-oper                                                   
   RAUG   =    1.300    factor for augmentation sphere                                              
   RDEP   =    1.728    radius for radial grids                                                     
   RDEPT  =    1.329    core radius for aug-charge                                                  
                                                                                                    
   Atomic configuration                                                                             
    4 entries                                                                                       
     n  l   j            E        occ.                                                              
     1  0  0.50       -51.8549   2.0000                                                             
     2  0  0.50        -2.8742   1.0000                                                             
     2  1  0.50        -1.3606   0.0000                                                             
     3  2  1.50        -1.3606   0.0000                                                             
   Description                                                                                      
     l       E           TYP  RCUT    TYP  RCUT                                                     
     0    -51.8548813     23  1.400                                                                 
     0     -2.8742052     23  1.700                                                                 
     1     -1.3605826     23  1.400                                                                 
     2     -1.3605826     23  1.400                                                                 
  local pseudopotential read in
  atomic valenz-charges read in
  non local Contribution for L=            0  read in
    real space projection operators read in
  non local Contribution for L=            0  read in
    real space projection operators read in
  non local Contribution for L=            1  read in
    real space projection operators read in
    PAW grid and wavefunctions read in
 
   number of l-projection  operators is LMAX  =            3
   number of lm-projection operators is LMMAX =            5
 
 POTCAR:    PAW_PBE F 08Apr2002                   
   SHA256 =  53c630871ac675939349fc2b976745ee17808dedc90b5bdde026bc81f0faf456 F/POTCAR              
   COPYR  = (c) Copyright 08Apr2002 Georg Kresse                                                    
   COPYR  = This file is part of the software VASP. Any use, copying, and all other rights are regul
   COPYR  = If you do not have a valid VASP license, you may not use, copy or distribute this file. 
   VRHFIN =F: s2p5                                                                                  
   LEXCH  = PE                                                                                      
   EATOM  =   659.6475 eV,   48.4827 Ry                                                             
                                                                                                    
   TITEL  = PAW_PBE F 08Apr2002                                                                     
   LULTRA =        F    use ultrasoft PP ?                                                          
   IUNSCR =        1    unscreen: 0-lin 1-nonlin 2-no                                               
   RPACOR =    1.200    partial core radius                                                         
   POMASS =   18.998; ZVAL   =    7.000    mass and valenz                                          
   RCORE  =    1.520    outmost cutoff radius                                                       
   RWIGS  =    1.500; RWIGS  =    0.794    wigner-seitz radius (au A)                               
   ENMAX  =  400.000; ENMIN  =  300.000 eV                                                          
   ICORE  =        2    local potential                                                             
   LCOR   =        T    correct aug charges                                                         
   LPAW   =        T    paw PP                                                                      
   EAUG   =  613.614                                                                                
   RMAX   =    1.555    core radius for proj-oper                                                   
   RAUG   =    1.300    factor for augmentation sphere                                              
   RDEP   =    1.539    radius for radial grids                                                     
   RDEPT  =    1.299    core radius for aug-charge                                                  
                                                                                                    
   Atomic configuration                                                                             
    4 entries                                                                                       
     n  l   j            E        occ.                                                              
     1  0  0.50      -663.3661   2.0000                                                             
     2  0  0.50       -29.8995   2.0000                                                             
     2  1  0.50       -11.1114   5.0000                                                             
     3  2  1.50       -10.8847   0.0000                                                             
   Description                                                                                      
     l       E           TYP  RCUT    TYP  RCUT                                                     
     0    -29.8995018     23  1.200                                                                 
     0     -9.5240782     23  1.200                                                                 
     1    -11.1113914     23  1.520                                                                 
     1      1.3605826     23  1.520                                                                 
     2    -10.8846608      7  1.500                                                                 
  local pseudopotential read in
  partial core-charges read in
  partial kinetic energy density read in
  atomic valenz-charges read in
  non local Contribution for L=            0  read in
    real space projection operators read in
  non local Contribution for L=            0  read in
    real space projection operators read in
  non local Contribution for L=            1  read in
    real space projection operators read in
  non local Contribution for L=            1  read in
    real space projection operators read in
    PAW grid and wavefunctions read in
 
   number of l-projection  operators is LMAX  =            4
   number of lm-projection operators is LMMAX =            8
 
 -----------------------------------------------------------------------------
|                                                                             |
|               ----> ADVICE to this user running VASP <----                  |
|                                                                             |
|     You have a (more or less) 'large supercell' and for larger cells it     |
|     might be more efficient to use real-space projection operators.         |
|     Therefore, try LREAL= Auto in the INCAR file.                           |
|     Mind: For very accurate calculation, you might also keep the            |
|     reciprocal projection scheme (i.e. LREAL=.FALSE.).                      |
|                                                                             |
 -----------------------------------------------------------------------------

  PAW_PBE Li_sv 10Sep2004               :
 energy of atom  1       EATOM= -202.7858
 kinetic energy error for atom=    0.0926 (will be added to EATOM!!)
  PAW_PBE F 08Apr2002                   :
 energy of atom  2       EATOM= -659.6475
 kinetic energy error for atom=    0.1978 (will be added to EATOM!!)
 
 
 POSCAR: Li4 F4
  positions in direct lattice
  velocities in cartesian coordinates
 exchange correlation table for  LEXCH =        8
   RHO(1)=    0.500       N(1)  =     2000
   RHO(2)=  100.500       N(2)  =     4000
 


--------------------------------------------------------------------------------------------------------


 ion  position               nearest neighbor table
   1  0.998  0.002  0.000- 207 1.98 109 1.99 136 2.00 138 2.00 190 2.03 115 2.09
   2  1.000  0.000  0.334- 208 2.00 137 2.01 110 2.01 191 2.02 136 2.03 116 2.03
   3  1.000  0.000  0.666- 209 2.00 137 2.01 111 2.01 192 2.02 138 2.03 117 2.03
   4  0.998  0.331  1.000- 210 1.98 109 1.99 139 2.00 141 2.00 193 2.03 112 2.09
   5  1.000  0.333  0.334- 211 2.00 140 2.01 110 2.01 194 2.02 113 2.03 139 2.03
   6  1.000  0.333  0.666- 212 2.00 140 2.01 111 2.01 195 2.02 114 2.03 141 2.03
   7  0.983  0.667  1.000- 213 1.85 144 1.98 142 1.98 112 1.98 115 1.98
   8  0.998  0.667  0.335- 214 1.98 143 1.99 113 2.00 116 2.00 196 2.03 142 2.09
   9  0.998  0.667  0.665- 215 1.98 143 1.99 114 2.00 117 2.00 197 2.03 144 2.09
  10  0.335  0.002  0.000- 198 1.99 118 1.99 145 2.00 147 2.00 190 2.03 124 2.09
  11  0.334  0.000  0.334- 199 2.00 146 2.01 119 2.01 191 2.02 125 2.03 145 2.03
  12  0.334  0.000  0.666- 200 2.00 146 2.01 120 2.01 192 2.02 126 2.03 147 2.03
  13  0.335  0.331  1.000- 201 1.98 118 1.99 150 2.00 148 2.00 193 2.03 121 2.09
  14  0.334  0.333  0.334- 202 2.00 149 2.01 119 2.01 194 2.02 122 2.02 148 2.03
  15  0.334  0.333  0.666- 203 2.00 149 2.01 120 2.01 195 2.02 123 2.02 150 2.03
  16  0.350  0.667  0.000- 204 1.85 151 1.98 153 1.98 121 1.98 124 1.98
  17  0.335  0.667  0.335- 205 1.99 152 1.99 122 2.00 125 2.00 196 2.03 151 2.09
  18  0.335  0.667  0.665- 206 1.99 152 1.99 123 2.00 126 2.00 197 2.03 153 2.09
  19  0.667  0.000  1.000- 127 2.01 156 2.01 154 2.01 133 2.01 198 2.02 207 2.02
  20  0.667  0.000  0.333- 155 2.01 128 2.01 199 2.02 208 2.02 134 2.02 154 2.02
  21  0.667  0.000  0.666- 155 2.01 129 2.01 200 2.02 209 2.02 135 2.02 156 2.02
  22  0.667  0.333  1.000- 127 2.01 159 2.01 157 2.01 130 2.01 201 2.02 210 2.02
  23  0.667  0.333  0.334- 158 2.01 128 2.01 202 2.02 211 2.02 131 2.02 157 2.02
  24  0.667  0.333  0.666- 158 2.01 129 2.01 203 2.02 212 2.02 132 2.02 159 2.02
  25  0.667  0.667  0.000- 204 1.97 213 1.97 130 2.02 160 2.02 162 2.02 133 2.02
  26  0.667  0.667  0.334- 161 2.01 131 2.01 134 2.01 160 2.01 205 2.02 214 2.02
  27  0.667  0.667  0.666- 161 2.01 132 2.01 135 2.01 162 2.01 206 2.02 215 2.02
  28  1.000  0.167  0.167- 181 2.01 110 2.01 109 2.02 163 2.02 136 2.02 139 2.02
  29  1.000  0.167  0.500- 182 2.01 164 2.02 137 2.02 140 2.02 111 2.02 110 2.02
  30  1.000  0.167  0.833- 183 2.01 111 2.01 109 2.02 165 2.02 138 2.02 141 2.02
  31  1.000  0.500  0.167- 184 2.00 139 2.00 113 2.00 112 2.02 142 2.02 166 2.02
  32  1.000  0.500  0.500- 140 2.01 185 2.01 167 2.02 143 2.02 114 2.02 113 2.02
  33  1.000  0.500  0.833- 186 2.00 141 2.00 114 2.00 112 2.02 144 2.02 168 2.02
  34  1.000  0.834  0.167- 136 2.00 187 2.00 116 2.00 115 2.02 169 2.02 142 2.02
  35  1.000  0.834  0.500- 188 2.01 137 2.01 170 2.02 143 2.02 117 2.02 116 2.02
  36  1.000  0.834  0.833- 138 2.00 189 2.00 117 2.00 115 2.02 171 2.02 144 2.02
  37  0.334  0.167  0.167- 172 2.01 119 2.01 118 2.02 163 2.02 145 2.02 148 2.02
  38  0.334  0.167  0.500- 173 2.01 164 2.02 146 2.02 120 2.02 119 2.02 149 2.02
  39  0.334  0.167  0.833- 174 2.01 120 2.01 118 2.02 165 2.02 147 2.02 150 2.02
  40  0.334  0.500  0.167- 148 2.00 175 2.00 122 2.00 121 2.02 151 2.02 166 2.02
  41  0.334  0.500  0.500- 149 2.01 176 2.01 152 2.02 167 2.02 123 2.02 122 2.02
  42  0.334  0.500  0.833- 150 2.00 177 2.00 123 2.00 121 2.02 153 2.02 168 2.02
  43  0.334  0.834  0.167- 178 2.00 145 2.00 125 2.00 124 2.02 169 2.02 151 2.02
  44  0.334  0.834  0.500- 179 2.01 146 2.01 170 2.02 152 2.02 125 2.02 126 2.02
  45  0.334  0.834  0.833- 180 2.00 147 2.00 126 2.00 124 2.02 171 2.02 153 2.02
  46  0.667  0.167  0.167- 128 2.01 127 2.01 154 2.02 172 2.02 157 2.02 181 2.02
  47  0.667  0.167  0.500- 173 2.01 155 2.01 129 2.02 128 2.02 182 2.02 158 2.02
  48  0.667  0.167  0.833- 129 2.01 127 2.01 156 2.02 174 2.02 159 2.02 183 2.02
  49  0.667  0.500  0.167- 157 2.01 131 2.01 130 2.02 160 2.02 175 2.02 184 2.02
  50  0.667  0.500  0.500- 158 2.01 161 2.02 176 2.02 185 2.02 131 2.02 132 2.02
  51  0.667  0.500  0.833- 159 2.01 132 2.01 130 2.02 162 2.02 177 2.02 186 2.02
  52  0.667  0.834  0.167- 154 2.01 134 2.01 133 2.02 160 2.02 178 2.02 187 2.02
  53  0.667  0.834  0.500- 155 2.01 161 2.02 179 2.02 134 2.02 135 2.02 188 2.02
  54  0.667  0.834  0.833- 156 2.01 135 2.01 133 2.02 162 2.02 180 2.02 189 2.02
  55  0.167  0.002  0.168- 191 1.99 163 1.99 136 2.00 145 2.00 190 2.03 169 2.09
  56  0.167  0.000  0.500- 164 2.01 137 2.01 146 2.01 170 2.01 192 2.02 191 2.02
  57  0.167  0.002  0.832- 192 1.99 165 1.99 138 2.00 147 2.00 190 2.03 171 2.09
  58  0.167  0.331  0.168- 194 1.99 163 1.99 139 2.00 148 2.00 193 2.03 166 2.09
  59  0.167  0.333  0.500- 164 2.01 140 2.01 149 2.01 167 2.01 195 2.02 194 2.02
  60  0.167  0.331  0.832- 195 1.99 165 1.99 141 2.00 150 2.00 193 2.03 168 2.09
  61  0.167  0.667  0.183- 196 1.85 142 1.98 166 1.98 151 1.98 169 1.98
  62  0.167  0.667  0.500- 197 1.98 196 1.98 167 2.02 143 2.02 152 2.02 170 2.02
  63  0.167  0.667  0.817- 197 1.85 168 1.98 144 1.98 171 1.98 153 1.98
  64  0.500  0.000  0.167- 199 2.00 172 2.01 154 2.01 198 2.02 145 2.03 178 2.03
  65  0.500  0.000  0.500- 155 2.01 173 2.01 200 2.02 199 2.02 179 2.02 146 2.02
  66  0.500  0.000  0.833- 200 2.00 174 2.01 156 2.01 198 2.02 147 2.03 180 2.03
  67  0.500  0.333  0.167- 202 2.00 157 2.01 172 2.01 201 2.02 175 2.03 148 2.03
  68  0.500  0.333  0.500- 173 2.01 158 2.01 203 2.02 202 2.02 176 2.02 149 2.02
  69  0.500  0.333  0.833- 203 2.00 159 2.01 174 2.01 201 2.02 177 2.03 150 2.03
  70  0.502  0.667  0.168- 205 1.99 160 1.99 175 2.00 178 2.00 204 2.03 151 2.09
  71  0.500  0.667  0.500- 161 2.01 176 2.01 179 2.01 152 2.01 205 2.02 206 2.02
  72  0.502  0.667  0.832- 206 1.99 162 1.99 177 2.00 180 2.00 204 2.03 153 2.09
  73  0.833  0.000  0.167- 208 2.00 181 2.01 154 2.01 207 2.02 136 2.03 187 2.03
  74  0.833  0.000  0.500- 155 2.01 182 2.01 208 2.02 209 2.02 137 2.02 188 2.02
  75  0.833  0.000  0.833- 209 2.00 183 2.01 156 2.01 207 2.02 138 2.03 189 2.03
  76  0.833  0.333  0.167- 211 2.01 157 2.01 181 2.01 210 2.02 139 2.03 184 2.03
  77  0.833  0.333  0.500- 158 2.01 182 2.01 211 2.02 212 2.02 140 2.02 185 2.02
  78  0.833  0.333  0.833- 212 2.01 159 2.01 183 2.01 210 2.02 141 2.03 186 2.03
  79  0.831  0.667  0.168- 214 1.99 160 1.99 184 2.00 187 2.00 213 2.03 142 2.09
  80  0.833  0.667  0.500- 161 2.01 185 2.01 188 2.01 143 2.01 214 2.02 215 2.02
  81  0.831  0.667  0.832- 215 1.99 162 1.99 186 2.00 189 2.00 213 2.03 144 2.09
  82  0.167  0.167  1.000- 190 1.97 193 1.97 109 2.02 165 2.02 163 2.02 118 2.02
  83  0.167  0.167  0.334- 164 2.01 110 2.01 119 2.01 163 2.01 191 2.02 194 2.02
  84  0.167  0.167  0.666- 164 2.01 111 2.01 120 2.01 165 2.01 192 2.02 195 2.02
  85  0.167  0.483  1.000- 193 1.85 168 1.98 166 1.98 112 1.98 121 1.98
  86  0.167  0.498  0.335- 194 1.98 167 1.99 113 2.00 122 2.00 196 2.03 166 2.09
  87  0.167  0.498  0.665- 195 1.98 167 1.99 114 2.00 123 2.00 197 2.03 168 2.09
  88  0.167  0.850  0.000- 190 1.85 169 1.98 171 1.98 115 1.98 124 1.98
  89  0.167  0.835  0.335- 191 1.99 170 1.99 116 2.00 125 2.00 196 2.03 169 2.09
  90  0.167  0.835  0.665- 192 1.99 170 1.99 117 2.00 126 2.00 197 2.03 171 2.09
  91  0.500  0.167  1.000- 127 2.01 174 2.01 172 2.01 118 2.01 198 2.02 201 2.02
  92  0.500  0.167  0.334- 173 2.01 128 2.01 199 2.02 202 2.02 119 2.02 172 2.02
  93  0.500  0.167  0.666- 173 2.01 129 2.01 200 2.02 203 2.02 120 2.02 174 2.02
  94  0.502  0.498  0.000- 201 1.98 130 1.99 175 2.00 177 2.00 204 2.03 121 2.09
  95  0.500  0.500  0.334- 202 2.00 176 2.01 131 2.01 205 2.02 175 2.03 122 2.03
  96  0.500  0.500  0.666- 203 2.00 176 2.01 132 2.01 206 2.02 177 2.03 123 2.03
  97  0.502  0.835  0.000- 198 1.99 133 1.99 178 2.00 180 2.00 204 2.03 124 2.09
  98  0.500  0.834  0.334- 199 2.00 179 2.01 134 2.01 205 2.02 125 2.03 178 2.03
  99  0.500  0.834  0.666- 200 2.00 179 2.01 135 2.01 206 2.02 126 2.03 180 2.03
 100  0.833  0.167  1.000- 127 2.01 183 2.01 181 2.01 109 2.01 207 2.02 210 2.02
 101  0.833  0.167  0.334- 182 2.01 128 2.01 208 2.02 211 2.02 110 2.02 181 2.02
 102  0.833  0.167  0.666- 182 2.01 129 2.01 209 2.02 212 2.02 111 2.02 183 2.02
 103  0.831  0.498  0.000- 210 1.98 130 1.99 184 2.00 186 2.00 213 2.03 112 2.09
 104  0.833  0.500  0.334- 211 2.00 185 2.01 131 2.01 214 2.02 113 2.03 184 2.03
 105  0.833  0.500  0.666- 212 2.00 185 2.01 132 2.01 215 2.02 114 2.03 186 2.03
 106  0.831  0.835  0.000- 207 1.98 133 1.99 187 2.00 189 2.00 213 2.03 115 2.09
 107  0.833  0.834  0.334- 208 2.00 188 2.01 134 2.01 214 2.02 116 2.02 187 2.03
 108  0.833  0.834  0.666- 209 2.00 188 2.01 135 2.01 215 2.02 117 2.02 189 2.03
 109  1.000  0.167  1.000-   1 1.99   4 1.99 100 2.01  28 2.02  30 2.02  82 2.02
 110  0.000  0.167  0.333-  28 2.01  83 2.01   2 2.01   5 2.01  29 2.02 101 2.02
 111  0.000  0.167  0.667-  30 2.01  84 2.01   3 2.01   6 2.01  29 2.02 102 2.02
 112  0.004  0.504  1.000-   7 1.98  85 1.98  33 2.02  31 2.02 103 2.09   4 2.09
 113  0.001  0.501  0.332-  31 2.00  86 2.00   8 2.00  32 2.02 104 2.03   5 2.03
 114  0.001  0.501  0.668-  33 2.00   9 2.00  87 2.00  32 2.02 105 2.03   6 2.03
 115  0.004  0.829  1.000-  88 1.98   7 1.98  36 2.02  34 2.02 106 2.09   1 2.09
 116  0.001  0.832  0.332-  34 2.00  89 2.00   8 2.00  35 2.02 107 2.02   2 2.03
 117  0.001  0.832  0.668-  36 2.00  90 2.00   9 2.00  35 2.02 108 2.02   3 2.03
 118  0.334  0.167  1.000-  10 1.99  13 1.99  91 2.01  39 2.02  37 2.02  82 2.02
 119  0.333  0.167  0.333-  37 2.01  83 2.01  11 2.01  14 2.01  38 2.02  92 2.02
 120  0.333  0.167  0.667-  39 2.01  84 2.01  12 2.01  15 2.01  38 2.02  93 2.02
 121  0.329  0.504  1.000-  16 1.98  85 1.98  42 2.02  40 2.02  13 2.09  94 2.09
 122  0.332  0.501  0.332-  40 2.00  17 2.00  86 2.00  41 2.02  14 2.02  95 2.03
 123  0.332  0.501  0.668-  42 2.00  18 2.00  87 2.00  41 2.02  15 2.02  96 2.03
 124  0.329  0.829  0.000-  88 1.98  16 1.98  45 2.02  43 2.02  97 2.09  10 2.09
 125  0.333  0.833  0.332-  43 2.00  89 2.00  17 2.00  44 2.02  98 2.03  11 2.03
 126  0.333  0.833  0.668-  45 2.00  18 2.00  90 2.00  44 2.02  99 2.03  12 2.03
 127  0.667  0.167  1.000-  19 2.01  91 2.01  22 2.01 100 2.01  46 2.01  48 2.01
 128  0.667  0.167  0.333-  46 2.01  20 2.01  92 2.01 101 2.01  23 2.01  47 2.02
 129  0.667  0.167  0.667-  48 2.01  21 2.01  93 2.01 102 2.01  24 2.01  47 2.02
 130  0.667  0.500  0.000-  94 1.99 103 1.99  22 2.01  49 2.02  51 2.02  25 2.02
 131  0.667  0.500  0.333-  49 2.01  26 2.01  95 2.01 104 2.01  50 2.02  23 2.02
 132  0.667  0.500  0.667-  51 2.01  27 2.01  96 2.01 105 2.01  50 2.02  24 2.02
 133  0.667  0.834  0.000-  97 1.99 106 1.99  19 2.01  52 2.02  54 2.02  25 2.02
 134  0.667  0.833  0.333-  52 2.01  26 2.01  98 2.01 107 2.01  53 2.02  20 2.02
 135  0.667  0.833  0.667-  54 2.01  27 2.01  99 2.01 108 2.01  53 2.02  21 2.02
 136  0.001  0.999  0.166-  34 2.00  55 2.00   1 2.00  28 2.02  73 2.03   2 2.03
 137  0.000  1.000  0.500-  35 2.01  56 2.01   2 2.01   3 2.01  29 2.02  74 2.02
 138  0.001  0.999  0.834-  36 2.00  57 2.00   1 2.00  30 2.02  75 2.03   3 2.03
 139  0.001  0.334  0.166-  31 2.00   4 2.00  58 2.00  28 2.02  76 2.03   5 2.03
 140  0.000  0.334  0.500-  32 2.01  59 2.01   6 2.01   5 2.01  29 2.02  77 2.02
 141  0.001  0.334  0.834-  33 2.00   4 2.00  60 2.00  30 2.02  78 2.03   6 2.03
 142  0.004  0.667  0.162-  61 1.98   7 1.98  31 2.02  34 2.02  79 2.09   8 2.09
 143  1.000  0.667  0.500-   8 1.99   9 1.99  80 2.01  32 2.02  35 2.02  62 2.02
 144  0.004  0.667  0.838-  63 1.98   7 1.98  33 2.02  36 2.02  81 2.09   9 2.09
 145  0.333  0.999  0.166-  43 2.00  10 2.00  55 2.00  37 2.02  64 2.03  11 2.03
 146  0.333  1.000  0.500-  44 2.01  56 2.01  11 2.01  12 2.01  38 2.02  65 2.02
 147  0.333  0.999  0.834-  45 2.00  10 2.00  57 2.00  39 2.02  66 2.03  12 2.03
 148  0.333  0.334  0.166-  40 2.00  13 2.00  58 2.00  37 2.02  67 2.03  14 2.03
 149  0.333  0.334  0.500-  41 2.01  59 2.01  15 2.01  14 2.01  38 2.02  68 2.02
 150  0.333  0.334  0.834-  42 2.00  13 2.00  60 2.00  39 2.02  69 2.03  15 2.03
 151  0.329  0.667  0.162-  16 1.98  61 1.98  40 2.02  43 2.02  17 2.09  70 2.09
 152  0.334  0.667  0.500-  17 1.99  18 1.99  71 2.01  41 2.02  44 2.02  62 2.02
 153  0.329  0.667  0.838-  16 1.98  63 1.98  42 2.02  45 2.02  18 2.09  72 2.09
 154  0.667  1.000  0.166-  52 2.01  19 2.01  64 2.01  73 2.01  46 2.02  20 2.02
 155  0.667  1.000  0.500-  53 2.01  20 2.01  21 2.01  74 2.01  65 2.01  47 2.01
 156  0.667  1.000  0.834-  54 2.01  19 2.01  66 2.01  75 2.01  48 2.02  21 2.02
 157  0.667  0.334  0.166-  49 2.01  22 2.01  67 2.01  76 2.01  46 2.02  23 2.02
 158  0.667  0.334  0.500-  50 2.01  24 2.01  23 2.01  68 2.01  77 2.01  47 2.02
 159  0.667  0.334  0.834-  51 2.01  22 2.01  69 2.01  78 2.01  48 2.02  24 2.02
 160  0.667  0.667  0.167-  70 1.99  79 1.99  26 2.01  49 2.02  52 2.02  25 2.02
 161  0.667  0.667  0.500-  26 2.01  27 2.01  71 2.01  80 2.01  50 2.02  53 2.02
 162  0.667  0.667  0.833-  72 1.99  81 1.99  27 2.01  51 2.02  54 2.02  25 2.02
 163  0.167  0.167  0.167-  55 1.99  58 1.99  83 2.01  28 2.02  37 2.02  82 2.02
 164  0.167  0.167  0.500-  84 2.01  83 2.01  56 2.01  59 2.01  29 2.02  38 2.02
 165  0.167  0.167  0.833-  57 1.99  60 1.99  84 2.01  30 2.02  39 2.02  82 2.02
 166  0.167  0.504  0.162-  61 1.98  85 1.98  31 2.02  40 2.02  58 2.09  86 2.09
 167  0.167  0.500  0.500-  86 1.99  87 1.99  59 2.01  32 2.02  41 2.02  62 2.02
 168  0.167  0.504  0.838-  63 1.98  85 1.98  33 2.02  42 2.02  60 2.09  87 2.09
 169  0.167  0.829  0.162-  88 1.98  61 1.98  34 2.02  43 2.02  89 2.09  55 2.09
 170  0.167  0.834  0.500-  89 1.99  90 1.99  56 2.01  35 2.02  44 2.02  62 2.02
 171  0.167  0.829  0.838-  88 1.98  63 1.98  36 2.02  45 2.02  90 2.09  57 2.09
 172  0.500  0.167  0.166-  37 2.01  91 2.01  64 2.01  67 2.01  46 2.02  92 2.02
 173  0.500  0.167  0.500-  38 2.01  93 2.01  92 2.01  68 2.01  65 2.01  47 2.01
 174  0.500  0.167  0.834-  39 2.01  91 2.01  66 2.01  69 2.01  48 2.02  93 2.02
 175  0.499  0.501  0.166-  40 2.00  70 2.00  94 2.00  49 2.02  67 2.03  95 2.03
 176  0.500  0.500  0.500-  41 2.01  71 2.01  95 2.01  96 2.01  50 2.02  68 2.02
 177  0.499  0.501  0.834-  42 2.00  72 2.00  94 2.00  51 2.02  69 2.03  96 2.03
 178  0.499  0.833  0.166-  43 2.00  97 2.00  70 2.00  52 2.02  64 2.03  98 2.03
 179  0.500  0.833  0.500-  44 2.01  71 2.01  98 2.01  99 2.01  53 2.02  65 2.02
 180  0.499  0.833  0.834-  45 2.00  97 2.00  72 2.00  54 2.02  66 2.03  99 2.03
 181  0.834  0.167  0.166-  28 2.01 100 2.01  73 2.01  76 2.01  46 2.02 101 2.02
 182  0.834  0.167  0.500-  29 2.01 102 2.01 101 2.01  74 2.01  77 2.01  47 2.02
 183  0.834  0.167  0.834-  30 2.01 100 2.01  75 2.01  78 2.01  48 2.02 102 2.02
 184  0.834  0.501  0.166-  31 2.00 103 2.00  79 2.00  49 2.02  76 2.03 104 2.03
 185  0.834  0.500  0.500-  32 2.01  80 2.01 104 2.01 105 2.01  50 2.02  77 2.02
 186  0.834  0.501  0.834-  33 2.00 103 2.00  81 2.00  51 2.02  78 2.03 105 2.03
 187  0.834  0.833  0.166-  34 2.00 106 2.00  79 2.00  52 2.02  73 2.03 107 2.03
 188  0.834  0.833  0.500-  35 2.01  80 2.01 107 2.01 108 2.01  53 2.02  74 2.02
 189  0.834  0.833  0.834-  36 2.00 106 2.00  81 2.00  54 2.02  75 2.03 108 2.03
 190  0.167  0.003  1.000-  88 1.85  82 1.97  57 2.03  55 2.03  10 2.03   1 2.03
 191  0.167  0.999  0.333-  89 1.99  55 1.99   2 2.02  11 2.02  83 2.02  56 2.02
 192  0.167  0.999  0.667-  90 1.99  57 1.99   3 2.02  12 2.02  84 2.02  56 2.02
 193  0.167  0.330  1.000-  85 1.85  82 1.97  60 2.03  58 2.03  13 2.03   4 2.03
 194  0.167  0.334  0.333-  86 1.98  58 1.99   5 2.02  14 2.02  59 2.02  83 2.02
 195  0.167  0.334  0.667-  87 1.98  60 1.99   6 2.02  15 2.02  59 2.02  84 2.02
 196  0.167  0.667  0.336-  61 1.85  62 1.98  17 2.03  89 2.03  86 2.03   8 2.03
 197  0.167  0.667  0.664-  63 1.85  62 1.98  90 2.03  18 2.03  87 2.03   9 2.03
 198  0.499  0.999  0.000-  10 1.99  97 1.99  66 2.02  64 2.02  91 2.02  19 2.02
 199  0.500  1.000  0.333-  11 2.00  98 2.00  64 2.00  92 2.02  20 2.02  65 2.02
 200  0.500  1.000  0.667-  12 2.00  99 2.00  66 2.00  93 2.02  21 2.02  65 2.02
 201  0.499  0.334  1.000-  94 1.98  13 1.98  69 2.02  67 2.02  22 2.02  91 2.02
 202  0.500  0.334  0.333-  14 2.00  95 2.00  67 2.00  23 2.02  68 2.02  92 2.02
 203  0.500  0.334  0.667-  15 2.00  96 2.00  69 2.00  24 2.02  68 2.02  93 2.02
 204  0.503  0.667  0.000-  16 1.85  25 1.97  72 2.03  70 2.03  97 2.03  94 2.03
 205  0.499  0.667  0.333-  17 1.99  70 1.99  95 2.02  98 2.02  26 2.02  71 2.02
 206  0.499  0.667  0.667-  18 1.99  72 1.99  96 2.02  99 2.02  27 2.02  71 2.02
 207  0.834  0.999  0.000-   1 1.98 106 1.98  73 2.02  75 2.02 100 2.02  19 2.02
 208  0.834  1.000  0.333- 107 2.00   2 2.00  73 2.00 101 2.02  74 2.02  20 2.02
 209  0.834  1.000  0.667- 108 2.00   3 2.00  75 2.00 102 2.02  74 2.02  21 2.02
 210  0.834  0.334  1.000-   4 1.98 103 1.98  76 2.02  78 2.02  22 2.02 100 2.02
 211  0.834  0.334  0.333-   5 2.00 104 2.00  76 2.01  77 2.02  23 2.02 101 2.02
 212  0.834  0.334  0.667-   6 2.00 105 2.00  78 2.01  77 2.02  24 2.02 102 2.02
 213  0.830  0.667  0.000-   7 1.85  25 1.97  79 2.03  81 2.03 106 2.03 103 2.03
 214  0.834  0.667  0.333-   8 1.98  79 1.99 104 2.02 107 2.02  80 2.02  26 2.02
 215  0.834  0.667  0.667-   9 1.98  81 1.99 105 2.02 108 2.02  80 2.02  27 2.02
 
  LATTYP: Found a simple cubic cell.
 ALAT       =    12.0789003372
  
  Lattice vectors:
  
 A1 = (  12.0789003372,   0.0000000000,   0.0000000000)
 A2 = (   0.0000000000,  12.0789003372,   0.0000000000)
 A3 = (   0.0000000000,   0.0000000000,  12.0789003372)


Analysis of symmetry for initial positions (statically):
=====================================================================
 Subroutine PRICEL returns:
 Original cell was already a primitive cell.
 

 Routine SETGRP: Setting up the symmetry group for a 
 simple cubic supercell.


 Subroutine GETGRP returns: Found  2 space group operations
 (whereof  2 operations were pure point group operations)
 out of a pool of 48 trial point group operations.


The static configuration has the point symmetry C_1h.


Analysis of symmetry for dynamics (positions and initial velocities):
=====================================================================
 Subroutine PRICEL returns:
 Original cell was already a primitive cell.
 

 Routine SETGRP: Setting up the symmetry group for a 
 simple cubic supercell.


 Subroutine GETGRP returns: Found  2 space group operations
 (whereof  2 operations were pure point group operations)
 out of a pool of 48 trial point group operations.


The dynamic configuration has the point symmetry C_1h.


Analysis of structural, dynamic, and magnetic symmetry:
=====================================================================
 Subroutine PRICEL returns:
 Original cell was already a primitive cell.
 

 Routine SETGRP: Setting up the symmetry group for a 
 simple cubic supercell.


 Subroutine GETGRP returns: Found  2 space group operations
 (whereof  2 operations were pure point group operations)
 out of a pool of 48 trial point group operations.


The overall configuration has the point symmetry C_1h.


 Subroutine INISYM returns: Found  2 space group operations
 (whereof  2 operations are pure point group operations),
 and found     1 'primitive' translations


----------------------------------------------------------------------------------------

                                     Primitive cell                                     

  volume of cell :    1762.3095

  direct lattice vectors                    reciprocal lattice vectors
    12.078900337  0.000000000  0.000000000     0.082788993  0.000000000  0.000000000
     0.000000000 12.078900337  0.000000000     0.000000000  0.082788993  0.000000000
     0.000000000  0.000000000 12.078900337     0.000000000  0.000000000  0.082788993

  length of vectors
    12.078900337 12.078900337 12.078900337     0.082788993  0.082788993  0.082788993

  position of ions in fractional coordinates (direct lattice)
     0.998394676  0.001954551  0.000000177
     0.999628446  0.000192336  0.333519388
     0.999627780  0.000191659  0.666480725
     0.998381055  0.331423694  0.999999856
     0.999617393  0.333171051  0.333527863
     0.999617116  0.333170578  0.666472070
     0.983087714  0.666643872  0.999999906
     0.998361040  0.666638571  0.335251957
     0.998358138  0.666638060  0.664748386
     0.334965837  0.001971039  0.000000184
     0.333725412  0.000194936  0.333531161
     0.333724922  0.000191578  0.666469194
     0.334957361  0.331438808  0.999999478
     0.333729335  0.333179698  0.333536826
     0.333728801  0.333179434  0.666463734
     0.350120768  0.666658520  0.000000150
     0.334930774  0.666635823  0.335243910
     0.334930180  0.666635315  0.664756691
     0.666683343  0.000400197  0.999999921
     0.666660702  0.000165065  0.333499873
     0.666660204  0.000164807  0.666499958
     0.666664823  0.332963025  0.999999819
     0.666649893  0.333202105  0.333509687
     0.666649037  0.333201279  0.666490134
     0.666656693  0.666650588  0.000000580
     0.666648148  0.666645224  0.333738301
     0.666647902  0.666644705  0.666261107
     0.999788675  0.166658528  0.166863940
     0.999817124  0.166667323  0.500000097
     0.999788706  0.166658208  0.833135569
     0.999781300  0.499780480  0.166861961
     0.999781630  0.499780966  0.500000080
     0.999779897  0.499780122  0.833138098
     0.999794565  0.833560681  0.166846409
     0.999780790  0.833561097  0.500000013
     0.999793120  0.833560448  0.833154052
     0.333584008  0.166652999  0.166860767
     0.333529504  0.166656953  0.500000714
     0.333583950  0.166651417  0.833138435
     0.333562750  0.499779914  0.166847015
     0.333561649  0.499779760  0.500000422
     0.333562135  0.499780128  0.833153161
     0.333572567  0.833563988  0.166846259
     0.333567005  0.833565868  0.499999851
     0.333571907  0.833562236  0.833154653
     0.666655675  0.166646382  0.166818235
     0.666656124  0.166653689  0.499999988
     0.666655399  0.166646085  0.833181502
     0.666660528  0.499776008  0.166863399
     0.666667992  0.499818025  0.499999741
     0.666659931  0.499775546  0.833136522
     0.666656194  0.833579342  0.166857128
     0.666656019  0.833529066  0.499999613
     0.666655782  0.833579235  0.833142988
     0.166665117  0.001968047  0.168251477
     0.166659850  0.000393576  0.500000223
     0.166664822  0.001966675  0.831748803
     0.166664703  0.331424842  0.168256641
     0.166653588  0.332966644  0.500000452
     0.166664529  0.331424263  0.831743061
     0.166642035  0.666637264  0.183363688
     0.166651354  0.666649564  0.500000232
     0.166639965  0.666636599  0.816636356
     0.500198680  0.000192871  0.167025367
     0.500166772  0.000162226  0.500000045
     0.500198345  0.000191471  0.832974733
     0.500199268  0.333168496  0.167020607
     0.500165688  0.333184648  0.500000256
     0.500198795  0.333167986  0.832979028
     0.501970314  0.666649285  0.168246731
     0.500392761  0.666658524  0.499999889
     0.501970502  0.666648749  0.831753911
     0.833184614  0.000195111  0.167016541
     0.833186029  0.000164474  0.499999831
     0.833184358  0.000195173  0.832983423
     0.833173534  0.333168569  0.167014980
     0.833193635  0.333193070  0.499999873
     0.833173241  0.333168345  0.832984683
     0.831426202  0.666664079  0.168255402
     0.832966632  0.666654966  0.499999386
     0.831424643  0.666663957  0.831745088
     0.166662947  0.166653258  0.999999719
     0.166646331  0.166649500  0.333741125
     0.166646433  0.166648043  0.666259079
     0.166645391  0.483083678  0.999999706
     0.166639250  0.498358539  0.335252721
     0.166637925  0.498358546  0.664747885
     0.166681976  0.850113156  0.000000158
     0.166640347  0.834929887  0.335245218
     0.166638699  0.834928209  0.664755127
     0.500407693  0.166671914  0.999999618
     0.500169315  0.166655891  0.333503849
     0.500168385  0.166654455  0.666496300
     0.501961222  0.498364909  0.000000191
     0.500192962  0.499622918  0.333519354
     0.500192519  0.499622607  0.666480820
     0.501974659  0.834953697  0.000000473
     0.500194226  0.833720695  0.333527361
     0.500194264  0.833719294  0.666472661
     0.832983838  0.166653249  0.999999818
     0.833204735  0.166646850  0.333508172
     0.833204490  0.166646652  0.666491619
     0.831426199  0.498375138  0.000000163
     0.833171911  0.499619005  0.333526980
     0.833170544  0.499618157  0.666472671
     0.831449973  0.834955338  0.000000313
     0.833182492  0.833728891  0.333533780
     0.833181162  0.833728923  0.666465861
     0.999581288  0.166680886  0.999999758
     0.000249776  0.166675326  0.332980066
     0.000249784  0.166674792  0.667019853
     0.004269150  0.504267838  0.999999804
     0.000812821  0.500812076  0.332369592
     0.000811311  0.500811593  0.667630340
     0.004280237  0.829060082  0.999999957
     0.000819532  0.832498484  0.332370184
     0.000817744  0.832497940  0.667629823
     0.333782162  0.166678159  0.999999476
     0.333094961  0.166672728  0.332987380
     0.333094595  0.166671058  0.667012976
     0.329066468  0.504258604  0.999999697
     0.332499145  0.500814159  0.332370574
     0.332498505  0.500814326  0.667629766
     0.329088027  0.829074258  0.000000062
     0.332506511  0.832503146  0.332376671
     0.332505873  0.832501440  0.667623498
     0.666686643  0.166673214  0.999999913
     0.666673074  0.166668354  0.333164257
     0.666672420  0.166667833  0.666835627
     0.666685560  0.499563444  0.000000081
     0.666676179  0.500247394  0.332979519
     0.666675512  0.500246678  0.667020166
     0.666684281  0.833775917  0.000000214
     0.666673593  0.833092197  0.332983667
     0.666673248  0.833091935  0.667015954
     0.000844110  0.999057399  0.165827901
     0.000238169  0.999668727  0.500000003
     0.000843684  0.999057002  0.834172060
     0.000835310  0.334287225  0.165828679
     0.000245799  0.333679979  0.500000036
     0.000834999  0.334286889  0.834170975
     0.004264059  0.666659498  0.162368618
     0.999565753  0.666667364  0.499999987
     0.004261671  0.666659139  0.837630884
     0.332519924  0.999060636  0.165830628
     0.333085258  0.999662170  0.500000133
     0.332519574  0.999058824  0.834169437
     0.332519423  0.334285277  0.165831472
     0.333089805  0.333683817  0.500000459
     0.332519103  0.334284907  0.834167956
     0.329067573  0.666657398  0.162370438
     0.333768338  0.666659888  0.500000134
     0.329066665  0.666656924  0.837629758
     0.666684563  0.999659381  0.166411736
     0.666681235  0.999837759  0.499999855
     0.666684254  0.999659115  0.833588233
     0.666673849  0.333683844  0.166411653
     0.666674263  0.333502428  0.499999937
     0.666673397  0.333683401  0.833588127
     0.666674523  0.666665082  0.167095036
     0.666672551  0.666665967  0.499999530
     0.666674058  0.666664766  0.832905303
     0.166673265  0.166672933  0.167097451
     0.166665724  0.166673635  0.500000332
     0.166673266  0.166672009  0.832902043
     0.166661045  0.504259100  0.162367825
     0.166667850  0.499564742  0.500000246
     0.166659951  0.504258978  0.837631787
     0.166671197  0.829063219  0.162373516
     0.166662079  0.833767106  0.500000048
     0.166669981  0.829061970  0.837626752
     0.499665093  0.166675471  0.166414892
     0.499840667  0.166677713  0.500000201
     0.499664760  0.166674504  0.833584735
     0.499060770  0.500825844  0.165827635
     0.499669160  0.500237185  0.500000031
     0.499060434  0.500825638  0.834172376
     0.499064720  0.832510654  0.165827785
     0.499663090  0.833081533  0.499999828
     0.499064582  0.832509708  0.834172570
     0.833696017  0.166667661  0.166410241
     0.833503669  0.166672444  0.499999922
     0.833695851  0.166667533  0.833589510
     0.834289020  0.500832031  0.165828131
     0.833680484  0.500246918  0.499999731
     0.834287977  0.500831607  0.834171902
     0.834294924  0.832517572  0.165828712
     0.833684229  0.833089850  0.499999656
     0.834293879  0.832517616  0.834171546
     0.166681705  0.003182933  0.999999924
     0.166670005  0.999259536  0.332588828
     0.166669419  0.999257718  0.667411376
     0.166674970  0.330128994  0.999999641
     0.166663578  0.334078673  0.332591528
     0.166663271  0.334078415  0.667408611
     0.166653175  0.666649899  0.336471039
     0.166651355  0.666649381  0.663529239
     0.499285366  0.999278654  0.000000005
     0.499689651  0.999685218  0.332997806
     0.499689224  0.999683728  0.667002224
     0.499264492  0.334080992  0.999999718
     0.499685266  0.333659810  0.333006627
     0.499684557  0.333659216  0.666993507
     0.503188980  0.666660610  0.000000243
     0.499258644  0.666664159  0.332584462
     0.499258720  0.666663611  0.667415500
     0.834103909  0.999258096  0.000000024
     0.833665238  0.999682762  0.333003083
     0.833664685  0.999682809  0.666996714
     0.834088275  0.334079096  0.999999866
     0.833660659  0.333659379  0.333009175
     0.833660121  0.333658734  0.666990600
     0.830132585  0.666672315  0.000000389
     0.834079915  0.666664216  0.332589898
     0.834078070  0.666663793  0.667409561

  ion indices of the primitive-cell ions
   primitive index   ion index
                 1           1
                 2           2
                 3           3
                 4           4
                 5           5
                 6           6
                 7           7
                 8           8
                 9           9
                10          10
                11          11
                12          12
                13          13
                14          14
                15          15
                16          16
                17          17
                18          18
                19          19
                20          20
                21          21
                22          22
                23          23
                24          24
                25          25
                26          26
                27          27
                28          28
                29          29
                30          30
                31          31
                32          32
                33          33
                34          34
                35          35
                36          36
                37          37
                38          38
                39          39
                40          40
                41          41
                42          42
                43          43
                44          44
                45          45
                46          46
                47          47
                48          48
                49          49
                50          50
                51          51
                52          52
                53          53
                54          54
                55          55
                56          56
                57          57
                58          58
                59          59
                60          60
                61          61
                62          62
                63          63
                64          64
                65          65
                66          66
                67          67
                68          68
                69          69
                70          70
                71          71
                72          72
                73          73
                74          74
                75          75
                76          76
                77          77
                78          78
                79          79
                80          80
                81          81
                82          82
                83          83
                84          84
                85          85
                86          86
                87          87
                88          88
                89          89
                90          90
                91          91
                92          92
                93          93
                94          94
                95          95
                96          96
                97          97
                98          98
                99          99
               100         100
               101         101
               102         102
               103         103
               104         104
               105         105
               106         106
               107         107
               108         108
               109         109
               110         110
               111         111
               112         112
               113         113
               114         114
               115         115
               116         116
               117         117
               118         118
               119         119
               120         120
               121         121
               122         122
               123         123
               124         124
               125         125
               126         126
               127         127
               128         128
               129         129
               130         130
               131         131
               132         132
               133         133
               134         134
               135         135
               136         136
               137         137
               138         138
               139         139
               140         140
               141         141
               142         142
               143         143
               144         144
               145         145
               146         146
               147         147
               148         148
               149         149
               150         150
               151         151
               152         152
               153         153
               154         154
               155         155
               156         156
               157         157
               158         158
               159         159
               160         160
               161         161
               162         162
               163         163
               164         164
               165         165
               166         166
               167         167
               168         168
               169         169
               170         170
               171         171
               172         172
               173         173
               174         174
               175         175
               176         176
               177         177
               178         178
               179         179
               180         180
               181         181
               182         182
               183         183
               184         184
               185         185
               186         186
               187         187
               188         188
               189         189
               190         190
               191         191
               192         192
               193         193
               194         194
               195         195
               196         196
               197         197
               198         198
               199         199
               200         200
               201         201
               202         202
               203         203
               204         204
               205         205
               206         206
               207         207
               208         208
               209         209
               210         210
               211         211
               212         212
               213         213
               214         214
               215         215

----------------------------------------------------------------------------------------

 
 
 KPOINTS: Gamma-point only                        

Automatic generation of k-mesh.
 Grid dimensions read from file:
 generate k-points for:    1    1    1

 Generating k-lattice:

  Cartesian coordinates                     Fractional coordinates (reciprocal lattice)
     0.082788993  0.000000000  0.000000000     1.000000000  0.000000000  0.000000000
     0.000000000  0.082788993  0.000000000     0.000000000  1.000000000  0.000000000
     0.000000000  0.000000000  0.082788993     0.000000000  0.000000000  1.000000000

  Length of vectors
     0.082788993  0.082788993  0.082788993

  Shift w.r.t. Gamma in fractional coordinates (k-lattice)
     0.000000000  0.000000000  0.000000000

 
 Subroutine IBZKPT returns following result:
 ===========================================
 
 Found      1 irreducible k-points:
 
 Following reciprocal coordinates:
            Coordinates               Weight
  0.000000  0.000000  0.000000      1.000000
 
 Following cartesian coordinates:
            Coordinates               Weight
  0.000000  0.000000  0.000000      1.000000
 


--------------------------------------------------------------------------------------------------------




 Dimension of arrays:
   k-points           NKPTS =      1   k-points in BZ     NKDIM =      1   number of bands    NBANDS=    752
   number of dos      NEDOS =    301   number of ions     NIONS =    215
   non local maximal  LDIM  =      4   non local SUM 2l+1 LMDIM =      8
   total plane-waves  NPLWV = 512000
   max r-space proj   IRMAX =      1   max aug-charges    IRDMAX=   3893
   dimension x,y,z NGX =    80 NGY =   80 NGZ =   80
   dimension x,y,z NGXF=   160 NGYF=  160 NGZF=  160
   support grid    NGXF=   160 NGYF=  160 NGZF=  160
   ions per type =             108 107
   NGX,Y,Z   is equivalent  to a cutoff of  11.01, 11.01, 11.01 a.u.
   NGXF,Y,Z  is equivalent  to a cutoff of  22.02, 22.02, 22.02 a.u.

 SYSTEM =  Si                                      
 POSCAR =  Li4 F4                                  

 Startparameter for this run:
   NWRITE =      2    write-flag & timer
   PREC   = accura    normal or accurate (medium, high low for compatibility)
   ISTART =      1    job   : 0-new  1-cont  2-samecut
   ICHARG =      2    charge: 1-file 2-atom 10-const
   ISPIN  =      2    spin polarized calculation?
   LNONCOLLINEAR =      F non collinear calculations
   LSORBIT =      F    spin-orbit coupling
   INIWAV =      1    electr: 0-lowe 1-rand  2-diag
   LASPH  =      F    aspherical Exc in radial PAW
 Electronic Relaxation 1
   ENCUT  =  400.0 eV  29.40 Ry    5.42 a.u.  19.70 19.70 19.70*2*pi/ulx,y,z
   ENINI  =  400.0     initial cutoff
   ENAUG  =  628.9 eV  augmentation charge cutoff
   NELM   =    200;   NELMIN=  2; NELMDL=  0     # of ELM steps 
   EDIFF  = 0.1E-09   stopping-criterion for ELM
   LREAL  =      F    real-space projection
   NLSPLINE    = F    spline interpolate recip. space projectors
   LCOMPAT=      F    compatible to vasp.4.4
   GGA_COMPAT  = T    GGA compatible to vasp.4.4-vasp.4.6
   LMAXPAW     = -100 max onsite density
   LMAXMIX     =    2 max onsite mixed and CHGCAR
   VOSKOWN=      0    Vosko Wilk Nusair interpolation
   ROPT   =    0.00000   0.00000
 Ionic relaxation
   EDIFFG = -.1E-01   stopping-criterion for IOM
   NSW    =    500    number of steps for IOM
   NBLOCK =      1;   KBLOCK =    500    inner block; outer block 
   IBRION =      3    ionic relax: 0-MD 1-quasi-New 2-CG
   NFREE  =      0    steps in history (QN), initial steepest desc. (CG)
   ISIF   =      0    stress and relaxation
   IWAVPR =     11    prediction:  0-non 1-charg 2-wave 3-comb
   ISYM   =      2    0-nonsym 1-usesym 2-fastsym
   LCORR  =      T    Harris-Foulkes like correction to forces

   POTIM  = 0.1000    time-step for ionic-motion
   TEIN   =    0.0    initial temperature
   TEBEG  =    0.0;   TEEND  =   0.0 temperature during run
   SMASS  =  -3.00    Nose mass-parameter (am)
   estimated Nose-frequenzy (Omega)   =  0.10E-29 period in steps = 0.63E+47 mass=  -0.333E-26a.u.
   SCALEE = 1.0000    scale energy and forces
   NPACO  =    256;   APACO  = 10.0  distance and # of slots for P.C.
   PSTRESS=    0.0 pullay stress

  Mass of Ions in am
   POMASS =   7.01 19.00
  Ionic Valenz
   ZVAL   =   3.00  7.00
  Atomic Wigner-Seitz radii
   RWIGS  =  -1.00 -1.00
  virtual crystal weights 
   VCA    =   1.00  1.00
   NELECT =    1072.0000    total number of electrons
   NUPDOWN=      -1.0000    fix difference up-down

 DOS related values:
   EMIN   =  10.00;   EMAX   =-10.00  energy-range for DOS
   EFERMI =   0.00;   METHOD = LEGACY      
   ISMEAR =     0;   SIGMA  =   0.01  broadening in eV -4-tet -1-fermi 0-gaus

 Electronic relaxation 2 (details)
   IALGO  =     38    algorithm
   LDIAG  =      T    sub-space diagonalisation (order eigenvalues)
   LSUBROT=      F    optimize rotation matrix (better conditioning)
   TURBO    =      0    0=normal 1=particle mesh
   IRESTART =      0    0=no restart 2=restart with 2 vectors
   NREBOOT  =      0    no. of reboots
   NMIN     =      0    reboot dimension
   EREF     =   0.00    reference energy to select bands
   IMIX   =      4    mixing-type and parameters
     AMIX     =   0.40;   BMIX     =  1.00
     AMIX_MAG =   1.60;   BMIX_MAG =  1.00
     AMIN     =   0.10
     WC   =   100.;   INIMIX=   1;  MIXPRE=   1;  MAXMIX= -45

 Intra band minimization:
   WEIMIN = 0.0010     energy-eigenvalue tresh-hold
   EBREAK =  0.33E-13  absolut break condition
   DEPER  =   0.30     relativ break condition  

   TIME   =   0.40     timestep for ELM

  volume/ion in A,a.u.               =       8.20        55.31
  Fermi-wavevector in a.u.,A,eV,Ry     =   1.387115  2.621267 26.178794  1.924087
  Thomas-Fermi vector in A             =   2.511366
 
 Write flags
   LWAVE        =      T    write WAVECAR
   LDOWNSAMPLE  =      F    k-point downsampling of WAVECAR
   LCHARG       =      T    write CHGCAR
   LVTOT        =      F    write LOCPOT, total local potential
   LVHAR        =      F    write LOCPOT, Hartree potential only
   LELF         =      F    write electronic localiz. function (ELF)
   LORBIT       =      0    0 simple, 1 ext, 2 COOP (PROOUT), +10 PAW based schemes


 Dipole corrections
   LMONO  =      F    monopole corrections only (constant potential shift)
   LDIPOL =      F    correct potential (dipole corrections)
   IDIPOL =      0    1-x, 2-y, 3-z, 4-all directions 
   EPSILON=  1.0000000 bulk dielectric constant

 Exchange correlation treatment:
   GGA     =    --    GGA type
   LEXCH   =     8    internal setting for exchange type
   LIBXC   =     F    Libxc                    
   VOSKOWN =     0    Vosko Wilk Nusair interpolation
   LHFCALC =     F    Hartree Fock is set to
   LHFONE  =     F    Hartree Fock one center treatment
   AEXX    =    0.0000 exact exchange contribution

 Linear response parameters
   LEPSILON=     F    determine dielectric tensor
   LRPA    =     F    only Hartree local field effects (RPA)
   LNABLA  =     F    use nabla operator in PAW spheres
   LVEL    =     F    velocity operator in full k-point grid
   CSHIFT  =0.1000    complex shift for real part using Kramers Kronig
   OMEGAMAX=  -1.0    maximum frequency
   DEG_THRESHOLD= 0.2000000E-02 threshold for treating states as degnerate
   RTIME   =   -0.100 relaxation time in fs
  (WPLASMAI=    0.000 imaginary part of plasma frequency in eV, 0.658/RTIME)
   DFIELD  = 0.0000000 0.0000000 0.0000000 field for delta impulse in time
 
  Optional k-point grid parameters
   LKPOINTS_OPT  =     F    use optional k-point grid
   KPOINTS_OPT_MODE=     1    mode for optional k-point grid
 
 Orbital magnetization related:
   ORBITALMAG=     F  switch on orbital magnetization
   LCHIMAG   =     F  perturbation theory with respect to B field
   DQ        =  0.001000  dq finite difference perturbation B field
   LLRAUG    =     F  two centre corrections for induced B field
   LBONE     =     F  B-component reconstruction in AE one-centre
   LVGVCALC  =     T  calculate vGv susceptibility
   LVGVAPPL  =     F  apply vGv susceptibility instead of pGv for G=0

 Random number generation:
   RANDOM_GENERATOR = DEFAULT
   PCG_SEED         = not used


--------------------------------------------------------------------------------------------------------


 quickmin algorithm: (dynamic with friction)
 charge density and potential will be updated during run
 spin polarized calculation
 Variant of blocked Davidson
 Davidson routine will perform the subspace rotation
 perform sub-space diagonalisation
    after iterative eigenvector-optimisation
 modified Broyden-mixing scheme, WC =      100.0
 initial mixing is a Kerker type mixing with AMIX =  0.4000 and BMIX =      1.0000
 Hartree-type preconditioning will be used
 using additional bands           216
 reciprocal scheme for non local part
 use partial core corrections
 calculate Harris-corrections to forces 
   (improved forces if not selfconsistent)
 use gradient corrections 
 use of overlap-Matrix (Vanderbilt PP)
 Gauss-broadening in eV      SIGMA  =   0.01


--------------------------------------------------------------------------------------------------------


  energy-cutoff  :      400.00
  volume of cell :     1762.31
      direct lattice vectors                 reciprocal lattice vectors
    12.078900337  0.000000000  0.000000000     0.082788993  0.000000000  0.000000000
     0.000000000 12.078900337  0.000000000     0.000000000  0.082788993  0.000000000
     0.000000000  0.000000000 12.078900337     0.000000000  0.000000000  0.082788993

  length of vectors
    12.078900337 12.078900337 12.078900337     0.082788993  0.082788993  0.082788993


 
 old parameters found on file WAVECAR:
  energy-cutoff  :      400.00
  volume of cell :     1762.31
      direct lattice vectors                 reciprocal lattice vectors
    12.078900337  0.000000000  0.000000000     0.082788993  0.000000000  0.000000000
     0.000000000 12.078900337  0.000000000     0.000000000  0.082788993  0.000000000
     0.000000000  0.000000000 12.078900337     0.000000000  0.000000000  0.082788993

  length of vectors

 
 k-points in units of 2pi/SCALE and weight: Gamma-point only                        
   0.00000000  0.00000000  0.00000000       1.000
 
 k-points in reciprocal lattice and weights: Gamma-point only                        
   0.00000000  0.00000000  0.00000000       1.000
 
 position of ions in fractional coordinates (direct lattice) 
   0.99839468  0.00195455  0.00000018
   0.99962845  0.00019234  0.33351939
   0.99962778  0.00019166  0.66648073
   0.99838105  0.33142369  0.99999986
   0.99961739  0.33317105  0.33352786
   0.99961712  0.33317058  0.66647207
   0.98308771  0.66664387  0.99999991
   0.99836104  0.66663857  0.33525196
   0.99835814  0.66663806  0.66474839
   0.33496584  0.00197104  0.00000018
   0.33372541  0.00019494  0.33353116
   0.33372492  0.00019158  0.66646919
   0.33495736  0.33143881  0.99999948
   0.33372933  0.33317970  0.33353683
   0.33372880  0.33317943  0.66646373
   0.35012077  0.66665852  0.00000015
   0.33493077  0.66663582  0.33524391
   0.33493018  0.66663531  0.66475669
   0.66668334  0.00040020  0.99999992
   0.66666070  0.00016507  0.33349987
   0.66666020  0.00016481  0.66649996
   0.66666482  0.33296302  0.99999982
   0.66664989  0.33320211  0.33350969
   0.66664904  0.33320128  0.66649013
   0.66665669  0.66665059  0.00000058
   0.66664815  0.66664522  0.33373830
   0.66664790  0.66664471  0.66626111
   0.99978868  0.16665853  0.16686394
   0.99981712  0.16666732  0.50000010
   0.99978871  0.16665821  0.83313557
   0.99978130  0.49978048  0.16686196
   0.99978163  0.49978097  0.50000008
   0.99977990  0.49978012  0.83313810
   0.99979457  0.83356068  0.16684641
   0.99978079  0.83356110  0.50000001
   0.99979312  0.83356045  0.83315405
   0.33358401  0.16665300  0.16686077
   0.33352950  0.16665695  0.50000071
   0.33358395  0.16665142  0.83313844
   0.33356275  0.49977991  0.16684701
   0.33356165  0.49977976  0.50000042
   0.33356214  0.49978013  0.83315316
   0.33357257  0.83356399  0.16684626
   0.33356700  0.83356587  0.49999985
   0.33357191  0.83356224  0.83315465
   0.66665568  0.16664638  0.16681823
   0.66665612  0.16665369  0.49999999
   0.66665540  0.16664608  0.83318150
   0.66666053  0.49977601  0.16686340
   0.66666799  0.49981802  0.49999974
   0.66665993  0.49977555  0.83313652
   0.66665619  0.83357934  0.16685713
   0.66665602  0.83352907  0.49999961
   0.66665578  0.83357924  0.83314299
   0.16666512  0.00196805  0.16825148
   0.16665985  0.00039358  0.50000022
   0.16666482  0.00196667  0.83174880
   0.16666470  0.33142484  0.16825664
   0.16665359  0.33296664  0.50000045
   0.16666453  0.33142426  0.83174306
   0.16664204  0.66663726  0.18336369
   0.16665135  0.66664956  0.50000023
   0.16663996  0.66663660  0.81663636
   0.50019868  0.00019287  0.16702537
   0.50016677  0.00016223  0.50000004
   0.50019835  0.00019147  0.83297473
   0.50019927  0.33316850  0.16702061
   0.50016569  0.33318465  0.50000026
   0.50019880  0.33316799  0.83297903
   0.50197031  0.66664929  0.16824673
   0.50039276  0.66665852  0.49999989
   0.50197050  0.66664875  0.83175391
   0.83318461  0.00019511  0.16701654
   0.83318603  0.00016447  0.49999983
   0.83318436  0.00019517  0.83298342
   0.83317353  0.33316857  0.16701498
   0.83319364  0.33319307  0.49999987
   0.83317324  0.33316834  0.83298468
   0.83142620  0.66666408  0.16825540
   0.83296663  0.66665497  0.49999939
   0.83142464  0.66666396  0.83174509
   0.16666295  0.16665326  0.99999972
   0.16664633  0.16664950  0.33374112
   0.16664643  0.16664804  0.66625908
   0.16664539  0.48308368  0.99999971
   0.16663925  0.49835854  0.33525272
   0.16663792  0.49835855  0.66474788
   0.16668198  0.85011316  0.00000016
   0.16664035  0.83492989  0.33524522
   0.16663870  0.83492821  0.66475513
   0.50040769  0.16667191  0.99999962
   0.50016932  0.16665589  0.33350385
   0.50016839  0.16665445  0.66649630
   0.50196122  0.49836491  0.00000019
   0.50019296  0.49962292  0.33351935
   0.50019252  0.49962261  0.66648082
   0.50197466  0.83495370  0.00000047
   0.50019423  0.83372070  0.33352736
   0.50019426  0.83371929  0.66647266
   0.83298384  0.16665325  0.99999982
   0.83320473  0.16664685  0.33350817
   0.83320449  0.16664665  0.66649162
   0.83142620  0.49837514  0.00000016
   0.83317191  0.49961900  0.33352698
   0.83317054  0.49961816  0.66647267
   0.83144997  0.83495534  0.00000031
   0.83318249  0.83372889  0.33353378
   0.83318116  0.83372892  0.66646586
   0.99958129  0.16668089  0.99999976
   0.00024978  0.16667533  0.33298007
   0.00024978  0.16667479  0.66701985
   0.00426915  0.50426784  0.99999980
   0.00081282  0.50081208  0.33236959
   0.00081131  0.50081159  0.66763034
   0.00428024  0.82906008  0.99999996
   0.00081953  0.83249848  0.33237018
   0.00081774  0.83249794  0.66762982
   0.33378216  0.16667816  0.99999948
   0.33309496  0.16667273  0.33298738
   0.33309459  0.16667106  0.66701298
   0.32906647  0.50425860  0.99999970
   0.33249914  0.50081416  0.33237057
   0.33249851  0.50081433  0.66762977
   0.32908803  0.82907426  0.00000006
   0.33250651  0.83250315  0.33237667
   0.33250587  0.83250144  0.66762350
   0.66668664  0.16667321  0.99999991
   0.66667307  0.16666835  0.33316426
   0.66667242  0.16666783  0.66683563
   0.66668556  0.49956344  0.00000008
   0.66667618  0.50024739  0.33297952
   0.66667551  0.50024668  0.66702017
   0.66668428  0.83377592  0.00000021
   0.66667359  0.83309220  0.33298367
   0.66667325  0.83309194  0.66701595
   0.00084411  0.99905740  0.16582790
   0.00023817  0.99966873  0.50000000
   0.00084368  0.99905700  0.83417206
   0.00083531  0.33428723  0.16582868
   0.00024580  0.33367998  0.50000004
   0.00083500  0.33428689  0.83417098
   0.00426406  0.66665950  0.16236862
   0.99956575  0.66666736  0.49999999
   0.00426167  0.66665914  0.83763088
   0.33251992  0.99906064  0.16583063
   0.33308526  0.99966217  0.50000013
   0.33251957  0.99905882  0.83416944
   0.33251942  0.33428528  0.16583147
   0.33308981  0.33368382  0.50000046
   0.33251910  0.33428491  0.83416796
   0.32906757  0.66665740  0.16237044
   0.33376834  0.66665989  0.50000013
   0.32906666  0.66665692  0.83762976
   0.66668456  0.99965938  0.16641174
   0.66668124  0.99983776  0.49999985
   0.66668425  0.99965911  0.83358823
   0.66667385  0.33368384  0.16641165
   0.66667426  0.33350243  0.49999994
   0.66667340  0.33368340  0.83358813
   0.66667452  0.66666508  0.16709504
   0.66667255  0.66666597  0.49999953
   0.66667406  0.66666477  0.83290530
   0.16667326  0.16667293  0.16709745
   0.16666572  0.16667363  0.50000033
   0.16667327  0.16667201  0.83290204
   0.16666105  0.50425910  0.16236782
   0.16666785  0.49956474  0.50000025
   0.16665995  0.50425898  0.83763179
   0.16667120  0.82906322  0.16237352
   0.16666208  0.83376711  0.50000005
   0.16666998  0.82906197  0.83762675
   0.49966509  0.16667547  0.16641489
   0.49984067  0.16667771  0.50000020
   0.49966476  0.16667450  0.83358473
   0.49906077  0.50082584  0.16582763
   0.49966916  0.50023718  0.50000003
   0.49906043  0.50082564  0.83417238
   0.49906472  0.83251065  0.16582778
   0.49966309  0.83308153  0.49999983
   0.49906458  0.83250971  0.83417257
   0.83369602  0.16666766  0.16641024
   0.83350367  0.16667244  0.49999992
   0.83369585  0.16666753  0.83358951
   0.83428902  0.50083203  0.16582813
   0.83368048  0.50024692  0.49999973
   0.83428798  0.50083161  0.83417190
   0.83429492  0.83251757  0.16582871
   0.83368423  0.83308985  0.49999966
   0.83429388  0.83251762  0.83417155
   0.16668171  0.00318293  0.99999992
   0.16667000  0.99925954  0.33258883
   0.16666942  0.99925772  0.66741138
   0.16667497  0.33012899  0.99999964
   0.16666358  0.33407867  0.33259153
   0.16666327  0.33407841  0.66740861
   0.16665317  0.66664990  0.33647104
   0.16665136  0.66664938  0.66352924
   0.49928537  0.99927865  0.00000001
   0.49968965  0.99968522  0.33299781
   0.49968922  0.99968373  0.66700222
   0.49926449  0.33408099  0.99999972
   0.49968527  0.33365981  0.33300663
   0.49968456  0.33365922  0.66699351
   0.50318898  0.66666061  0.00000024
   0.49925864  0.66666416  0.33258446
   0.49925872  0.66666361  0.66741550
   0.83410391  0.99925810  0.00000002
   0.83366524  0.99968276  0.33300308
   0.83366468  0.99968281  0.66699671
   0.83408827  0.33407910  0.99999987
   0.83366066  0.33365938  0.33300918
   0.83366012  0.33365873  0.66699060
   0.83013259  0.66667231  0.00000039
   0.83407991  0.66666422  0.33258990
   0.83407807  0.66666379  0.66740956
 
 position of ions in cartesian coordinates  (Angst):
  12.05950978  0.02360882  0.00000214
  12.07441237  0.00232321  4.02854745
  12.07440433  0.00231503  8.05035426
  12.05934526  4.00323377 12.07889859
  12.07427886  4.02433992  4.02864982
  12.07427552  4.02433421  8.05024971
  11.87461852  8.05232489 12.07889921
  12.05910350  8.05226087  4.04947498
  12.05906845  8.05225468  8.02942950
   4.04601896  0.02380798  0.00000222
   4.03103599  0.00235461  4.02868966
   4.03103007  0.00231405  8.05021497
   4.04591658  4.00341633 12.07889403
   4.03108337  4.02444436  4.02875808
   4.03107693  4.02444118  8.05014902
   4.22907386  8.05250182  0.00000181
   4.04559544  8.05222767  4.04937778
   4.04558826  8.05222153  8.02952982
   8.05280165  0.00483394 12.07889938
   8.05252818  0.00199381  4.02831172
   8.05252217  0.00199068  8.05058657
   8.05257795  4.02182719 12.07889815
   8.05239762  4.02471502  4.02843027
   8.05238728  4.02470504  8.05046790
   8.05247975  8.05240601  0.00000700
   8.05237654  8.05234122  4.03119168
   8.05237357  8.05233496  8.04770151
  12.07634777  2.01305175  2.01553290
  12.07669140  2.01315799  6.03945135
  12.07634814  2.01304788 10.06336151
  12.07625868  6.03679860  2.01550900
  12.07626266  6.03680448  6.03945114
  12.07624174  6.03679428 10.06339206
  12.07641891 10.06849639  2.01532115
  12.07625252 10.06850141  6.03945032
  12.07640146 10.06849358 10.06358476
   4.02932799  2.01298497  2.01549458
   4.02866964  2.01303272  6.03945879
   4.02932728  2.01296585 10.06339612
   4.02907121  6.03679177  2.01532847
   4.02905792  6.03678992  6.03945527
   4.02906379  6.03679436 10.06357400
   4.02918979 10.06853634  2.01531933
   4.02912261 10.06855905  6.03944837
   4.02918182 10.06851518 10.06359202
   8.05246746  2.01290503  2.01498083
   8.05247288  2.01299330  6.03945002
   8.05246413  2.01290145 10.06391632
   8.05252608  6.03674460  2.01552637
   8.05261624  6.03725211  6.03944704
   8.05251887  6.03673901 10.06337301
   8.05247372 10.06872179  2.01545062
   8.05247161 10.06811452  6.03944549
   8.05246875 10.06872051 10.06345111
   2.01313133  0.02377185  2.03229282
   2.01306772  0.00475396  6.03945286
   2.01312777  0.02375527 10.04661090
   2.01312634  4.00324763  2.03235520
   2.01299208  4.02187091  6.03945562
   2.01312424  4.00324064 10.04654154
   2.01285253  8.05224507  2.21483171
   2.01296510  8.05239364  6.03945297
   2.01282752  8.05223704  9.86406915
   6.04185001  0.00232967  2.01748276
   6.04146460  0.00195951  6.03945071
   6.04184596  0.00231276 10.06141878
   6.04185711  4.02430906  2.01742526
   6.04145150  4.02450416  6.03945326
   6.04185139  4.02430290 10.06147067
   6.06324939  8.05239028  2.03223550
   6.04419429  8.05250187  6.03944883
   6.06325166  8.05238380 10.04667260
  10.06395392  0.00235672  2.01737616
  10.06397101  0.00198667  6.03944813
  10.06395083  0.00235748 10.06152374
  10.06382008  4.02430994  2.01735730
  10.06406288  4.02460588  6.03944863
  10.06381654  4.02430723 10.06153897
  10.04271423  8.05256897  2.03234024
  10.06132093  8.05245890  6.03944275
  10.04269540  8.05256750 10.04656602
   2.01310512  2.01298810 12.07889695
   2.01290443  2.01294270  4.03122578
   2.01290566  2.01292510  8.04767702
   2.01289307  5.83511960 12.07889678
   2.01281889  6.01962312  4.04948420
   2.01280288  6.01962321  8.02942345
   2.01333498 10.26843208  0.00000191
   2.01283214 10.08503490  4.04939358
   2.01281224 10.08501463  8.02951093
   6.04437466  2.01321344 12.07889573
   6.04149531  2.01301990  4.02835976
   6.04148407  2.01300255  8.05054239
   6.06313957  6.01970007  0.00000231
   6.04178093  6.03489544  4.02854704
   6.04177559  6.03489168  8.05035540
   6.06330187 10.08532250  0.00000572
   6.04179620 10.07042919  4.02864376
   6.04179667 10.07041226  8.05025685
  10.06152876  2.01298799 12.07889814
  10.06419695  2.01291069  4.02841197
  10.06419400  2.01290831  8.05048585
  10.04271420  6.01982362  0.00000197
  10.06380047  6.03484817  4.02863915
  10.06378396  6.03483792  8.05025698
  10.04300136 10.08534231  0.00000378
  10.06392828 10.07052818  4.02872129
  10.06391222 10.07052857  8.05017471
  12.07384276  2.01332181 12.07889741
   0.00301702  2.01325466  4.02203303
   0.00301712  2.01324821  8.05686632
   0.05156664  6.09100096 12.07889796
   0.00981798  6.04925915  4.01465918
   0.00979974  6.04925332  8.06424034
   0.05170056 10.01413411 12.07889982
   0.00989905 10.05566622  4.01466632
   0.00987745 10.05565965  8.06423409
   4.03172147  2.01328887 12.07889401
   4.02342084  2.01322327  4.02212138
   4.02341641  2.01320310  8.05678326
   3.97476108  6.09088942 12.07889668
   4.01622403  6.04928432  4.01467104
   4.01621631  6.04928633  8.06423341
   3.97502148 10.01430533  0.00000074
   4.01631301 10.05572254  4.01474468
   4.01630530 10.05570193  8.06415770
   8.05284152  2.01322914 12.07889929
   8.05267762  2.01317044  4.02425786
   8.05266972  2.01316415  8.05464108
   8.05282844  6.03417705  0.00000098
   8.05271512  6.04243841  4.02202642
   8.05270706  6.04242976  8.05687011
   8.05281298 10.07109621  0.00000259
   8.05268389 10.06283762  4.02207653
   8.05267972 10.06283446  8.05681923
   0.01019593 12.06751475  2.00301869
   0.00287682 12.07489893  6.03945020
   0.01019078 12.06750996 10.07588118
   0.01008962  4.03782208  2.00302808
   0.00296898  4.03048721  6.03945061
   0.01008587  4.03781802 10.07586807
   0.05150514  8.05251363  1.96123436
  12.07365511  8.05260865  6.03945001
   0.05147629  8.05250930 10.11765996
   4.01647502 12.06755385  2.00305163
   4.02330364 12.07481972  6.03945178
   4.01647079 12.06753197 10.07584949
   4.01646897  4.03779855  2.00306182
   4.02335856  4.03053357  6.03945571
   4.01646510  4.03779407 10.07583160
   3.97477442  8.05248827  1.96125634
   4.03155449  8.05251835  6.03945178
   3.97476345  8.05248255 10.11764636
   8.05281640 12.07478603  2.01007077
   8.05277620 12.07694064  6.03944841
   8.05281266 12.07478282 10.06882919
   8.05268698  4.03053389  2.01006977
   8.05269198  4.02834260  6.03944940
   8.05268151  4.03052854 10.06882791
   8.05269512  8.05258108  2.01832428
   8.05267130  8.05259178  6.03944449
   8.05268950  8.05257727 10.06058014
   2.01322975  2.01322575  2.01835346
   2.01313867  2.01323422  6.03945418
   2.01322977  2.01321458 10.06054077
   2.01308215  6.09089541  1.96122477
   2.01316434  6.03419273  6.03945314
   2.01306894  6.09089394 10.11767087
   2.01320478 10.01417200  1.96129352
   2.01309464 10.07098977  6.03945075
   2.01319009 10.01415690 10.11761005
   6.03540486  2.01325641  2.01010890
   6.03752561  2.01328348  6.03945259
   6.03540084  2.01324473 10.06878693
   6.02810531  6.04942546  2.00301547
   6.03545399  6.04231510  6.03945054
   6.02810124  6.04942297 10.07588499
   6.02815301 10.05581321  2.00301729
   6.03538067 10.06270882  6.03944809
   6.02815134 10.05580180 10.07588734
  10.07013110  2.01316207  2.01005271
  10.06780774  2.01321985  6.03944923
  10.07012909  2.01316052 10.06884461
  10.07729393  6.04950019  2.00302147
  10.06994348  6.04243266  6.03944692
  10.07728132  6.04949506 10.07587927
  10.07736524 10.05589678  2.00302848
  10.06998872 10.06280927  6.03944602
  10.07735261 10.05589731 10.07587497
   2.01333171  0.03844633 12.07889942
   2.01319038 12.06995635  4.01730731
   2.01318330 12.06993438  8.06159550
   2.01325035  3.98759522 12.07889600
   2.01311275  4.03530300  4.01733992
   2.01310904  4.03529988  8.06156210
   2.01298709  8.05239769  4.06420015
   2.01296511  8.05239144  8.01470355
   6.03081818 12.07018727  0.00000006
   6.03570149 12.07509811  4.02224731
   6.03569634 12.07508012  8.05665339
   6.03056604  4.03533101 12.07889693
   6.03564852  4.03024359  4.02235386
   6.03563997  4.03023641  8.05654809
   6.07796954  8.05252706  0.00000294
   6.03049541  8.05256994  4.01725457
   6.03049632  8.05256331  8.06164531
  10.07505799 12.06993896  0.00000029
  10.06975932 12.07506845  4.02231105
  10.06975264 12.07506902  8.05658683
  10.07486914  4.03530810 12.07889871
  10.06970401  4.03023839  4.02238464
  10.06969751  4.03023059  8.05651299
  10.02708876  8.05266845  0.00000470
  10.07476817  8.05257063  4.01732024
  10.07474589  8.05256552  8.06157357
 


--------------------------------------------------------------------------------------------------------


 k-point   1 :   0.0000 0.0000 0.0000  plane waves:   31919

 maximum and minimum number of plane-waves per node :     31919    31919

 maximum number of plane-waves:     31919
 maximum index in each direction: 
   IXMAX=   19   IYMAX=   19   IZMAX=   19
   IXMIN=  -19   IYMIN=  -19   IZMIN=  -19


 serial   3D FFT for wavefunctions
 parallel 3D FFT for charge:
    minimum data exchange during FFTs selected (reduces bandwidth)


 total amount of memory used by VASP MPI-rank0   824309. kBytes
=======================================================================

   base      :      30000. kBytes
   nonl-proj :     113890. kBytes
   fftplans  :      71598. kBytes
   grid      :     206643. kBytes
   one-center:       1320. kBytes
   wavefun   :     400858. kBytes
 
     INWAV:  cpu time      0.4095: real time      0.8387
 Broyden mixing: mesh for mixing (old mesh)
   NGX = 39   NGY = 39   NGZ = 39
  (NGX  =160   NGY  =160   NGZ  =160)
  gives a total of  59319 points

 initial charge density was supplied:
 charge density of overlapping atoms calculated
 number of electron    1073.0000000 magnetization     215.0000000
 keeping initial charge density in first step


--------------------------------------------------------------------------------------------------------


 Maximum index for augmentation-charges          1840 (set IRDMAX)


--------------------------------------------------------------------------------------------------------


 First call to EWALD:  gamma=   0.147
 Maximum number of real-space cells 3x 3x 3
 Maximum number of reciprocal cells 3x 3x 3

    FEWALD:  cpu time      0.1301: real time      0.1306


--------------------------------------- Ionic step        1  -------------------------------------------




--------------------------------------- Iteration      1(   1)  ---------------------------------------


    POTLOK:  cpu time      0.1487: real time      0.1717
    SETDIJ:  cpu time      0.3923: real time      0.3934
     EDDAV:  cpu time      6.6546: real time      6.6782
       DOS:  cpu time      0.0003: real time      0.0003
    CHARGE:  cpu time      0.4174: real time      0.4187
    MIXING:  cpu time      0.0333: real time      0.0335
    --------------------------------------------
      LOOP:  cpu time      7.6466: real time      7.6957

 eigenvalue-minimisations  :  3584
 total energy-change (2. order) :-0.9523686E+03  (-0.1985831E+02)
 number of electron    1071.9999958 magnetization     141.7412677
 augmentation part      255.6440965 magnetization     141.4998355

 Broyden mixing:
  rms(total) = 0.13279E+02    rms(broyden)= 0.13269E+02
  rms(prec ) = 0.13627E+02
  weight for this iteration     100.00

 Free energy of the ion-electron system (eV)
  ---------------------------------------------------
  alpha Z        PSCENC =      2139.14908826
  Ewald energy   TEWEN  =    -59366.87199804
  -Hartree energ DENC   =    -23111.68363654
  -exchange      EXHF   =         0.00000000
  -V(xc)+E(xc)   XCENC  =      5397.23784844
  PAW double counting   =     66267.36392248   -68469.43131269
  entropy T*S    EENTRO =        -0.00000000
  eigenvalues    EBANDS =    -16260.11550676
  atomic energy  EATOM  =     92451.98304323
  Solvation  Ediel_sol  =         0.00000000
  ---------------------------------------------------
  free energy    TOTEN  =      -952.36855163 eV

  energy without entropy =     -952.36855163  energy(sigma->0) =     -952.36855163


--------------------------------------------------------------------------------------------------------




--------------------------------------- Iteration      1(   2)  ---------------------------------------


    POTLOK:  cpu time      0.0823: real time      0.0831
    SETDIJ:  cpu time      0.3923: real time      0.3934
     EDDAV:  cpu time      6.1129: real time      6.1396
       DOS:  cpu time      0.0003: real time      0.0003
[...]
     12.07428      4.02433      8.05025        -0.001823     -0.000541     -0.000348
     11.87462      8.05232     12.07890        -0.002075     -0.000044      0.000000
     12.05910      8.05226      4.04947         0.001817     -0.000020      0.002237
     12.05907      8.05225      8.02943         0.001817     -0.000020     -0.002237
      4.04602      0.02381      0.00000        -0.002872      0.003513      0.000000
      4.03104      0.00235      4.02869         0.001518      0.000062      0.000359
      4.03103      0.00231      8.05021         0.001518      0.000062     -0.000359
      4.04592      4.00342     12.07889        -0.001825     -0.003563      0.000000
      4.03108      4.02444      4.02876         0.001776     -0.000465      0.000374
      4.03108      4.02444      8.05015         0.001776     -0.000465     -0.000374
      4.22907      8.05250      0.00000         0.001444     -0.000040      0.000000
      4.04560      8.05223      4.04938        -0.002816      0.000003      0.002206
      4.04559      8.05222      8.02953        -0.002816      0.000003     -0.002206
      8.05280      0.00483     12.07890         0.000009      0.007199      0.000000
      8.05253      0.00199      4.02831         0.000042     -0.000904     -0.000984
      8.05252      0.00199      8.05059         0.000042     -0.000904      0.000984
      8.05258      4.02183     12.07890         0.000244     -0.006629      0.000000
      8.05240      4.02472      4.02843         0.000111      0.000996     -0.001036
      8.05239      4.02471      8.05047         0.000111      0.000996      0.001036
      8.05248      8.05241      0.00001        -0.000399     -0.000012      0.000000
      8.05238      8.05234      4.03119         0.000018      0.000024      0.006578
      8.05237      8.05233      8.04770         0.000018      0.000024     -0.006578
     12.07635      2.01305      2.01553        -0.003648      0.000237      0.003592
     12.07669      2.01316      6.03945        -0.003249      0.000045      0.000000
     12.07635      2.01305     10.06336        -0.003648      0.000237     -0.003592
     12.07626      6.03680      2.01551         0.001613      0.001572     -0.001495
     12.07626      6.03680      6.03945        -0.003514     -0.003466      0.000000
     12.07624      6.03679     10.06339         0.001613      0.001572      0.001495
     12.07642     10.06850      2.01532         0.001677     -0.000838     -0.001595
     12.07625     10.06850      6.03945        -0.003345      0.003497      0.000000
     12.07640     10.06849     10.06358         0.001677     -0.000838      0.001595
      4.02933      2.01298      2.01549         0.003779      0.000102      0.003543
      4.02867      2.01303      6.03946         0.003456     -0.000024      0.000000
      4.02933      2.01297     10.06340         0.003779      0.000102     -0.003543
      4.02907      6.03679      2.01533        -0.000785      0.001764     -0.001602
      4.02906      6.03679      6.03946         0.003505     -0.003373      0.000000
      4.02906      6.03679     10.06357        -0.000785      0.001764      0.001602
      4.02919     10.06854      2.01532        -0.000788     -0.000748     -0.001547
      4.02912     10.06856      6.03945         0.003441      0.003383      0.000000
      4.02918     10.06852     10.06359        -0.000788     -0.000748      0.001547
      8.05247      2.01291      2.01498         0.000095      0.000125      0.003398
      8.05247      2.01299      6.03945         0.000161      0.000123      0.000000
      8.05246      2.01290     10.06392         0.000095      0.000125     -0.003398
      8.05253      6.03674      2.01553         0.000288     -0.003552      0.003603
      8.05262      6.03725      6.03945         0.000051     -0.003304      0.000000
      8.05252      6.03674     10.06337         0.000288     -0.003552     -0.003603
      8.05247     10.06872      2.01545         0.000147      0.003736      0.003601
      8.05247     10.06811      6.03945         0.000072      0.003388      0.000000
      8.05247     10.06872     10.06345         0.000147      0.003736     -0.003601
      2.01313      0.02377      2.03229        -0.000159      0.003523     -0.002457
      2.01307      0.00475      6.03945         0.000035      0.006758      0.000000
      2.01313      0.02376     10.04661        -0.000159      0.003523      0.002457
      2.01313      4.00325      2.03236         0.000309     -0.003643     -0.001624
      2.01299      4.02187      6.03946         0.000108     -0.006607      0.000000
      2.01312      4.00324     10.04654         0.000309     -0.003643      0.001624
      2.01285      8.05225      2.21483        -0.000244     -0.000261      0.000570
      2.01297      8.05239      6.03945        -0.000121     -0.000091      0.000000
      2.01283      8.05224      9.86407        -0.000244     -0.000261     -0.000570
      6.04185      0.00233      2.01748         0.000383      0.000360      0.001587
      6.04146      0.00196      6.03945        -0.000943     -0.000936      0.000000
      6.04185      0.00231     10.06142         0.000383      0.000360     -0.001587
      6.04186      4.02431      2.01743         0.000241     -0.000450      0.001610
      6.04145      4.02450      6.03945        -0.000815      0.001059      0.000000
      6.04185      4.02430     10.06147         0.000241     -0.000450     -0.001610
      6.06325      8.05239      2.03224         0.003560     -0.000011     -0.002372
      6.04419      8.05250      6.03945         0.006808     -0.000018      0.000000
      6.06325      8.05238     10.04667         0.003560     -0.000011      0.002372
     10.06395      0.00236      2.01738        -0.000597      0.000207      0.001698
     10.06397      0.00199      6.03945         0.001103     -0.000846      0.000000
     10.06395      0.00236     10.06152        -0.000597      0.000207     -0.001698
     10.06382      4.02431      2.01736        -0.000186     -0.000215      0.001605
     10.06406      4.02461      6.03945         0.001033      0.001041      0.000000
     10.06382      4.02431     10.06154        -0.000186     -0.000215     -0.001605
     10.04271      8.05257      2.03234        -0.003573      0.000230     -0.001603
     10.06132      8.05246      6.03944        -0.006605      0.000084      0.000000
     10.04270      8.05257     10.04657        -0.003573      0.000230      0.001603
      2.01311      2.01299     12.07890        -0.000092     -0.000404      0.000000
      2.01290      2.01294      4.03123         0.000082     -0.000025      0.006558
      2.01291      2.01293      8.04768         0.000082     -0.000025     -0.006558
      2.01289      5.83512     12.07890        -0.000003     -0.002142      0.000000
      2.01282      6.01962      4.04948        -0.000022      0.001795      0.002223
      2.01280      6.01962      8.02942        -0.000022      0.001795     -0.002223
      2.01333     10.26843      0.00000        -0.000322      0.001526      0.000000
      2.01283     10.08503      4.04939         0.000038     -0.002843      0.002182
      2.01281     10.08501      8.02951         0.000038     -0.002843     -0.002182
      6.04437      2.01321     12.07890         0.007213      0.000052      0.000000
      6.04150      2.01302      4.02836        -0.000883      0.000045     -0.001064
      6.04148      2.01300      8.05054        -0.000883      0.000045      0.001064
      6.06314      6.01970      0.00000         0.003617      0.002059      0.000000
      6.04178      6.03490      4.02855         0.000233     -0.001729      0.000342
      6.04178      6.03489      8.05036         0.000233     -0.001729     -0.000342
      6.06330     10.08532      0.00001         0.003565     -0.002796      0.000000
      6.04180     10.07043      4.02864         0.000140      0.001511      0.000427
      6.04180     10.07041      8.05026         0.000140      0.001511     -0.000427
     10.06153      2.01299     12.07890        -0.006869      0.000365      0.000000
     10.06420      2.01291      4.02841         0.001050      0.000103     -0.001013
     10.06419      2.01291      8.05049         0.001050      0.000103      0.001013
     10.04271      6.01982      0.00000        -0.003031      0.001547      0.000000
     10.06380      6.03485      4.02864        -0.000540     -0.001894      0.000367
     10.06378      6.03484      8.05026        -0.000540     -0.001894     -0.000367
     10.04300     10.08534      0.00000        -0.003607     -0.001900      0.000000
     10.06393     10.07053      4.02872        -0.000415      0.001738      0.000405
     10.06391     10.07053      8.05017        -0.000415      0.001738     -0.000405
     12.07384      2.01332     12.07890         0.003593      0.000067      0.000000
      0.00302      2.01325      4.02203        -0.001594      0.000005      0.002875
      0.00302      2.01325      8.05687        -0.001594      0.000005     -0.002875
      0.05157      6.09100     12.07890        -0.000401     -0.000466      0.000000
      0.00982      6.04926      4.01466        -0.001861     -0.001871     -0.000663
      0.00980      6.04925      8.06424        -0.001861     -0.001871      0.000663
      0.05170     10.01413     12.07890        -0.000785     -0.000072      0.000000
      0.00990     10.05567      4.01467        -0.001876      0.001942     -0.000814
      0.00988     10.05566      8.06423        -0.001876      0.001942      0.000814
      4.03172      2.01329     12.07889        -0.003782      0.000037      0.000000
      4.02342      2.01322      4.02212         0.001744     -0.000004      0.002907
      4.02342      2.01320      8.05678         0.001744     -0.000004     -0.002907
      3.97476      6.09089     12.07890        -0.000121     -0.000529      0.000000
      4.01622      6.04928      4.01467         0.001967     -0.001887     -0.000827
      4.01622      6.04929      8.06423         0.001967     -0.001887      0.000827
      3.97502     10.01431      0.00000         0.000083      0.000210      0.000000
      4.01631     10.05572      4.01474         0.001902      0.001884     -0.000948
      4.01631     10.05570      8.06416         0.001902      0.001884      0.000948
      8.05284      2.01323     12.07890         0.000091      0.000225      0.000000
      8.05268      2.01317      4.02426         0.000063      0.000056     -0.000491
      8.05267      2.01316      8.05464         0.000063      0.000056      0.000491
      8.05283      6.03418      0.00000         0.000089      0.003798      0.000000
      8.05272      6.04244      4.02203         0.000032     -0.001636      0.002877
      8.05271      6.04243      8.05687         0.000032     -0.001636     -0.002877
      8.05281     10.07110      0.00000         0.000058     -0.003808      0.000000
      8.05268     10.06284      4.02208         0.000054      0.001711      0.002939
      8.05268     10.06283      8.05682         0.000054      0.001711     -0.002939
      0.01020     12.06751      2.00302        -0.002205     -0.000262      0.002160
      0.00288     12.07490      6.03945        -0.001574      0.002931      0.000000
      0.01019     12.06751     10.07588        -0.002205     -0.000262     -0.002160
      0.01009      4.03782      2.00303        -0.001752      0.000664      0.002028
      0.00297      4.03049      6.03945        -0.001558     -0.002760      0.000000
      0.01009      4.03782     10.07587        -0.001752      0.000664     -0.002028
      0.05151      8.05251      1.96123        -0.000361      0.000277     -0.000190
     12.07366      8.05261      6.03945         0.003977     -0.000004      0.000000
      0.05148      8.05251     10.11766        -0.000361      0.000277      0.000190
      4.01648     12.06755      2.00305         0.002048     -0.000351      0.002090
      4.02330     12.07482      6.03945         0.001818      0.002769      0.000000
      4.01647     12.06753     10.07585         0.002048     -0.000351     -0.002090
      4.01647      4.03780      2.00306         0.002008      0.000784      0.001965
      4.02336      4.03053      6.03946         0.001753     -0.002735      0.000000
      4.01647      4.03779     10.07583         0.002008      0.000784     -0.001965
      3.97477      8.05249      1.96126        -0.000241      0.000404     -0.000028
      4.03155      8.05252      6.03945        -0.004183     -0.000016      0.000000
      3.97476      8.05248     10.11765        -0.000241      0.000404      0.000028
      8.05282     12.07479      2.01007         0.000024      0.002980      0.001829
      8.05278     12.07694      6.03945         0.000027     -0.000497      0.000000
      8.05281     12.07478     10.06883         0.000024      0.002980     -0.001829
      8.05269      4.03053      2.01007         0.000121     -0.002736      0.001661
      8.05269      4.02834      6.03945         0.000069      0.000641      0.000000
      8.05268      4.03053     10.06883         0.000121     -0.002736     -0.001661
      8.05270      8.05258      2.01832         0.000038      0.000125     -0.003716
      8.05267      8.05259      6.03944         0.000072      0.000049      0.000000
      8.05269      8.05258     10.06058         0.000038      0.000125      0.003716
      2.01323      2.01323      2.01835         0.000076     -0.000029     -0.003766
      2.01314      2.01323      6.03945         0.000118      0.000025      0.000000
      2.01323      2.01321     10.06054         0.000076     -0.000029      0.003766
      2.01308      6.09090      1.96122         0.000336     -0.000384     -0.000191
      2.01316      6.03419      6.03945        -0.000024      0.003980      0.000000
      2.01307      6.09089     10.11767         0.000336     -0.000384      0.000191
      2.01320     10.01417      1.96129         0.000290     -0.000236     -0.000080
      2.01309     10.07099      6.03945         0.000014     -0.004196      0.000000
      2.01319     10.01416     10.11761         0.000290     -0.000236      0.000080
      6.03540      2.01326      2.01011         0.003009      0.000073      0.001750
      6.03753      2.01328      6.03945        -0.000472      0.000019      0.000000
      6.03540      2.01324     10.06879         0.003009      0.000073     -0.001750
      6.02811      6.04943      2.00302        -0.000249     -0.001992      0.002173
      6.03545      6.04232      6.03945         0.002956     -0.001638      0.000000
      6.02810      6.04942     10.07588        -0.000249     -0.001992     -0.002173
      6.02815     10.05581      2.00302        -0.000330      0.002108      0.002159
      6.03538     10.06271      6.03945         0.002831      0.001808      0.000000
      6.02815     10.05580     10.07589        -0.000330      0.002108     -0.002159
     10.07013      2.01316      2.01005        -0.002835      0.000137      0.001703
     10.06781      2.01322      6.03945         0.000682      0.000063      0.000000
     10.07013      2.01316     10.06884        -0.002835      0.000137     -0.001703
     10.07729      6.04950      2.00302         0.000701     -0.001787      0.002044
     10.06994      6.04243      6.03945        -0.002781     -0.001596      0.000000
     10.07728      6.04950     10.07588         0.000701     -0.001787     -0.002044
     10.07737     10.05590      2.00303         0.000719      0.001937      0.002021
     10.06999     10.06281      6.03945        -0.002678      0.001716      0.000000
     10.07735     10.05590     10.07587         0.000719      0.001937     -0.002021
      2.01333      0.03845     12.07890        -0.000242     -0.001321      0.000000
      2.01319     12.06996      4.01731        -0.000076      0.002389      0.002521
      2.01318     12.06993      8.06160        -0.000076      0.002389     -0.002521
      2.01325      3.98760     12.07890         0.000022     -0.001789      0.000000
      2.01311      4.03530      4.01734         0.000014     -0.002719      0.002763
      2.01311      4.03530      8.06156         0.000014     -0.002719     -0.002763
      2.01299      8.05240      4.06420        -0.000182     -0.000182     -0.000932
      2.01297      8.05239      8.01470        -0.000182     -0.000182      0.000932
      6.03082     12.07019      0.00000         0.002917      0.002876      0.000000
      6.03570     12.07510      4.02225        -0.001213     -0.001215     -0.001125
      6.03570     12.07508      8.05665        -0.001213     -0.001215      0.001125
      6.03057      4.03533     12.07890         0.002921     -0.002903      0.000000
      6.03565      4.03024      4.02235        -0.001119      0.001244     -0.001115
      6.03564      4.03024      8.05655        -0.001119      0.001244      0.001115
      6.07797      8.05253      0.00000        -0.001333      0.000029      0.000000
      6.03050      8.05257      4.01725         0.002451     -0.000071      0.002628
      6.03050      8.05256      8.06165         0.002451     -0.000071     -0.002628
     10.07506     12.06994      0.00000        -0.003240      0.002911      0.000000
     10.06976     12.07507      4.02231         0.001245     -0.001148     -0.001029
     10.06975     12.07507      8.05659         0.001245     -0.001148      0.001029
     10.07487      4.03531     12.07890        -0.002938     -0.002854      0.000000
     10.06970      4.03024      4.02238         0.001207      0.001178     -0.001175
     10.06970      4.03023      8.05651         0.001207      0.001178      0.001175
     10.02709      8.05267      0.00000        -0.001758     -0.000044      0.000000
     10.07477      8.05257      4.01732        -0.002701     -0.000037      0.002775
     10.07475      8.05257      8.06157        -0.002701     -0.000037     -0.002775
 -----------------------------------------------------------------------------------
    total drift:                               -0.015613     -0.015552      0.055521


--------------------------------------------------------------------------------------------------------



  FREE ENERGIE OF THE ION-ELECTRON SYSTEM (eV)
  ---------------------------------------------------
  free  energy   TOTEN  =     -1044.55142632 eV

  energy  without entropy=    -1044.55142632  energy(sigma->0) =    -1044.55142632
 


--------------------------------------------------------------------------------------------------------


    POTLOK:  cpu time      0.5616: real time      0.5630


--------------------------------------------------------------------------------------------------------




--------------------------------------------------------------------------------------------------------


  
 reached required accuracy - stopping structural energy minimisation
 writing wavefunctions
     LOOP+:  cpu time    236.2416: real time    237.6529
    4ORBIT:  cpu time      0.0000: real time      0.0000

 total amount of memory used by VASP MPI-rank0   824309. kBytes
=======================================================================

   base      :      30000. kBytes
   nonl-proj :     113890. kBytes
   fftplans  :      71598. kBytes
   grid      :     206643. kBytes
   one-center:       1320. kBytes
   wavefun   :     400858. kBytes
 
  
  
 General timing and accounting informations for this job:
 ========================================================
  
                  Total CPU time used (sec):      251.876
                            User time (sec):      248.482
                          System time (sec):        3.394
                         Elapsed time (sec):      254.502
  
                   Maximum memory used (kb):     2306764.
                   Average memory used (kb):          N/A
  
                          Minor page faults:       233937
                          Major page faults:           54
                 Voluntary context switches:        28885
