  56  56   0   0
  0.1428571E+03  0.2000000E-08  0.2000000E-08  0.2000000E-08  0.0000000E+00
  1.000000000000000E-004
  CAR 
 neb_test                                
      0.36941786    -17.72052409  301     -3.96609501      1.00000000
    -17.721  0.0000E+00  0.0000E+00
    -17.660  0.0000E+00  0.0000E+00
    -17.600  0.0000E+00  0.0000E+00
    -17.540  0.0000E+00  0.0000E+00
    -17.479  0.0000E+00  0.0000E+00
    -17.419  0.0000E+00  0.0000E+00
    -17.359  0.0000E+00  0.0000E+00
    -17.298  0.0000E+00  0.0000E+00
    -17.238  0.0000E+00  0.0000E+00
    -17.178  0.8838E-16  0.5329E-17
    -17.118  0.1850E-10  0.1115E-11
    -17.057  0.2292E-06  0.1382E-07
    -16.997  0.1741E-03  0.1051E-04
    -16.937  0.9039E-02  0.5555E-03
    -16.876  0.3937E-01  0.2930E-02
    -16.816  0.1708E-01  0.3960E-02
    -16.756  0.6626E-03  0.4000E-02
    -16.695  0.1840E-05  0.4000E-02
    -16.635  0.3200E-09  0.4000E-02
    -16.575  0.3285E-14  0.4000E-02
    -16.515  0.0000E+00  0.4000E-02
    -16.454  0.0000E+00  0.4000E-02
    -16.394  0.0000E+00  0.4000E-02
    -16.334  0.0000E+00  0.4000E-02
    -16.273  0.0000E+00  0.4000E-02
    -16.213  0.0000E+00  0.4000E-02
    -16.153  0.0000E+00  0.4000E-02
    -16.092  0.0000E+00  0.4000E-02
    -16.032  0.0000E+00  0.4000E-02
    -15.972  0.0000E+00  0.4000E-02
    -15.912  0.0000E+00  0.4000E-02
    -15.851  0.0000E+00  0.4000E-02
    -15.791  0.0000E+00  0.4000E-02
    -15.731  0.0000E+00  0.4000E-02
    -15.670  0.0000E+00  0.4000E-02
    -15.610  0.0000E+00  0.4000E-02
    -15.550  0.0000E+00  0.4000E-02
    -15.489  0.0000E+00  0.4000E-02
    -15.429  0.0000E+00  0.4000E-02
    -15.369  0.0000E+00  0.4000E-02
    -15.309  0.0000E+00  0.4000E-02
    -15.248  0.0000E+00  0.4000E-02
    -15.188  0.0000E+00  0.4000E-02
    -15.128  0.0000E+00  0.4000E-02
    -15.067  0.0000E+00  0.4000E-02
    -15.007  0.0000E+00  0.4000E-02
    -14.947  0.0000E+00  0.4000E-02
    -14.886  0.0000E+00  0.4000E-02
    -14.826  0.0000E+00  0.4000E-02
    -14.766  0.0000E+00  0.4000E-02
    -14.706  0.0000E+00  0.4000E-02
    -14.645  0.0000E+00  0.4000E-02
    -14.585  0.0000E+00  0.4000E-02
    -14.525  0.0000E+00  0.4000E-02
    -14.464  0.0000E+00  0.4000E-02
    -14.404  0.0000E+00  0.4000E-02
    -14.344  0.0000E+00  0.4000E-02
    -14.283  0.0000E+00  0.4000E-02
    -14.223  0.0000E+00  0.4000E-02
    -14.163  0.0000E+00  0.4000E-02
    -14.103  0.0000E+00  0.4000E-02
    -14.042  0.0000E+00  0.4000E-02
    -13.982  0.0000E+00  0.4000E-02
    -13.922  0.0000E+00  0.4000E-02
    -13.861  0.0000E+00  0.4000E-02
    -13.801  0.0000E+00  0.4000E-02
    -13.741  0.0000E+00  0.4000E-02
    -13.680  0.0000E+00  0.4000E-02
    -13.620  0.0000E+00  0.4000E-02
    -13.560  0.0000E+00  0.4000E-02
    -13.500  0.0000E+00  0.4000E-02
    -13.439  0.0000E+00  0.4000E-02
    -13.379  0.0000E+00  0.4000E-02
    -13.319  0.0000E+00  0.4000E-02
    -13.258  0.0000E+00  0.4000E-02
    -13.198  0.0000E+00  0.4000E-02
    -13.138  0.0000E+00  0.4000E-02
    -13.077  0.0000E+00  0.4000E-02
    -13.017  0.0000E+00  0.4000E-02
    -12.957  0.0000E+00  0.4000E-02
    -12.897  0.0000E+00  0.4000E-02
    -12.836  0.0000E+00  0.4000E-02
    -12.776  0.0000E+00  0.4000E-02
    -12.716  0.0000E+00  0.4000E-02
    -12.655  0.0000E+00  0.4000E-02
    -12.595  0.0000E+00  0.4000E-02
    -12.535  0.0000E+00  0.4000E-02
    -12.474  0.0000E+00  0.4000E-02
    -12.414  0.0000E+00  0.4000E-02
    -12.354  0.0000E+00  0.4000E-02
    -12.294  0.3266E-14  0.4000E-02
    -12.233  0.3189E-09  0.4000E-02
    -12.173  0.1835E-05  0.4000E-02
    -12.113  0.6616E-03  0.4040E-02
    -12.052  0.1707E-01  0.5070E-02
    -11.992  0.3938E-01  0.7444E-02
    -11.932  0.9047E-02  0.7989E-02
    -11.871  0.1744E-03  0.8000E-02
    -11.811  0.2298E-06  0.8000E-02
    -11.751  0.1856E-10  0.8000E-02
    -11.691  0.8838E-16  0.8000E-02
    -11.630  0.0000E+00  0.8000E-02
    -11.570  0.0000E+00  0.8000E-02
    -11.510  0.0000E+00  0.8000E-02
    -11.449  0.0000E+00  0.8000E-02
    -11.389  0.0000E+00  0.8000E-02
    -11.329  0.0000E+00  0.8000E-02
    -11.268  0.0000E+00  0.8000E-02
    -11.208  0.0000E+00  0.8000E-02
    -11.148  0.0000E+00  0.8000E-02
    -11.088  0.0000E+00  0.8000E-02
    -11.027  0.0000E+00  0.8000E-02
    -10.967  0.0000E+00  0.8000E-02
    -10.907  0.3461E-15  0.8000E-02
    -10.846  0.5653E-10  0.8000E-02
    -10.786  0.5505E-06  0.8000E-02
    -10.726  0.3498E-03  0.8021E-02
    -10.665  0.1726E-01  0.9062E-02
    -10.605  0.9197E-01  0.1461E-01
    -10.545  0.7786E-01  0.1930E-01
    -10.485  0.1137E-01  0.1999E-01
    -10.424  0.1953E-03  0.2000E-01
    -10.364  0.2573E-06  0.2000E-01
    -10.304  0.2139E-10  0.2000E-01
    -10.243  0.1031E-15  0.2000E-01
    -10.183  0.0000E+00  0.2000E-01
    -10.123  0.0000E+00  0.2000E-01
    -10.062  0.0000E+00  0.2000E-01
    -10.002  0.0000E+00  0.2000E-01
     -9.942  0.0000E+00  0.2000E-01
     -9.882  0.0000E+00  0.2000E-01
     -9.821  0.0000E+00  0.2000E-01
     -9.761  0.0000E+00  0.2000E-01
     -9.701  0.0000E+00  0.2000E-01
     -9.640  0.5240E-13  0.2000E-01
     -9.580  0.2733E-08  0.2000E-01
     -9.520  0.8491E-05  0.2000E-01
     -9.459  0.1703E-02  0.2010E-01
     -9.399  0.2924E-01  0.2187E-01
     -9.339  0.1164E+00  0.2888E-01
     -9.279  0.1567E+00  0.3833E-01
     -9.218  0.5156E-01  0.4144E-01
     -9.158  0.3675E-01  0.4366E-01
     -9.098  0.5638E-02  0.4400E-01
     -9.037  0.7069E-04  0.4400E-01
     -8.977  0.5914E-07  0.4400E-01
     -8.917  0.3000E-11  0.4400E-01
     -8.856  0.1841E-16  0.4400E-01
     -8.796  0.3809E-11  0.4400E-01
     -8.736  0.7073E-07  0.4400E-01
     -8.676  0.7989E-04  0.4400E-01
     -8.615  0.6155E-02  0.4438E-01
     -8.555  0.4492E-01  0.4708E-01
     -8.495  0.6225E-01  0.5084E-01
     -8.434  0.4890E-01  0.5379E-01
     -8.374  0.7714E-01  0.5844E-01
     -8.314  0.3116E-01  0.6032E-01
     -8.253  0.9529E-01  0.6606E-01
     -8.193  0.1810E+00  0.7698E-01
     -8.133  0.1080E+00  0.8349E-01
     -8.073  0.8556E-01  0.8865E-01
     -8.012  0.1612E+00  0.9837E-01
     -7.952  0.1286E+00  0.1061E+00
     -7.892  0.4328E-01  0.1087E+00
     -7.831  0.4146E-01  0.1112E+00
     -7.771  0.2284E-01  0.1126E+00
     -7.711  0.4551E-01  0.1154E+00
     -7.650  0.5528E-01  0.1187E+00
     -7.590  0.1108E+00  0.1254E+00
     -7.530  0.2421E+00  0.1400E+00
     -7.470  0.1812E+00  0.1509E+00
     -7.409  0.1074E+00  0.1574E+00
     -7.349  0.4165E-01  0.1599E+00
     -7.289  0.1559E-01  0.1608E+00
     -7.228  0.1315E+00  0.1688E+00
     -7.168  0.2387E+00  0.1831E+00
     -7.108  0.2382E+00  0.1975E+00
     -7.047  0.1798E+00  0.2084E+00
     -6.987  0.2611E+00  0.2241E+00
     -6.927  0.2454E+00  0.2389E+00
     -6.867  0.8210E-01  0.2438E+00
     -6.806  0.3610E-01  0.2460E+00
     -6.746  0.9260E-01  0.2516E+00
     -6.686  0.1767E+00  0.2623E+00
     -6.625  0.8854E-01  0.2676E+00
     -6.565  0.1815E-01  0.2687E+00
     -6.505  0.1159E+00  0.2757E+00
     -6.444  0.2490E+00  0.2907E+00
     -6.384  0.1605E+00  0.3004E+00
     -6.324  0.1569E+00  0.3098E+00
     -6.264  0.1531E+00  0.3191E+00
     -6.203  0.1786E+00  0.3298E+00
     -6.143  0.3782E+00  0.3526E+00
     -6.083  0.3674E+00  0.3748E+00
     -6.022  0.2074E+00  0.3873E+00
     -5.962  0.1230E+00  0.3947E+00
     -5.902  0.2743E+00  0.4113E+00
     -5.841  0.3644E+00  0.4332E+00
     -5.781  0.2172E+00  0.4463E+00
     -5.721  0.2320E+00  0.4603E+00
     -5.661  0.4660E+00  0.4884E+00
     -5.600  0.3744E+00  0.5110E+00
     -5.540  0.1428E+00  0.5196E+00
     -5.480  0.1198E+00  0.5268E+00
     -5.419  0.1255E+00  0.5344E+00
     -5.359  0.2709E+00  0.5507E+00
     -5.299  0.4280E+00  0.5765E+00
     -5.238  0.3184E+00  0.5957E+00
     -5.178  0.4293E+00  0.6216E+00
     -5.118  0.4542E+00  0.6490E+00
     -5.058  0.3543E+00  0.6704E+00
     -4.997  0.2989E+00  0.6884E+00
     -4.937  0.2838E+00  0.7055E+00
     -4.877  0.2769E+00  0.7222E+00
     -4.816  0.2284E+00  0.7360E+00
     -4.756  0.2600E+00  0.7517E+00
     -4.696  0.2906E+00  0.7692E+00
     -4.635  0.2833E+00  0.7863E+00
     -4.575  0.3784E+00  0.8091E+00
     -4.515  0.4472E+00  0.8361E+00
     -4.455  0.4565E+00  0.8636E+00
     -4.394  0.3953E+00  0.8874E+00
     -4.334  0.2907E+00  0.9049E+00
     -4.274  0.3611E+00  0.9267E+00
     -4.213  0.5762E+00  0.9615E+00
     -4.153  0.6885E+00  0.1003E+01
     -4.093  0.4289E+00  0.1029E+01
     -4.032  0.4845E+00  0.1058E+01
     -3.972  0.8073E+00  0.1107E+01
     -3.912  0.6215E+00  0.1144E+01
     -3.852  0.2551E+00  0.1160E+01
     -3.791  0.2210E+00  0.1173E+01
     -3.731  0.9194E-01  0.1178E+01
     -3.671  0.2511E-01  0.1180E+01
     -3.610  0.2110E-01  0.1181E+01
     -3.550  0.5328E-01  0.1184E+01
     -3.490  0.9369E-01  0.1190E+01
     -3.429  0.8054E-01  0.1195E+01
     -3.369  0.5310E-01  0.1198E+01
     -3.309  0.8285E-01  0.1203E+01
     -3.249  0.7061E-01  0.1207E+01
     -3.188  0.6698E-01  0.1211E+01
     -3.128  0.8713E-02  0.1212E+01
     -3.068  0.9809E-04  0.1212E+01
     -3.007  0.4509E-03  0.1212E+01
     -2.947  0.1435E-01  0.1213E+01
     -2.887  0.4074E-01  0.1215E+01
     -2.826  0.2832E-01  0.1217E+01
     -2.766  0.4857E-01  0.1220E+01
     -2.706  0.5788E-01  0.1223E+01
     -2.646  0.5745E-01  0.1227E+01
     -2.585  0.2261E-01  0.1228E+01
     -2.525  0.3683E-01  0.1231E+01
     -2.465  0.2768E-01  0.1232E+01
     -2.404  0.3581E-01  0.1234E+01
     -2.344  0.2554E-01  0.1236E+01
     -2.284  0.3194E-02  0.1236E+01
     -2.223  0.2899E-01  0.1238E+01
     -2.163  0.8819E-01  0.1243E+01
     -2.103  0.1378E+00  0.1251E+01
     -2.043  0.1167E+00  0.1258E+01
     -1.982  0.6759E-01  0.1263E+01
     -1.922  0.2256E-01  0.1264E+01
     -1.862  0.1069E-02  0.1264E+01
     -1.801  0.6788E-05  0.1264E+01
     -1.741  0.8696E-03  0.1264E+01
     -1.681  0.1922E-01  0.1265E+01
     -1.620  0.3847E-01  0.1268E+01
     -1.560  0.7647E-02  0.1268E+01
     -1.500  0.7685E-03  0.1268E+01
     -1.440  0.1958E-01  0.1269E+01
     -1.379  0.7976E-01  0.1274E+01
     -1.319  0.8023E-01  0.1279E+01
     -1.259  0.2065E-01  0.1280E+01
     -1.198  0.5295E-01  0.1283E+01
     -1.138  0.1159E+00  0.1290E+01
     -1.078  0.3557E-01  0.1292E+01
     -1.017  0.3964E-01  0.1295E+01
     -0.957  0.4072E-01  0.1297E+01
     -0.897  0.9880E-01  0.1303E+01
     -0.837  0.8195E-01  0.1308E+01
     -0.776  0.4967E-01  0.1311E+01
     -0.716  0.2912E-01  0.1313E+01
     -0.656  0.1277E+00  0.1321E+01
     -0.595  0.2125E+00  0.1333E+01
     -0.535  0.1008E+00  0.1340E+01
     -0.475  0.2563E-01  0.1341E+01
     -0.414  0.3945E-01  0.1343E+01
     -0.354  0.9039E-02  0.1344E+01
     -0.294  0.1741E-03  0.1344E+01
     -0.234  0.2292E-06  0.1344E+01
     -0.173  0.1850E-10  0.1344E+01
     -0.113  0.8838E-16  0.1344E+01
     -0.053  0.0000E+00  0.1344E+01
      0.008  0.0000E+00  0.1344E+01
      0.068  0.0000E+00  0.1344E+01
      0.128  0.0000E+00  0.1344E+01
      0.189  0.0000E+00  0.1344E+01
      0.249  0.0000E+00  0.1344E+01
      0.309  0.0000E+00  0.1344E+01
      0.369  0.0000E+00  0.1344E+01
