   56   56  500    1
  0.1428571E+03  0.2000000E-08  0.2000000E-08  0.2000000E-08  0.0000000E+00
  1.000000000000000E-004
  CAR 
 neb_test                                
    556      1    336
 
  0.0000000E+00  0.0000000E+00  0.0000000E+00  0.1000000E+01
    1      -16.898254   1.000000
    2      -12.030395   1.000000
    3      -10.633183   1.000000
    4      -10.614620   1.000000
    5      -10.582423   1.000000
    6       -9.390483   1.000000
    7       -9.328850   1.000000
    8       -9.324913   1.000000
    9       -9.320367   1.000000
   10       -9.315776   1.000000
   11       -9.206229   1.000000
   12       -8.568252   1.000000
   13       -8.514193   1.000000
   14       -8.419208   1.000000
   15       -8.393619   1.000000
   16       -8.252791   1.000000
   17       -8.244038   1.000000
   18       -8.237663   1.000000
   19       -8.232031   1.000000
   20       -8.181946   1.000000
   21       -8.166728   1.000000
   22       -8.091115   1.000000
   23       -8.042607   1.000000
   24       -8.035900   1.000000
   25       -8.028690   1.000000
   26       -7.988619   1.000000
   27       -7.971031   1.000000
   28       -7.861876   1.000000
   29       -7.735582   1.000000
   30       -7.661270   1.000000
   31       -7.581525   1.000000
   32       -7.575454   1.000000
   33       -7.568307   1.000000
   34       -7.563827   1.000000
   35       -7.540837   1.000000
   36       -7.525173   1.000000
   37       -7.506500   1.000000
   38       -7.492067   1.000000
   39       -7.431668   1.000000
   40       -7.419890   1.000000
   41       -7.239369   1.000000
   42       -7.235788   1.000000
   43       -7.225158   1.000000
   44       -7.214473   1.000000
   45       -7.183261   1.000000
   46       -7.164245   1.000000
   47       -7.156598   1.000000
   48       -7.146472   1.000000
   49       -7.132687   1.000000
   50       -7.104590   1.000000
   51       -7.096470   1.000000
   52       -7.049644   1.000000
   53       -7.034187   1.000000
   54       -7.006923   1.000000
   55       -6.998002   1.000000
   56       -6.993346   1.000000
   57       -6.990094   1.000000
   58       -6.982077   1.000000
   59       -6.948718   1.000000
   60       -6.941637   1.000000
   61       -6.926134   1.000000
   62       -6.802974   1.000000
   63       -6.737185   1.000000
   64       -6.730015   1.000000
   65       -6.704496   1.000000
   66       -6.695774   1.000000
   67       -6.679228   1.000000
   68       -6.522859   1.000000
   69       -6.502372   1.000000
   70       -6.483470   1.000000
   71       -6.473912   1.000000
   72       -6.469350   1.000000
   73       -6.457739   1.000000
   74       -6.438076   1.000000
   75       -6.419138   1.000000
   76       -6.346018   1.000000
   77       -6.343475   1.000000
   78       -6.333968   1.000000
   79       -6.296281   1.000000
   80       -6.292371   1.000000
   81       -6.223116   1.000000
   82       -6.195149   1.000000
   83       -6.188476   1.000000
   84       -6.185741   1.000000
   85       -6.174205   1.000000
   86       -6.171536   1.000000
   87       -6.166333   1.000000
   88       -6.154809   1.000000
   89       -6.143808   1.000000
   90       -6.129976   1.000000
   91       -6.112780   1.000000
   92       -6.109055   1.000000
   93       -6.095711   1.000000
   94       -6.093342   1.000000
   95       -6.083753   1.000000
   96       -6.073668   1.000000
   97       -6.040407   1.000000
   98       -6.001785   1.000000
   99       -5.942978   1.000000
  100       -5.928905   1.000000
  101       -5.924834   1.000000
  102       -5.922914   1.000000
  103       -5.896025   1.000000
  104       -5.891661   1.000000
  105       -5.883330   1.000000
  106       -5.870135   1.000000
  107       -5.865654   1.000000
  108       -5.860771   1.000000
  109       -5.846860   1.000000
  110       -5.839456   1.000000
  111       -5.815919   1.000000
  112       -5.788183   1.000000
  113       -5.747836   1.000000
  114       -5.716067   1.000000
  115       -5.712265   1.000000
  116       -5.705390   1.000000
  117       -5.700165   1.000000
  118       -5.695603   1.000000
  119       -5.693058   1.000000
  120       -5.685707   1.000000
  121       -5.679570   1.000000
  122       -5.661851   1.000000
  123       -5.657032   1.000000
  124       -5.651492   1.000000
  125       -5.644972   1.000000
  126       -5.639841   1.000000
  127       -5.629087   1.000000
  128       -5.619909   1.000000
  129       -5.603819   1.000000
  130       -5.561902   1.000000
  131       -5.503271   1.000000
  132       -5.480990   1.000000
  133       -5.473972   1.000000
  134       -5.398680   1.000000
  135       -5.392732   1.000000
  136       -5.369652   1.000000
  137       -5.358835   1.000000
  138       -5.355006   1.000000
  139       -5.344546   1.000000
  140       -5.341162   1.000000
  141       -5.333327   1.000000
  142       -5.325655   1.000000
  143       -5.321789   1.000000
  144       -5.315539   1.000000
  145       -5.304690   1.000000
  146       -5.296414   1.000000
  147       -5.272740   1.000000
  148       -5.252499   1.000000
  149       -5.237531   1.000000
  150       -5.226242   1.000000
  151       -5.209324   1.000000
  152       -5.203897   1.000000
  153       -5.195891   1.000000
  154       -5.184679   1.000000
  155       -5.182981   1.000000
  156       -5.173340   1.000000
  157       -5.170188   1.000000
  158       -5.164537   1.000000
  159       -5.159095   1.000000
  160       -5.153307   1.000000
  161       -5.153006   1.000000
  162       -5.131523   1.000000
  163       -5.125978   1.000000
  164       -5.103697   1.000000
  165       -5.077912   1.000000
  166       -5.073446   1.000000
  167       -5.066784   1.000000
  168       -5.054208   1.000000
  169       -5.052168   1.000000
  170       -5.049163   1.000000
  171       -5.043254   1.000000
  172       -5.007589   1.000000
  173       -4.981123   1.000000
  174       -4.964068   1.000000
  175       -4.963193   1.000000
  176       -4.945588   1.000000
  177       -4.939119   1.000000
  178       -4.924609   1.000000
  179       -4.910683   1.000000
  180       -4.906561   1.000000
  181       -4.870237   1.000000
  182       -4.862448   1.000000
  183       -4.845950   1.000000
  184       -4.828907   1.000000
  185       -4.810755   1.000000
  186       -4.775612   1.000000
  187       -4.758661   1.000000
  188       -4.756493   1.000000
  189       -4.752674   1.000000
  190       -4.747971   1.000000
  191       -4.730228   1.000000
  192       -4.714302   1.000000
  193       -4.684010   1.000000
  194       -4.675284   1.000000
  195       -4.661216   1.000000
  196       -4.650462   1.000000
  197       -4.628954   1.000000
  198       -4.626171   1.000000
  199       -4.605691   1.000000
  200       -4.593247   1.000000
  201       -4.590835   1.000000
  202       -4.579346   1.000000
  203       -4.565819   1.000000
  204       -4.562162   1.000000
  205       -4.558283   1.000000
  206       -4.548894   1.000000
  207       -4.538521   1.000000
  208       -4.533200   1.000000
  209       -4.524740   1.000000
  210       -4.517999   1.000000
  211       -4.498804   1.000000
  212       -4.480411   1.000000
  213       -4.475560   1.000000
  214       -4.470434   1.000000
  215       -4.463861   1.000000
  216       -4.457349   1.000000
  217       -4.445478   1.000000
  218       -4.441877   1.000000
  219       -4.437101   1.000000
  220       -4.433892   1.000000
  221       -4.431860   1.000000
  222       -4.419171   1.000000
  223       -4.378583   1.000000
  224       -4.368423   1.000000
  225       -4.344369   1.000000
  226       -4.331467   1.000000
  227       -4.326780   1.000000
  228       -4.319516   1.000000
  229       -4.314979   1.000000
  230       -4.301806   1.000000
  231       -4.297222   1.000000
  232       -4.265624   1.000000
  233       -4.249741   1.000000
  234       -4.242938   1.000000
  235       -4.237733   1.000000
  236       -4.229072   1.000000
  237       -4.223726   1.000000
  238       -4.221665   1.000000
  239       -4.216162   1.000000
  240       -4.213762   1.000000
  241       -4.209713   1.000000
  242       -4.205795   1.000000
  243       -4.204353   1.000000
  244       -4.201040   1.000000
  245       -4.196659   1.000000
  246       -4.195835   1.000000
  247       -4.186995   1.000000
  248       -4.183695   1.000000
  249       -4.175119   1.000000
  250       -4.168146   1.000000
  251       -4.163299   1.000000
  252       -4.158536   1.000000
  253       -4.148910   1.000000
  254       -4.146035   1.000000
  255       -4.116012   0.999989
  256       -4.102012   0.999940
  257       -4.091979   0.999815
  258       -4.080999   0.999423
  259       -4.078797   0.999283
  260       -4.073739   0.998835
  261       -4.069175   0.998225
  262       -4.054785   0.993938
  263       -4.043439   0.985651
  264       -4.035591   0.975330
  265       -4.014275   0.913516
  266       -4.012721   0.906380
  267       -4.005973   0.870324
  268       -4.003908   0.857581
  269       -3.996829   0.807654
  270       -3.991604   0.764702
  271       -3.987916   0.731441
  272       -3.986644   0.719454
  273       -3.984879   0.702393
  274       -3.984533   0.698994
  275       -3.983359   0.687330
  276       -3.980952   0.662836
  277       -3.977350   0.624886
  278       -3.976012   0.610450
  279       -3.973947   0.587880
  280       -3.973228   0.579946
  281       -3.971409   0.559733
  282       -3.967456   0.515354
  283       -3.949403   0.318418
  284       -3.943788   0.264044
  285       -3.940906   0.238096
  286       -3.937335   0.207974
  287       -3.935495   0.193385
  288       -3.896783   0.024972
  289       -3.857682   0.001083
  290       -3.847350   0.000392
  291       -3.840115   0.000183
  292       -3.837404   0.000136
  293       -3.825224   0.000034
  294       -3.797707   0.000001
  295       -3.744946   0.000000
  296       -3.592893   0.000000
  297       -3.508463   0.000000
  298       -3.506207   0.000000
  299       -3.453239   0.000000
  300       -3.352152   0.000000
  301       -3.343908   0.000000
  302       -3.248993   0.000000
  303       -3.235704   0.000000
  304       -2.920147   0.000000
  305       -2.804361   0.000000
  306       -2.726926   0.000000
  307       -2.668820   0.000000
  308       -2.536742   0.000000
  309       -2.412260   0.000000
  310       -2.211420   0.000000
  311       -2.175847   0.000000
  312       -2.117200   0.000000
  313       -2.115630   0.000000
  314       -2.104026   0.000000
  315       -2.051574   0.000000
  316       -1.997750   0.000000
  317       -1.662527   0.000000
  318       -1.416842   0.000000
  319       -1.378153   0.000000
  320       -1.344697   0.000000
  321       -1.187336   0.000000
  322       -1.174967   0.000000
  323       -1.167978   0.000000
  324       -1.035951   0.000000
  325       -0.926490   0.000000
  326       -0.917177   0.000000
  327       -0.877250   0.000000
  328       -0.805164   0.000000
  329       -0.675454   0.000000
  330       -0.666264   0.000000
  331       -0.644487   0.000000
  332       -0.632485   0.000000
  333       -0.614601   0.000000
  334       -0.597086   0.000000
  335       -0.586253   0.000000
  336       -0.452852   0.000000
