       N       E                     dE             d eps       ncg     rms          rms(c)
DAV:   1     0.285794435146E+04    0.28579E+04   -0.16221E+05   672   0.997E+02
DAV:   2    -0.111650730881E+03   -0.29696E+04   -0.29026E+04   696   0.309E+02
DAV:   3    -0.295645905439E+03   -0.18400E+03   -0.17087E+03   816   0.895E+01
DAV:   4    -0.302909987849E+03   -0.72641E+01   -0.70253E+01   720   0.205E+01
DAV:   5    -0.303120478202E+03   -0.21049E+00   -0.20883E+00   816   0.256E+00    0.537E+01
RMM:   6    -0.457380756620E+03   -0.15426E+03   -0.77755E+02   672   0.802E+01    0.136E+02
RMM:   7    -0.343065649236E+03    0.11432E+03   -0.40023E+02   673   0.575E+01    0.742E+01
RMM:   8    -0.314190144793E+03    0.28876E+02   -0.18954E+02   674   0.399E+01    0.885E+01
RMM:   9    -0.307923646351E+03    0.62665E+01   -0.56850E+01   674   0.211E+01    0.103E+02
RMM:  10    -0.291127720340E+03    0.16796E+02   -0.60747E+01   674   0.209E+01    0.809E+01
RMM:  11    -0.271179961130E+03    0.19948E+02   -0.21715E+01   675   0.125E+01    0.451E+01
RMM:  12    -0.266943823750E+03    0.42361E+01   -0.52921E+00   676   0.613E+00    0.478E+01
RMM:  13    -0.265739377065E+03    0.12044E+01   -0.39458E+00   676   0.525E+00    0.492E+01
RMM:  14    -0.264897745872E+03    0.84163E+00   -0.39413E+00   676   0.521E+00    0.497E+01
RMM:  15    -0.266232666179E+03   -0.13349E+01   -0.47088E+00   675   0.581E+00    0.580E+01
RMM:  16    -0.262534512302E+03    0.36982E+01   -0.30743E+00   675   0.462E+00    0.400E+01
RMM:  17    -0.260505610159E+03    0.20289E+01   -0.26486E+00   675   0.430E+00    0.319E+01
RMM:  18    -0.259968393499E+03    0.53722E+00   -0.19607E+00   676   0.370E+00    0.335E+01
RMM:  19    -0.259211609910E+03    0.75678E+00   -0.12677E+00   676   0.295E+00    0.324E+01
RMM:  20    -0.258365389035E+03    0.84622E+00   -0.13883E+00   675   0.316E+00    0.253E+01
RMM:  21    -0.257566680486E+03    0.79871E+00   -0.61328E-01   675   0.211E+00    0.199E+01
RMM:  22    -0.257135724530E+03    0.43096E+00   -0.27322E-01   676   0.138E+00    0.153E+01
RMM:  23    -0.256798836101E+03    0.33689E+00   -0.18127E-01   675   0.113E+00    0.102E+01
RMM:  24    -0.256636407980E+03    0.16243E+00   -0.17498E-01   676   0.113E+00    0.787E+00
RMM:  25    -0.256752083846E+03   -0.11568E+00   -0.21192E-01   675   0.124E+00    0.119E+01
RMM:  26    -0.256929232826E+03   -0.17715E+00   -0.30454E-01   675   0.155E+00    0.140E+01
RMM:  27    -0.256698732747E+03    0.23050E+00   -0.18434E+01   781   0.246E+00    0.104E+01
RMM:  28    -0.256884025344E+03   -0.18529E+00   -0.52555E-01   673   0.189E+00    0.147E+01
RMM:  29    -0.256793368092E+03    0.90657E-01   -0.25072E-01   675   0.140E+00    0.139E+01
RMM:  30    -0.256666081899E+03    0.12729E+00   -0.21054E-01   676   0.130E+00    0.103E+01
RMM:  31    -0.256596805130E+03    0.69277E-01   -0.14865E-01   675   0.109E+00    0.898E+00
RMM:  32    -0.256551309734E+03    0.45495E-01   -0.10324E-01   675   0.895E-01    0.754E+00
RMM:  33    -0.256467348618E+03    0.83961E-01   -0.80968E-02   675   0.813E-01    0.468E+00
RMM:  34    -0.256442268173E+03    0.25080E-01   -0.50424E-02   675   0.647E-01    0.355E+00
RMM:  35    -0.256465473996E+03   -0.23206E-01   -0.48832E-02   675   0.607E-01    0.460E+00
RMM:  36    -0.256464027926E+03    0.14461E-02   -0.49255E-02   674   0.630E-01    0.463E+00
RMM:  37    -0.256429742731E+03    0.34285E-01   -0.34304E-02   674   0.542E-01    0.283E+00
RMM:  38    -0.256422294425E+03    0.74483E-02   -0.23748E-02   676   0.437E-01    0.210E+00
RMM:  39    -0.256428124573E+03   -0.58301E-02   -0.18445E-02   674   0.375E-01    0.253E+00
RMM:  40    -0.256425984116E+03    0.21405E-02   -0.14535E-02   674   0.344E-01    0.246E+00
RMM:  41    -0.256414641009E+03    0.11343E-01   -0.10037E-02   675   0.293E-01    0.112E+00
RMM:  42    -0.256417189499E+03   -0.25485E-02   -0.62434E-03   676   0.220E-01    0.128E+00
RMM:  43    -0.256417961584E+03   -0.77209E-03   -0.58430E-03   675   0.217E-01    0.132E+00
RMM:  44    -0.256416763540E+03    0.11980E-02   -0.41656E-03   674   0.190E-01    0.101E+00
RMM:  45    -0.256415841554E+03    0.92199E-03   -0.24890E-03   675   0.143E-01    0.699E-01
RMM:  46    -0.256418115279E+03   -0.22737E-02   -0.23366E-03   674   0.131E-01    0.106E+00
RMM:  47    -0.256419665491E+03   -0.15502E-02   -0.23679E-03   674   0.135E-01    0.790E-01
RMM:  48    -0.256419469898E+03    0.19559E-03   -0.14307E-03   675   0.109E-01    0.440E-01
RMM:  49    -0.256422284791E+03   -0.28149E-02   -0.13971E-03   675   0.989E-02    0.694E-01
RMM:  50    -0.256423899030E+03   -0.16142E-02   -0.11089E-03   673   0.906E-02    0.393E-01
RMM:  51    -0.256424615074E+03   -0.71604E-03   -0.66767E-04   676   0.714E-02    0.391E-01
RMM:  52    -0.256427950943E+03   -0.33359E-02   -0.70018E-04   673   0.647E-02    0.361E-01
RMM:  53    -0.256428378878E+03   -0.42793E-03   -0.29825E-04   675   0.485E-02    0.208E-01
RMM:  54    -0.256430117814E+03   -0.17389E-02   -0.34139E-04   674   0.461E-02    0.310E-01
RMM:  55    -0.256430749281E+03   -0.63147E-03   -0.21968E-04   673   0.401E-02    0.203E-01
RMM:  56    -0.256431631315E+03   -0.88203E-03   -0.19241E-04   673   0.368E-02    0.225E-01
RMM:  57    -0.256432832214E+03   -0.12009E-02   -0.18841E-04   674   0.335E-02    0.164E-01
RMM:  58    -0.256433162968E+03   -0.33075E-03   -0.60794E-05   672   0.207E-02    0.101E-01
RMM:  59    -0.256433844711E+03   -0.68174E-03   -0.67379E-05   674   0.208E-02    0.141E-01
RMM:  60    -0.256434340001E+03   -0.49529E-03   -0.51812E-05   672   0.186E-02    0.787E-02
RMM:  61    -0.256434726334E+03   -0.38633E-03   -0.41656E-05   671   0.172E-02    0.140E-01
RMM:  62    -0.256434952633E+03   -0.22630E-03   -0.31668E-05   670   0.153E-02    0.156E-01
RMM:  63    -0.256435272416E+03   -0.31978E-03   -0.21272E-05   667   0.123E-02    0.735E-02
RMM:  64    -0.256435601748E+03   -0.32933E-03   -0.17604E-05   667   0.111E-02    0.585E-02
RMM:  65    -0.256436303337E+03   -0.70159E-03   -0.26019E-05   668   0.107E-02    0.612E-02
RMM:  66    -0.256436358396E+03   -0.55059E-04   -0.16818E-05   665   0.113E-02    0.942E-02
RMM:  67    -0.256436510702E+03   -0.15231E-03   -0.12016E-05   650   0.973E-03    0.475E-02
RMM:  68    -0.256436701931E+03   -0.19123E-03   -0.79240E-06   605   0.721E-03    0.349E-02
RMM:  69    -0.256436953875E+03   -0.25194E-03   -0.86430E-06   589   0.629E-03    0.325E-02
RMM:  70    -0.256437142325E+03   -0.18845E-03   -0.59184E-06   518   0.538E-03    0.274E-02
RMM:  71    -0.256437185166E+03   -0.42840E-04   -0.72278E-06   603   0.718E-03    0.634E-02
RMM:  72    -0.256437306155E+03   -0.12099E-03   -0.63649E-06   574   0.676E-03    0.266E-02
RMM:  73    -0.256437448599E+03   -0.14244E-03   -0.48528E-06   484   0.448E-03    0.256E-02
RMM:  74    -0.256437562905E+03   -0.11431E-03   -0.42429E-06   463   0.403E-03    0.141E-02
RMM:  75    -0.256437617880E+03   -0.54976E-04   -0.19810E-06   401   0.305E-03    0.154E-02
RMM:  76    -0.256437709617E+03   -0.91736E-04   -0.53354E-06   492   0.384E-03    0.330E-02
RMM:  77    -0.256437719932E+03   -0.10316E-04   -0.13422E-06   377   0.333E-03    0.114E-02
RMM:  78    -0.256437749834E+03   -0.29902E-04   -0.11411E-06   388   0.213E-03    0.916E-03
RMM:  79    -0.256483941073E+03   -0.46191E-01    0.69616E+00   551   0.141E+00    0.145E-01
RMM:  80    -0.256437137579E+03    0.46803E-01   -0.21423E-01   667   0.618E-01    0.257E-02
RMM:  81    -0.256437737862E+03   -0.60028E-03   -0.45553E-03   664   0.674E-02    0.179E-02
RMM:  82    -0.256437788046E+03   -0.50184E-04   -0.19568E-04   453   0.212E-02    0.113E-02
RMM:  83    -0.256437819735E+03   -0.31689E-04   -0.20825E-05   466   0.499E-03    0.121E-02
RMM:  84    -0.256437836554E+03   -0.16819E-04   -0.20625E-06   399   0.322E-03    0.730E-03
RMM:  85    -0.256437841010E+03   -0.44558E-05   -0.52800E-07   367   0.179E-03    0.518E-03
RMM:  86    -0.256437847163E+03   -0.61525E-05   -0.34520E-07   371   0.142E-03    0.868E-03
RMM:  87    -0.256437847318E+03   -0.15530E-06   -0.22603E-07   364   0.146E-03
   1 F= -.25643785E+03 E0= -.25617030E+03  d E =-.256438E+03
       N       E                     dE             d eps       ncg     rms          rms(c)
DAV:   1    -0.257214238181E+03   -0.77639E+00   -0.42103E+01   672   0.101E+01    0.184E+00
RMM:   2    -0.258679682551E+03   -0.14654E+01   -0.22771E+00   673   0.401E+00    0.219E+01
RMM:   3    -0.258122147861E+03    0.55753E+00   -0.45444E-01   681   0.187E+00    0.202E+01
RMM:   4    -0.257557184700E+03    0.56496E+00   -0.25713E-01   676   0.142E+00    0.106E+01
RMM:   5    -0.257351750916E+03    0.20543E+00   -0.16236E-01   676   0.112E+00    0.488E+00
RMM:   6    -0.257379566370E+03   -0.27815E-01   -0.76046E-02   676   0.755E-01    0.719E+00
RMM:   7    -0.257397130643E+03   -0.17564E-01   -0.44310E-02   676   0.570E-01    0.830E+00
RMM:   8    -0.257411964870E+03   -0.14834E-01   -0.62258E-02   675   0.700E-01    0.840E+00
RMM:   9    -0.257388130891E+03    0.23834E-01   -0.40329E-02   676   0.579E-01    0.813E+00
RMM:  10    -0.257308262463E+03    0.79868E-01   -0.38608E-02   676   0.563E-01    0.321E+00
RMM:  11    -0.257308817753E+03   -0.55529E-03   -0.24768E-02   676   0.442E-01    0.281E+00
RMM:  12    -0.257320419848E+03   -0.11602E-01   -0.25820E-02   676   0.444E-01    0.355E+00
RMM:  13    -0.257307838770E+03    0.12581E-01   -0.21953E-02   675   0.431E-01    0.278E+00
RMM:  14    -0.257297019810E+03    0.10819E-01   -0.16219E-02   676   0.372E-01    0.190E+00
RMM:  15    -0.257294994200E+03    0.20256E-02   -0.95589E-03   676   0.276E-01    0.157E+00
RMM:  16    -0.257300896523E+03   -0.59023E-02   -0.74515E-03   675   0.242E-01    0.225E+00
RMM:  17    -0.257291067416E+03    0.98291E-02   -0.57207E-03   675   0.229E-01    0.913E-01
RMM:  18    -0.257291132197E+03   -0.64780E-04   -0.22514E-03   676   0.141E-01    0.713E-01
RMM:  19    -0.257290756079E+03    0.37612E-03   -0.14043E-03   676   0.106E-01    0.642E-01
RMM:  20    -0.257291554016E+03   -0.79794E-03   -0.12945E-03   676   0.103E-01    0.810E-01
RMM:  21    -0.257290472803E+03    0.10812E-02   -0.81560E-04   676   0.854E-02    0.522E-01
RMM:  22    -0.257290236902E+03    0.23590E-03   -0.52454E-04   676   0.684E-02    0.243E-01
RMM:  23    -0.257290249096E+03   -0.12194E-04   -0.19532E-04   676   0.401E-02    0.207E-01
RMM:  24    -0.257290602439E+03   -0.35334E-03   -0.18839E-04   676   0.388E-02    0.402E-01
RMM:  25    -0.257290212314E+03    0.39013E-03   -0.14405E-04   676   0.361E-02    0.151E-01
RMM:  26    -0.257290343931E+03   -0.13162E-03   -0.60614E-05   675   0.231E-02    0.976E-02
RMM:  27    -0.257290397866E+03   -0.53935E-04   -0.39227E-05   675   0.174E-02    0.136E-01
RMM:  28    -0.257290396398E+03    0.14682E-05   -0.32004E-05   672   0.164E-02    0.102E-01
RMM:  29    -0.257290401217E+03   -0.48187E-05   -0.16112E-05   672   0.120E-02    0.398E-02
RMM:  30    -0.257290432289E+03   -0.31072E-04   -0.71902E-06   628   0.749E-03    0.474E-02
RMM:  31    -0.257290445070E+03   -0.12781E-04   -0.44471E-06   518   0.635E-03    0.328E-02
RMM:  32    -0.257290456048E+03   -0.10978E-04   -0.20422E-06   380   0.462E-03    0.268E-02
RMM:  33    -0.257290470853E+03   -0.14805E-04   -0.22308E-06   382   0.428E-03    0.341E-02
RMM:  34    -0.257290483826E+03   -0.12973E-04   -0.22141E-06   386   0.477E-03    0.210E-02
RMM:  35    -0.257290490707E+03   -0.68805E-05   -0.91724E-07   367   0.278E-03    0.193E-02
RMM:  36    -0.257290517409E+03   -0.26703E-04   -0.22613E-06   409   0.315E-03    0.197E-02
RMM:  37    -0.257290524448E+03   -0.70384E-05   -0.10470E-06   373   0.302E-03    0.114E-02
RMM:  38    -0.257290532525E+03   -0.80768E-05   -0.65531E-07   368   0.193E-03    0.126E-02
RMM:  39    -0.257290547134E+03   -0.14609E-04   -0.10988E-06   384   0.215E-03    0.916E-03
RMM:  40    -0.257290550482E+03   -0.33477E-05   -0.35247E-07   366   0.156E-03    0.694E-03
RMM:  41    -0.257290557135E+03   -0.66530E-05   -0.39799E-07   368   0.128E-03    0.832E-03
RMM:  42    -0.257290562010E+03   -0.48755E-05   -0.33840E-07   367   0.146E-03    0.485E-03
RMM:  43    -0.257290564757E+03   -0.27470E-05   -0.17818E-07   351   0.969E-04    0.562E-03
RMM:  44    -0.257290574383E+03   -0.96259E-05   -0.77464E-07   380   0.120E-03    0.425E-03
RMM:  45    -0.257290575960E+03   -0.15770E-05   -0.19282E-07   362   0.103E-03    0.230E-03
RMM:  46    -0.257290578236E+03   -0.22760E-05   -0.15807E-07   342   0.733E-04    0.356E-03
RMM:  47    -0.257290579632E+03   -0.13959E-05   -0.81434E-08   325   0.777E-04    0.461E-03
RMM:  48    -0.257290579847E+03   -0.21521E-06   -0.24413E-08   206   0.475E-04
   2 F= -.25729058E+03 E0= -.25702235E+03  d E =-.852733E+00
       N       E                     dE             d eps       ncg     rms          rms(c)
DAV:   1    -0.257378564373E+03   -0.87985E-01   -0.80907E+01   672   0.144E+01    0.244E+00
RMM:   2    -0.260512167730E+03   -0.31336E+01   -0.43867E+00   676   0.555E+00    0.309E+01
RMM:   3    -0.258783132245E+03    0.17290E+01   -0.98047E-01   684   0.277E+00    0.234E+01
RMM:   4    -0.257943982088E+03    0.83915E+00   -0.38554E-01   677   0.170E+00    0.126E+01
RMM:   5    -0.257659959601E+03    0.28402E+00   -0.23591E-01   676   0.134E+00    0.673E+00
RMM:   6    -0.257729618007E+03   -0.69658E-01   -0.11712E-01   676   0.914E-01    0.107E+01
RMM:   7    -0.257686500812E+03    0.43117E-01   -0.78510E-02   676   0.765E-01    0.867E+00
RMM:   8    -0.257760267286E+03   -0.73766E-01   -0.10769E-01   676   0.922E-01    0.111E+01
RMM:   9    -0.257664545247E+03    0.95722E-01   -0.55864E-02   676   0.683E-01    0.878E+00
RMM:  10    -0.257575280567E+03    0.89265E-01   -0.53554E-02   676   0.655E-01    0.389E+00
RMM:  11    -0.257574969767E+03    0.31080E-03   -0.30008E-02   676   0.481E-01    0.357E+00
RMM:  12    -0.257585030509E+03   -0.10061E-01   -0.39609E-02   676   0.550E-01    0.380E+00
RMM:  13    -0.257566289015E+03    0.18741E-01   -0.33442E-02   676   0.534E-01    0.316E+00
RMM:  14    -0.257555048568E+03    0.11240E-01   -0.18609E-02   675   0.391E-01    0.229E+00
RMM:  15    -0.257555450942E+03   -0.40237E-03   -0.17401E-02   676   0.365E-01    0.201E+00
RMM:  16    -0.257562105253E+03   -0.66543E-02   -0.11427E-02   676   0.309E-01    0.293E+00
RMM:  17    -0.257545817980E+03    0.16287E-01   -0.83928E-03   676   0.276E-01    0.106E+00
RMM:  18    -0.257546220785E+03   -0.40280E-03   -0.34860E-03   676   0.171E-01    0.868E-01
RMM:  19    -0.257548858115E+03   -0.26373E-02   -0.31558E-03   676   0.157E-01    0.141E+00
RMM:  20    -0.257545377569E+03    0.34805E-02   -0.22249E-03   676   0.145E-01    0.789E-01
RMM:  21    -0.257544898124E+03    0.47945E-03   -0.98446E-04   676   0.937E-02    0.380E-01
RMM:  22    -0.257545080601E+03   -0.18248E-03   -0.46281E-04   676   0.611E-02    0.359E-01
RMM:  23    -0.257545215413E+03   -0.13481E-03   -0.39699E-04   676   0.571E-02    0.431E-01
RMM:  24    -0.257544922598E+03    0.29281E-03   -0.21298E-04   676   0.447E-02    0.246E-01
RMM:  25    -0.257544977706E+03   -0.55108E-04   -0.11256E-04   676   0.307E-02    0.118E-01
RMM:  26    -0.257545152477E+03   -0.17477E-03   -0.11980E-04   676   0.301E-02    0.192E-01
RMM:  27    -0.257545082431E+03    0.70046E-04   -0.91262E-05   676   0.276E-02    0.107E-01
RMM:  28    -0.257545129990E+03   -0.47559E-04   -0.32696E-05   672   0.167E-02    0.753E-02
RMM:  29    -0.257545146987E+03   -0.16998E-04   -0.20407E-05   672   0.126E-02    0.590E-02
RMM:  30    -0.257545206878E+03   -0.59890E-04   -0.16398E-05   671   0.111E-02    0.723E-02
RMM:  31    -0.257545209415E+03   -0.25377E-05   -0.10443E-05   664   0.966E-03    0.267E-02
RMM:  32    -0.257545231593E+03   -0.22178E-04   -0.38330E-06   486   0.566E-03    0.288E-02
RMM:  33    -0.257545268713E+03   -0.37120E-04   -0.52513E-06   561   0.596E-03    0.327E-02
RMM:  34    -0.257545284795E+03   -0.16082E-04   -0.26241E-06   400   0.498E-03    0.149E-02
RMM:  35    -0.257545302517E+03   -0.17722E-04   -0.19978E-06   381   0.387E-03    0.208E-02
RMM:  36    -0.257545340372E+03   -0.37855E-04   -0.37231E-06   453   0.436E-03    0.137E-02
RMM:  37    -0.257545352595E+03   -0.12224E-04   -0.13637E-06   377   0.305E-03    0.149E-02
RMM:  38    -0.257545389453E+03   -0.36858E-04   -0.37599E-06   453   0.339E-03    0.144E-02
RMM:  39    -0.257545398038E+03   -0.85849E-05   -0.11098E-06   377   0.272E-03    0.639E-03
RMM:  40    -0.257545416147E+03   -0.18109E-04   -0.14573E-06   388   0.235E-03    0.147E-02
RMM:  41    -0.257545433888E+03   -0.17741E-04   -0.19877E-06   409   0.283E-03    0.668E-03
RMM:  42    -0.257545438422E+03   -0.45342E-05   -0.50472E-07   368   0.171E-03    0.507E-03
RMM:  43    -0.257545451549E+03   -0.13126E-04   -0.10942E-06   384   0.166E-03    0.857E-03
RMM:  44    -0.257545456185E+03   -0.46364E-05   -0.51803E-07   368   0.176E-03    0.342E-03
RMM:  45    -0.257545458714E+03   -0.25289E-05   -0.22339E-07   356   0.105E-03    0.445E-03
RMM:  46    -0.257545465635E+03   -0.69207E-05   -0.48943E-07   371   0.110E-03    0.317E-03
RMM:  47    -0.257545466303E+03   -0.66786E-06   -0.11732E-07   330   0.841E-04
   3 F= -.25754547E+03 E0= -.25727586E+03  d E =-.254886E+00
       N       E                     dE             d eps       ncg     rms          rms(c)
DAV:   1    -0.257563665768E+03   -0.18200E-01   -0.91022E-01   720   0.170E+00    0.258E-01
RMM:   2    -0.257629743859E+03   -0.66078E-01   -0.36559E-02   676   0.542E-01    0.572E+00
RMM:   3    -0.257578725906E+03    0.51018E-01   -0.13392E-02   677   0.351E-01    0.362E+00
RMM:   4    -0.257564596944E+03    0.14129E-01   -0.62254E-03   677   0.227E-01    0.102E+00
RMM:   5    -0.257566854122E+03   -0.22572E-02   -0.25437E-03   676   0.142E-01    0.139E+00
RMM:   6    -0.257566087745E+03    0.76638E-03   -0.12916E-03   676   0.986E-02    0.123E+00
RMM:   7    -0.257567237086E+03   -0.11493E-02   -0.17316E-03   676   0.117E-01    0.126E+00
RMM:   8    -0.257564516601E+03    0.27205E-02   -0.14630E-03   676   0.113E-01    0.575E-01
RMM:   9    -0.257564960552E+03   -0.44395E-03   -0.58308E-04   676   0.712E-02    0.753E-01
RMM:  10    -0.257564386033E+03    0.57452E-03   -0.27059E-04   676   0.468E-02    0.379E-01
RMM:  11    -0.257564982621E+03   -0.59659E-03   -0.39154E-04   676   0.547E-02    0.521E-01
RMM:  12    -0.257564620302E+03    0.36232E-03   -0.31959E-04   676   0.521E-02    0.397E-01
RMM:  13    -0.257564409269E+03    0.21103E-03   -0.21186E-04   676   0.434E-02    0.181E-01
RMM:  14    -0.257564514130E+03   -0.10486E-03   -0.10775E-04   676   0.296E-02    0.175E-01
RMM:  15    -0.257564600391E+03   -0.86261E-04   -0.11553E-04   676   0.302E-02    0.246E-01
RMM:  16    -0.257564472655E+03    0.12774E-03   -0.80110E-05   675   0.272E-02    0.153E-01
RMM:  17    -0.257564489037E+03   -0.16382E-04   -0.32603E-05   672   0.169E-02    0.757E-02
RMM:  18    -0.257564531048E+03   -0.42011E-04   -0.22576E-05   671   0.136E-02    0.942E-02
RMM:  19    -0.257564517223E+03    0.13825E-04   -0.17588E-05   668   0.126E-02    0.878E-02
RMM:  20    -0.257564519670E+03   -0.24469E-05   -0.96014E-06   660   0.945E-03    0.435E-02
RMM:  21    -0.257564532972E+03   -0.13302E-04   -0.43308E-06   513   0.620E-03    0.449E-02
RMM:  22    -0.257564535154E+03   -0.21814E-05   -0.49328E-06   561   0.666E-03    0.428E-02
RMM:  23    -0.257564535204E+03   -0.50408E-07   -0.31016E-06   423   0.582E-03
   4 F= -.25756454E+03 E0= -.25729492E+03  d E =-.190689E-01
       N       E                     dE             d eps       ncg     rms          rms(c)
DAV:   1    -0.257586875890E+03   -0.22341E-01   -0.30114E+00   672   0.312E+00    0.503E-01
RMM:   2    -0.257845030926E+03   -0.25816E+00   -0.13146E-01   676   0.104E+00    0.109E+01
RMM:   3    -0.257648231939E+03    0.19680E+00   -0.51465E-02   676   0.696E-01    0.680E+00
RMM:   4    -0.257593298234E+03    0.54934E-01   -0.22123E-02   677   0.424E-01    0.200E+00
RMM:   5    -0.257597768679E+03   -0.44704E-02   -0.85799E-03   676   0.259E-01    0.259E+00
RMM:   6    -0.257594405031E+03    0.33636E-02   -0.44365E-03   676   0.182E-01    0.206E+00
RMM:   7    -0.257599671516E+03   -0.52665E-02   -0.59484E-03   676   0.216E-01    0.237E+00
RMM:   8    -0.257591362720E+03    0.83088E-02   -0.49691E-03   676   0.207E-01    0.142E+00
RMM:   9    -0.257591636369E+03   -0.27365E-03   -0.17760E-03   676   0.125E-01    0.159E+00
RMM:  10    -0.257588832713E+03    0.28037E-02   -0.14373E-03   676   0.107E-01    0.578E-01
RMM:  11    -0.257590371173E+03   -0.15385E-02   -0.11602E-03   676   0.937E-02    0.831E-01
RMM:  12    -0.257589718256E+03    0.65292E-03   -0.10382E-03   676   0.928E-02    0.697E-01
RMM:  13    -0.257588929966E+03    0.78829E-03   -0.65985E-04   676   0.774E-02    0.397E-01
RMM:  14    -0.257588991462E+03   -0.61496E-04   -0.31221E-04   676   0.509E-02    0.267E-01
RMM:  15    -0.257589289531E+03   -0.29807E-03   -0.35493E-04   676   0.526E-02    0.372E-01
RMM:  16    -0.257589071123E+03    0.21841E-03   -0.23787E-04   676   0.466E-02    0.328E-01
RMM:  17    -0.257588940551E+03    0.13057E-03   -0.11787E-04   676   0.325E-02    0.133E-01
RMM:  18    -0.257589043448E+03   -0.10290E-03   -0.67922E-05   674   0.238E-02    0.122E-01
RMM:  19    -0.257589073056E+03   -0.29608E-04   -0.47769E-05   673   0.198E-02    0.157E-01
RMM:  20    -0.257589056196E+03    0.16860E-04   -0.37918E-05   671   0.183E-02    0.129E-01
RMM:  21    -0.257589037555E+03    0.18641E-04   -0.23740E-05   671   0.145E-02    0.720E-02
RMM:  22    -0.257589059823E+03   -0.22268E-04   -0.12113E-05   669   0.101E-02    0.615E-02
RMM:  23    -0.257589071885E+03   -0.12062E-04   -0.10581E-05   660   0.935E-03    0.801E-02
RMM:  24    -0.257589065153E+03    0.67326E-05   -0.71340E-06   637   0.817E-03    0.521E-02
RMM:  25    -0.257589068666E+03   -0.35135E-05   -0.36726E-06   461   0.590E-03    0.283E-02
RMM:  26    -0.257589077054E+03   -0.83877E-05   -0.26946E-06   392   0.502E-03    0.348E-02
RMM:  27    -0.257589076505E+03    0.54861E-06   -0.21646E-06   377   0.506E-03
   5 F= -.25758908E+03 E0= -.25731965E+03  d E =-.245413E-01
       N       E                     dE             d eps       ncg     rms          rms(c)
DAV:   1    -0.257608252859E+03   -0.19176E-01   -0.46523E+00   672   0.391E+00    0.713E-01
RMM:   2    -0.258120358661E+03   -0.51211E+00   -0.24084E-01   676   0.141E+00    0.147E+01
RMM:   3    -0.257725695012E+03    0.39466E+00   -0.10889E-01   676   0.102E+00    0.908E+00
RMM:   4    -0.257621817323E+03    0.10388E+00   -0.39413E-02   676   0.563E-01    0.289E+00
RMM:   5    -0.257621194728E+03    0.62259E-03   -0.15752E-02   676   0.350E-01    0.300E+00
RMM:   6    -0.257617804666E+03    0.33901E-02   -0.64178E-03   676   0.218E-01    0.259E+00
RMM:   7    -0.257626131035E+03   -0.83264E-02   -0.98745E-03   675   0.275E-01    0.294E+00
RMM:   8    -0.257618471301E+03    0.76597E-02   -0.78729E-03   676   0.260E-01    0.252E+00
RMM:   9    -0.257614915739E+03    0.35556E-02   -0.33995E-03   676   0.174E-01    0.220E+00
RMM:  10    -0.257609088406E+03    0.58273E-02   -0.30199E-03   675   0.158E-01    0.711E-01
RMM:  11    -0.257610252362E+03   -0.11640E-02   -0.14925E-03   676   0.107E-01    0.739E-01
RMM:  12    -0.257610973481E+03   -0.72112E-03   -0.15867E-03   676   0.111E-01    0.916E-01
RMM:  13    -0.257609401562E+03    0.15719E-02   -0.10929E-03   675   0.101E-01    0.600E-01
RMM:  14    -0.257609141563E+03    0.26000E-03   -0.45903E-04   676   0.633E-02    0.276E-01
RMM:  15    -0.257609377896E+03   -0.23633E-03   -0.33279E-04   676   0.513E-02    0.297E-01
RMM:  16    -0.257609502521E+03   -0.12462E-03   -0.29798E-04   676   0.493E-02    0.400E-01
RMM:  17    -0.257609247987E+03    0.25453E-03   -0.20016E-04   676   0.430E-02    0.239E-01
RMM:  18    -0.257609258204E+03   -0.10217E-04   -0.10772E-04   676   0.306E-02    0.138E-01
RMM:  19    -0.257609293606E+03   -0.35402E-04   -0.51853E-05   673   0.205E-02    0.120E-01
RMM:  20    -0.257609349328E+03   -0.55722E-04   -0.54701E-05   674   0.208E-02    0.160E-01
RMM:  21    -0.257609305319E+03    0.44009E-04   -0.35249E-05   672   0.181E-02    0.125E-01
RMM:  22    -0.257609303559E+03    0.17603E-05   -0.17927E-05   668   0.127E-02    0.494E-02
RMM:  23    -0.257609327228E+03   -0.23670E-04   -0.82954E-06   644   0.836E-03    0.591E-02
RMM:  24    -0.257609335607E+03   -0.83791E-05   -0.74473E-06   639   0.801E-03    0.772E-02
RMM:  25    -0.257609324895E+03    0.10712E-04   -0.49737E-06   546   0.696E-03    0.318E-02
RMM:  26    -0.257609336447E+03   -0.11552E-04   -0.27657E-06   398   0.523E-03    0.314E-02
RMM:  27    -0.257609339014E+03   -0.25663E-05   -0.23903E-06   378   0.499E-03    0.335E-02
RMM:  28    -0.257609340574E+03   -0.15600E-05   -0.15693E-06   368   0.436E-03    0.187E-02
RMM:  29    -0.257609342677E+03   -0.21028E-05   -0.57491E-07   360   0.251E-03    0.149E-02
RMM:  30    -0.257609345656E+03   -0.29796E-05   -0.50762E-07   352   0.219E-03    0.150E-02
RMM:  31    -0.257609347270E+03   -0.16138E-05   -0.40149E-07   357   0.213E-03    0.112E-02
RMM:  32    -0.257609348702E+03   -0.14320E-05   -0.22174E-07   349   0.155E-03    0.843E-03
RMM:  33    -0.257609349585E+03   -0.88342E-06   -0.18177E-07   348   0.125E-03
   6 F= -.25760935E+03 E0= -.25734055E+03  d E =-.202731E-01
       N       E                     dE             d eps       ncg     rms          rms(c)
DAV:   1    -0.257625664816E+03   -0.16316E-01   -0.50013E+00   672   0.404E+00    0.753E-01
RMM:   2    -0.258155677765E+03   -0.53001E+00   -0.26528E-01   676   0.146E+00    0.145E+01
RMM:   3    -0.257751252715E+03    0.40443E+00   -0.12267E-01   676   0.109E+00    0.932E+00
RMM:   4    -0.257641824099E+03    0.10943E+00   -0.41284E-02   676   0.575E-01    0.314E+00
RMM:   5    -0.257635569684E+03    0.62544E-02   -0.17871E-02   676   0.373E-01    0.258E+00
RMM:   6    -0.257637297288E+03   -0.17276E-02   -0.61427E-03   676   0.213E-01    0.296E+00
RMM:   7    -0.257643126821E+03   -0.58295E-02   -0.99843E-03   675   0.275E-01    0.298E+00
RMM:   8    -0.257637049757E+03    0.60771E-02   -0.76146E-03   676   0.256E-01    0.273E+00
RMM:   9    -0.257632038037E+03    0.50117E-02   -0.36716E-03   676   0.181E-01    0.219E+00
RMM:  10    -0.257626181826E+03    0.58562E-02   -0.31509E-03   675   0.162E-01    0.726E-01
RMM:  11    -0.257627129910E+03   -0.94808E-03   -0.15568E-03   676   0.110E-01    0.716E-01
RMM:  12    -0.257627982319E+03   -0.85241E-03   -0.16815E-03   676   0.114E-01    0.915E-01
RMM:  13    -0.257626492269E+03    0.14901E-02   -0.11863E-03   676   0.104E-01    0.629E-01
RMM:  14    -0.257626124041E+03    0.36823E-03   -0.50535E-04   676   0.663E-02    0.287E-01
RMM:  15    -0.257626394418E+03   -0.27038E-03   -0.38095E-04   676   0.551E-02    0.322E-01
RMM:  16    -0.257626398148E+03   -0.37305E-05   -0.29684E-04   676   0.500E-02    0.375E-01
RMM:  17    -0.257626212486E+03    0.18566E-03   -0.19556E-04   676   0.422E-02    0.218E-01
RMM:  18    -0.257626253647E+03   -0.41161E-04   -0.11503E-04   676   0.311E-02    0.159E-01
RMM:  19    -0.257626301116E+03   -0.47469E-04   -0.79927E-05   675   0.251E-02    0.168E-01
RMM:  20    -0.257626297524E+03    0.35918E-05   -0.66217E-05   675   0.239E-02    0.168E-01
RMM:  21    -0.257626254934E+03    0.42590E-04   -0.35673E-05   672   0.182E-02    0.103E-01
RMM:  22    -0.257626271245E+03   -0.16312E-04   -0.17507E-05   668   0.123E-02    0.518E-02
RMM:  23    -0.257626309808E+03   -0.38562E-04   -0.14739E-05   669   0.109E-02    0.902E-02
RMM:  24    -0.257626290814E+03    0.18994E-04   -0.10067E-05   657   0.968E-03    0.738E-02
RMM:  25    -0.257626294977E+03   -0.41629E-05   -0.53986E-06   592   0.717E-03    0.272E-02
RMM:  26    -0.257626301744E+03   -0.67668E-05   -0.22840E-06   385   0.476E-03    0.286E-02
RMM:  27    -0.257626305966E+03   -0.42223E-05   -0.23226E-06   383   0.489E-03    0.330E-02
RMM:  28    -0.257626304212E+03    0.17538E-05   -0.15605E-06   367   0.434E-03    0.178E-02
RMM:  29    -0.257626307508E+03   -0.32958E-05   -0.70149E-07   361   0.278E-03    0.140E-02
RMM:  30    -0.257626309164E+03   -0.16561E-05   -0.51828E-07   351   0.223E-03    0.147E-02
RMM:  31    -0.257626309974E+03   -0.80967E-06   -0.39945E-07   355   0.216E-03
   7 F= -.25762631E+03 E0= -.25735850E+03  d E =-.169604E-01
       N       E                     dE             d eps       ncg     rms          rms(c)
DAV:   1    -0.257639686760E+03   -0.13378E-01   -0.57808E+00   672   0.433E+00    0.719E-01
RMM:   2    -0.258130126472E+03   -0.49044E+00   -0.24337E-01   676   0.140E+00    0.140E+01
RMM:   3    -0.257773191857E+03    0.35693E+00   -0.10346E-01   676   0.995E-01    0.943E+00
RMM:   4    -0.257657141251E+03    0.11605E+00   -0.43500E-02   676   0.593E-01    0.329E+00
RMM:   5    -0.257650739523E+03    0.64017E-02   -0.17509E-02   676   0.370E-01    0.273E+00
RMM:   6    -0.257650268790E+03    0.47073E-03   -0.66219E-03   676   0.223E-01    0.280E+00
RMM:   7    -0.257657053042E+03   -0.67843E-02   -0.97544E-03   675   0.271E-01    0.297E+00
RMM:   8    -0.257657799779E+03   -0.74674E-03   -0.79025E-03   676   0.259E-01    0.359E+00
RMM:   9    -0.257645704212E+03    0.12096E-01   -0.43467E-03   676   0.196E-01    0.205E+00
RMM:  10    -0.257640634000E+03    0.50702E-02   -0.40822E-03   675   0.185E-01    0.743E-01
RMM:  11    -0.257641318277E+03   -0.68428E-03   -0.16944E-03   676   0.115E-01    0.706E-01
RMM:  12    -0.257642477456E+03   -0.11592E-02   -0.18349E-03   675   0.119E-01    0.977E-01
RMM:  13    -0.257640889461E+03    0.15880E-02   -0.12666E-03   675   0.109E-01    0.708E-01
RMM:  14    -0.257640280974E+03    0.60849E-03   -0.57827E-04   676   0.715E-02    0.264E-01
RMM:  15    -0.257640599949E+03   -0.31898E-03   -0.34366E-04   676   0.526E-02    0.301E-01
RMM:  16    -0.257640690291E+03   -0.90341E-04   -0.31960E-04   676   0.507E-02    0.393E-01
RMM:  17    -0.257640492490E+03    0.19780E-03   -0.22562E-04   676   0.453E-02    0.269E-01
RMM:  18    -0.257640452896E+03    0.39593E-04   -0.12433E-04   676   0.331E-02    0.159E-01
RMM:  19    -0.257640508376E+03   -0.55480E-04   -0.64458E-05   674   0.230E-02    0.131E-01
RMM:  20    -0.257640547433E+03   -0.39057E-04   -0.57503E-05   673   0.215E-02    0.183E-01
RMM:  21    -0.257640501736E+03    0.45697E-04   -0.40955E-05   672   0.194E-02    0.124E-01
RMM:  22    -0.257640502455E+03   -0.71830E-06   -0.24852E-05   669   0.150E-02    0.475E-02
RMM:  23    -0.257640535208E+03   -0.32754E-04   -0.11886E-05   666   0.100E-02    0.622E-02
RMM:  24    -0.257640527045E+03    0.81633E-05   -0.85581E-06   653   0.892E-03    0.585E-02
RMM:  25    -0.257640530456E+03   -0.34114E-05   -0.38286E-06   473   0.623E-03    0.288E-02
RMM:  26    -0.257640535711E+03   -0.52547E-05   -0.24404E-06   386   0.492E-03    0.304E-02
RMM:  27    -0.257640538459E+03   -0.27479E-05   -0.21495E-06   377   0.471E-03    0.314E-02
RMM:  28    -0.257640537126E+03    0.13324E-05   -0.14113E-06   368   0.415E-03    0.165E-02
RMM:  29    -0.257640540226E+03   -0.31001E-05   -0.66799E-07   361   0.271E-03    0.131E-02
RMM:  30    -0.257640540996E+03   -0.76964E-06   -0.45320E-07   352   0.212E-03
   8 F= -.25764054E+03 E0= -.25737364E+03  d E =-.142310E-01
       N       E                     dE             d eps       ncg     rms          rms(c)
DAV:   1    -0.257650757178E+03   -0.10217E-01   -0.52813E+00   672   0.413E+00    0.562E-01
RMM:   2    -0.257981729191E+03   -0.33097E+00   -0.14856E-01   676   0.110E+00    0.120E+01
RMM:   3    -0.257730632528E+03    0.25110E+00   -0.58300E-02   676   0.742E-01    0.725E+00
RMM:   4    -0.257660230091E+03    0.70402E-01   -0.30970E-02   676   0.507E-01    0.242E+00
RMM:   5    -0.257659693166E+03    0.53692E-03   -0.10697E-02   676   0.292E-01    0.233E+00
RMM:   6    -0.257662758691E+03   -0.30655E-02   -0.56272E-03   676   0.207E-01    0.290E+00
RMM:   7    -0.257664822259E+03   -0.20636E-02   -0.70985E-03   676   0.234E-01    0.268E+00
RMM:   8    -0.257664723984E+03    0.98275E-04   -0.58025E-03   676   0.226E-01    0.326E+00
RMM:   9    -0.257653207055E+03    0.11517E-01   -0.32490E-03   676   0.169E-01    0.127E+00
RMM:  10    -0.257652268873E+03    0.93818E-03   -0.25991E-03   676   0.147E-01    0.603E-01
RMM:  11    -0.257653491864E+03   -0.12230E-02   -0.16147E-03   676   0.111E-01    0.853E-01
RMM:  12    -0.257653437368E+03    0.54496E-04   -0.15555E-03   675   0.113E-01    0.884E-01
RMM:  13    -0.257651930884E+03    0.15065E-02   -0.10879E-03   676   0.100E-01    0.443E-01
RMM:  14    -0.257651987317E+03   -0.56434E-04   -0.39355E-04   676   0.578E-02    0.285E-01
RMM:  15    -0.257652369600E+03   -0.38228E-03   -0.41802E-04   676   0.576E-02    0.400E-01
RMM:  16    -0.257652024885E+03    0.34472E-03   -0.29182E-04   676   0.519E-02    0.299E-01
RMM:  17    -0.257652015166E+03    0.97188E-05   -0.12565E-04   676   0.334E-02    0.164E-01
RMM:  18    -0.257652088759E+03   -0.73593E-04   -0.93545E-05   676   0.275E-02    0.172E-01
RMM:  19    -0.257652129275E+03   -0.40517E-04   -0.80098E-05   675   0.259E-02    0.214E-01
RMM:  20    -0.257652046725E+03    0.82551E-04   -0.50941E-05   671   0.217E-02    0.114E-01
RMM:  21    -0.257652073994E+03   -0.27269E-04   -0.28699E-05   670   0.159E-02    0.546E-02
RMM:  22    -0.257652095423E+03   -0.21428E-04   -0.13625E-05   666   0.106E-02    0.630E-02
RMM:  23    -0.257652098820E+03   -0.33971E-05   -0.11299E-05   663   0.979E-03    0.758E-02
RMM:  24    -0.257652095192E+03    0.36272E-05   -0.69769E-06   636   0.814E-03    0.456E-02
RMM:  25    -0.257652097999E+03   -0.28063E-05   -0.26356E-06   391   0.511E-03    0.256E-02
RMM:  26    -0.257652105411E+03   -0.74124E-05   -0.20851E-06   374   0.451E-03    0.297E-02
RMM:  27    -0.257652104426E+03    0.98474E-06   -0.18248E-06   368   0.451E-03
   9 F= -.25765210E+03 E0= -.25738605E+03  d E =-.115634E-01
       N       E                     dE             d eps       ncg     rms          rms(c)
DAV:   1    -0.257655828814E+03   -0.37234E-02   -0.10773E+00   672   0.183E+00    0.230E-01
RMM:   2    -0.257705948428E+03   -0.50120E-01   -0.36065E-02   675   0.501E-01    0.544E+00
RMM:   3    -0.257665542343E+03    0.40406E-01   -0.93235E-03   687   0.273E-01    0.278E+00
RMM:   4    -0.257658725080E+03    0.68173E-02   -0.55944E-03   677   0.216E-01    0.115E+00
RMM:   5    -0.257659207559E+03   -0.48248E-03   -0.26476E-03   676   0.143E-01    0.122E+00
RMM:   6    -0.257659997558E+03   -0.79000E-03   -0.12505E-03   676   0.973E-02    0.151E+00
RMM:   7    -0.257659801369E+03    0.19619E-03   -0.18812E-03   676   0.122E-01    0.125E+00
RMM:   8    -0.257658861205E+03    0.94016E-03   -0.13029E-03   676   0.107E-01    0.128E+00
RMM:   9    -0.257657302588E+03    0.15586E-02   -0.61501E-04   676   0.724E-02    0.493E-01
RMM:  10    -0.257657510959E+03   -0.20837E-03   -0.55898E-04   676   0.664E-02    0.319E-01
RMM:  11    -0.257657999794E+03   -0.48883E-03   -0.53436E-04   676   0.636E-02    0.527E-01
RMM:  12    -0.257657537427E+03    0.46237E-03   -0.39055E-04   676   0.580E-02    0.432E-01
RMM:  13    -0.257657327137E+03    0.21029E-03   -0.23656E-04   676   0.450E-02    0.174E-01
RMM:  14    -0.257657472194E+03   -0.14506E-03   -0.15683E-04   676   0.353E-02    0.203E-01
RMM:  15    -0.257657516112E+03   -0.43919E-04   -0.12367E-04   676   0.318E-02    0.275E-01
RMM:  16    -0.257657381248E+03    0.13486E-03   -0.88962E-05   676   0.282E-02    0.130E-01
RMM:  17    -0.257657432786E+03   -0.51538E-04   -0.45588E-05   674   0.198E-02    0.101E-01
RMM:  18    -0.257657433464E+03   -0.67765E-06   -0.31808E-05   673   0.159E-02    0.838E-02
RMM:  19    -0.257657449848E+03   -0.16384E-04   -0.23797E-05   671   0.144E-02    0.987E-02
RMM:  20    -0.257657427954E+03    0.21893E-04   -0.12259E-05   666   0.108E-02    0.577E-02
RMM:  21    -0.257657441525E+03   -0.13571E-04   -0.58538E-06   598   0.718E-03    0.292E-02
RMM:  22    -0.257657450227E+03   -0.87019E-05   -0.49496E-06   528   0.645E-03    0.442E-02
RMM:  23    -0.257657445530E+03    0.46975E-05   -0.38247E-06   457   0.632E-03    0.349E-02
RMM:  24    -0.257657447274E+03   -0.17445E-05   -0.16041E-06   374   0.426E-03    0.176E-02
RMM:  25    -0.257657449766E+03   -0.24913E-05   -0.88652E-07   361   0.302E-03    0.165E-02
RMM:  26    -0.257657450816E+03   -0.10505E-05   -0.10150E-06   360   0.312E-03    0.149E-02
RMM:  27    -0.257657451309E+03   -0.49294E-06   -0.77133E-07   353   0.300E-03
  10 F= -.25765745E+03 E0= -.25739145E+03  d E =-.534688E-02
       N       E                     dE             d eps       ncg     rms          rms(c)
DAV:   1    -0.257658565557E+03   -0.11147E-02   -0.49015E-02   672   0.396E-01    0.478E-02
RMM:   2    -0.257661440138E+03   -0.28746E-02   -0.11701E-03   676   0.975E-02    0.135E+00
RMM:   3    -0.257658375498E+03    0.30646E-02   -0.46285E-04   679   0.651E-02    0.613E-01
RMM:   4    -0.257658442427E+03   -0.66929E-04   -0.25811E-04   677   0.479E-02    0.196E-01
RMM:   5    -0.257658610526E+03   -0.16810E-03   -0.10778E-04   676   0.294E-02    0.210E-01
RMM:   6    -0.257658754497E+03   -0.14397E-03   -0.71453E-05   673   0.234E-02    0.416E-01
RMM:   7    -0.257658563138E+03    0.19136E-03   -0.74854E-05   676   0.250E-02    0.248E-01
RMM:   8    -0.257658541877E+03    0.21261E-04   -0.62214E-05   673   0.238E-02    0.145E-01
RMM:   9    -0.257658581150E+03   -0.39272E-04   -0.17384E-05   666   0.123E-02    0.143E-01
RMM:  10    -0.257658575545E+03    0.56051E-05   -0.17326E-05   670   0.117E-02    0.751E-02
RMM:  11    -0.257658610521E+03   -0.34976E-04   -0.19860E-05   670   0.123E-02    0.108E-01
RMM:  12    -0.257658588284E+03    0.22237E-04   -0.17636E-05   669   0.123E-02    0.871E-02
RMM:  13    -0.257658582114E+03    0.61696E-05   -0.11192E-05   664   0.997E-03    0.390E-02
RMM:  14    -0.257658592911E+03   -0.10797E-04   -0.49666E-06   552   0.650E-03    0.357E-02
RMM:  15    -0.257658598419E+03   -0.55082E-05   -0.48733E-06   577   0.653E-03    0.534E-02
RMM:  16    -0.257658593316E+03    0.51030E-05   -0.30141E-06   413   0.556E-03    0.342E-02
RMM:  17    -0.257658595020E+03   -0.17039E-05   -0.20128E-06   374   0.461E-03    0.182E-02
RMM:  18    -0.257658597470E+03   -0.24505E-05   -0.13063E-06   361   0.362E-03    0.177E-02
RMM:  19    -0.257658598230E+03   -0.75916E-06   -0.96999E-07   359   0.318E-03
  11 F= -.25765860E+03 E0= -.25739260E+03  d E =-.114692E-02
       N       E                     dE             d eps       ncg     rms          rms(c)
DAV:   1    -0.257660647169E+03   -0.20497E-02   -0.13794E-01   672   0.669E-01    0.868E-02
RMM:   2    -0.257670291741E+03   -0.96446E-02   -0.34869E-03   676   0.169E-01    0.242E+00
RMM:   3    -0.257661132234E+03    0.91595E-02   -0.15211E-03   677   0.119E-01    0.116E+00
RMM:   4    -0.257660473241E+03    0.65899E-03   -0.85884E-04   676   0.871E-02    0.374E-01
RMM:   5    -0.257660807919E+03   -0.33468E-03   -0.34866E-04   676   0.529E-02    0.402E-01
RMM:   6    -0.257661056497E+03   -0.24858E-03   -0.20428E-04   676   0.395E-02    0.625E-01
RMM:   7    -0.257660823057E+03    0.23344E-03   -0.24888E-04   676   0.448E-02    0.428E-01
RMM:   8    -0.257660611025E+03    0.21203E-03   -0.21306E-04   676   0.440E-02    0.244E-01
RMM:   9    -0.257660693669E+03   -0.82644E-04   -0.60674E-05   673   0.232E-02    0.280E-01
RMM:  10    -0.257660620220E+03    0.73449E-04   -0.43157E-05   672   0.188E-02    0.113E-01
RMM:  11    -0.257660720586E+03   -0.10037E-03   -0.42908E-05   672   0.182E-02    0.155E-01
RMM:  12    -0.257660700223E+03    0.20364E-04   -0.41298E-05   672   0.185E-02    0.156E-01
RMM:  13    -0.257660654568E+03    0.45655E-04   -0.29126E-05   671   0.164E-02    0.606E-02
RMM:  14    -0.257660684685E+03   -0.30117E-04   -0.12265E-05   668   0.102E-02    0.512E-02
RMM:  15    -0.257660694763E+03   -0.10078E-04   -0.11721E-05   665   0.971E-03    0.669E-02
RMM:  16    -0.257660692033E+03    0.27297E-05   -0.73679E-06   636   0.812E-03    0.624E-02
RMM:  17    -0.257660687950E+03    0.40835E-05   -0.50381E-06   554   0.681E-03    0.320E-02
RMM:  18    -0.257660694257E+03   -0.63075E-05   -0.28191E-06   406   0.515E-03    0.246E-02
RMM:  19    -0.257660696258E+03   -0.20008E-05   -0.21518E-06   375   0.464E-03    0.324E-02
RMM:  20    -0.257660694262E+03    0.19958E-05   -0.16050E-06   375   0.435E-03    0.234E-02
RMM:  21    -0.257660695567E+03   -0.13046E-05   -0.67862E-07   360   0.279E-03    0.118E-02
RMM:  22    -0.257660696859E+03   -0.12926E-05   -0.36843E-07   350   0.195E-03    0.108E-02
RMM:  23    -0.257660697384E+03   -0.52465E-06   -0.35686E-07   348   0.194E-03
  12 F= -.25766070E+03 E0= -.25739485E+03  d E =-.209915E-02
       N       E                     dE             d eps       ncg     rms          rms(c)
DAV:   1    -0.257663766289E+03   -0.30694E-02   -0.24958E-01   672   0.900E-01    0.119E-01
RMM:   2    -0.257681647296E+03   -0.17881E-01   -0.65092E-03   676   0.229E-01    0.326E+00
RMM:   3    -0.257665670711E+03    0.15977E-01   -0.27960E-03   676   0.161E-01    0.162E+00
RMM:   4    -0.257663680941E+03    0.19898E-02   -0.16448E-03   676   0.120E-01    0.541E-01
RMM:   5    -0.257664093671E+03   -0.41273E-03   -0.67748E-04   676   0.737E-02    0.550E-01
RMM:   6    -0.257664413113E+03   -0.31944E-03   -0.36113E-04   676   0.524E-02    0.785E-01
RMM:   7    -0.257664236395E+03    0.17672E-03   -0.45234E-04   676   0.600E-02    0.605E-01
RMM:   8    -0.257663970957E+03    0.26544E-03   -0.38927E-04   676   0.592E-02    0.565E-01
RMM:   9    -0.257663743150E+03    0.22781E-03   -0.12675E-04   676   0.335E-02    0.331E-01
RMM:  10    -0.257663748852E+03   -0.57019E-05   -0.11715E-04   676   0.311E-02    0.120E-01
RMM:  11    -0.257663887802E+03   -0.13895E-03   -0.75595E-05   676   0.239E-02    0.201E-01
RMM:  12    -0.257663844234E+03    0.43568E-04   -0.70191E-05   676   0.241E-02    0.206E-01
RMM:  13    -0.257663773681E+03    0.70553E-04   -0.49824E-05   673   0.214E-02    0.852E-02
RMM:  14    -0.257663812102E+03   -0.38420E-04   -0.20361E-05   671   0.133E-02    0.588E-02
RMM:  15    -0.257663832123E+03   -0.20021E-04   -0.15958E-05   671   0.112E-02    0.820E-02
RMM:  16    -0.257663833091E+03   -0.96838E-06   -0.13698E-05   669   0.106E-02    0.956E-02
RMM:  17    -0.257663818899E+03    0.14192E-04   -0.11479E-05   667   0.102E-02    0.472E-02
RMM:  18    -0.257663827878E+03   -0.89788E-05   -0.47014E-06   519   0.657E-03    0.239E-02
RMM:  19    -0.257663832352E+03   -0.44746E-05   -0.21332E-06   379   0.458E-03    0.258E-02
RMM:  20    -0.257663834117E+03   -0.17650E-05   -0.21490E-06   378   0.467E-03    0.370E-02
RMM:  21    -0.257663831587E+03    0.25305E-05   -0.14394E-06   367   0.426E-03    0.188E-02
RMM:  22    -0.257663833870E+03   -0.22830E-05   -0.48795E-07   359   0.234E-03    0.942E-03
RMM:  23    -0.257663834793E+03   -0.92354E-06   -0.31970E-07   346   0.178E-03
  13 F= -.25766383E+03 E0= -.25739811E+03  d E =-.313741E-02
       N       E                     dE             d eps       ncg     rms          rms(c)
DAV:   1    -0.257667845905E+03   -0.40120E-02   -0.42359E-01   672   0.117E+00    0.156E-01
RMM:   2    -0.257697354600E+03   -0.29509E-01   -0.11329E-02   676   0.301E-01    0.409E+00
RMM:   3    -0.257671889347E+03    0.25465E-01   -0.47265E-03   677   0.209E-01    0.210E+00
RMM:   4    -0.257668017148E+03    0.38722E-02   -0.26882E-03   676   0.153E-01    0.718E-01
RMM:   5    -0.257668471164E+03   -0.45402E-03   -0.11189E-03   676   0.948E-02    0.706E-01
RMM:   6    -0.257668962687E+03   -0.49152E-03   -0.58109E-04   676   0.664E-02    0.984E-01
RMM:   7    -0.257668743431E+03    0.21926E-03   -0.75821E-04   676   0.776E-02    0.768E-01
RMM:   8    -0.257668244067E+03    0.49936E-03   -0.64113E-04   676   0.759E-02    0.696E-01
RMM:   9    -0.257667921248E+03    0.32282E-03   -0.20672E-04   676   0.429E-02    0.441E-01
RMM:  10    -0.257667855884E+03    0.65364E-04   -0.18763E-04   676   0.393E-02    0.161E-01
RMM:  11    -0.257668068273E+03   -0.21239E-03   -0.11797E-04   676   0.298E-02    0.260E-01
RMM:  12    -0.257668007903E+03    0.60370E-04   -0.11943E-04   675   0.311E-02    0.251E-01
RMM:  13    -0.257667899005E+03    0.10890E-03   -0.86368E-05   675   0.282E-02    0.104E-01
RMM:  14    -0.257667948571E+03   -0.49567E-04   -0.32399E-05   671   0.166E-02    0.767E-02
RMM:  15    -0.257667979388E+03   -0.30816E-04   -0.25149E-05   672   0.140E-02    0.113E-01
RMM:  16    -0.257667973877E+03    0.55104E-05   -0.23413E-05   671   0.139E-02    0.113E-01
RMM:  17    -0.257667958018E+03    0.15859E-04   -0.19226E-05   670   0.133E-02    0.574E-02
RMM:  18    -0.257667968218E+03   -0.10200E-04   -0.73707E-06   631   0.807E-03    0.312E-02
RMM:  19    -0.257667974603E+03   -0.63850E-05   -0.30813E-06   422   0.532E-03    0.338E-02
RMM:  20    -0.257667977733E+03   -0.31301E-05   -0.34822E-06   443   0.573E-03    0.480E-02
RMM:  21    -0.257667973258E+03    0.44751E-05   -0.24680E-06   385   0.547E-03    0.241E-02
RMM:  22    -0.257667976586E+03   -0.33281E-05   -0.82092E-07   363   0.303E-03    0.109E-02
RMM:  23    -0.257667978305E+03   -0.17190E-05   -0.49143E-07   352   0.220E-03    0.129E-02
RMM:  24    -0.257667978432E+03   -0.12670E-06   -0.42022E-07   348   0.209E-03
  14 F= -.25766798E+03 E0= -.25740245E+03  d E =-.414364E-02
       N       E                     dE             d eps       ncg     rms          rms(c)
DAV:   1    -0.257672896759E+03   -0.49185E-02   -0.61819E-01   672   0.141E+00    0.187E-01
RMM:   2    -0.257714519542E+03   -0.41623E-01   -0.16835E-02   676   0.365E-01    0.483E+00
RMM:   3    -0.257679087250E+03    0.35432E-01   -0.67755E-03   679   0.249E-01    0.246E+00
RMM:   4    -0.257673523189E+03    0.55641E-02   -0.37812E-03   676   0.181E-01    0.877E-01
RMM:   5    -0.257673868304E+03   -0.34511E-03   -0.16392E-03   676   0.115E-01    0.809E-01
RMM:   6    -0.257674755643E+03   -0.88734E-03   -0.83284E-04   676   0.795E-02    0.121E+00
RMM:   7    -0.257674312654E+03    0.44299E-03   -0.10798E-03   676   0.927E-02    0.929E-01
RMM:   8    -0.257673708961E+03    0.60369E-03   -0.90736E-04   676   0.901E-02    0.887E-01
RMM:   9    -0.257673099304E+03    0.60966E-03   -0.31718E-04   676   0.530E-02    0.521E-01
RMM:  10    -0.257673015204E+03    0.84101E-04   -0.27933E-04   676   0.479E-02    0.198E-01
RMM:  11    -0.257673310374E+03   -0.29517E-03   -0.18116E-04   676   0.369E-02    0.329E-01
RMM:  12    -0.257673195519E+03    0.11486E-03   -0.18487E-04   675   0.387E-02    0.296E-01
RMM:  13    -0.257673055756E+03    0.13976E-03   -0.13100E-04   675   0.346E-02    0.124E-01
RMM:  14    -0.257673115237E+03   -0.59481E-04   -0.48242E-05   674   0.202E-02    0.993E-02
RMM:  15    -0.257673156818E+03   -0.41581E-04   -0.37455E-05   672   0.172E-02    0.143E-01
RMM:  16    -0.257673141783E+03    0.15036E-04   -0.35921E-05   673   0.173E-02    0.126E-01
RMM:  17    -0.257673126179E+03    0.15604E-04   -0.27564E-05   672   0.159E-02    0.672E-02
RMM:  18    -0.257673136852E+03   -0.10673E-04   -0.11068E-05   664   0.977E-03    0.375E-02
RMM:  19    -0.257673147041E+03   -0.10189E-04   -0.61463E-06   604   0.711E-03    0.471E-02
RMM:  20    -0.257673146320E+03    0.72108E-06   -0.50393E-06   569   0.682E-03
  15 F= -.25767315E+03 E0= -.25740783E+03  d E =-.516789E-02
