 vasp.5.4.4.18Apr17-6-g9f103f2a35 (build Oct 13 2018 23:10:52) complex          
  
 executed on           IFC91_ompi date 2020.07.23  05:48:54
 running on  120 total cores
 each image running on   24 cores
 distrk:  each k-point on   24 cores,    1 groups
 distr:  one band on NCORES_PER_BAND=   1 cores,   24 groups


--------------------------------------------------------------------------------------------------------


 INCAR:
 POTCAR:   PAW_PBE Ni 06Sep2000                   
 POTCAR:    PAW_PBE S 17Jan2003                   

 ----------------------------------------------------------------------------- 
|                                                                             |
|           W    W    AA    RRRRR   N    N  II  N    N   GGGG   !!!           |
|           W    W   A  A   R    R  NN   N  II  NN   N  G    G  !!!           |
|           W    W  A    A  R    R  N N  N  II  N N  N  G       !!!           |
|           W WW W  AAAAAA  RRRRR   N  N N  II  N  N N  G  GGG   !            |
|           WW  WW  A    A  R   R   N   NN  II  N   NN  G    G                |
|           W    W  A    A  R    R  N    N  II  N    N   GGGG   !!!           |
|                                                                             |
|      For optimal performance we recommend to set                            |
|        NCORE= 4 - approx SQRT( number of cores)                             |
|      NCORE specifies how many cores store one orbital (NPAR=cpu/NCORE).     |
|      This setting can  greatly improve the performance of VASP for DFT.     |
|      The default,   NCORE=1            might be grossly inefficient         |
|      on modern multi-core architectures or massively parallel machines.     |
|      Do your own testing !!!!                                               |
|      Unfortunately you need to use the default for GW and RPA calculations. |
|      (for HF NCORE is supported but not extensively tested yet)             |
|                                                                             |
 ----------------------------------------------------------------------------- 

 POTCAR:   PAW_PBE Ni 06Sep2000                   
  local pseudopotential read in
  partial core-charges read in
  atomic valenz-charges read in
  non local Contribution for L=           2  read in
    real space projection operators read in
  non local Contribution for L=           2  read in
    real space projection operators read in
  non local Contribution for L=           0  read in
    real space projection operators read in
  non local Contribution for L=           0  read in
    real space projection operators read in
  non local Contribution for L=           1  read in
    real space projection operators read in
  non local Contribution for L=           1  read in
    real space projection operators read in
    PAW grid and wavefunctions read in
 
   number of l-projection  operators is LMAX  =           6
   number of lm-projection operators is LMMAX =          18
 
 POTCAR:    PAW_PBE S 17Jan2003                   
  local pseudopotential read in
  partial core-charges read in
  atomic valenz-charges read in
  non local Contribution for L=           0  read in
    real space projection operators read in
  non local Contribution for L=           0  read in
    real space projection operators read in
  non local Contribution for L=           1  read in
    real space projection operators read in
  non local Contribution for L=           1  read in
    real space projection operators read in
    PAW grid and wavefunctions read in
 
   number of l-projection  operators is LMAX  =           4
   number of lm-projection operators is LMMAX =           8
 

 ----------------------------------------------------------------------------- 
|                                                                             |
|  ADVICE TO THIS USER RUNNING 'VASP/VAMP'   (HEAR YOUR MASTER'S VOICE ...):  |
|                                                                             |
|      You have a (more or less) 'large supercell' and for larger cells       |
|      it might be more efficient to use real space projection operators      |
|      So try LREAL= Auto  in the INCAR   file.                               |
|      Mind: If you want to do a very accurate calculations keep the          |
|      reciprocal projection scheme          (i.e. LREAL=.FALSE.)             |
|                                                                             |
 ----------------------------------------------------------------------------- 

 PAW_PBE Ni 06Sep2000                   :
 energy of atom  1       EATOM=-1077.9025
 kinetic energy error for atom=    0.0101 (will be added to EATOM!!)
  PAW_PBE S 17Jan2003                   :
 energy of atom  2       EATOM= -276.8230
 kinetic energy error for atom=    0.0046 (will be added to EATOM!!)
 
 
 POSCAR: Ni   S                                  
  positions in direct lattice
  No initial velocities read in
 exchange correlation table for  LEXCH =        8
   RHO(1)=    0.500       N(1)  =     2000
   RHO(2)=  100.500       N(2)  =     4000

 VTST: version 3.2, (02/03/18)

 CHAIN: initializing optimizer
 
 OPT: Using Quick-Min optimizer
 OPT: QM, Init
 OPT: QM, MAXMOVE       0.200000
 OPT: QM, TIMESTEP      0.100000
 
 CHAIN: Read ICHAIN            0
 CHAIN: Running the NEB
 NEB:          SPRING     -5.000000
 NEB:          LCLIMB      T
 NEB:     LTANGENTOLD      F
 NEB:           LDNEB      F
 NEB:        LDNEBORG      F
 NEB:        LNEBCELL      F
 NEB:          EFIRST      0.000000
 NEB:           ELAST      0.000000
 
 POSCAR: Ni   S                                  
  positions in direct lattice
  No initial velocities read in
 
 POSCAR: Ni   S                                  
  positions in direct lattice
  No initial velocities read in
 


--------------------------------------------------------------------------------------------------------


 ion  position               nearest neighbor table
   1  0.350  0.596  0.410-  19 2.41  10 2.41   8 2.43  16 2.45   3 2.51  17 2.52   2 2.52  24 2.53

   2  0.452  0.663  0.377-  19 2.41   5 2.41   4 2.45  16 2.45  20 2.51   6 2.51   3 2.52   1 2.52

   3  0.412  0.662  0.497-  10 2.41   5 2.41   8 2.44   4 2.45  11 2.51   1 2.51  12 2.52   2 2.52

   4  0.513  0.723  0.464-   5 2.29   3 2.45   2 2.45  12 2.45   6 2.45   7 2.45
   5  0.515  0.609  0.464-   4 2.29  28 2.36  12 2.40   3 2.41   7 2.41   2 2.41   6 2.41  23 2.47
                            14 2.47  19 2.48  10 2.49  13 2.49
   6  0.577  0.665  0.378-  23 2.41   5 2.41  35 2.45   4 2.45   7 2.51   2 2.51  32 2.52  20 2.52

   7  0.616  0.665  0.497-  14 2.41   5 2.41   4 2.45  33 2.45  32 2.51   6 2.51  12 2.53  15 2.53

   8  0.316  0.593  0.527-  10 2.30   1 2.43   3 2.44   9 2.45  24 2.45  11 2.47
   9  0.348  0.490  0.585-  10 2.44   8 2.45  27 2.47  42 2.51  24 2.51  11 2.54  25 2.56  39 2.61
                            56 2.61
  10  0.415  0.542  0.497-   8 2.30  28 2.36  24 2.40  11 2.40   3 2.41   1 2.41   9 2.44  27 2.47
                            26 2.48  13 2.48  19 2.48   5 2.49
  11  0.413  0.597  0.604-  13 2.40  10 2.40  40 2.47   8 2.47  12 2.50   3 2.51  39 2.54   9 2.54

  12  0.514  0.663  0.571-   5 2.40  13 2.41  40 2.44   4 2.45  11 2.50  15 2.51   3 2.52   7 2.53

  13  0.515  0.543  0.570-  40 2.30  28 2.36  41 2.40  11 2.40  12 2.41  15 2.42  39 2.46  27 2.46
                            10 2.48  31 2.48  14 2.49   5 2.49
  14  0.616  0.545  0.497-  33 2.30  28 2.36  15 2.40   7 2.41  37 2.41  34 2.41  32 2.41   5 2.47
                            23 2.48  31 2.48  30 2.48  13 2.49
  15  0.616  0.599  0.604-  14 2.40  13 2.42  40 2.43  33 2.45  41 2.51  12 2.51  34 2.52   7 2.53

  16  0.393  0.594  0.296-  19 2.30  18 2.45   2 2.45   1 2.45  17 2.45  20 2.45
  17  0.352  0.489  0.344-  19 2.41  26 2.41  50 2.44  16 2.45  47 2.51  18 2.52   1 2.52  24 2.53

  18  0.454  0.491  0.270-  19 2.41  21 2.41  48 2.45  16 2.45  20 2.51  22 2.51  17 2.52  47 2.52

  19  0.454  0.543  0.379-  16 2.30  28 2.36   1 2.41  18 2.41   2 2.41  17 2.41  20 2.41   5 2.48
                            21 2.48  23 2.48  26 2.48  10 2.48
  20  0.515  0.598  0.291-  23 2.41  19 2.41  35 2.45  16 2.45  22 2.51   2 2.51  18 2.51   6 2.52

  21  0.517  0.438  0.359-  48 2.30  28 2.36  52 2.40  49 2.41  18 2.41  47 2.41  22 2.41  30 2.47
                            19 2.48  26 2.48  23 2.48  29 2.49
  22  0.579  0.492  0.271-  23 2.41  21 2.41  35 2.44  48 2.45  49 2.51  20 2.51  18 2.51  36 2.51

  23  0.578  0.544  0.379-  35 2.30  28 2.36  36 2.41  22 2.41  32 2.41   6 2.41  20 2.41   5 2.47
                            14 2.48  30 2.48  19 2.48  21 2.48
  24  0.313  0.488  0.464-  10 2.40  26 2.41  50 2.45   8 2.45   9 2.51  25 2.52   1 2.53  17 2.53

  25  0.353  0.381  0.517-  26 2.40  27 2.41  50 2.46  42 2.46  51 2.50  43 2.50  24 2.52   9 2.56

  26  0.416  0.437  0.431-  50 2.30  28 2.36  25 2.40  24 2.41  51 2.41  17 2.41  47 2.41  29 2.48
                            21 2.48  10 2.48  19 2.48  27 2.49
  27  0.455  0.438  0.550-  42 2.33  28 2.35  25 2.41  43 2.43  44 2.44  13 2.46  10 2.47   9 2.47
                            29 2.48  31 2.48  26 2.49  39 2.51
  28  0.516  0.491  0.464-  27 2.35   5 2.36  31 2.36  13 2.36  10 2.36  26 2.36  14 2.36  29 2.36
                            30 2.36  21 2.36  19 2.36  23 2.36
  29  0.517  0.373  0.464-  55 2.30  28 2.36  43 2.40  51 2.40  45 2.41  53 2.42  52 2.42  26 2.48
                            31 2.48  27 2.48  21 2.49  30 2.49
  30  0.617  0.439  0.431-  54 2.30  28 2.36  53 2.40  37 2.41  49 2.41  38 2.41  36 2.41  21 2.47
                            23 2.48  31 2.48  14 2.48  29 2.49
  31  0.579  0.439  0.549-  46 2.30  28 2.36  41 2.41  34 2.41  38 2.41  45 2.41  44 2.42  29 2.48
                            30 2.48  14 2.48  27 2.48  13 2.48
  32  0.680  0.600  0.411-  23 2.41  14 2.41  35 2.45  33 2.45   7 2.51  37 2.51  36 2.52   6 2.52

  33  0.713  0.597  0.529-  14 2.30  15 2.45  34 2.45  37 2.45  32 2.45   7 2.45
  34  0.681  0.492  0.584-  31 2.41  14 2.41  46 2.44  33 2.45  37 2.51  38 2.51  41 2.52  15 2.52

  35  0.637  0.597  0.296-  23 2.30  22 2.44  36 2.44   6 2.45  20 2.45  32 2.45
  36  0.681  0.493  0.344-  23 2.41  30 2.41  35 2.44  54 2.45  49 2.51  37 2.51  22 2.51  32 2.52

  37  0.720  0.493  0.464-  30 2.41  14 2.41  54 2.45  33 2.45  34 2.51  36 2.51  32 2.51  38 2.52

  38  0.682  0.386  0.517-  31 2.41  30 2.41  46 2.44  54 2.45  34 2.51  37 2.52  53 2.52  45 2.52

  39  0.452  0.492  0.663-  56 1.84  40 2.44  13 2.46  27 2.51  42 2.53  41 2.53  11 2.54  44 2.61
                             9 2.61
  40  0.516  0.596  0.673-  13 2.30  15 2.43  12 2.44  39 2.44  41 2.46  11 2.47
  41  0.579  0.491  0.658-  13 2.40  31 2.41  46 2.46  40 2.46  15 2.51  34 2.52  44 2.53  39 2.53

  42  0.394  0.383  0.633-  56 1.81  27 2.33  25 2.46  43 2.46  44 2.49   9 2.51  39 2.53
  43  0.455  0.316  0.550-  29 2.40  27 2.43  42 2.46  55 2.47  25 2.50  51 2.51  45 2.52  44 2.53

  44  0.518  0.382  0.638-  31 2.42  27 2.44  46 2.45  42 2.49  45 2.51  43 2.53  41 2.53  39 2.61

  45  0.581  0.318  0.550-  29 2.41  31 2.41  46 2.45  55 2.45  44 2.51  43 2.52  38 2.52  53 2.53

  46  0.640  0.388  0.632-  31 2.30  38 2.44  34 2.44  44 2.45  45 2.45  41 2.46
  47  0.416  0.383  0.323-  21 2.41  26 2.41  50 2.45  48 2.45  17 2.51  52 2.52  18 2.52  51 2.53

  48  0.517  0.387  0.255-  21 2.30  18 2.45  47 2.45  52 2.45  49 2.45  22 2.45
  49  0.620  0.386  0.323-  30 2.41  21 2.41  54 2.45  48 2.45  22 2.51  36 2.51  53 2.52  52 2.52

  50  0.320  0.385  0.399-  26 2.30  17 2.44  47 2.45  24 2.45  51 2.46  25 2.46
  51  0.417  0.316  0.431-  29 2.40  26 2.41  55 2.46  50 2.46  25 2.50  43 2.51  52 2.52  47 2.53

  52  0.518  0.318  0.356-  21 2.40  29 2.42  55 2.44  48 2.45  53 2.51  47 2.52  49 2.52  51 2.52

  53  0.620  0.319  0.430-  30 2.40  29 2.42  55 2.44  54 2.45  52 2.51  49 2.52  38 2.52  45 2.53

  54  0.716  0.389  0.400-  30 2.30  53 2.45  37 2.45  38 2.45  36 2.45  49 2.45
  55  0.520  0.258  0.462-  29 2.30  53 2.44  52 2.44  45 2.45  51 2.46  43 2.47
  56  0.385  0.443  0.701-  42 1.81  39 1.84   9 2.61
 

IMPORTANT INFORMATION: All symmetrisations will be switched off!
NOSYMM: (Re-)initialisation of all symmetry stuff for point group C_1.

 
 
 KPOINTS: 4x2x1                                   

Automatic generation of k-mesh.
Space group operators:
 irot       det(A)        alpha          n_x          n_y          n_z        tau_x        tau_y        tau_z
    1     1.000000     0.000000     1.000000     0.000000     0.000000     0.000000     0.000000     0.000000
 
 Subroutine IBZKPT returns following result:
 ===========================================
 
 Found      1 irreducible k-points:
 
 Following reciprocal coordinates:
            Coordinates               Weight
  0.000000  0.000000  0.000000      1.000000
 
 Following cartesian coordinates:
            Coordinates               Weight
  0.000000  0.000000  0.000000      1.000000
 


--------------------------------------------------------------------------------------------------------




 Dimension of arrays:
   k-points           NKPTS =      1   k-points in BZ     NKDIM =      1   number of bands    NBANDS=    336
   number of dos      NEDOS =    301   number of ions     NIONS =     56
   non local maximal  LDIM  =      6   non local SUM 2l+1 LMDIM =     18
   total plane-waves  NPLWV = 941192
   max r-space proj   IRMAX =      1   max aug-charges    IRDMAX=   4013
   dimension x,y,z NGX =    98 NGY =   98 NGZ =   98
   dimension x,y,z NGXF=   196 NGYF=  196 NGZF=  196
   support grid    NGXF=   196 NGYF=  196 NGZF=  196
   ions per type =              55   1
   NGX,Y,Z   is equivalent  to a cutoff of   8.15,  8.15,  8.15 a.u.
   NGXF,Y,Z  is equivalent  to a cutoff of  16.29, 16.29, 16.29 a.u.

 SYSTEM =  neb_test                                
 POSCAR =  Ni   S                                  

 Startparameter for this run:
   NWRITE =      1    write-flag & timer
   PREC   = normal    normal or accurate (medium, high low for compatibility)
   ISTART =      0    job   : 0-new  1-cont  2-samecut
   ICHARG =      2    charge: 1-file 2-atom 10-const
   ISPIN  =      1    spin polarized calculation?
   LNONCOLLINEAR =      F non collinear calculations
   LSORBIT =      F    spin-orbit coupling
   INIWAV =      1    electr: 0-lowe 1-rand  2-diag
   LASPH  =      F    aspherical Exc in radial PAW
   METAGGA=      F    non-selfconsistent MetaGGA calc.

 Electronic Relaxation 1
   ENCUT  =  400.0 eV  29.40 Ry    5.42 a.u.  32.61 32.61 32.61*2*pi/ulx,y,z
   ENINI  =  400.0     initial cutoff
   ENAUG  =  544.6 eV  augmentation charge cutoff
   NELM   =    100;   NELMIN=  8; NELMDL= -5     # of ELM steps 
   EDIFF  = 0.1E-05   stopping-criterion for ELM
   LREAL  =      F    real-space projection
   NLSPLINE    = F    spline interpolate recip. space projectors
   LCOMPAT=      F    compatible to vasp.4.4
   GGA_COMPAT  = T    GGA compatible to vasp.4.4-vasp.4.6
   LMAXPAW     = -100 max onsite density
   LMAXMIX     =    2 max onsite mixed and CHGCAR
   VOSKOWN=      0    Vosko Wilk Nusair interpolation
   ROPT   =    0.00000   0.00000
 Ionic relaxation
   EDIFFG = -.1E+00   stopping-criterion for IOM
   NSW    =    500    number of steps for IOM
   NBLOCK =      1;   KBLOCK =    500    inner block; outer block 
   IBRION =      3    ionic relax: 0-MD 1-quasi-New 2-CG
   NFREE  =      0    steps in history (QN), initial steepest desc. (CG)
   ISIF   =      2    stress and relaxation
   IWAVPR =     11    prediction:  0-non 1-charg 2-wave 3-comb
   ISYM   =      0    0-nonsym 1-usesym 2-fastsym
   LCORR  =      T    Harris-Foulkes like correction to forces

   POTIM  = 0.0000    time-step for ionic-motion
   TEIN   =    0.0    initial temperature
   TEBEG  =    0.0;   TEEND  =   0.0 temperature during run
   SMASS  =  -3.00    Nose mass-parameter (am)
   estimated Nose-frequenzy (Omega)   =  0.10E-29 period in steps =  0.00 mass=  -0.914E-26a.u.
   SCALEE = 1.0000    scale energy and forces
   NPACO  =    256;   APACO  = 16.0  distance and # of slots for P.C.
   PSTRESS=    0.0 pullay stress

  Mass of Ions in am
   POMASS =  58.69 32.07
  Ionic Valenz
   ZVAL   =  10.00  6.00
  Atomic Wigner-Seitz radii
   RWIGS  =  -1.00 -1.00
  virtual crystal weights 
   VCA    =   1.00  1.00
   NELECT =     556.0000    total number of electrons
   NUPDOWN=      -1.0000    fix difference up-down

 DOS related values:
   EMIN   =  10.00;   EMAX   =-10.00  energy-range for DOS
   EFERMI =   0.00
   ISMEAR =     0;   SIGMA  =   0.05  broadening in eV -4-tet -1-fermi 0-gaus

 Electronic relaxation 2 (details)
   IALGO  =     68    algorithm
   LDIAG  =      T    sub-space diagonalisation (order eigenvalues)
   LSUBROT=      F    optimize rotation matrix (better conditioning)
   TURBO    =      0    0=normal 1=particle mesh
   IRESTART =      0    0=no restart 2=restart with 2 vectors
   NREBOOT  =      0    no. of reboots
   NMIN     =      0    reboot dimension
   EREF     =   0.00    reference energy to select bands
   IMIX   =      4    mixing-type and parameters
     AMIX     =   0.40;   BMIX     =  1.00
     AMIX_MAG =   1.60;   BMIX_MAG =  1.00
     AMIN     =   0.10
     WC   =   100.;   INIMIX=   1;  MIXPRE=   1;  MAXMIX= -45

 Intra band minimization:
   WEIMIN = 0.0010     energy-eigenvalue tresh-hold
   EBREAK =  0.74E-09  absolut break condition
   DEPER  =   0.30     relativ break condition  

   TIME   =   0.40     timestep for ELM

  volume/ion in A,a.u.               =     142.86       964.05
  Fermi-wavevector in a.u.,A,eV,Ry     =   0.673085  1.271946  6.164026  0.453043
  Thomas-Fermi vector in A             =   1.749399
 
 Write flags
   LWAVE        =      F    write WAVECAR
   LDOWNSAMPLE  =      F    k-point downsampling of WAVECAR
   LCHARG       =      F    write CHGCAR
   LVTOT        =      F    write LOCPOT, total local potential
   LVHAR        =      F    write LOCPOT, Hartree potential only
   LELF         =      F    write electronic localiz. function (ELF)
   LORBIT       =      0    0 simple, 1 ext, 2 COOP (PROOUT), +10 PAW based schemes


 Dipole corrections
   LMONO  =      F    monopole corrections only (constant potential shift)
   LDIPOL =      F    correct potential (dipole corrections)
   IDIPOL =      0    1-x, 2-y, 3-z, 4-all directions 
   EPSILON=  1.0000000 bulk dielectric constant

 Exchange correlation treatment:
   GGA     =    --    GGA type
   LEXCH   =     8    internal setting for exchange type
   VOSKOWN=      0    Vosko Wilk Nusair interpolation
   LHFCALC =     F    Hartree Fock is set to
   LHFONE  =     F    Hartree Fock one center treatment
   AEXX    =    0.0000 exact exchange contribution

 Linear response parameters
   LEPSILON=     F    determine dielectric tensor
   LRPA    =     F    only Hartree local field effects (RPA)
   LNABLA  =     F    use nabla operator in PAW spheres
   LVEL    =     F    velocity operator in full k-point grid
   LINTERFAST=   F  fast interpolation
   KINTER  =     0    interpolate to denser k-point grid
   CSHIFT  =0.1000    complex shift for real part using Kramers Kronig
   OMEGAMAX=  -1.0    maximum frequency
   DEG_THRESHOLD= 0.2000000E-02 threshold for treating states as degnerate
   RTIME   =   -0.100 relaxation time in fs
  (WPLASMAI=    0.000 imaginary part of plasma frequency in eV, 0.658/RTIME)
   DFIELD  = 0.0000000 0.0000000 0.0000000 field for delta impulse in time
 
 Orbital magnetization related:
   ORBITALMAG=     F  switch on orbital magnetization
   LCHIMAG   =     F  perturbation theory with respect to B field
   DQ        =  0.001000  dq finite difference perturbation B field
   LLRAUG    =     F  two centre corrections for induced B field



--------------------------------------------------------------------------------------------------------


 quickmin algorithm: (dynamic with friction)
 charge density and potential will be updated during run
 non-spin polarized calculation
 RMM-DIIS sequential band-by-band and
  variant of blocked Davidson during initial phase
 perform sub-space diagonalisation
    before iterative eigenvector-optimisation
 modified Broyden-mixing scheme, WC =      100.0
 initial mixing is a Kerker type mixing with AMIX =  0.4000 and BMIX =      1.0000
 Hartree-type preconditioning will be used
 using additional bands           58
 reciprocal scheme for non local part
 use partial core corrections
 calculate Harris-corrections to forces 
   (improved forces if not selfconsistent)
 use gradient corrections 
 use of overlap-Matrix (Vanderbilt PP)
 Gauss-broadening in eV      SIGMA  =   0.05


--------------------------------------------------------------------------------------------------------


  energy-cutoff  :      400.00
  volume of cell :     8000.00
      direct lattice vectors                 reciprocal lattice vectors
    20.000000000  0.000000000  0.000000000     0.050000000  0.000000000  0.000000000
     0.000000000 20.000000000  0.000000000     0.000000000  0.050000000  0.000000000
     0.000000000  0.000000000 20.000000000     0.000000000  0.000000000  0.050000000

  length of vectors
    20.000000000 20.000000000 20.000000000     0.050000000  0.050000000  0.050000000


 
 k-points in units of 2pi/SCALE and weight: 4x2x1                                   
   0.00000000  0.00000000  0.00000000       1.000
 
 k-points in reciprocal lattice and weights: 4x2x1                                   
   0.00000000  0.00000000  0.00000000       1.000
 
 position of ions in fractional coordinates (direct lattice) 
   0.35028874  0.59584257  0.41040513
   0.45165231  0.66333912  0.37711798
   0.41213378  0.66243256  0.49694595
   0.51312559  0.72322822  0.46431790
   0.51477283  0.60852209  0.46419696
   0.57718396  0.66503247  0.37765697
   0.61604498  0.66531564  0.49692040
   0.31631519  0.59301815  0.52723707
   0.34814420  0.48970527  0.58462657
   0.41485749  0.54199972  0.49691751
   0.41322815  0.59704411  0.60381549
   0.51393285  0.66343217  0.57115771
   0.51490517  0.54286994  0.57018232
   0.61557657  0.54476669  0.49693676
   0.61637271  0.59871067  0.60437818
   0.39268574  0.59369902  0.29550265
   0.35164954  0.48888717  0.34394268
   0.45366460  0.49066316  0.27036248
   0.45359316  0.54290304  0.37886493
   0.51515751  0.59807020  0.29087558
   0.51685426  0.43833901  0.35870496
   0.57928351  0.49223609  0.27051940
   0.57755452  0.54449580  0.37909093
   0.31262681  0.48794302  0.46418473
   0.35333853  0.38101199  0.51692634
   0.41648677  0.43681220  0.43131246
   0.45472874  0.43753843  0.54969732
   0.51592946  0.49074392  0.46446102
   0.51722660  0.37282907  0.46429930
   0.61693125  0.43939318  0.43147692
   0.57880735  0.43851732  0.54935884
   0.67967675  0.60003498  0.41095460
   0.71268318  0.59698420  0.52894824
   0.68088589  0.49229715  0.58372708
   0.63749054  0.59665788  0.29594526
   0.68097285  0.49324118  0.34446832
   0.71955977  0.49331015  0.46413280
   0.68218125  0.38553409  0.51739331
   0.45248095  0.49177978  0.66285743
   0.51569870  0.59571740  0.67258300
   0.57904172  0.49131470  0.65753691
   0.39397584  0.38343526  0.63318034
   0.45511918  0.31618947  0.54999546
   0.51813548  0.38204510  0.63772885
   0.58097196  0.31801236  0.55029950
   0.64022661  0.38765561  0.63210495
   0.41576553  0.38281298  0.32335074
   0.51744508  0.38735158  0.25545768
   0.61953387  0.38604985  0.32347769
   0.31953783  0.38455977  0.39877277
   0.41657160  0.31637687  0.43073539
   0.51847387  0.31820349  0.35642757
   0.62002884  0.31922350  0.43020009
   0.71558525  0.38933908  0.39969206
   0.51977602  0.25797347  0.46249913
   0.38459867  0.44279141  0.70092065
 
 position of ions in cartesian coordinates  (Angst):
   7.00577473 11.91685144  8.20810255
   9.03304614 13.26678247  7.54235966
   8.24267557 13.24865122  9.93891908
  10.26251177 14.46456436  9.28635798
  10.29545656 12.17044186  9.28393925
  11.54367915 13.30064944  7.55313945
  12.32089956 13.30631274  9.93840805
   6.32630375 11.86036295 10.54474148
   6.96288401  9.79410536 11.69253144
   8.29714971 10.83999443  9.93835020
   8.26456292 11.94088213 12.07630982
  10.27865702 13.26864339 11.42315419
  10.29810338 10.85739886 11.40364643
  12.31153140 10.89533384  9.93873526
  12.32745415 11.97421345 12.08756359
   7.85371481 11.87398047  5.91005292
   7.03299088  9.77774333  6.87885356
   9.07329196  9.81326311  5.40724967
   9.07186319 10.85806075  7.57729853
  10.30315011 11.96140392  5.81751150
  10.33708528  8.76678020  7.17409918
  11.58567012  9.84472188  5.41038800
  11.55109047 10.88991591  7.58181860
   6.25253611  9.75886030  9.28369462
   7.06677053  7.62023979 10.33852677
   8.32973536  8.73624399  8.62624912
   9.09457489  8.75076857 10.99394633
  10.31858918  9.81487841  9.28922031
  10.34453207  7.45658147  9.28598598
  12.33862506  8.78786351  8.62953832
  11.57614699  8.77034645 10.98717688
  13.59353508 12.00069953  8.21909204
  14.25366367 11.93968401 10.57896486
  13.61771783  9.84594305 11.67454164
  12.74981080 11.93315755  5.91890514
  13.61945695  9.86482358  6.88936639
  14.39119535  9.86620294  9.28265595
  13.64362503  7.71068174 10.34786610
   9.04961900  9.83559570 13.25714852
  10.31397401 11.91434792 13.45165994
  11.58083436  9.82629408 13.15073829
   7.87951690  7.66870516 12.66360686
   9.10238368  6.32378934 10.99990924
  10.36270951  7.64090207 12.75457709
  11.61943919  6.36024718 11.00599003
  12.80453213  7.75311212 12.64209909
   8.31531069  7.65625958  6.46701477
  10.34890167  7.74703151  5.10915351
  12.39067731  7.72099703  6.46955381
   6.39075653  7.69119544  7.97545550
   8.33143193  6.32753745  8.61470787
  10.36947747  6.36406981  7.12855145
  12.40057678  6.38447001  8.60400184
  14.31170492  7.78678159  7.99384120
  10.39552048  5.15946946  9.24998257
   7.69197349  8.85582824 14.01841299
 


--------------------------------------------------------------------------------------------------------


 k-point  1 :   0.0000 0.0000 0.0000  plane waves:  145165

 maximum and minimum number of plane-waves per node :    145165   145165

 maximum number of plane-waves:    145165
 maximum index in each direction: 
   IXMAX=   32   IYMAX=   32   IZMAX=   32
   IXMIN=  -32   IYMIN=  -32   IZMIN=  -32


 serial   3D FFT for wavefunctions
 parallel 3D FFT for charge:
    minimum data exchange during FFTs selected (reduces bandwidth)


 total amount of memory used by VASP MPI-rank0   308125. kBytes
=======================================================================

   base      :      30000. kBytes
   nonl-proj :     171888. kBytes
   fftplans  :      15318. kBytes
   grid      :      57304. kBytes
   one-center:        870. kBytes
   wavefun   :      32745. kBytes
 
     INWAV:  cpu time    0.0000: real time    0.0000
 Broyden mixing: mesh for mixing (old mesh)
   NGX = 65   NGY = 65   NGZ = 65
  (NGX  =196   NGY  =196   NGZ  =196)
  gives a total of 274625 points

 initial charge density was supplied:
 charge density of overlapping atoms calculated
 number of electron     556.0000000 magnetization 
 keeping initial charge density in first step


--------------------------------------------------------------------------------------------------------


 Maximum index for augmentation-charges          287 (set IRDMAX)


--------------------------------------------------------------------------------------------------------


 First call to EWALD:  gamma=   0.089
 Maximum number of real-space cells 3x 3x 3
 Maximum number of reciprocal cells 3x 3x 3

    FEWALD:  cpu time    0.0043: real time    0.0050


--------------------------------------- Iteration      1(   1)  ---------------------------------------


    POTLOK:  cpu time    0.3988: real time    0.4043
    SETDIJ:  cpu time    0.0138: real time    0.0138
     EDDAV:  cpu time   60.0760: real time   60.5189
       DOS:  cpu time    0.0006: real time    0.0007
    --------------------------------------------
      LOOP:  cpu time   60.4892: real time   60.9377

 eigenvalue-minimisations  :   672
 total energy-change (2. order) : 0.2857944E+04  (-0.1622099E+05)
 number of electron     556.0000000 magnetization 
 augmentation part      556.0000000 magnetization 

 Free energy of the ion-electron system (eV)
  ---------------------------------------------------
  alpha Z        PSCENC =       387.12086559
  Ewald energy   TEWEN  =    181136.21828925
  -Hartree energ DENC   =   -235901.86391780
  -exchange      EXHF   =         0.00000000
  -V(xc)+E(xc)   XCENC  =      1718.02563963
  PAW double counting   =     47983.58147063   -51655.55533713
  entropy T*S    EENTRO =        -0.07043657
  eigenvalues    EBANDS =      -370.41484446
  atomic energy  EATOM  =     59560.90262231
  Solvation  Ediel_sol  =         0.00000000
  ---------------------------------------------------
  free energy    TOTEN  =      2857.94435146 eV

  energy without entropy =     2858.01478803  energy(sigma->0) =     2857.97956975


--------------------------------------------------------------------------------------------------------




--------------------------------------- Iteration      1(   2)  ---------------------------------------


     EDDAV:  cpu time   63.9376: real time   64.3364
       DOS:  cpu time    0.0005: real time    0.0005
    --------------------------------------------
      LOOP:  cpu time   63.9381: real time   64.3369

 eigenvalue-minimisations  :   696
 total energy-change (2. order) :-0.2969595E+04  (-0.2902556E+04)
 number of electron     556.0000000 magnetization 
 augmentation part      556.0000000 magnetization 

 Free energy of the ion-electron system (eV)
  ---------------------------------------------------
  alpha Z        PSCENC =       387.12086559
  Ewald energy   TEWEN  =    181136.21828925
  -Hartree energ DENC   =   -235901.86391780
  -exchange      EXHF   =         0.00000000
  -V(xc)+E(xc)   XCENC  =      1718.02563963
  PAW double counting   =     47983.58147063   -51655.55533713
  entropy T*S    EENTRO =        -0.14451994
  eigenvalues    EBANDS =     -3339.93584343
  atomic energy  EATOM  =     59560.90262231
  Solvation  Ediel_sol  =         0.00000000
  ---------------------------------------------------
  free energy    TOTEN  =      -111.65073088 eV

  energy without entropy =     -111.50621094  energy(sigma->0) =     -111.57847091


--------------------------------------------------------------------------------------------------------




--------------------------------------- Iteration      1(   3)  ---------------------------------------


     EDDAV:  cpu time   68.5053: real time   69.0621
       DOS:  cpu time    0.0004: real time    0.0003
    --------------------------------------------
      LOOP:  cpu time   68.5056: real time   69.0624

 eigenvalue-minimisations  :   816
 total energy-change (2. order) :-0.1839952E+03  (-0.1708705E+03)
 number of electron     556.0000000 magnetization 
 augmentation part      556.0000000 magnetization 

 Free energy of the ion-electron system (eV)
  ---------------------------------------------------
  alpha Z        PSCENC =       387.12086559
  Ewald energy   TEWEN  =    181136.21828925
  -Hartree energ DENC   =   -235901.86391780
  -exchange      EXHF   =         0.00000000
  -V(xc)+E(xc)   XCENC  =      1718.02563963
  PAW double counting   =     47983.58147063   -51655.55533713
  entropy T*S    EENTRO =        -0.31278122
  eigenvalues    EBANDS =     -3523.76275671
  atomic energy  EATOM  =     59560.90262231
  Solvation  Ediel_sol  =         0.00000000
  ---------------------------------------------------
  free energy    TOTEN  =      -295.64590544 eV

  energy without entropy =     -295.33312422  energy(sigma->0) =     -295.48951483


--------------------------------------------------------------------------------------------------------




--------------------------------------- Iteration      1(   4)  ---------------------------------------


     EDDAV:  cpu time   63.2607: real time   63.7618
       DOS:  cpu time    0.0005: real time    0.0005
    --------------------------------------------
      LOOP:  cpu time   63.2612: real time   63.7623

 eigenvalue-minimisations  :   720
 total energy-change (2. order) :-0.7264082E+01  (-0.7025317E+01)
 number of electron     556.0000000 magnetization 
 augmentation part      556.0000000 magnetization 

 Free energy of the ion-electron system (eV)
  ---------------------------------------------------
  alpha Z        PSCENC =       387.12086559
  Ewald energy   TEWEN  =    181136.21828925
  -Hartree energ DENC   =   -235901.86391780
  -exchange      EXHF   =         0.00000000
  -V(xc)+E(xc)   XCENC  =      1718.02563963
  PAW double counting   =     47983.58147063   -51655.55533713
  entropy T*S    EENTRO =        -0.31825743
  eigenvalues    EBANDS =     -3531.02136291
  atomic energy  EATOM  =     59560.90262231
  Solvation  Ediel_sol  =         0.00000000
  ---------------------------------------------------
  free energy    TOTEN  =      -302.90998785 eV

  energy without entropy =     -302.59173042  energy(sigma->0) =     -302.75085913


--------------------------------------------------------------------------------------------------------




--------------------------------------- Iteration      1(   5)  ---------------------------------------


     EDDAV:  cpu time   69.4970: real time   70.0091
       DOS:  cpu time    0.0003: real time    0.0003
    CHARGE:  cpu time    0.5196: real time    0.5209
    MIXING:  cpu time    0.0145: real time    0.0145
    --------------------------------------------
      LOOP:  cpu time   70.0314: real time   70.5448

 eigenvalue-minimisations  :   816
 total energy-change (2. order) :-0.2104904E+00  (-0.2088329E+00)
 number of electron     555.9999983 magnetization 
 augmentation part      316.6168818 magnetization 

 Broyden mixing:
  rms(total) = 0.53729E+01    rms(broyden)= 0.53719E+01
  rms(prec ) = 0.59993E+01
  weight for this iteration     100.00

 Free energy of the ion-electron system (eV)
  ---------------------------------------------------
  alpha Z        PSCENC =       387.12086559
  Ewald energy   TEWEN  =    181136.21828925
  -Hartree energ DENC   =   -235901.86391780
  -exchange      EXHF   =         0.00000000
  -V(xc)+E(xc)   XCENC  =      1718.02563963
  PAW double counting   =     47983.58147063   -51655.55533713
  entropy T*S    EENTRO =        -0.31856119
  eigenvalues    EBANDS =     -3531.23154950
  atomic energy  EATOM  =     59560.90262231
  Solvation  Ediel_sol  =         0.00000000
  ---------------------------------------------------
  free energy    TOTEN  =      -303.12047820 eV

  energy without entropy =     -302.80191702  energy(sigma->0) =     -302.96119761


--------------------------------------------------------------------------------------------------------




--------------------------------------- Iteration      1(   6)  ---------------------------------------


    POTLOK:  cpu time    0.2889: real time    0.2937
    SETDIJ:  cpu time    0.0107: real time    0.0111
    EDDIAG:  cpu time    1.7274: real time    1.7372
  RMM-DIIS:  cpu time   50.0792: real time   50.4116
    ORTHCH:  cpu time    0.5097: real time    0.5275
       DOS:  cpu time    0.0005: real time    0.0005
    CHARGE:  cpu time    0.5713: real time    0.5758
    MIXING:  cpu time    0.0172: real time    0.0173
    --------------------------------------------
      LOOP:  cpu time   53.2048: real time   53.5746

 eigenvalue-minimisations  :   672
 total energy-change (2. order) :-0.1542603E+03  (-0.7775504E+02)
 number of electron     555.9999991 magnetization 
 augmentation part      343.6708730 magnetization 

 Broyden mixing:
  rms(total) = 0.13578E+02    rms(broyden)= 0.13578E+02
  rms(prec ) = 0.16108E+02
  weight for this iteration     100.00

 eigenvalues of (default mixing * dielectric matrix)
  average eigenvalue GAMMA=   0.2092
  0.2092

 Free energy of the ion-electron system (eV)
  ---------------------------------------------------
  alpha Z        PSCENC =       387.12086559
  Ewald energy   TEWEN  =    181136.21828925
  -Hartree energ DENC   =   -235283.15388780
  -exchange      EXHF   =         0.00000000
  -V(xc)+E(xc)   XCENC  =      1661.68934582
  PAW double counting   =     47734.40857533   -51221.54148551
  entropy T*S    EENTRO =        -0.10624228
  eigenvalues    EBANDS =     -4432.91883934
  atomic energy  EATOM  =     59560.90262231
  Solvation  Ediel_sol  =         0.00000000
  ---------------------------------------------------
  free energy    TOTEN  =      -457.38075662 eV

  energy without entropy =     -457.27451434  energy(sigma->0) =     -457.32763548


--------------------------------------------------------------------------------------------------------




--------------------------------------- Iteration      1(   7)  ---------------------------------------


    POTLOK:  cpu time    0.3355: real time    0.3435
    SETDIJ:  cpu time    0.0110: real time    0.0110
    EDDIAG:  cpu time    1.8899: real time    1.9068
  RMM-DIIS:  cpu time   46.8151: real time   47.2118
    ORTHCH:  cpu time    0.5115: real time    0.5158
       DOS:  cpu time    0.0005: real time    0.0005
    CHARGE:  cpu time    0.5738: real time    0.5782
    MIXING:  cpu time    0.0129: real time    0.0129
    --------------------------------------------
      LOOP:  cpu time   50.1503: real time   50.5805

 eigenvalue-minimisations  :   673
 total energy-change (2. order) : 0.1143151E+03  (-0.4002296E+02)
 number of electron     555.9999931 magnetization 
 augmentation part      351.9352602 magnetization 

 Broyden mixing:
  rms(total) = 0.74216E+01    rms(broyden)= 0.74197E+01
  rms(prec ) = 0.85889E+01
  weight for this iteration     100.00

 eigenvalues of (default mixing * dielectric matrix)
  average eigenvalue GAMMA=   0.2837
  0.3973  0.1700

 Free energy of the ion-electron system (eV)
  ---------------------------------------------------
  alpha Z        PSCENC =       387.12086559
  Ewald energy   TEWEN  =    181136.21828925
  -Hartree energ DENC   =   -235071.21701852
  -exchange      EXHF   =         0.00000000
  -V(xc)+E(xc)   XCENC  =      1665.84115427
  PAW double counting   =     47928.91552043   -51460.88164219
  entropy T*S    EENTRO =        -0.22524200
  eigenvalues    EBANDS =     -4489.74019839
  atomic energy  EATOM  =     59560.90262231
  Solvation  Ediel_sol  =         0.00000000
  ---------------------------------------------------
  free energy    TOTEN  =      -343.06564924 eV

  energy without entropy =     -342.84040723  energy(sigma->0) =     -342.95302823


--------------------------------------------------------------------------------------------------------




--------------------------------------- Iteration      1(   8)  ---------------------------------------


    POTLOK:  cpu time    0.3048: real time    0.3110
    SETDIJ:  cpu time    0.0106: real time    0.0106
    EDDIAG:  cpu time    1.7832: real time    1.7976
  RMM-DIIS:  cpu time   44.6702: real time   44.8906
    ORTHCH:  cpu time    0.5026: real time    0.5227
       DOS:  cpu time    0.0005: real time    0.0005
    CHARGE:  cpu time    0.5973: real time    0.6019
    MIXING:  cpu time    0.0149: real time    0.0159
    --------------------------------------------
      LOOP:  cpu time   47.8841: real time   48.1509

 eigenvalue-minimisations  :   674
 total energy-change (2. order) : 0.2887550E+02  (-0.1895434E+02)
 number of electron     555.9999931 magnetization 
 augmentation part      346.2078027 magnetization 

 Broyden mixing:
  rms(total) = 0.88528E+01    rms(broyden)= 0.88516E+01
  rms(prec ) = 0.11117E+02
  weight for this iteration     100.00

 eigenvalues of (default mixing * dielectric matrix)
  average eigenvalue GAMMA=   0.2655
  0.4977  0.1494  0.1494

 Free energy of the ion-electron system (eV)
  ---------------------------------------------------
  alpha Z        PSCENC =       387.12086559
  Ewald energy   TEWEN  =    181136.21828925
  -Hartree energ DENC   =   -235348.79359367
  -exchange      EXHF   =         0.00000000
  -V(xc)+E(xc)   XCENC  =      1672.82514902
  PAW double counting   =     48451.24960676   -52066.12382783
  entropy T*S    EENTRO =        -0.11567962
  eigenvalues    EBANDS =     -4107.47357660
  atomic energy  EATOM  =     59560.90262231
  Solvation  Ediel_sol  =         0.00000000
  ---------------------------------------------------
  free energy    TOTEN  =      -314.19014479 eV

  energy without entropy =     -314.07446518  energy(sigma->0) =     -314.13230498


--------------------------------------------------------------------------------------------------------




--------------------------------------- Iteration      1(   9)  ---------------------------------------


    POTLOK:  cpu time    0.3385: real time    0.3458
    SETDIJ:  cpu time    0.0105: real time    0.0105
    EDDIAG:  cpu time    1.8946: real time    1.9088
  RMM-DIIS:  cpu time   48.8951: real time   49.3361
    ORTHCH:  cpu time    0.5164: real time    0.5198
       DOS:  cpu time    0.0006: real time    0.0006
    CHARGE:  cpu time    0.5914: real time    0.5967
    MIXING:  cpu time    0.0154: real time    0.0155
    --------------------------------------------
      LOOP:  cpu time   52.2625: real time   52.7338

 eigenvalue-minimisations  :   674
 total energy-change (2. order) : 0.6266498E+01  (-0.5684967E+01)
 number of electron     556.0000134 magnetization 
 augmentation part      343.7587769 magnetization 

 Broyden mixing:
  rms(total) = 0.10279E+02    rms(broyden)= 0.10279E+02
  rms(prec ) = 0.12136E+02
  weight for this iteration     100.00

 eigenvalues of (default mixing * dielectric matrix)
  average eigenvalue GAMMA=   0.2605
  0.6505  0.1496  0.1496  0.0920

 Free energy of the ion-electron system (eV)
  ---------------------------------------------------
  alpha Z        PSCENC =       387.12086559
  Ewald energy   TEWEN  =    181136.21828925
  -Hartree energ DENC   =   -235474.42844869
  -exchange      EXHF   =         0.00000000
  -V(xc)+E(xc)   XCENC  =      1674.97990756
  PAW double counting   =     48684.11873085   -52332.98605500
  entropy T*S    EENTRO =        -0.08525161
  eigenvalues    EBANDS =     -3943.76430662
  atomic energy  EATOM  =     59560.90262231
  Solvation  Ediel_sol  =         0.00000000
  ---------------------------------------------------
  free energy    TOTEN  =      -307.92364635 eV

  energy without entropy =     -307.83839474  energy(sigma->0) =     -307.88102055


--------------------------------------------------------------------------------------------------------




--------------------------------------- Iteration      1(  10)  ---------------------------------------


    POTLOK:  cpu time    0.3317: real time    0.3387
    SETDIJ:  cpu time    0.0110: real time    0.0111
    EDDIAG:  cpu time    1.8929: real time    1.9081
  RMM-DIIS:  cpu time   45.4684: real time   45.6966
    ORTHCH:  cpu time    0.4509: real time    0.4520
       DOS:  cpu time    0.0004: real time    0.0004
    CHARGE:  cpu time    0.4967: real time    0.4980
    MIXING:  cpu time    0.0131: real time    0.0131
    --------------------------------------------
      LOOP:  cpu time   48.6652: real time   48.9179

 eigenvalue-minimisations  :   674
 total energy-change (2. order) : 0.1679593E+02  (-0.6074691E+01)
 number of electron     556.0000010 magnetization 
 augmentation part      341.7430561 magnetization 

 Broyden mixing:
  rms(total) = 0.80913E+01    rms(broyden)= 0.80904E+01
  rms(prec ) = 0.95903E+01
  weight for this iteration     100.00

 eigenvalues of (default mixing * dielectric matrix)
  average eigenvalue GAMMA=   0.2334
  0.6909  0.1486  0.1486  0.1115  0.0675

 Free energy of the ion-electron system (eV)
  ---------------------------------------------------
  alpha Z        PSCENC =       387.12086559
  Ewald energy   TEWEN  =    181136.21828925
  -Hartree energ DENC   =   -235607.29132252
  -exchange      EXHF   =         0.00000000
  -V(xc)+E(xc)   XCENC  =      1677.31887825
  PAW double counting   =     48951.89794122   -52639.96102139
  entropy T*S    EENTRO =        -0.13783575
  eigenvalues    EBANDS =     -3757.19613731
  atomic energy  EATOM  =     59560.90262231
  Solvation  Ediel_sol  =         0.00000000
  ---------------------------------------------------
  free energy    TOTEN  =      -291.12772034 eV

  energy without entropy =     -290.98988459  energy(sigma->0) =     -291.05880246


--------------------------------------------------------------------------------------------------------




--------------------------------------- Iteration      1(  11)  ---------------------------------------


    POTLOK:  cpu time    0.2807: real time    0.2862
    SETDIJ:  cpu time    0.0093: real time    0.0094
    EDDIAG:  cpu time    1.7207: real time    1.7257
  RMM-DIIS:  cpu time   50.0922: real time   50.3663
    ORTHCH:  cpu time    0.5295: real time    0.5337
       DOS:  cpu time    0.0006: real time    0.0006
    CHARGE:  cpu time    0.5989: real time    0.6035
    MIXING:  cpu time    0.0155: real time    0.0155
    --------------------------------------------
      LOOP:  cpu time   53.2474: real time   53.5408

 eigenvalue-minimisations  :   675
 total energy-change (2. order) : 0.1994776E+02  (-0.2171517E+01)
 number of electron     555.9999981 magnetization 
 augmentation part      341.3729410 magnetization 

 Broyden mixing:
  rms(total) = 0.45077E+01    rms(broyden)= 0.45062E+01
  rms(prec ) = 0.53663E+01
  weight for this iteration     100.00

 eigenvalues of (default mixing * dielectric matrix)
  average eigenvalue GAMMA=   0.2108
  0.6960  0.1635  0.1635  0.0917  0.0917  0.0584

 Free energy of the ion-electron system (eV)
  ---------------------------------------------------
  alpha Z        PSCENC =       387.12086559
  Ewald energy   TEWEN  =    181136.21828925
  -Hartree energ DENC   =   -235649.71912437
  -exchange      EXHF   =         0.00000000
  -V(xc)+E(xc)   XCENC  =      1677.82908747
  PAW double counting   =     49048.82777991   -52749.02132134
  entropy T*S    EENTRO =        -0.22556340
  eigenvalues    EBANDS =     -3683.11259655
  atomic energy  EATOM  =     59560.90262231
  Solvation  Ediel_sol  =         0.00000000
  ---------------------------------------------------
  free energy    TOTEN  =      -271.17996113 eV

  energy without entropy =     -270.95439773  energy(sigma->0) =     -271.06717943


--------------------------------------------------------------------------------------------------------




--------------------------------------- Iteration      1(  12)  ---------------------------------------


    POTLOK:  cpu time    0.3286: real time    0.3360
    SETDIJ:  cpu time    0.0102: real time    0.0113
    EDDIAG:  cpu time    1.8879: real time    1.9019
  RMM-DIIS:  cpu time   46.9142: real time   47.3266
    ORTHCH:  cpu time    0.5260: real time    0.5303
       DOS:  cpu time    0.0007: real time    0.0007
    CHARGE:  cpu time    0.5554: real time    0.5587
    MIXING:  cpu time    0.0182: real time    0.0183
    --------------------------------------------
      LOOP:  cpu time   50.2412: real time   50.6837

 eigenvalue-minimisations  :   676
 total energy-change (2. order) : 0.4236137E+01  (-0.5292061E+00)
 number of electron     555.9999975 magnetization 
 augmentation part      341.5237134 magnetization 

 Broyden mixing:
  rms(total) = 0.47799E+01    rms(broyden)= 0.47786E+01
  rms(prec ) = 0.58276E+01
  weight for this iteration     100.00

 eigenvalues of (default mixing * dielectric matrix)
  average eigenvalue GAMMA=   0.2008
  0.7025  0.2399  0.1548  0.0987  0.0987  0.0554  0.0554

 Free energy of the ion-electron system (eV)
  ---------------------------------------------------
  alpha Z        PSCENC =       387.12086559
  Ewald energy   TEWEN  =    181136.21828925
  -Hartree energ DENC   =   -235666.69916563
  -exchange      EXHF   =         0.00000000
  -V(xc)+E(xc)   XCENC  =      1677.95486498
  PAW double counting   =     49110.84571303   -52815.83917841
  entropy T*S    EENTRO =        -0.24428652
  eigenvalues    EBANDS =     -3657.20354836
  atomic energy  EATOM  =     59560.90262231
  Solvation  Ediel_sol  =         0.00000000
  ---------------------------------------------------
  free energy    TOTEN  =      -266.94382375 eV

  energy without entropy =     -266.69953723  energy(sigma->0) =     -266.82168049


--------------------------------------------------------------------------------------------------------




--------------------------------------- Iteration      1(  13)  ---------------------------------------


    POTLOK:  cpu time    0.3176: real time    0.3251
    SETDIJ:  cpu time    0.0106: real time    0.0107
    EDDIAG:  cpu time    1.8510: real time    1.8659
  RMM-DIIS:  cpu time   44.4802: real time   44.7516
    ORTHCH:  cpu time    0.5399: real time    0.5443
       DOS:  cpu time    0.0006: real time    0.0009
    CHARGE:  cpu time    0.6052: real time    0.6098
    MIXING:  cpu time    0.0176: real time    0.0176
    --------------------------------------------
      LOOP:  cpu time   47.8227: real time   48.1259

 eigenvalue-minimisations  :   676
 total energy-change (2. order) : 0.1204447E+01  (-0.3945801E+00)
 number of electron     555.9999996 magnetization 
 augmentation part      341.3258949 magnetization 

 Broyden mixing:
  rms(total) = 0.49242E+01    rms(broyden)= 0.49230E+01
  rms(prec ) = 0.59861E+01
  weight for this iteration     100.00

 eigenvalues of (default mixing * dielectric matrix)
  average eigenvalue GAMMA=   0.1968
  0.7106  0.3243  0.1485  0.1113  0.1113  0.0737  0.0623  0.0324

 Free energy of the ion-electron system (eV)
  ---------------------------------------------------
  alpha Z        PSCENC =       387.12086559
  Ewald energy   TEWEN  =    181136.21828925
  -Hartree energ DENC   =   -235688.19133761
  -exchange      EXHF   =         0.00000000
  -V(xc)+E(xc)   XCENC  =      1678.05506245
  PAW double counting   =     49187.77088976   -52898.15464953
  entropy T*S    EENTRO =        -0.20841284
  eigenvalues    EBANDS =     -3629.25270645
  atomic energy  EATOM  =     59560.90262231
  Solvation  Ediel_sol  =         0.00000000
  ---------------------------------------------------
  free energy    TOTEN  =      -265.73937707 eV

  energy without entropy =     -265.53096423  energy(sigma->0) =     -265.63517065


--------------------------------------------------------------------------------------------------------




--------------------------------------- Iteration      1(  14)  ---------------------------------------


    POTLOK:  cpu time    0.3389: real time    0.3471
    SETDIJ:  cpu time    0.0109: real time    0.0109
    EDDIAG:  cpu time    1.9061: real time    1.9212
  RMM-DIIS:  cpu time   49.1380: real time   49.5959
    ORTHCH:  cpu time    0.5326: real time    0.5369
       DOS:  cpu time    0.0005: real time    0.0005
    CHARGE:  cpu time    0.5839: real time    0.5882
    MIXING:  cpu time    0.0193: real time    0.0193
    --------------------------------------------
      LOOP:  cpu time   52.5302: real time   53.0201

 eigenvalue-minimisations  :   676
 total energy-change (2. order) : 0.8416312E+00  (-0.3941325E+00)
 number of electron     555.9999928 magnetization 
 augmentation part      341.0042036 magnetization 

 Broyden mixing:
  rms(total) = 0.49676E+01    rms(broyden)= 0.49665E+01
  rms(prec ) = 0.59078E+01
  weight for this iteration     100.00

 eigenvalues of (default mixing * dielectric matrix)
  average eigenvalue GAMMA=   0.2057
  0.7421  0.4723  0.1302  0.1302  0.1444  0.0913  0.0667  0.0371  0.0371

 Free energy of the ion-electron system (eV)
  ---------------------------------------------------
  alpha Z        PSCENC =       387.12086559
  Ewald energy   TEWEN  =    181136.21828925
  -Hartree energ DENC   =   -235716.35985784
  -exchange      EXHF   =         0.00000000
  -V(xc)+E(xc)   XCENC  =      1678.20024474
  PAW double counting   =     49279.35766590   -52995.98013549
  entropy T*S    EENTRO =        -0.24060692
  eigenvalues    EBANDS =     -3594.11683341
  atomic energy  EATOM  =     59560.90262231
  Solvation  Ediel_sol  =         0.00000000
  ---------------------------------------------------
  free energy    TOTEN  =      -264.89774587 eV

  energy without entropy =     -264.65713895  energy(sigma->0) =     -264.77744241


--------------------------------------------------------------------------------------------------------




--------------------------------------- Iteration      1(  15)  ---------------------------------------


    POTLOK:  cpu time    0.3339: real time    0.3422
    SETDIJ:  cpu time    0.0117: real time    0.0117
    EDDIAG:  cpu time    1.9028: real time    1.9182
  RMM-DIIS:  cpu time   45.4873: real time   45.7633
    ORTHCH:  cpu time    0.4908: real time    0.4920
       DOS:  cpu time    0.0004: real time    0.0004
    CHARGE:  cpu time    0.5065: real time    0.5077
    MIXING:  cpu time    0.0167: real time    0.0167
    --------------------------------------------
      LOOP:  cpu time   48.7501: real time   49.0522

 eigenvalue-minimisations  :   675
 total energy-change (2. order) :-0.1334920E+01  (-0.4708786E+00)
 number of electron     555.9999975 magnetization 
 augmentation part      340.4897397 magnetization 

 Broyden mixing:
  rms(total) = 0.57993E+01    rms(broyden)= 0.57981E+01
  rms(prec ) = 0.71616E+01
  weight for this iteration     100.00

 eigenvalues of (default mixing * dielectric matrix)
  average eigenvalue GAMMA=   0.2032
  0.7793  0.5504  0.1387  0.1387  0.1349  0.1133  0.0626  0.0419  0.0419  0.0304

 Free energy of the ion-electron system (eV)
  ---------------------------------------------------
  alpha Z        PSCENC =       387.12086559
  Ewald energy   TEWEN  =    181136.21828925
  -Hartree energ DENC   =   -235763.97250974
  -exchange      EXHF   =         0.00000000
  -V(xc)+E(xc)   XCENC  =      1678.41516921
  PAW double counting   =     49436.31105297   -53163.27983224
  entropy T*S    EENTRO =        -0.17784924
  eigenvalues    EBANDS =     -3537.77047430
  atomic energy  EATOM  =     59560.90262231
  Solvation  Ediel_sol  =         0.00000000
  ---------------------------------------------------
  free energy    TOTEN  =      -266.23266618 eV

  energy without entropy =     -266.05481694  energy(sigma->0) =     -266.14374156


--------------------------------------------------------------------------------------------------------




--------------------------------------- Iteration      1(  16)  ---------------------------------------


    POTLOK:  cpu time    0.2803: real time    0.2852
    SETDIJ:  cpu time    0.0092: real time    0.0092
    EDDIAG:  cpu time    1.7476: real time    1.7540
  RMM-DIIS:  cpu time   49.9667: real time   50.3195
    ORTHCH:  cpu time    0.5149: real time    0.5192
       DOS:  cpu time    0.0005: real time    0.0005
    CHARGE:  cpu time    0.5831: real time    0.5875
    MIXING:  cpu time    0.0218: real time    0.0218
    --------------------------------------------
      LOOP:  cpu time   53.1239: real time   53.4968

 eigenvalue-minimisations  :   675
 total energy-change (2. order) : 0.3698154E+01  (-0.3074323E+00)
 number of electron     555.9999961 magnetization 
 augmentation part      339.8677904 magnetization 

 Broyden mixing:
  rms(total) = 0.39974E+01    rms(broyden)= 0.39961E+01
  rms(prec ) = 0.48679E+01
  weight for this iteration     100.00

 eigenvalues of (default mixing * dielectric matrix)
  average eigenvalue GAMMA=   0.2016
  0.8349  0.5886  0.1438  0.1438  0.1378  0.1378  0.0589  0.0589  0.0480  0.0325
  0.0325

 Free energy of the ion-electron system (eV)
  ---------------------------------------------------
  alpha Z        PSCENC =       387.12086559
  Ewald energy   TEWEN  =    181136.21828925
  -Hartree energ DENC   =   -235794.36103743
  -exchange      EXHF   =         0.00000000
  -V(xc)+E(xc)   XCENC  =      1678.53148446
  PAW double counting   =     49547.20015530   -53280.85526867
  entropy T*S    EENTRO =        -0.19039178
  eigenvalues    EBANDS =     -3497.10123133
  atomic energy  EATOM  =     59560.90262231
  Solvation  Ediel_sol  =         0.00000000
  ---------------------------------------------------
  free energy    TOTEN  =      -262.53451230 eV

  energy without entropy =     -262.34412052  energy(sigma->0) =     -262.43931641


--------------------------------------------------------------------------------------------------------




--------------------------------------- Iteration      1(  17)  ---------------------------------------


    POTLOK:  cpu time    0.3312: real time    0.3399
    SETDIJ:  cpu time    0.0109: real time    0.0110
    EDDIAG:  cpu time    1.9028: real time    1.9179
  RMM-DIIS:  cpu time   46.8998: real time   47.2607
    ORTHCH:  cpu time    0.5104: real time    0.5146
       DOS:  cpu time    0.0006: real time    0.0006
    CHARGE:  cpu time    0.5521: real time    0.5564
    MIXING:  cpu time    0.0212: real time    0.0213
    --------------------------------------------
      LOOP:  cpu time   50.2290: real time   50.6223

 eigenvalue-minimisations  :   675
 total energy-change (2. order) : 0.2028902E+01  (-0.2648623E+00)
 number of electron     556.0000023 magnetization 
 augmentation part      339.6989610 magnetization 

 Broyden mixing:
  rms(total) = 0.31935E+01    rms(broyden)= 0.31922E+01
  rms(prec ) = 0.38899E+01
  weight for this iteration     100.00

 eigenvalues of (default mixing * dielectric matrix)
  average eigenvalue GAMMA=   0.2030
  0.9013  0.5924  0.1969  0.1969  0.1205  0.1205  0.0740  0.0740  0.0492  0.0492
  0.0304  0.0304

 Free energy of the ion-electron system (eV)
  ---------------------------------------------------
  alpha Z        PSCENC =       387.12086559
  Ewald energy   TEWEN  =    181136.21828925
  -Hartree energ DENC   =   -235816.18546797
  -exchange      EXHF   =         0.00000000
  -V(xc)+E(xc)   XCENC  =      1678.60977043
  PAW double counting   =     49644.73753108   -53383.43393222
  entropy T*S    EENTRO =        -0.24190231
  eigenvalues    EBANDS =     -3468.23338633
  atomic energy  EATOM  =     59560.90262231
  Solvation  Ediel_sol  =         0.00000000
  ---------------------------------------------------
  free energy    TOTEN  =      -260.50561016 eV

  energy without entropy =     -260.26370785  energy(sigma->0) =     -260.38465901


--------------------------------------------------------------------------------------------------------




--------------------------------------- Iteration      1(  18)  ---------------------------------------


    POTLOK:  cpu time    0.3169: real time    0.3234
    SETDIJ:  cpu time    0.0112: real time    0.0112
    EDDIAG:  cpu time    1.8372: real time    1.8507
  RMM-DIIS:  cpu time   44.3330: real time   44.5436
    ORTHCH:  cpu time    0.5357: real time    0.5399
       DOS:  cpu time    0.0006: real time    0.0006
    CHARGE:  cpu time    0.6084: real time    0.6128
    MIXING:  cpu time    0.0234: real time    0.0234
    --------------------------------------------
      LOOP:  cpu time   47.6664: real time   47.9056

 eigenvalue-minimisations  :   676
 total energy-change (2. order) : 0.5372167E+00  (-0.1960746E+00)
 number of electron     555.9999967 magnetization 
 augmentation part      339.6897634 magnetization 

 Broyden mixing:
  rms(total) = 0.33454E+01    rms(broyden)= 0.33442E+01
  rms(prec ) = 0.40581E+01
  weight for this iteration     100.00

 eigenvalues of (default mixing * dielectric matrix)
  average eigenvalue GAMMA=   0.2016
  0.9473  0.5329  0.3360  0.1898  0.1203  0.1203  0.0853  0.0853  0.0507  0.0507
  0.0427  0.0299  0.0299

 Free energy of the ion-electron system (eV)
  ---------------------------------------------------
  alpha Z        PSCENC =       387.12086559
  Ewald energy   TEWEN  =    181136.21828925
  -Hartree energ DENC   =   -235832.57757803
  -exchange      EXHF   =         0.00000000
  -V(xc)+E(xc)   XCENC  =      1678.63138635
  PAW double counting   =     49731.69997713   -53473.96791551
  entropy T*S    EENTRO =        -0.26426407
  eigenvalues    EBANDS =     -3447.73177652
  atomic energy  EATOM  =     59560.90262231
  Solvation  Ediel_sol  =         0.00000000
  ---------------------------------------------------
  free energy    TOTEN  =      -259.96839350 eV

  energy without entropy =     -259.70412943  energy(sigma->0) =     -259.83626146


--------------------------------------------------------------------------------------------------------




--------------------------------------- Iteration      1(  19)  ---------------------------------------


    POTLOK:  cpu time    0.3424: real time    0.3496
    SETDIJ:  cpu time    0.0108: real time    0.0108
    EDDIAG:  cpu time    1.9078: real time    1.9228
  RMM-DIIS:  cpu time   49.3247: real time   49.6967
    ORTHCH:  cpu time    0.5356: real time    0.5399
       DOS:  cpu time    0.0006: real time    0.0006
    CHARGE:  cpu time    0.5712: real time    0.5756
    MIXING:  cpu time    0.0225: real time    0.0226
    --------------------------------------------
      LOOP:  cpu time   52.7156: real time   53.1186

 eigenvalue-minimisations  :   676
 total energy-change (2. order) : 0.7567836E+00  (-0.1267724E+00)
 number of electron     555.9999963 magnetization 
 augmentation part      339.8145693 magnetization 

 Broyden mixing:
  rms(total) = 0.32427E+01    rms(broyden)= 0.32418E+01
  rms(prec ) = 0.37813E+01
  weight for this iteration     100.00

 eigenvalues of (default mixing * dielectric matrix)
  average eigenvalue GAMMA=   0.2109
  0.9949  0.5463  0.5463  0.1555  0.1253  0.1253  0.1037  0.1037  0.0537  0.0516
  0.0516  0.0334  0.0334  0.0282

 Free energy of the ion-electron system (eV)
  ---------------------------------------------------
  alpha Z        PSCENC =       387.12086559
  Ewald energy   TEWEN  =    181136.21828925
  -Hartree energ DENC   =   -235840.99197353
  -exchange      EXHF   =         0.00000000
  -V(xc)+E(xc)   XCENC  =      1678.59605150
  PAW double counting   =     49788.40955214   -53532.29356118
  entropy T*S    EENTRO =        -0.31116136
  eigenvalues    EBANDS =     -3436.86229463
  atomic energy  EATOM  =     59560.90262231
  Solvation  Ediel_sol  =         0.00000000
  ---------------------------------------------------
  free energy    TOTEN  =      -259.21160991 eV

  energy without entropy =     -258.90044855  energy(sigma->0) =     -259.05602923


--------------------------------------------------------------------------------------------------------




--------------------------------------- Iteration      1(  20)  ---------------------------------------


    POTLOK:  cpu time    0.3328: real time    0.3407
    SETDIJ:  cpu time    0.0113: real time    0.0113
    EDDIAG:  cpu time    1.8998: real time    1.9136
  RMM-DIIS:  cpu time   45.9357: real time   46.1714
    ORTHCH:  cpu time    0.4884: real time    0.4898
       DOS:  cpu time    0.0004: real time    0.0004
    CHARGE:  cpu time    0.5002: real time    0.5022
    MIXING:  cpu time    0.0218: real time    0.0219
    --------------------------------------------
      LOOP:  cpu time   49.1903: real time   49.4513

 eigenvalue-minimisations  :   675
 total energy-change (2. order) : 0.8462209E+00  (-0.1388336E+00)
 number of electron     555.9999983 magnetization 
 augmentation part      339.7329878 magnetization 

 Broyden mixing:
  rms(total) = 0.25321E+01    rms(broyden)= 0.25311E+01
  rms(prec ) = 0.30437E+01
  weight for this iteration     100.00

 eigenvalues of (default mixing * dielectric matrix)
  average eigenvalue GAMMA=   0.2117
  1.0382  0.6039  0.6039  0.1279  0.1279  0.1368  0.1368  0.0955  0.0591  0.0591
  0.0476  0.0476  0.0321  0.0321  0.0275

 Free energy of the ion-electron system (eV)
  ---------------------------------------------------
  alpha Z        PSCENC =       387.12086559
  Ewald energy   TEWEN  =    181136.21828925
  -Hartree energ DENC   =   -235848.15761619
  -exchange      EXHF   =         0.00000000
  -V(xc)+E(xc)   XCENC  =      1678.45290710
  PAW double counting   =     49844.89510230   -53589.99415820
  entropy T*S    EENTRO =        -0.36511641
  eigenvalues    EBANDS =     -3427.43828479
  atomic energy  EATOM  =     59560.90262231
  Solvation  Ediel_sol  =         0.00000000
  ---------------------------------------------------
  free energy    TOTEN  =      -258.36538904 eV

  energy without entropy =     -258.00027263  energy(sigma->0) =     -258.18283083


--------------------------------------------------------------------------------------------------------




--------------------------------------- Iteration      1(  21)  ---------------------------------------


    POTLOK:  cpu time    0.2850: real time    0.2900
    SETDIJ:  cpu time    0.0092: real time    0.0092
    EDDIAG:  cpu time    1.7249: real time    1.7302
  RMM-DIIS:  cpu time   49.9092: real time   50.1679
    ORTHCH:  cpu time    0.5282: real time    0.5324
       DOS:  cpu time    0.0006: real time    0.0006
    CHARGE:  cpu time    0.5983: real time    0.6026
    MIXING:  cpu time    0.0256: real time    0.0256
    --------------------------------------------
      LOOP:  cpu time   53.0808: real time   53.3587

 eigenvalue-minimisations  :   675
 total energy-change (2. order) : 0.7987085E+00  (-0.6132777E-01)
 number of electron     555.9999973 magnetization 
 augmentation part      339.9635438 magnetization 

 Broyden mixing:
  rms(total) = 0.19904E+01    rms(broyden)= 0.19895E+01
  rms(prec ) = 0.23093E+01
  weight for this iteration     100.00

 eigenvalues of (default mixing * dielectric matrix)
  average eigenvalue GAMMA=   0.2049
  1.0563  0.6076  0.6076  0.1299  0.1299  0.1428  0.1428  0.0953  0.0601  0.0601
  0.0584  0.0468  0.0468  0.0328  0.0328  0.0278

 Free energy of the ion-electron system (eV)
  ---------------------------------------------------
  alpha Z        PSCENC =       387.12086559
  Ewald energy   TEWEN  =    181136.21828925
  -Hartree energ DENC   =   -235851.51842739
  -exchange      EXHF   =         0.00000000
  -V(xc)+E(xc)   XCENC  =      1678.24307301
  PAW double counting   =     49884.83365687   -53630.32995024
  entropy T*S    EENTRO =        -0.43312802
  eigenvalues    EBANDS =     -3422.60368186
  atomic energy  EATOM  =     59560.90262231
  Solvation  Ediel_sol  =         0.00000000
  ---------------------------------------------------
  free energy    TOTEN  =      -257.56668049 eV

  energy without entropy =     -257.13355246  energy(sigma->0) =     -257.35011647


--------------------------------------------------------------------------------------------------------




--------------------------------------- Iteration      1(  22)  ---------------------------------------


    POTLOK:  cpu time    0.3277: real time    0.3357
    SETDIJ:  cpu time    0.0111: real time    0.0112
    EDDIAG:  cpu time    1.8890: real time    1.9063
  RMM-DIIS:  cpu time   47.0387: real time   47.4084
    ORTHCH:  cpu time    0.5223: real time    0.5265
       DOS:  cpu time    0.0006: real time    0.0006
    CHARGE:  cpu time    0.5804: real time    0.5847
    MIXING:  cpu time    0.0281: real time    0.0282
    --------------------------------------------
      LOOP:  cpu time   50.3979: real time   50.8016

 eigenvalue-minimisations  :   676
 total energy-change (2. order) : 0.4309560E+00  (-0.2732220E-01)
 number of electron     555.9999989 magnetization 
 augmentation part      340.0022243 magnetization 

 Broyden mixing:
  rms(total) = 0.15350E+01    rms(broyden)= 0.15342E+01
  rms(prec ) = 0.18156E+01
  weight for this iteration     100.00

 eigenvalues of (default mixing * dielectric matrix)
  average eigenvalue GAMMA=   0.1997
  1.0667  0.6092  0.6092  0.1556  0.1556  0.1282  0.1282  0.1121  0.0724  0.0724
  0.0601  0.0487  0.0487  0.0361  0.0319  0.0319  0.0276

 Free energy of the ion-electron system (eV)
  ---------------------------------------------------
  alpha Z        PSCENC =       387.12086559
  Ewald energy   TEWEN  =    181136.21828925
  -Hartree energ DENC   =   -235853.26308358
  -exchange      EXHF   =         0.00000000
  -V(xc)+E(xc)   XCENC  =      1678.09312242
  PAW double counting   =     49897.68857808   -53643.38726974
  entropy T*S    EENTRO =        -0.48541393
  eigenvalues    EBANDS =     -3420.02343494
  atomic energy  EATOM  =     59560.90262231
  Solvation  Ediel_sol  =         0.00000000
  ---------------------------------------------------
  free energy    TOTEN  =      -257.13572453 eV

  energy without entropy =     -256.65031060  energy(sigma->0) =     -256.89301757


--------------------------------------------------------------------------------------------------------




--------------------------------------- Iteration      1(  23)  ---------------------------------------


    POTLOK:  cpu time    0.3247: real time    0.3327
    SETDIJ:  cpu time    0.0107: real time    0.0107
    EDDIAG:  cpu time    1.8830: real time    1.8973
  RMM-DIIS:  cpu time   44.0864: real time   44.2974
    ORTHCH:  cpu time    0.5217: real time    0.5259
       DOS:  cpu time    0.0006: real time    0.0006
    CHARGE:  cpu time    0.6046: real time    0.6090
    MIXING:  cpu time    0.0297: real time    0.0298
    --------------------------------------------
      LOOP:  cpu time   47.4613: real time   47.7033

 eigenvalue-minimisations  :   675
 total energy-change (2. order) : 0.3368884E+00  (-0.1812682E-01)
 number of electron     555.9999976 magnetization 
 augmentation part      340.0289407 magnetization 

 Broyden mixing:
  rms(total) = 0.10206E+01    rms(broyden)= 0.10195E+01
  rms(prec ) = 0.11765E+01
  weight for this iteration     100.00

 eigenvalues of (default mixing * dielectric matrix)
  average eigenvalue GAMMA=   0.1968
  1.0756  0.6023  0.6023  0.1818  0.1818  0.1246  0.1246  0.1333  0.0922  0.0922
  0.0510  0.0510  0.0519  0.0519  0.0276  0.0320  0.0320  0.0335

 Free energy of the ion-electron system (eV)
  ---------------------------------------------------
  alpha Z        PSCENC =       387.12086559
  Ewald energy   TEWEN  =    181136.21828925
  -Hartree energ DENC   =   -235854.96209993
  -exchange      EXHF   =         0.00000000
  -V(xc)+E(xc)   XCENC  =      1677.91932152
  PAW double counting   =     49908.38454392   -53654.20229113
  entropy T*S    EENTRO =        -0.51632372
  eigenvalues    EBANDS =     -3417.66376391
  atomic energy  EATOM  =     59560.90262231
  Solvation  Ediel_sol  =         0.00000000
  ---------------------------------------------------
  free energy    TOTEN  =      -256.79883610 eV

  energy without entropy =     -256.28251238  energy(sigma->0) =     -256.54067424


--------------------------------------------------------------------------------------------------------




--------------------------------------- Iteration      1(  24)  ---------------------------------------


    POTLOK:  cpu time    0.3438: real time    0.3530
    SETDIJ:  cpu time    0.0120: real time    0.0120
    EDDIAG:  cpu time    1.9070: real time    1.9217
  RMM-DIIS:  cpu time   49.4628: real time   49.9047
    ORTHCH:  cpu time    0.5400: real time    0.5444
       DOS:  cpu time    0.0006: real time    0.0009
    CHARGE:  cpu time    0.5920: real time    0.5964
    MIXING:  cpu time    0.0313: real time    0.0314
    --------------------------------------------
      LOOP:  cpu time   52.8894: real time   53.3645

 eigenvalue-minimisations  :   676
 total energy-change (2. order) : 0.1624281E+00  (-0.1749819E-01)
 number of electron     555.9999965 magnetization 
 augmentation part      340.2011482 magnetization 

 Broyden mixing:
  rms(total) = 0.78670E+00    rms(broyden)= 0.78543E+00
  rms(prec ) = 0.92964E+00
  weight for this iteration     100.00

 eigenvalues of (default mixing * dielectric matrix)
  average eigenvalue GAMMA=   0.2029
  1.0710  0.6061  0.6061  0.2782  0.2782  0.1609  0.1252  0.1252  0.1107  0.0983
  0.0591  0.0591  0.0556  0.0486  0.0486  0.0276  0.0320  0.0320  0.0321

 Free energy of the ion-electron system (eV)
  ---------------------------------------------------
  alpha Z        PSCENC =       387.12086559
  Ewald energy   TEWEN  =    181136.21828925
  -Hartree energ DENC   =   -235857.38621318
  -exchange      EXHF   =         0.00000000
  -V(xc)+E(xc)   XCENC  =      1677.71596755
  PAW double counting   =     49920.51064370   -53666.54408169
  entropy T*S    EENTRO =        -0.50785020
  eigenvalues    EBANDS =     -3414.66665131
  atomic energy  EATOM  =     59560.90262231
  Solvation  Ediel_sol  =         0.00000000
  ---------------------------------------------------
  free energy    TOTEN  =      -256.63640798 eV

  energy without entropy =     -256.12855778  energy(sigma->0) =     -256.38248288


--------------------------------------------------------------------------------------------------------




--------------------------------------- Iteration      1(  25)  ---------------------------------------


    POTLOK:  cpu time    0.3353: real time    0.3439
    SETDIJ:  cpu time    0.0106: real time    0.0106
    EDDIAG:  cpu time    1.8890: real time    1.9032
  RMM-DIIS:  cpu time   46.3367: real time   46.5590
    ORTHCH:  cpu time    0.4675: real time    0.4696
       DOS:  cpu time    0.0005: real time    0.0005
    CHARGE:  cpu time    0.5220: real time    0.5234
    MIXING:  cpu time    0.0261: real time    0.0262
    --------------------------------------------
      LOOP:  cpu time   49.5876: real time   49.8363

 eigenvalue-minimisations  :   675
 total energy-change (2. order) :-0.1156759E+00  (-0.2119220E-01)
 number of electron     555.9999976 magnetization 
 augmentation part      340.2943783 magnetization 

 Broyden mixing:
  rms(total) = 0.11875E+01    rms(broyden)= 0.11867E+01
  rms(prec ) = 0.14696E+01
  weight for this iteration     100.00

 eigenvalues of (default mixing * dielectric matrix)
  average eigenvalue GAMMA=   0.2217
  1.0233  0.7290  0.7290  0.4352  0.4352  0.1598  0.1255  0.1255  0.1298  0.0876
  0.0649  0.0627  0.0627  0.0492  0.0492  0.0422  0.0275  0.0320  0.0320  0.0314

 Free energy of the ion-electron system (eV)
  ---------------------------------------------------
  alpha Z        PSCENC =       387.12086559
  Ewald energy   TEWEN  =    181136.21828925
  -Hartree energ DENC   =   -235861.08604001
  -exchange      EXHF   =         0.00000000
  -V(xc)+E(xc)   XCENC  =      1677.57025960
  PAW double counting   =     49937.85588731   -53684.15195367
  entropy T*S    EENTRO =        -0.48024795
  eigenvalues    EBANDS =     -3410.70176629
  atomic energy  EATOM  =     59560.90262231
  Solvation  Ediel_sol  =         0.00000000
  ---------------------------------------------------
  free energy    TOTEN  =      -256.75208385 eV

  energy without entropy =     -256.27183590  energy(sigma->0) =     -256.51195987


--------------------------------------------------------------------------------------------------------




--------------------------------------- Iteration      1(  26)  ---------------------------------------


    POTLOK:  cpu time    0.2824: real time    0.2876
    SETDIJ:  cpu time    0.0092: real time    0.0092
    EDDIAG:  cpu time    1.7307: real time    1.7355
  RMM-DIIS:  cpu time   49.9073: real time   50.2043
    ORTHCH:  cpu time    0.5346: real time    0.5378
       DOS:  cpu time    0.0007: real time    0.0007
    CHARGE:  cpu time    0.5984: real time    0.6028
    MIXING:  cpu time    0.0319: real time    0.0329
    --------------------------------------------
      LOOP:  cpu time   53.0950: real time   53.4108

 eigenvalue-minimisations  :   675
 total energy-change (2. order) :-0.1771490E+00  (-0.3045386E-01)
 number of electron     555.9999974 magnetization 
 augmentation part      340.4365842 magnetization 

 Broyden mixing:
  rms(total) = 0.14049E+01    rms(broyden)= 0.14037E+01
  rms(prec ) = 0.17177E+01
  weight for this iteration     100.00

 eigenvalues of (default mixing * dielectric matrix)
  average eigenvalue GAMMA=   0.2260
  1.0129  0.8051  0.8051  0.4858  0.4858  0.1489  0.1489  0.1257  0.1257  0.0844
  0.0844  0.0619  0.0619  0.0491  0.0491  0.0514  0.0356  0.0275  0.0329  0.0316
  0.0316

 Free energy of the ion-electron system (eV)
  ---------------------------------------------------
  alpha Z        PSCENC =       387.12086559
  Ewald energy   TEWEN  =    181136.21828925
  -Hartree energ DENC   =   -235870.17045684
  -exchange      EXHF   =         0.00000000
  -V(xc)+E(xc)   XCENC  =      1677.42431411
  PAW double counting   =     49975.63390306   -53722.43002876
  entropy T*S    EENTRO =        -0.44524338
  eigenvalues    EBANDS =     -3401.18349818
  atomic energy  EATOM  =     59560.90262231
  Solvation  Ediel_sol  =         0.00000000
  ---------------------------------------------------
  free energy    TOTEN  =      -256.92923283 eV

  energy without entropy =     -256.48398945  energy(sigma->0) =     -256.70661114


--------------------------------------------------------------------------------------------------------




--------------------------------------- Iteration      1(  27)  ---------------------------------------


    POTLOK:  cpu time    0.3278: real time    0.3481
    SETDIJ:  cpu time    0.0108: real time    0.0109
    EDDIAG:  cpu time    1.9042: real time    1.9192
  RMM-DIIS:  cpu time   54.9433: real time   55.4203
    ORTHCH:  cpu time    0.5071: real time    0.5105
       DOS:  cpu time    0.0004: real time    0.0004
    CHARGE:  cpu time    0.5529: real time    0.5572
    MIXING:  cpu time    0.0322: real time    0.0322
    --------------------------------------------
      LOOP:  cpu time   58.2788: real time   58.7989

 eigenvalue-minimisations  :   781
 total energy-change (2. order) : 0.2305001E+00  (-0.1843435E+01)
 number of electron     555.9999979 magnetization 
 augmentation part      340.5664904 magnetization 

 Broyden mixing:
  rms(total) = 0.10439E+01    rms(broyden)= 0.10429E+01
  rms(prec ) = 0.12554E+01
  weight for this iteration     100.00

 eigenvalues of (default mixing * dielectric matrix)
  average eigenvalue GAMMA=   0.2342
  1.0206  0.8598  0.8598  0.5624  0.5624  0.1713  0.1713  0.1262  0.1262  0.0958
  0.0958  0.0695  0.0589  0.0589  0.0563  0.0489  0.0489  0.0368  0.0275  0.0325
  0.0317  0.0317

 Free energy of the ion-electron system (eV)
  ---------------------------------------------------
  alpha Z        PSCENC =       387.12086559
  Ewald energy   TEWEN  =    181136.21828925
  -Hartree energ DENC   =   -235878.31476255
  -exchange      EXHF   =         0.00000000
  -V(xc)+E(xc)   XCENC  =      1677.35083150
  PAW double counting   =     50010.66763496   -53758.03925610
  entropy T*S    EENTRO =        -0.50056934
  eigenvalues    EBANDS =     -3392.10438837
  atomic energy  EATOM  =     59560.90262231
  Solvation  Ediel_sol  =         0.00000000
  ---------------------------------------------------
  free energy    TOTEN  =      -256.69873275 eV

  energy without entropy =     -256.19816341  energy(sigma->0) =     -256.44844808


--------------------------------------------------------------------------------------------------------




--------------------------------------- Iteration      1(  28)  ---------------------------------------


    POTLOK:  cpu time    0.3029: real time    0.3091
    SETDIJ:  cpu time    0.0088: real time    0.0088
    EDDIAG:  cpu time    1.7824: real time    1.7961
  RMM-DIIS:  cpu time   45.9923: real time   46.2628
    ORTHCH:  cpu time    0.5390: real time    0.5434
[...]
    FORCOR:  cpu time    0.4856: real time    0.4879
    FORHAR:  cpu time    0.2356: real time    0.2371
    MIXING:  cpu time    0.0279: real time    0.0289
    OFIELD:  cpu time    0.0001: real time    0.0001

  FORCE on cell =-STRESS in cart. coord.  units (eV):
  Direction    XX          YY          ZZ          XY          YZ          ZX
  --------------------------------------------------------------------------------------
  Alpha Z   387.12087   387.12087   387.12087
  Ewald   59891.79597 59488.14146 62806.79176   484.57226  -345.39150 -1402.32618
  Hartree 78248.48890 77893.01590 80979.29938   429.37907  -331.55693 -1252.60978
  E(xc)   -3038.10880 -3038.25028 -3037.58870     0.07222    -0.06751    -0.32235
  Local  ************************************  -912.25375   676.43716  2649.62831
  n-local -1799.62567 -1799.92437 -1798.29023     0.93342     1.11530    -2.14325
  augment  2815.10736  2817.75621  2812.36758    -0.70434     0.49484     3.01946
  Kinetic  4367.24265  4368.79572  4361.66266    -1.77725     0.05653     3.60526
  Fock        0.00000     0.00000     0.00000     0.00000     0.00000     0.00000
  -------------------------------------------------------------------------------------
  Total      -2.05841    -2.75968    -4.05097     0.22163     1.08790    -1.14853
  in kB      -0.41224    -0.55269    -0.81130     0.04439     0.21788    -0.23002
  external pressure =       -0.59 kB  Pullay stress =        0.00 kB


 VOLUME and BASIS-vectors are now :
 -----------------------------------------------------------------------------
  energy-cutoff  :      400.00
  volume of cell :     8000.00
      direct lattice vectors                 reciprocal lattice vectors
    20.000000000  0.000000000  0.000000000     0.050000000  0.000000000  0.000000000
     0.000000000 20.000000000  0.000000000     0.000000000  0.050000000  0.000000000
     0.000000000  0.000000000 20.000000000     0.000000000  0.000000000  0.050000000

  length of vectors
    20.000000000 20.000000000 20.000000000     0.050000000  0.050000000  0.050000000


 FORCES acting on ions
    electron-ion (+dipol)            ewald-force                    non-local-force                 convergence-correction
 -----------------------------------------------------------------------------------------------
   0.183E+04 -.116E+04 0.598E+03   -.183E+04 0.116E+04 -.598E+03   -.191E+01 0.119E+01 -.693E+00   0.116E-01 -.712E-01 -.102E-01
   0.732E+03 -.190E+04 0.967E+03   -.731E+03 0.190E+04 -.966E+03   -.808E+00 0.210E+01 -.992E+00   0.804E-02 -.529E-01 -.249E-01
   0.116E+04 -.189E+04 -.355E+03   -.116E+04 0.189E+04 0.355E+03   -.113E+01 0.198E+01 0.281E+00   -.241E-01 -.496E-01 -.290E-01
   0.321E+02 -.229E+04 0.100E+02   -.320E+02 0.228E+04 -.998E+01   -.142E+00 0.672E+01 -.325E-01   0.526E-01 -.142E-01 -.295E-01
   0.167E+02 -.131E+04 0.172E+02   -.168E+02 0.131E+04 -.170E+02   -.166E-01 -.162E+00 -.107E+00   0.682E-01 -.814E-01 -.431E-01
   -.680E+03 -.192E+04 0.966E+03   0.680E+03 0.192E+04 -.965E+03   0.702E+00 0.212E+01 -.103E+01   0.672E-01 -.581E-01 0.122E-01
   -.111E+04 -.192E+04 -.363E+03   0.111E+04 0.192E+04 0.363E+03   0.120E+01 0.214E+01 0.460E+00   0.938E-01 -.887E-01 -.407E-01
   0.198E+04 -.103E+04 -.631E+03   -.197E+04 0.102E+04 0.629E+03   -.595E+01 0.311E+01 0.197E+01   -.521E-03 -.573E-01 -.206E-01
   0.179E+04 -.893E+01 -.125E+04   -.179E+04 0.962E+01 0.125E+04   -.142E+01 -.691E+00 0.316E+01   -.173E-02 -.328E-01 -.400E-01
   0.113E+04 -.564E+03 -.358E+03   -.113E+04 0.564E+03 0.359E+03   0.226E+00 0.128E+00 -.245E+00   -.139E-01 -.873E-01 -.609E-01
   0.113E+04 -.121E+04 -.151E+04   -.113E+04 0.121E+04 0.151E+04   -.149E+01 0.778E+00 0.233E+01   -.322E-01 -.499E-01 -.105E-01
   0.125E+02 -.192E+04 -.117E+04   -.126E+02 0.192E+04 0.116E+04   0.579E-01 0.197E+01 0.105E+01   0.532E-01 -.178E-01 -.158E-01
   -.345E+01 -.590E+03 -.114E+04   0.331E+01 0.590E+03 0.114E+04   0.103E+00 0.207E+00 -.296E+00   0.406E-01 -.457E-01 -.613E-01
   -.111E+04 -.601E+03 -.349E+03   0.111E+04 0.601E+03 0.349E+03   -.846E-01 -.624E-01 -.983E-01   0.835E-01 0.451E-01 -.231E-01
   -.114E+04 -.121E+04 -.153E+04   0.114E+04 0.121E+04 0.153E+04   0.119E+01 0.117E+01 0.137E+01   0.862E-01 -.387E-01 -.754E-01
   0.124E+04 -.104E+04 0.168E+04   -.124E+04 0.104E+04 -.167E+04   -.361E+01 0.300E+01 -.497E+01   -.117E-01 -.196E-01 0.282E-01
   0.182E+04 0.137E+02 0.133E+04   -.181E+04 -.138E+02 -.133E+04   -.200E+01 0.147E+00 -.150E+01   0.717E-02 -.137E-01 0.697E-01
   0.701E+03 0.814E+00 0.212E+04   -.701E+03 -.883E+00 -.212E+04   -.802E+00 -.189E-02 -.230E+01   -.704E-01 0.694E-01 0.526E-01
   0.698E+03 -.583E+03 0.953E+03   -.698E+03 0.583E+03 -.953E+03   0.110E+00 -.105E+00 0.113E+00   -.337E-01 -.265E-01 0.537E-01
   0.133E+02 -.120E+04 0.190E+04   -.132E+02 0.119E+04 -.190E+04   -.111E+00 0.133E+01 -.216E+01   0.135E-01 0.178E-01 0.371E-01
   -.110E+02 0.580E+03 0.118E+04   0.111E+02 -.580E+03 -.118E+04   -.265E-01 0.495E-01 0.158E+00   -.908E-01 0.855E-01 0.122E+00
   -.705E+03 -.162E+02 0.212E+04   0.705E+03 0.161E+02 -.212E+04   0.703E+00 -.196E-01 -.237E+01   0.327E-01 0.114E+00 0.236E-01
   -.687E+03 -.598E+03 0.954E+03   0.687E+03 0.598E+03 -.955E+03   -.598E-01 -.530E-01 0.120E+00   0.417E-01 0.782E-01 0.724E-01
   0.222E+04 0.288E+02 -.533E+01   -.222E+04 -.287E+02 0.548E+01   -.270E+01 -.161E+00 -.576E-01   0.657E-01 -.399E-01 -.190E-01
   0.180E+04 0.120E+04 -.535E+03   -.180E+04 -.120E+04 0.535E+03   -.213E+01 -.788E+00 0.442E+00   0.219E-01 0.323E-01 -.521E-01
   0.111E+04 0.589E+03 0.381E+03   -.111E+04 -.589E+03 -.381E+03   0.196E+00 0.480E-01 -.263E-01   -.526E-01 0.159E-01 0.288E-01
   0.676E+03 0.581E+03 -.929E+03   -.676E+03 -.581E+03 0.930E+03   0.114E+00 -.263E-02 -.784E-01   -.492E-01 -.174E-02 -.642E-01
   0.330E-01 -.494E+01 0.622E+01   -.480E-01 0.485E+01 -.613E+01   0.491E-01 0.542E-01 -.927E-01   -.358E-01 0.325E-01 0.775E-03
   -.241E+02 0.130E+04 0.155E+02   0.243E+02 -.130E+04 -.156E+02   -.878E-01 0.198E+00 0.110E+00   -.960E-01 0.606E-01 0.407E-01
   -.112E+04 0.573E+03 0.372E+03   0.112E+04 -.573E+03 -.372E+03   -.199E+00 0.940E-02 0.369E-01   0.180E-01 0.116E+00 0.826E-01
   -.707E+03 0.573E+03 -.936E+03   0.707E+03 -.573E+03 0.936E+03   0.284E-01 0.109E+00 -.191E+00   0.297E-01 0.515E-01 0.194E-02
   -.181E+04 -.121E+04 0.598E+03   0.180E+04 0.121E+04 -.598E+03   0.203E+01 0.128E+01 -.596E+00   -.121E-01 -.128E-01 0.640E-01
   -.196E+04 -.107E+04 -.644E+03   0.195E+04 0.107E+04 0.643E+03   0.579E+01 0.306E+01 0.182E+01   -.379E-01 -.313E-01 -.523E-01
   -.183E+04 -.197E+02 -.132E+04   0.182E+04 0.196E+02 0.132E+04   0.199E+01 0.124E+00 0.129E+01   0.634E-02 0.472E-01 -.500E-01
   -.122E+04 -.107E+04 0.168E+04   0.122E+04 0.107E+04 -.167E+04   0.352E+01 0.308E+01 -.484E+01   0.193E-01 0.279E-01 0.663E-01
   -.182E+04 -.261E+02 0.133E+04   0.182E+04 0.260E+02 -.133E+04   0.209E+01 -.163E-01 -.144E+01   0.325E-01 0.108E+00 0.611E-01
   -.223E+04 -.244E+02 0.143E+01   0.223E+04 0.242E+02 -.161E+01   0.243E+01 0.369E-01 0.127E+00   -.270E-01 0.104E+00 0.425E-01
   -.183E+04 0.117E+04 -.590E+03   0.183E+04 -.117E+04 0.589E+03   0.201E+01 -.120E+01 0.598E+00   0.204E-01 0.650E-01 0.449E-01
   0.548E+03 -.649E+02 -.201E+04   -.546E+03 0.667E+02 0.201E+04   -.202E+01 -.169E+01 -.114E-01   -.139E-01 -.306E-01 -.780E-02
   -.404E+02 -.110E+04 -.203E+04   0.407E+02 0.110E+04 0.202E+04   -.309E+00 0.299E+01 0.638E+01   0.268E-01 -.161E-01 0.307E-01
   -.742E+03 -.692E+01 -.210E+04   0.741E+03 0.720E+01 0.210E+04   0.689E+00 -.263E+00 0.276E+01   0.460E-01 -.157E-01 -.198E-01
   0.116E+04 0.120E+04 -.148E+04   -.116E+04 -.120E+04 0.147E+04   -.150E+01 0.572E+00 0.331E+01   -.159E-01 0.115E-01 -.314E-01
   0.645E+03 0.194E+04 -.907E+03   -.645E+03 -.194E+04 0.907E+03   -.426E-01 -.226E+01 0.510E+00   -.471E-01 0.406E-01 -.135E-01
   -.533E+02 0.120E+04 -.187E+04   0.544E+02 -.120E+04 0.186E+04   -.103E+01 -.792E+00 0.327E+01   0.197E-02 0.871E-02 -.572E-02
   -.742E+03 0.190E+04 -.948E+03   0.741E+03 -.190E+04 0.947E+03   0.711E+00 -.213E+01 0.981E+00   -.402E-02 0.368E-01 0.384E-01
   -.126E+04 0.104E+04 -.167E+04   0.126E+04 -.104E+04 0.166E+04   0.373E+01 -.303E+01 0.505E+01   0.162E-01 0.361E-01 0.176E-02
   0.111E+04 0.120E+04 0.156E+04   -.111E+04 -.120E+04 -.156E+04   -.111E+01 -.124E+01 -.167E+01   -.106E+00 0.298E-01 0.107E+00
   -.181E+02 0.104E+04 0.206E+04   0.181E+02 -.104E+04 -.206E+04   0.911E-01 -.304E+01 -.611E+01   -.444E-01 0.678E-02 -.154E-01
   -.115E+04 0.117E+04 0.156E+04   0.115E+04 -.117E+04 -.155E+04   0.124E+01 -.138E+01 -.161E+01   0.603E-01 0.251E-01 0.274E-01
   0.195E+04 0.106E+04 0.676E+03   -.195E+04 -.106E+04 -.674E+03   -.583E+01 -.322E+01 -.182E+01   0.470E-01 0.349E-01 0.363E-01
   0.110E+04 0.192E+04 0.401E+03   -.110E+04 -.192E+04 -.400E+03   -.126E+01 -.225E+01 -.477E+00   -.659E-01 0.753E-01 0.294E-01
   -.302E+02 0.190E+04 0.121E+04   0.302E+02 -.189E+04 -.120E+04   0.105E+00 -.183E+01 -.131E+01   -.731E-01 -.185E-01 0.614E-01
   -.116E+04 0.189E+04 0.382E+03   0.116E+04 -.189E+04 -.381E+03   0.137E+01 -.185E+01 -.509E+00   0.215E-01 0.243E-02 0.472E-01
   -.198E+04 0.102E+04 0.655E+03   0.197E+04 -.102E+04 -.653E+03   0.581E+01 -.304E+01 -.200E+01   0.560E-01 0.481E-01 0.392E-01
   -.508E+02 0.229E+04 0.346E+02   0.511E+02 -.228E+04 -.350E+02   -.204E+00 -.685E+01 0.291E+00   -.497E-01 0.147E-01 0.258E-01
   0.616E+03 0.180E+03 -.109E+04   -.617E+03 -.180E+03 0.110E+04   0.300E+00 0.917E+00 -.297E+01   -.935E-02 -.449E-02 -.126E-01
 -----------------------------------------------------------------------------------------------
   -.709E+00 -.296E+01 0.410E+01   -.125E-11 -.463E-11 0.682E-12   0.589E+00 0.249E+01 -.462E+01   0.131E+00 0.466E+00 0.520E+00
 
 
 POSITION                                       TOTAL-FORCE (eV/Angst)
 -----------------------------------------------------------------------------------
      7.01391     11.89824      8.22385         0.005157     -0.022417      0.043487
      9.01808     13.26117      7.55244        -0.014083      0.004078      0.007697
      8.25362     13.23733      9.95167         0.002112     -0.015796      0.014279
     10.26085     14.45043      9.28048        -0.002793     -0.001469     -0.007136
     10.29259     12.15681      9.26707        -0.004505     -0.002883     -0.005480
     11.54252     13.29755      7.55925        -0.003673      0.000242     -0.003632
     12.31511     13.29944      9.94630         0.006653      0.003897     -0.008050
      6.35899     11.82575     10.57480         0.028021     -0.047388      0.067949
      7.03481      9.75912     11.80703         0.043229     -0.033822      0.247551
      8.31247     10.82668      9.95084        -0.001590     -0.027759      0.040734
      8.28368     11.94953     12.08146         0.036947      0.012502      0.023876
     10.28809     13.28213     11.40529         0.017225      0.011234     -0.007211
     10.30949     10.87244     11.38197         0.004603      0.009959      0.002523
     12.30652     10.88790      9.91743         0.002500      0.009886     -0.014560
     12.34118     11.97717     12.06687         0.014229      0.002501     -0.015596
      7.86042     11.86615      5.92964        -0.009700     -0.004280      0.018413
      7.03919      9.78358      6.89163        -0.003799      0.000962      0.018141
      9.06851      9.80907      5.41445        -0.002075     -0.001319      0.005300
      9.08200     10.84959      7.58737         0.003118      0.002988      0.006971
     10.30048     11.96295      5.83089        -0.006950      0.003704      0.011135
     10.33706      8.77439      7.18500         0.001745      0.001776     -0.002444
     11.58295      9.84314      5.41609        -0.001471      0.001070     -0.002118
     11.54726     10.88226      7.58609         0.001486     -0.006731     -0.002259
      6.26319      9.74932      9.31892         0.018564     -0.025137      0.071924
      7.07445      7.61847     10.31271         0.031883     -0.021468      0.008809
      8.34524      8.74704      8.62692         0.008370     -0.000499     -0.014408
      9.09492      8.73667     10.98107         0.000931     -0.018675      0.002948
     10.32025      9.82041      9.28743        -0.001987      0.001145     -0.000027
     10.34750      7.47457      9.28461        -0.001552     -0.001325      0.000650
     12.32199      8.79003      8.63218        -0.006179     -0.007544      0.001193
     11.56585      8.79066     10.97948         0.006759      0.021660     -0.003758
     13.58703     12.00323      8.22072         0.001866      0.005866     -0.006427
     14.24638     11.93186     10.56552         0.011018      0.001767     -0.013932
     13.60200      9.85882     11.67454         0.005162      0.007054     -0.005578
     12.74003     11.92644      5.93557        -0.000190     -0.001655      0.000392
     13.61504      9.86287      6.89467         0.000172     -0.001744      0.000446
     14.38469      9.85725      9.28430        -0.004413     -0.004984     -0.002033
     13.62528      7.71121     10.34211        -0.004335     -0.003054     -0.003466
      9.13359      9.89081     13.23903         0.083308     -0.005017      0.021611
     10.34497     11.94234     13.42413         0.040046      0.013388     -0.002298
     11.58921      9.83669     13.15205         0.010241      0.000817      0.014777
      7.87884      7.53582     12.56427         0.057841     -0.115340     -0.010675
      9.13046      6.30598     10.96109         0.033264     -0.040843     -0.026497
     10.35642      7.65637     12.72016         0.027665     -0.020233     -0.061261
     11.61285      6.36677     11.00381         0.006932      0.000544     -0.019958
     12.79084      7.76606     12.62895        -0.002458      0.011607     -0.005561
      8.32626      7.65301      6.47977         0.003301     -0.002791     -0.001202
     10.35306      7.75875      5.12625        -0.000925     -0.000536     -0.008882
     12.38419      7.71117      6.48094         0.001076     -0.000089     -0.000513
      6.40615      7.70283      7.97521         0.005220      0.001296      0.015596
      8.33457      6.32259      8.59615         0.009338     -0.006244     -0.011650
     10.36474      6.37057      7.12901         0.015110      0.003647     -0.010607
     12.40279      6.38844      8.60768         0.008540     -0.003521     -0.007103
     14.29589      7.79380      7.99811         0.002568     -0.001696     -0.000887
     10.40416      5.17062      9.23566         0.020803     -0.012833     -0.032638
      7.61486      8.82141     14.15063        -0.504326      0.325502     -0.328560
 -----------------------------------------------------------------------------------
    total drift:                                0.010610      0.001948     -0.000650


--------------------------------------------------------------------------------------------------------



  FREE ENERGIE OF THE ION-ELECTRON SYSTEM (eV)
  ---------------------------------------------------
  free  energy   TOTEN  =      -257.67314632 eV

  energy  without entropy=     -257.14250973  energy(sigma->0) =     -257.40782802
 
 d Force = 0.5169870E-02[ 0.512E-02, 0.522E-02]  d Energy = 0.5167888E-02 0.198E-05
 d Force =-0.8279303E+01[-0.826E+01,-0.830E+01]  d Ewald  =-0.8279300E+01-0.353E-05


--------------------------------------------------------------------------------------------------------


    POTLOK:  cpu time    0.3623: real time    0.3649


--------------------------------------------------------------------------------------------------------


 NEB: the previous image is higher in energy: T
 NEB: the next image is higher in energy    : F
 NEB: only prev energy greater

 NEB: Tangent
 ----------------------------------------------
      0.00448     -0.00473      0.01469
     -0.00013      0.00489     -0.00130
     -0.00719     -0.00968     -0.00540
     -0.00133     -0.00762      0.00658
     -0.01001     -0.00542      0.00577
     -0.00535     -0.00332     -0.00207
      0.00425     -0.00148     -0.00232
      0.00548     -0.02693      0.02307
      0.00624     -0.01672      0.24450
     -0.01828     -0.02560      0.02381
      0.01664      0.00902     -0.00266
      0.00411      0.00026      0.00682
     -0.00143      0.00754     -0.00420
     -0.00199      0.00669      0.00247
      0.00201     -0.01075      0.00074
     -0.00044     -0.00246      0.00318
      0.00000     -0.00086      0.01163
      0.00318     -0.00043      0.00164
      0.00578      0.00774      0.00097
     -0.00050      0.00205      0.00204
     -0.00102     -0.00129      0.00048
     -0.00169      0.00174     -0.00046
      0.00321     -0.00287      0.00331
      0.00347     -0.01126      0.04686
      0.03490     -0.00338      0.02482
      0.00437      0.00304     -0.01517
      0.00584     -0.00343      0.00039
     -0.00402      0.00089     -0.00111
     -0.00513     -0.00196      0.00968
     -0.00153     -0.00504      0.00271
      0.01529      0.00817     -0.00734
     -0.00127      0.00203      0.00111
      0.00320      0.00510      0.00268
      0.01394     -0.00332     -0.00628
      0.00295     -0.00287     -0.00046
      0.00173      0.00053     -0.00469
     -0.00507      0.00369     -0.00509
      0.01156     -0.00563     -0.01136
      0.07629     -0.02216     -0.00228
      0.02041     -0.01206      0.00516
      0.00674     -0.02679      0.00862
      0.08724     -0.05918      0.01705
      0.03911     -0.03133     -0.00501
      0.06142     -0.05159     -0.08913
      0.02893     -0.01410     -0.02890
      0.02574     -0.00882     -0.01039
     -0.00139     -0.00584      0.00633
     -0.00528     -0.00033     -0.00388
      0.00025      0.00639     -0.00107
      0.00249     -0.00175      0.02885
      0.00568     -0.00235      0.01015
      0.01347      0.00287     -0.00386
      0.00686     -0.00005     -0.01020
      0.00705      0.00401     -0.00725
      0.01499     -0.01038     -0.02306
     -0.69662      0.49912     -0.39230

 NEB: forces: par spring, perp REAL, dneb     0.062120    0.192107    0.000000
 NEB: distance to prev, next image, angle between     0.445686    0.458110  164.220746
 NEB: projections on to tangent (spring, REAL)     0.062120    0.749307

 stress matrix after NEB project (eV)
     -2.05841      0.22163     -1.14853
      0.22163     -2.75968      1.08790
     -1.14853      1.08790     -4.05097
  FORCES: max atom, RMS     0.091326    0.026980
  FORCE total and by dimension    0.201901    0.079533
  Stress total and by dimension    5.776398    4.050966
 OPT: skip step - force has converged


--------------------------------------------------------------------------------------------------------


  
 reached required accuracy - stopping structural energy minimisation
     LOOP+:  cpu time 1165.2751: real time 1172.1587
    4ORBIT:  cpu time    0.0000: real time    0.0000

 total amount of memory used by VASP MPI-rank0   308125. kBytes
=======================================================================

   base      :      30000. kBytes
   nonl-proj :     171888. kBytes
   fftplans  :      15318. kBytes
   grid      :      57304. kBytes
   one-center:        870. kBytes
   wavefun   :      32745. kBytes
 
  
  
 General timing and accounting informations for this job:
 ========================================================
  
                  Total CPU time used (sec):    26188.451
                            User time (sec):    26112.921
                          System time (sec):       75.530
                         Elapsed time (sec):    26364.343
  
                   Maximum memory used (kb):      690824.
                   Average memory used (kb):           0.
  
                          Minor page faults:      5354952
                          Major page faults:            2
                 Voluntary context switches:        19618
