neb_test                                
           1
    20.000000    0.000000    0.000000
     0.000000   20.000000    0.000000
     0.000000    0.000000   20.000000
   Ni   S 
  55   1
Direct configuration=     1
   0.35030739  0.59582455  0.41039131
   0.45162435  0.66330942  0.37713693
   0.41216057  0.66242489  0.49696170
   0.51311793  0.72319727  0.46432280
   0.51476211  0.60843178  0.46418505
   0.57717694  0.66501465  0.37767765
   0.61602941  0.66529735  0.49693709
   0.31637559  0.59297582  0.52725161
   0.34829951  0.48962611  0.58475281
   0.41492937  0.54198511  0.49689214
   0.41322378  0.59701326  0.60381537
   0.51392590  0.66343104  0.57113524
   0.51489489  0.54287137  0.57013097
   0.61550823  0.54472160  0.49690168
   0.61636893  0.59868893  0.60434142
   0.39270557  0.59368560  0.29554595
   0.35167441  0.48890969  0.34396292
   0.45366625  0.49065916  0.27037509
   0.45363027  0.54286137  0.37893488
   0.51515933  0.59807366  0.29089977
   0.51683867  0.43836312  0.35877955
   0.57927512  0.49223395  0.27053125
   0.57752573  0.54447758  0.37913911
   0.31261464  0.48793804  0.46421320
   0.35333717  0.38105171  0.51690196
   0.41655775  0.43685611  0.43136545
   0.45475264  0.43748676  0.54965237
   0.51596131  0.49077070  0.46442359
   0.51722268  0.37292572  0.46431683
   0.61685440  0.43941737  0.43151772
   0.57874226  0.43854634  0.54932171
   0.67964664  0.60003025  0.41096682
   0.71264613  0.59697133  0.52893743
   0.68083912  0.49233141  0.58372770
   0.63746097  0.59664012  0.29599150
   0.68096648  0.49324106  0.34447909
   0.71954003  0.49329110  0.46412043
   0.68213734  0.38553414  0.51736919
   0.45445084  0.49331323  0.66183196
   0.51568432  0.59569758  0.67252741
   0.57903541  0.49131281  0.65754723
   0.39421317  0.38133344  0.63088576
   0.45518326  0.31622969  0.54993529
   0.51818923  0.38204417  0.63768676
   0.58093841  0.31802645  0.55032075
   0.64021317  0.38766625  0.63207598
   0.41579782  0.38280799  0.32339985
   0.51745474  0.38738419  0.25550877
   0.61950401  0.38602392  0.32351480
   0.31957315  0.38457646  0.39876671
   0.41655871  0.31636917  0.43072282
   0.51844657  0.31821847  0.35642772
   0.62003762  0.31923779  0.43021436
   0.71554412  0.38935865  0.39970968
   0.51976437  0.25801083  0.46250408
   0.38341456  0.44273767  0.70448698
Direct configuration=     2
   0.35037888  0.59575025  0.41036327
   0.45154408  0.66322809  0.37719494
   0.41225898  0.66237727  0.49701193
   0.51310753  0.72306460  0.46432750
   0.51472913  0.60818161  0.46412609
   0.57716449  0.66495701  0.37773083
   0.61598530  0.66523523  0.49700390
   0.31656011  0.59284801  0.52727217
   0.34876109  0.48935229  0.58537494
   0.41513543  0.54192902  0.49685013
   0.41323460  0.59701783  0.60375388
   0.51393787  0.66344305  0.57103900
   0.51495374  0.54294097  0.56980847
   0.61534193  0.54459820  0.49678955
   0.61640205  0.59864131  0.60420158
   0.39278300  0.59363049  0.29568802
   0.35175357  0.48897082  0.34402580
   0.45364986  0.49063473  0.27042612
   0.45374731  0.54275000  0.37911351
   0.51516380  0.59808315  0.29097763
   0.51680866  0.43842994  0.35897556
   0.57925104  0.49221838  0.27057232
   0.57744820  0.54442246  0.37926702
   0.31259576  0.48792642  0.46432234
   0.35335886  0.38113281  0.51671036
   0.41676260  0.43700166  0.43145549
   0.45485556  0.43740060  0.54942600
   0.51603597  0.49084433  0.46434443
   0.51721599  0.37319415  0.46437250
   0.61664142  0.43948195  0.43161094
   0.57859325  0.43866424  0.54919347
   0.67955911  0.60001672  0.41099919
   0.71253328  0.59692017  0.52888726
   0.68070347  0.49243686  0.58372811
   0.63736688  0.59657481  0.29614224
   0.68093818  0.49323897  0.34450956
   0.71947575  0.49323239  0.46410429
   0.68201603  0.38552872  0.51728790
   0.45711837  0.49542042  0.66035750
   0.51578359  0.59577621  0.67237990
   0.57907403  0.49128862  0.65757905
   0.39441472  0.37860141  0.62781249
   0.45546077  0.31620165  0.54968814
   0.51828358  0.38210128  0.63739839
   0.58085755  0.31806555  0.55035415
   0.64014504  0.38772040  0.63198621
   0.41589956  0.38277629  0.32354576
   0.51748874  0.38749664  0.25567430
   0.61943552  0.38596033  0.32361270
   0.31969901  0.38463696  0.39878724
   0.41654664  0.31633007  0.43065204
   0.51837122  0.31828325  0.35643799
   0.62006034  0.31930125  0.43025565
   0.71541279  0.38943625  0.39975519
   0.51976150  0.25814022  0.46248167
   0.38099879  0.44276256  0.70928275
Direct configuration=     3
   0.35039699  0.59572631  0.41036464
   0.45152323  0.66321063  0.37721584
   0.41228258  0.66236054  0.49702580
   0.51310624  0.72302005  0.46432619
   0.51471983  0.60814893  0.46410329
   0.57716186  0.66494377  0.37774360
   0.61596941  0.66521748  0.49702699
   0.31661144  0.59280684  0.52728224
   0.34889966  0.48926517  0.58558893
   0.41516555  0.54191851  0.49685740
   0.41323997  0.59704831  0.60372617
   0.51395086  0.66345593  0.57100631
   0.51501017  0.54299952  0.56966967
   0.61532775  0.54457698  0.49676247
   0.61642241  0.59863950  0.60415954
   0.39280798  0.59361267  0.29572606
   0.35177619  0.48898251  0.34404619
   0.45364166  0.49062781  0.27044011
   0.45377126  0.54273091  0.37913171
   0.51516384  0.59808242  0.29100034
   0.51680664  0.43844263  0.35900064
   0.57924377  0.49221274  0.27058722
   0.57743831  0.54441106  0.37928333
   0.31260238  0.48792351  0.46436021
   0.35335053  0.38113908  0.51660278
   0.41679242  0.43703339  0.43145682
   0.45487994  0.43740085  0.54936234
   0.51603940  0.49085208  0.46434070
   0.51722412  0.37323462  0.46437310
   0.61660834  0.43949002  0.43161816
   0.57857258  0.43869791  0.54917605
   0.67953951  0.60001442  0.41100623
   0.71250008  0.59690102  0.52886854
   0.68066644  0.49246044  0.58372913
   0.63734231  0.59655666  0.29618339
   0.68092607  0.49323576  0.34451792
   0.71945797  0.49321887  0.46410791
   0.68198467  0.38552777  0.51727082
   0.45685951  0.49521631  0.66053750
   0.51586563  0.59588400  0.67234808
   0.57912837  0.49128702  0.65757952
   0.39431270  0.37871801  0.62804595
   0.45556234  0.31613210  0.54957507
   0.51828570  0.38212982  0.63731808
   0.58084636  0.31807353  0.55035418
   0.64012837  0.38773600  0.63196051
   0.41592333  0.38276759  0.32358199
   0.51749712  0.38752745  0.25571970
   0.61942247  0.38594547  0.32363644
   0.31973680  0.38465984  0.39879931
   0.41655049  0.31631988  0.43062357
   0.51835390  0.31830143  0.35644637
   0.62005974  0.31931941  0.43026714
   0.71537414  0.38945949  0.39976400
   0.51976621  0.25817815  0.46247218
   0.38112653  0.44269122  0.70904588
Direct configuration=     4
   0.35043445  0.59567415  0.41037216
   0.45147895  0.66317447  0.37725909
   0.41233161  0.66232446  0.49705615
   0.51310380  0.72292777  0.46432163
   0.51470189  0.60808606  0.46404759
   0.57715564  0.66491701  0.37777217
   0.61593594  0.66517918  0.49707397
   0.31672360  0.59271235  0.52730985
   0.34919362  0.48908834  0.58603649
   0.41522097  0.54189358  0.49687597
   0.41326283  0.59710474  0.60367467
   0.51397808  0.66348602  0.57093920
   0.51511287  0.54311644  0.56943721
   0.61530338  0.54453315  0.49670030
   0.61646440  0.59863618  0.60407459
   0.39286031  0.59357513  0.29580595
   0.35182263  0.48900698  0.34409025
   0.45362502  0.49061286  0.27047015
   0.45382097  0.54269181  0.37916754
   0.51516255  0.59808095  0.29104950
   0.51680336  0.43846943  0.35905239
   0.57922868  0.49220132  0.27061909
   0.57741933  0.54438635  0.37931423
   0.31262060  0.48791659  0.46444650
   0.35334432  0.38115285  0.51639729
   0.41685397  0.43709809  0.43145890
   0.45491488  0.43738542  0.54925188
   0.51604863  0.49086783  0.46432351
   0.51724126  0.37331875  0.46437236
   0.61654013  0.43950571  0.43163158
   0.57853196  0.43876851  0.54914176
   0.67949849  0.60001020  0.41102185
   0.71243292  0.59686100  0.52882756
   0.68058900  0.49250976  0.58373025
   0.63729087  0.59651805  0.29626966
   0.68090050  0.49322858  0.34453658
   0.71942128  0.49318965  0.46411505
   0.68191698  0.38552656  0.51723543
   0.45643958  0.49488065  0.66084123
   0.51602745  0.59607878  0.67225851
   0.57922185  0.49129231  0.65757645
   0.39413692  0.37888536  0.62842133
   0.45575723  0.31600588  0.54935729
   0.51828204  0.38219111  0.63714536
   0.58082442  0.31809081  0.55035316
   0.64009216  0.38777075  0.63190370
   0.41597355  0.38274949  0.32365789
   0.51751501  0.38759197  0.25581458
   0.61939452  0.38591325  0.32368725
   0.31981546  0.38470864  0.39882089
   0.41655887  0.31629857  0.43056120
   0.51831867  0.31833919  0.35646397
   0.62005874  0.31935676  0.43029066
   0.71529319  0.38950805  0.39978229
   0.51977973  0.25825532  0.46244666
   0.38129034  0.44255089  0.70866764
Direct configuration=     5
   0.35049316  0.59558192  0.41040258
   0.45140616  0.66311782  0.37732728
   0.41240759  0.66226353  0.49711066
   0.51310006  0.72278465  0.46430812
   0.51467725  0.60800279  0.46393392
   0.57714400  0.66487880  0.37782225
   0.61588135  0.66511400  0.49714444
   0.31691913  0.59253236  0.52738036
   0.34967533  0.48882853  0.58674644
   0.41529016  0.54184193  0.49691803
   0.41333536  0.59717477  0.60361654
   0.51402163  0.66354709  0.57083338
   0.51523173  0.54328433  0.56923314
   0.61528010  0.54446494  0.49658199
   0.61653296  0.59863422  0.60394814
   0.39294418  0.59351346  0.29593602
   0.35189177  0.48904587  0.34416506
   0.45360010  0.49058730  0.27052170
   0.45389742  0.54263270  0.37921592
   0.51515615  0.59808045  0.29113170
   0.51680110  0.43851424  0.35912932
   0.57920482  0.49218527  0.27067176
   0.57739604  0.54434600  0.37934915
   0.31266381  0.48790140  0.46460861
   0.35336739  0.38117624  0.51613079
   0.41694730  0.43719455  0.43145877
   0.45492162  0.43731344  0.54914211
   0.51606481  0.49089642  0.46427709
   0.51726818  0.37344736  0.46436341
   0.61643728  0.43952676  0.43164640
   0.57847590  0.43888337  0.54909596
   0.67943465  0.60000810  0.41104826
   0.71233696  0.59679875  0.52875655
   0.68046701  0.49258769  0.58373209
   0.63720864  0.59645476  0.29640805
   0.68085949  0.49321641  0.34456868
   0.71936054  0.49314044  0.46412630
   0.68180090  0.38552617  0.51718369
   0.45614784  0.49462787  0.66110568
   0.51625822  0.59630489  0.67204856
   0.57931338  0.49132822  0.65755903
   0.39396653  0.37889328  0.62866297
   0.45601288  0.31586260  0.54906426
   0.51824895  0.38229514  0.63686182
   0.58079624  0.31811955  0.55034813
   0.64003203  0.38783211  0.63180643
   0.41605436  0.38272110  0.32377748
   0.51754448  0.38769377  0.25596389
   0.61934591  0.38585824  0.32377293
   0.31993998  0.38479137  0.39884139
   0.41657560  0.31626622  0.43045123
   0.51826556  0.31839586  0.35649197
   0.62005762  0.31941023  0.43032717
   0.71516166  0.38958557  0.39981133
   0.51981390  0.25836680  0.46238589
   0.38127856  0.44231891  0.70845944
Direct configuration=     6
   0.35055591  0.59545944  0.41047519
   0.45131412  0.66306500  0.37740189
   0.41248904  0.66218812  0.49718598
   0.51309572  0.72264294  0.46427906
   0.51465716  0.60792966  0.46377199
   0.57712998  0.66484866  0.37788459
   0.61581967  0.66504005  0.49722179
   0.31716278  0.59228081  0.52752082
   0.35022302  0.48857954  0.58753164
   0.41535951  0.54175402  0.49699046
   0.41347207  0.59723775  0.60360129
   0.51407782  0.66365386  0.57070774
   0.51531274  0.54342428  0.56916863
   0.61527421  0.54439427  0.49641768
   0.61662942  0.59865112  0.60381535
   0.39303153  0.59344517  0.29607890
   0.35195582  0.48908717  0.34425537
   0.45356856  0.49055426  0.27058003
   0.45397702  0.54257553  0.37925337
   0.51513949  0.59808207  0.29123175
   0.51680685  0.43856573  0.35919288
   0.57917994  0.49216982  0.27073191
   0.57738122  0.54429603  0.37936319
   0.31273988  0.48786846  0.46483413
   0.35343327  0.38119353  0.51591646
   0.41704226  0.43728756  0.43145330
   0.45487686  0.43719342  0.54909226
   0.51606871  0.49094044  0.46425894
   0.51730062  0.37357345  0.46434094
   0.61633418  0.43954340  0.43164880
   0.57841744  0.43902640  0.54905137
   0.67937166  0.60001669  0.41107890
   0.71224970  0.59672920  0.52866452
   0.68033573  0.49267393  0.58373476
   0.63712263  0.59638781  0.29655567
   0.68081396  0.49319844  0.34461031
   0.71929888  0.49307948  0.46414285
   0.68165849  0.38553034  0.51713504
   0.45619208  0.49460462  0.66121702
   0.51649310  0.59648284  0.67174967
   0.57935024  0.49141175  0.65752746
   0.39390788  0.37858705  0.62856777
   0.45621194  0.31576379  0.54880208
   0.51815605  0.38243033  0.63655313
   0.58077467  0.31815546  0.55033338
   0.63995095  0.38791597  0.63168521
   0.41614223  0.38269168  0.32390036
   0.51757808  0.38780228  0.25612530
   0.61929071  0.38578670  0.32387249
   0.32007178  0.38489304  0.39883781
   0.41660196  0.31623334  0.43030857
   0.51821423  0.31845091  0.35652173
   0.62005755  0.31945676  0.43036401
   0.71502144  0.38966329  0.39983985
   0.51987652  0.25847261  0.46228409
   0.38107251  0.44200755  0.70859556
Direct configuration=     7
   0.35061083  0.59531161  0.41061522
   0.45119839  0.66303974  0.37747700
   0.41255655  0.66209965  0.49728173
   0.51308739  0.72254201  0.46423021
   0.51464228  0.60786683  0.46360691
   0.57712157  0.66484214  0.37793904
   0.61576338  0.66497555  0.49729885
   0.31742479  0.59197060  0.52777693
   0.35077444  0.48835613  0.58845224
   0.41544375  0.54162122  0.49711047
   0.41365872  0.59731582  0.60365541
   0.51415512  0.66381209  0.57056025
   0.51536983  0.54350122  0.56908275
   0.61527307  0.54434652  0.49623080
   0.61676575  0.59869867  0.60367289
   0.39309282  0.59338487  0.29620925
   0.35199590  0.48912274  0.34435729
   0.45352927  0.49051519  0.27063001
   0.45405201  0.54252829  0.37927759
   0.51511428  0.59809212  0.29133637
   0.51682123  0.43862731  0.35923959
   0.57916061  0.49215905  0.27078240
   0.57737150  0.54422932  0.37935980
   0.31285066  0.48779408  0.46513484
   0.35352383  0.38117264  0.51576808
   0.41712661  0.43735459  0.43143428
   0.45483916  0.43709907  0.54903783
   0.51603945  0.49098673  0.46432701
   0.51733068  0.37366711  0.46431069
   0.61623654  0.43955249  0.43163811
   0.57836204  0.43919533  0.54900670
   0.67933085  0.60004730  0.41110000
   0.71220375  0.59666574  0.52855719
   0.68022312  0.49275711  0.58374200
   0.63705865  0.59633918  0.29667601
   0.68077792  0.49317658  0.34465052
   0.71925526  0.49301223  0.46416809
   0.68151216  0.38553651  0.51710385
   0.45615843  0.49448788  0.66145561
   0.51673638  0.59668536  0.67149042
   0.57938024  0.49151872  0.65751216
   0.39388249  0.37820373  0.62853844
   0.45635126  0.31565329  0.54855260
   0.51805351  0.38255930  0.63627014
   0.58076483  0.31819536  0.55029187
   0.63985272  0.38801845  0.63156038
   0.41621838  0.38266378  0.32399267
   0.51760769  0.38788461  0.25624994
   0.61924221  0.38570092  0.32396404
   0.32018728  0.38500276  0.39881729
   0.41663992  0.31620385  0.43015032
   0.51818580  0.31848758  0.35653750
   0.62006317  0.31947529  0.43039063
   0.71490328  0.38971773  0.39986095
   0.51997015  0.25854869  0.46214274
   0.38106513  0.44166001  0.70840806
Direct configuration=     8
   0.35065223  0.59515872  0.41081651
   0.45108217  0.66304881  0.37753060
   0.41260098  0.66200224  0.49738498
   0.51307165  0.72251511  0.46416213
   0.51462804  0.60785536  0.46348940
   0.57712022  0.66485293  0.37796364
   0.61573652  0.66494582  0.49733651
   0.31764595  0.59167285  0.52812890
   0.35119836  0.48821843  0.58927813
   0.41548086  0.54150229  0.49726998
   0.41387337  0.59737638  0.60379528
   0.51423811  0.66394263  0.57043730
   0.51539007  0.54356531  0.56915673
   0.61529287  0.54435315  0.49608013
   0.61687666  0.59875010  0.60355154
   0.39309366  0.59334905  0.29630379
   0.35199399  0.48915175  0.34444944
   0.45349171  0.49048223  0.27066328
   0.45409487  0.54250035  0.37930917
   0.51508702  0.59811690  0.29141902
   0.51683236  0.43868530  0.35928298
   0.57915299  0.49215747  0.27080218
   0.57736150  0.54416445  0.37935353
   0.31296720  0.48767669  0.46546037
   0.35361878  0.38111291  0.51573818
   0.41718965  0.43736667  0.43139831
   0.45477225  0.43698719  0.54906357
   0.51603689  0.49099593  0.46428846
   0.51734959  0.37370820  0.46428351
   0.61615732  0.43954543  0.43162752
   0.57834667  0.43932368  0.54899402
   0.67932626  0.60009468  0.41109228
   0.71222165  0.59662503  0.52845435
   0.68016312  0.49282668  0.58374129
   0.63703293  0.59632475  0.29673525
   0.68076459  0.49316183  0.34468330
   0.71924280  0.49295116  0.46418913
   0.68140587  0.38554619  0.51708842
   0.45654824  0.49465857  0.66150854
   0.51691666  0.59680983  0.67130268
   0.57937346  0.49163483  0.65752308
   0.39395476  0.37755639  0.62826081
   0.45641505  0.31554675  0.54836783
   0.51797670  0.38264599  0.63609682
   0.58075039  0.31823525  0.55023362
   0.63975152  0.38811990  0.63147311
   0.41626745  0.38265132  0.32401984
   0.51762420  0.38791321  0.25629920
   0.61921353  0.38563051  0.32401846
   0.32024853  0.38507926  0.39879423
   0.41667386  0.31617942  0.43002127
   0.51819387  0.31850384  0.35651929
   0.62008926  0.31945868  0.43039256
   0.71484726  0.38972154  0.39987347
   0.52006875  0.25855700  0.46199682
   0.38088120  0.44131907  0.70839346
Direct configuration=     9
   0.35066270  0.59510090  0.41090235
   0.45104043  0.66305354  0.37755049
   0.41261361  0.66196795  0.49742720
   0.51306267  0.72251819  0.46413574
   0.51461832  0.60784001  0.46346926
   0.57712042  0.66485607  0.37796323
   0.61573858  0.66495192  0.49733819
   0.31770351  0.59158088  0.52828191
   0.35133433  0.48815265  0.58960004
   0.41553136  0.54144252  0.49733636
   0.41393317  0.59741755  0.60385573
   0.51427577  0.66398766  0.57039565
   0.51542729  0.54356583  0.56903783
   0.61528925  0.54435996  0.49603855
   0.61692486  0.59877383  0.60350438
   0.39308129  0.59333816  0.29634385
   0.35198865  0.48916003  0.34448562
   0.45347809  0.49047388  0.27067621
   0.45408866  0.54250796  0.37931168
   0.51507595  0.59812356  0.29144755
   0.51683519  0.43867761  0.35924499
   0.57914942  0.49215568  0.27080547
   0.57737613  0.54416446  0.37933006
   0.31300745  0.48762193  0.46558448
   0.35363563  0.38107234  0.51570673
   0.41720102  0.43736201  0.43138357
   0.45479046  0.43698254  0.54903018
   0.51600956  0.49101690  0.46438811
   0.51735680  0.37370409  0.46427842
   0.61616128  0.43952653  0.43162061
   0.57832411  0.43938351  0.54897509
   0.67933202  0.60011137  0.41108042
   0.71224380  0.59661917  0.52841986
   0.68015427  0.49285124  0.58373848
   0.63702446  0.59632237  0.29675178
   0.68076008  0.49315724  0.34469458
   0.71924076  0.49293213  0.46419487
   0.68138167  0.38554848  0.51708317
   0.45636666  0.49445056  0.66174408
   0.51700979  0.59692577  0.67131689
   0.57942542  0.49166160  0.65754429
   0.39393175  0.37748486  0.62843118
   0.45646349  0.31546484  0.54827554
   0.51795920  0.38266445  0.63606588
   0.58074072  0.31824856  0.55021056
   0.63972070  0.38815130  0.63146304
   0.41627908  0.38265006  0.32401538
   0.51762760  0.38791916  0.25630906
   0.61921076  0.38561499  0.32402493
   0.32026289  0.38509619  0.39880091
   0.41668646  0.31616890  0.42998002
   0.51820485  0.31851135  0.35650360
   0.62010221  0.31945104  0.43038563
   0.71483269  0.38971715  0.39987876
   0.52010165  0.25855313  0.46194882
   0.38104069  0.44128782  0.70791606
Direct configuration=    10
   0.35066486  0.59508768  0.41092314
   0.45103199  0.66305398  0.37755495
   0.41261697  0.66195998  0.49743748
   0.51306081  0.72251788  0.46412902
   0.51461753  0.60784235  0.46346046
   0.57711979  0.66485732  0.37796423
   0.61573884  0.66495228  0.49733659
   0.31772038  0.59155892  0.52831381
   0.35136155  0.48814140  0.58965102
   0.41553107  0.54143522  0.49735200
   0.41395206  0.59741944  0.60387098
   0.51428324  0.66399472  0.57038856
   0.51542880  0.54357400  0.56905960
   0.61529339  0.54436254  0.49602726
   0.61693210  0.59877805  0.60349566
   0.39307739  0.59333624  0.29635248
   0.35198638  0.48916143  0.34449309
   0.45347474  0.49047273  0.27067904
   0.45409145  0.54250492  0.37931820
   0.51507267  0.59812531  0.29145344
   0.51683603  0.43868353  0.35925173
   0.57914937  0.49215592  0.27080490
   0.57737280  0.54415877  0.37933244
   0.31301735  0.48761144  0.46561102
   0.35364294  0.38106466  0.51570720
   0.41720694  0.43736171  0.43138137
   0.45478289  0.43696725  0.54903826
   0.51601304  0.49101378  0.46437095
   0.51735862  0.37370776  0.46427500
   0.61615361  0.43952650  0.43162077
   0.57832481  0.43939020  0.54897767
   0.67933323  0.60011487  0.41107845
   0.71224825  0.59661752  0.52841110
   0.68015147  0.49285650  0.58373684
   0.63702363  0.59632271  0.29675300
   0.68076010  0.49315641  0.34469684
   0.71923998  0.49292829  0.46419561
   0.68137526  0.38554930  0.51708357
   0.45643133  0.49448701  0.66173342
   0.51702337  0.59693110  0.67130315
   0.57942494  0.49167273  0.65754587
   0.39394178  0.37741326  0.62838473
   0.45646774  0.31545629  0.54826346
   0.51795221  0.38267149  0.63606064
   0.58073728  0.31825348  0.55020779
   0.63971156  0.38815979  0.63145904
   0.41628051  0.38264980  0.32401418
   0.51762883  0.38791935  0.25630792
   0.61921061  0.38561162  0.32402607
   0.32026558  0.38509917  0.39879961
   0.41668879  0.31616634  0.42997007
   0.51820669  0.31851194  0.35650039
   0.62010529  0.31944847  0.43038430
   0.71483097  0.38971537  0.39987958
   0.52010925  0.25855019  0.46193692
   0.38100947  0.44125974  0.70794148
Direct configuration=    11
   0.35066952  0.59506138  0.41096339
   0.45101377  0.66305459  0.37756456
   0.41262451  0.66194491  0.49745858
   0.51305759  0.72251562  0.46411481
   0.51461726  0.60784351  0.46344230
   0.57711952  0.66485922  0.37796643
   0.61573903  0.66495273  0.49733535
   0.31775390  0.59151673  0.52837581
   0.35141991  0.48811651  0.58975375
   0.41553786  0.54141974  0.49738134
   0.41398817  0.59742616  0.60389982
   0.51429919  0.66401134  0.57037149
   0.51543357  0.54358609  0.56908270
   0.61529965  0.54436651  0.49600297
   0.61694987  0.59878833  0.60347540
   0.39307159  0.59333124  0.29637168
   0.35198278  0.48916438  0.34450769
   0.45346759  0.49046938  0.27068597
   0.45409619  0.54249978  0.37932835
   0.51506635  0.59812836  0.29146675
   0.51683851  0.43869279  0.35925886
   0.57914917  0.49215601  0.27080526
   0.57736825  0.54414924  0.37933364
   0.31303705  0.48759142  0.46566186
   0.35365700  0.38104814  0.51570200
   0.41721760  0.43736146  0.43137672
   0.45477220  0.43694213  0.54904658
   0.51601639  0.49101245  0.46435484
   0.51736199  0.37371392  0.46426852
   0.61614145  0.43952524  0.43161942
   0.57832260  0.43940763  0.54897908
   0.67933499  0.60012171  0.41107431
   0.71225644  0.59661332  0.52839238
   0.68014452  0.49286824  0.58373455
   0.63702062  0.59632257  0.29675747
   0.68075924  0.49315460  0.34470195
   0.71923855  0.49291944  0.46419777
   0.68136018  0.38555120  0.51708414
   0.45651192  0.49452470  0.66174010
   0.51705425  0.59695075  0.67127996
   0.57942694  0.49169580  0.65755005
   0.39395238  0.37729743  0.62832850
   0.45647722  0.31543659  0.54823498
   0.51793502  0.38269047  0.63604787
   0.58072795  0.31826410  0.55020262
   0.63969030  0.38817849  0.63145219
   0.41628493  0.38264897  0.32401250
   0.51763197  0.38792206  0.25630953
   0.61920988  0.38560367  0.32402950
   0.32027225  0.38510656  0.39879541
   0.41669483  0.31616164  0.42994808
   0.51820979  0.31851398  0.35649455
   0.62011059  0.31944433  0.43038283
   0.71482542  0.38971295  0.39988188
   0.52012473  0.25854514  0.46191341
   0.38095572  0.44121691  0.70793963
Direct configuration=    12
   0.35067756  0.59502223  0.41102080
   0.45098551  0.66305563  0.37757861
   0.41263832  0.66192338  0.49749007
   0.51305325  0.72251450  0.46409263
   0.51461856  0.60784207  0.46341699
   0.57712043  0.66486269  0.37796820
   0.61574011  0.66495448  0.49733414
   0.31780444  0.59145588  0.52846704
   0.35150706  0.48807636  0.58990835
   0.41555702  0.54139629  0.49742225
   0.41403973  0.59743915  0.60394272
   0.51432491  0.66403800  0.57034401
   0.51544359  0.54359726  0.56909178
   0.61530663  0.54437196  0.49596777
   0.61697897  0.59880574  0.60344283
   0.39306127  0.59332469  0.29639901
   0.35197775  0.48916859  0.34452738
   0.45345602  0.49046406  0.27069607
   0.45409952  0.54249423  0.37933886
   0.51505615  0.59813286  0.29148726
   0.51684241  0.43870174  0.35926007
   0.57914844  0.49215595  0.27080642
   0.57736566  0.54413884  0.37932867
   0.31306758  0.48756059  0.46573453
   0.35367599  0.38102002  0.51568704
   0.41723044  0.43736028  0.43136923
   0.45476343  0.43691286  0.54905020
   0.51601630  0.49101434  0.46435532
   0.51736623  0.37371925  0.46425933
   0.61612867  0.43952069  0.43161631
   0.57831549  0.43943848  0.54897738
   0.67933772  0.60013189  0.41106687
   0.71226995  0.59660686  0.52836343
   0.68013260  0.49288653  0.58373244
   0.63701540  0.59632181  0.29676507
   0.68075715  0.49315186  0.34471009
   0.71923702  0.49290505  0.46420208
   0.68133584  0.38555392  0.51708661
   0.45656916  0.49453538  0.66178646
   0.51710386  0.59699068  0.67125444
   0.57943450  0.49173050  0.65756035
   0.39395577  0.37716113  0.62829138
   0.45649082  0.31540341  0.54818873
   0.51790709  0.38272292  0.63603105
   0.58071045  0.31828138  0.55019691
   0.63965522  0.38820823  0.63144611
   0.41629242  0.38264826  0.32400917
   0.51763715  0.38792708  0.25631386
   0.61920836  0.38559136  0.32403533
   0.32028208  0.38511736  0.39878743
   0.41670345  0.31615386  0.42991299
   0.51821460  0.31851816  0.35648513
   0.62011814  0.31943894  0.43038222
   0.71481617  0.38970906  0.39988649
   0.52014744  0.25854255  0.46187920
   0.38089580  0.44117116  0.70786242
Direct configuration=    13
   0.35068671  0.59497168  0.41109757
   0.45094808  0.66305678  0.37759797
   0.41265751  0.66189684  0.49753240
   0.51304810  0.72251597  0.46406147
   0.51462301  0.60784044  0.46338611
   0.57712312  0.66486833  0.37796751
   0.61574511  0.66496024  0.49732877
   0.31787104  0.59137843  0.52858878
   0.35161641  0.48802283  0.59010795
   0.41558613  0.54136774  0.49747549
   0.41410615  0.59745616  0.60400134
   0.51436035  0.66407057  0.57030755
   0.51545650  0.54360933  0.56909788
   0.61531561  0.54438136  0.49592284
   0.61701598  0.59882955  0.60339797
   0.39304519  0.59331621  0.29643637
   0.35197042  0.48917349  0.34455194
   0.45344149  0.49045769  0.27070816
   0.45410127  0.54248701  0.37935211
   0.51504234  0.59813895  0.29151412
   0.51684743  0.43871080  0.35925701
   0.57914801  0.49215603  0.27080637
   0.57736382  0.54412659  0.37931859
   0.31310907  0.48751874  0.46582951
   0.35369860  0.38097857  0.51566480
   0.41724550  0.43735742  0.43135905
   0.45475366  0.43687638  0.54905296
   0.51601493  0.49101760  0.46436082
   0.51737034  0.37372432  0.46424663
   0.61611453  0.43951279  0.43161230
   0.57830523  0.43948094  0.54897525
   0.67934293  0.60014523  0.41105429
   0.71229112  0.59659952  0.52832383
   0.68011673  0.49291154  0.58373016
   0.63700886  0.59632147  0.29677289
   0.68075454  0.49314809  0.34472078
   0.71923595  0.49288538  0.46420818
   0.68130254  0.38555746  0.51709340
   0.45662571  0.49454325  0.66185611
   0.51716884  0.59704659  0.67122889
   0.57944441  0.49177819  0.65757784
   0.39395173  0.37699075  0.62824860
   0.45650502  0.31535839  0.54812805
   0.51786773  0.38276778  0.63601648
   0.58068101  0.31830723  0.55019267
   0.63960371  0.38825105  0.63144342
   0.41630237  0.38264848  0.32400113
   0.51764430  0.38793220  0.25631531
   0.61920791  0.38557521  0.32404135
   0.32029486  0.38513010  0.39877491
   0.41671490  0.31614351  0.42986503
   0.51822331  0.31852336  0.35647024
   0.62012782  0.31943193  0.43038263
   0.71480537  0.38970142  0.39989436
   0.52017576  0.25853916  0.46183511
   0.38082035  0.44111921  0.70773482
Direct configuration=    14
   0.35069545  0.59491218  0.41119272
   0.45090420  0.66305860  0.37762215
   0.41268092  0.66186667  0.49758359
   0.51304236  0.72252152  0.46402424
   0.51462939  0.60784044  0.46335364
   0.57712612  0.66487751  0.37796265
   0.61575545  0.66497221  0.49731511
   0.31794958  0.59128764  0.52874014
   0.35174030  0.48795590  0.59035173
   0.41562351  0.54133423  0.49754215
   0.41418382  0.59747657  0.60407313
   0.51440448  0.66410656  0.57026426
   0.51547438  0.54362224  0.56909847
   0.61532609  0.54439521  0.49587145
   0.61705886  0.59885829  0.60334348
   0.39302080  0.59330761  0.29648209
   0.35195966  0.48917883  0.34458166
   0.45342533  0.49045344  0.27072256
   0.45409991  0.54247940  0.37936870
   0.51502396  0.59814751  0.29154474
   0.51685321  0.43871955  0.35925014
   0.57914753  0.49215718  0.27080458
   0.57736287  0.54411313  0.37930432
   0.31315958  0.48746602  0.46594608
   0.35372225  0.38092346  0.51563539
   0.41726205  0.43735225  0.43134601
   0.45474601  0.43683354  0.54905348
   0.51601258  0.49102045  0.46437156
   0.51737491  0.37372861  0.46423032
   0.61609960  0.43950154  0.43160903
   0.57829258  0.43953293  0.54897401
   0.67935154  0.60016131  0.41103593
   0.71231920  0.59659322  0.52827601
   0.68010017  0.49294099  0.58372700
   0.63700168  0.59632181  0.29677851
   0.68075187  0.49314330  0.34473338
   0.71923463  0.49286238  0.46421515
   0.68126376  0.38556067  0.51710544
   0.45667969  0.49454067  0.66195137
   0.51724844  0.59711682  0.67120666
   0.57946047  0.49183431  0.65760242
   0.39394197  0.37679079  0.62821347
   0.45652295  0.31529890  0.54805464
   0.51782101  0.38281842  0.63600776
   0.58064237  0.31833873  0.55019070
   0.63954213  0.38830310  0.63144747