 vasp.5.4.4.18Apr17-6-g9f103f2a35 (build Aug 09 2024 17:42:55) complex          
  
 executed on             LinuxIFC date 2025.12.05  02:47:06
 running on   64 total cores
 distrk:  each k-point on   64 cores,    1 groups
 distr:  one band on NCORES_PER_BAND=   8 cores,    8 groups


--------------------------------------------------------------------------------------------------------


 INCAR:
 POTCAR:    PAW_PBE Pd 04Jan2005                  
 POTCAR:    PAW_PBE C 08Apr2002                   
 POTCAR:    PAW_PBE O 08Apr2002                   
 POTCAR:    PAW_PBE Pd 04Jan2005                  
  local pseudopotential read in
  partial core-charges read in
  partial kinetic energy density read in
  atomic valenz-charges read in
  non local Contribution for L=           2  read in
    real space projection operators read in
  non local Contribution for L=           2  read in
    real space projection operators read in
  non local Contribution for L=           0  read in
    real space projection operators read in
  non local Contribution for L=           0  read in
    real space projection operators read in
  non local Contribution for L=           1  read in
    real space projection operators read in
  non local Contribution for L=           1  read in
    real space projection operators read in
    PAW grid and wavefunctions read in
 
   number of l-projection  operators is LMAX  =           6
   number of lm-projection operators is LMMAX =          18
 
 POTCAR:    PAW_PBE C 08Apr2002                   
  local pseudopotential read in
  partial core-charges read in
  partial kinetic energy density read in
  atomic valenz-charges read in
  non local Contribution for L=           0  read in
    real space projection operators read in
  non local Contribution for L=           0  read in
    real space projection operators read in
  non local Contribution for L=           1  read in
    real space projection operators read in
  non local Contribution for L=           1  read in
    real space projection operators read in
    PAW grid and wavefunctions read in
 
   number of l-projection  operators is LMAX  =           4
   number of lm-projection operators is LMMAX =           8
 
 POTCAR:    PAW_PBE O 08Apr2002                   
  local pseudopotential read in
  partial core-charges read in
  partial kinetic energy density read in
  kinetic energy density of atom read in
  atomic valenz-charges read in
  non local Contribution for L=           0  read in
    real space projection operators read in
  non local Contribution for L=           0  read in
    real space projection operators read in
  non local Contribution for L=           1  read in
    real space projection operators read in
  non local Contribution for L=           1  read in
    real space projection operators read in
    PAW grid and wavefunctions read in
 
   number of l-projection  operators is LMAX  =           4
   number of lm-projection operators is LMMAX =           8
 
 Optimization of the real space projectors (new method)

 maximal supplied QI-value         = 14.36
 optimisation between [QCUT,QGAM] = [  9.77, 19.68] = [ 26.71,108.41] Ry 
 Optimized for a Real-space Cutoff    1.52 Angstroem

   l    n(q)    QCUT    max X(q) W(low)/X(q) W(high)/X(q)  e(spline) 
   2      8     9.766    59.108    0.18E-03    0.12E-03    0.98E-07
   2      8     9.766    58.101    0.18E-03    0.12E-03    0.10E-06
   0      9     9.766   102.235    0.37E-04    0.68E-04    0.73E-07
   0      9     9.766    58.388    0.33E-04    0.64E-04    0.69E-07
   1      8     9.766    22.191    0.23E-03    0.61E-04    0.11E-06
   1      8     9.766    15.590    0.19E-03    0.52E-04    0.93E-07
 Optimization of the real space projectors (new method)

 maximal supplied QI-value         = 25.13
 optimisation between [QCUT,QGAM] = [  9.80, 19.60] = [ 26.90,107.62] Ry 
 Optimized for a Real-space Cutoff    1.35 Angstroem

   l    n(q)    QCUT    max X(q) W(low)/X(q) W(high)/X(q)  e(spline) 
   0      8     9.802   115.676    0.45E-03    0.67E-03    0.24E-06
   0      8     9.802    87.132    0.44E-03    0.67E-03    0.24E-06
   1      7     9.802     4.429    0.38E-03    0.18E-03    0.24E-06
   1      7     9.802     2.733    0.25E-03    0.72E-04    0.26E-06
 Optimization of the real space projectors (new method)

 maximal supplied QI-value         = 24.76
 optimisation between [QCUT,QGAM] = [  9.65, 19.56] = [ 26.10,107.10] Ry 
 Optimized for a Real-space Cutoff    1.44 Angstroem

   l    n(q)    QCUT    max X(q) W(low)/X(q) W(high)/X(q)  e(spline) 
   0      8     9.655    20.381    0.19E-03    0.21E-03    0.36E-06
   0      8     9.655    15.268    0.21E-03    0.24E-03    0.37E-06
   1      8     9.655     5.964    0.43E-03    0.39E-03    0.31E-06
   1      8     9.655     5.382    0.36E-03    0.33E-03    0.28E-06
  PAW_PBE Pd 04Jan2005                  :
 energy of atom  1       EATOM= -809.7530
 kinetic energy error for atom=    0.0177 (will be added to EATOM!!)
  PAW_PBE C 08Apr2002                   :
 energy of atom  2       EATOM= -147.1560
 kinetic energy error for atom=    0.0545 (will be added to EATOM!!)
  PAW_PBE O 08Apr2002                   :
 energy of atom  3       EATOM= -432.3788
 kinetic energy error for atom=    0.2342 (will be added to EATOM!!)
 
 
 POSCAR: final_re                                
  positions in direct lattice
  No initial velocities read in
 exchange correlation table for  LEXCH =        8
   RHO(1)=    0.500       N(1)  =     2000
   RHO(2)=  100.500       N(2)  =     4000

 VTST: version 3.2, (02/03/18)

 CHAIN: initializing optimizer
 
 OPT: Using VASP Conjugate-Gradient optimizer
 CHAIN: Read ICHAIN            0
 
 POSCAR: final_re                                
  positions in direct lattice
  No initial velocities read in
 


--------------------------------------------------------------------------------------------------------


 ion  position               nearest neighbor table
   1  1.000  0.001  0.434-   9 2.77   3 2.77  27 2.77   7 2.77   4 2.77  10 2.77  13 2.77  25 2.77
                            19 2.77
   2  0.111  0.223  0.160-   3 2.77   9 2.77  31 2.77  32 2.77  12 2.77  28 2.77   5 2.77   8 2.77
                            26 2.77  20 2.77  14 2.77  11 2.77
   3  0.222  0.112  0.297-   1 2.77   4 2.77   2 2.77   5 2.77  13 2.77  20 2.77   9 2.77  21 2.77
                            27 2.77  12 2.77  15 2.77   6 2.77
   4  0.333  0.001  0.434-   3 2.77  21 2.77   6 2.77   1 2.77  13 2.77  19 2.77  22 2.77  16 2.77
                             7 2.77
   5  0.444  0.223  0.160-  32 2.77   3 2.77  29 2.77  15 2.77   6 2.77  33 2.77   2 2.77  20 2.77
                            23 2.77   8 2.77  17 2.77  14 2.77
   6  0.555  0.112  0.297-   7 2.77   8 2.77  16 2.77  23 2.77   4 2.77   5 2.77   9 2.77  24 2.77
                            15 2.77  18 2.77  21 2.77   3 2.77
   7  0.666  0.001  0.434-   6 2.77   9 2.77  24 2.77   1 2.77  16 2.77  10 2.77  25 2.77  22 2.77
                             4 2.77
   8  0.778  0.223  0.160-  33 2.77  31 2.77   6 2.77   9 2.77  18 2.77  30 2.77   2 2.77  26 2.77
                            23 2.77  11 2.77   5 2.77  17 2.77
   9  0.889  0.112  0.297-   1 2.77   7 2.77   2 2.77   8 2.77  10 2.77  26 2.77   3 2.77   6 2.77
                            27 2.77  24 2.77  12 2.77  18 2.77
  10  1.000  0.334  0.434-  12 2.77  18 2.77   9 2.77  16 2.77  13 2.77   7 2.77   1 2.77  22 2.77
                            19 2.77
  11  0.111  0.557  0.160-  34 2.77  35 2.77  21 2.77  18 2.77  12 2.77  31 2.77  14 2.77  17 2.77
                            23 2.77  20 2.77   8 2.77   2 2.77
  12  0.222  0.446  0.297-  10 2.77  13 2.77   2 2.77  14 2.77  11 2.77  22 2.77  18 2.77   9 2.77
                             3 2.77  15 2.77  21 2.77  24 2.77
  13  0.333  0.334  0.434-  12 2.77   3 2.77  15 2.77  10 2.77   4 2.77   1 2.77  16 2.77  22 2.77
                            25 2.77
  14  0.444  0.557  0.160-  35 2.77  12 2.77  24 2.77  36 2.77  32 2.77  11 2.77  23 2.77  15 2.77
                            26 2.77   2 2.77  17 2.77   5 2.77
  15  0.555  0.446  0.297-  16 2.77  17 2.77   5 2.77  13 2.77  25 2.77  18 2.77   6 2.77  14 2.77
                             3 2.77  27 2.77  12 2.77  24 2.77
  16  0.666  0.334  0.434-  18 2.77  15 2.77   6 2.77  10 2.77   7 2.77   4 2.77  19 2.77  13 2.77
                            25 2.77
  17  0.778  0.557  0.160-  36 2.77  34 2.77  27 2.77  15 2.77  18 2.77  33 2.77  11 2.77  26 2.77
                            20 2.77  14 2.77   5 2.77   8 2.77
  18  0.889  0.446  0.297-  10 2.77  16 2.77   8 2.77  11 2.77  17 2.77  19 2.77  12 2.77  15 2.77
                             9 2.77   6 2.77  21 2.77  27 2.77
  19  1.000  0.668  0.434-  21 2.77  27 2.77  18 2.77  25 2.77  22 2.77   4 2.77   1 2.77  16 2.77
                            10 2.77
  20  0.111  0.890  0.160-  21 2.77  27 2.77  29 2.77  28 2.77   3 2.77  34 2.77  23 2.77  26 2.77
                            11 2.77  17 2.77   5 2.77   2 2.77
  21  0.222  0.779  0.297-  19 2.77  22 2.77  20 2.77  23 2.77   4 2.77  11 2.77  27 2.77   3 2.77
                             6 2.77  18 2.77  24 2.77  12 2.77
  22  0.333  0.668  0.434-  21 2.77  24 2.77  12 2.77  19 2.77   4 2.77   7 2.77  10 2.77  25 2.77
                            13 2.77
  23  0.444  0.890  0.160-  21 2.77  29 2.77  35 2.77   6 2.77  24 2.77  30 2.77  20 2.77  11 2.77
                            14 2.77   5 2.77   8 2.77  26 2.77
  24  0.555  0.779  0.297-  25 2.77  26 2.77   7 2.77  14 2.77  22 2.77  23 2.77  27 2.77   6 2.77
                             9 2.77  21 2.77  12 2.77  15 2.77
  25  0.666  0.668  0.434-  27 2.77  24 2.77  15 2.77  19 2.77   1 2.77   7 2.77  22 2.77  13 2.77
                            16 2.77
  26  0.778  0.890  0.160-  24 2.77  27 2.77  28 2.77  30 2.77   9 2.77  36 2.77  20 2.77  17 2.77
                             2 2.77   8 2.77  14 2.77  23 2.77
  27  0.889  0.779  0.297-  19 2.77  25 2.77  20 2.77  26 2.77   1 2.77  17 2.77  21 2.77  24 2.77
                             9 2.77   3 2.77  15 2.77  18 2.77
  28  1.000  0.001  0.023-  26 2.77  20 2.77   2 2.77  30 2.77  29 2.77  31 2.77  32 2.77  36 2.77
                            34 2.77
  29  0.333  0.001  0.023-  20 2.77  23 2.77   5 2.77  28 2.77  32 2.77  34 2.77  35 2.77  33 2.77
                            30 2.77
  30  0.666  0.001  0.023-  26 2.77   8 2.77  23 2.77  28 2.77  31 2.77  33 2.77  36 2.77  35 2.77
                            29 2.77
  31  1.000  0.334  0.023-   2 2.77   8 2.77  11 2.77  33 2.77  32 2.77  28 2.77  30 2.77  35 2.77
                            34 2.77
  32  0.333  0.334  0.023-   5 2.77   2 2.77  14 2.77  31 2.77  29 2.77  28 2.77  33 2.77  35 2.77
                            36 2.77
  33  0.666  0.334  0.023-   8 2.77   5 2.77  17 2.77  31 2.77  30 2.77  29 2.77  34 2.77  32 2.77
                            36 2.77
  34  1.000  0.668  0.023-  11 2.77  17 2.77  20 2.77  36 2.77  35 2.77  28 2.77  29 2.77  33 2.77
                            31 2.77
  35  0.333  0.668  0.023-  14 2.77  11 2.77  23 2.77  34 2.77  29 2.77  30 2.77  31 2.77  36 2.77
                            32 2.77
  36  0.666  0.668  0.023-  17 2.77  26 2.77  14 2.77  34 2.77  28 2.77  30 2.77  35 2.77  32 2.77
                            33 2.77
  37  0.256  0.128  0.726-  38 1.31  39 1.38
  38  0.274  0.293  0.727-  37 1.31
  39  0.229  0.950  0.734-  37 1.38
 
  LATTYP: Found a hexagonal cell.
 ALAT       =     8.3099002838
 C/A-ratio  =     1.9884113982
  
  Lattice vectors:
  
 A1 = (   8.3099002838,   0.0000000000,   0.0000000000)
 A2 = (  -4.1549501419,   7.1965847487,   0.0000000000)
 A3 = (   0.0000000000,   0.0000000000,  16.5235004425)


Analysis of symmetry for initial positions (statically):
=====================================================================
 Subroutine PRICEL returns:
 Original cell was already a primitive cell.
 

 Routine SETGRP: Setting up the symmetry group for a 
 hexagonal supercell.


 Subroutine GETGRP returns: Found  1 space group operations
 (whereof  1 operations were pure point group operations)
 out of a pool of 24 trial point group operations.


The static configuration has the point symmetry C_1 .


Analysis of symmetry for dynamics (positions and initial velocities):
=====================================================================
 Subroutine PRICEL returns:
 Original cell was already a primitive cell.
 

 Routine SETGRP: Setting up the symmetry group for a 
 hexagonal supercell.


 Subroutine GETGRP returns: Found  1 space group operations
 (whereof  1 operations were pure point group operations)
 out of a pool of 24 trial point group operations.


The dynamic configuration has the point symmetry C_1 .


Analysis of constrained symmetry for selective dynamics:
=====================================================================
 Subroutine PRICEL returns:
 Original cell was already a primitive cell.
 

 Routine SETGRP: Setting up the symmetry group for a 
 hexagonal supercell.


 Subroutine GETGRP returns: Found  1 space group operations
 (whereof  1 operations were pure point group operations)
 out of a pool of 24 trial point group operations.


The constrained configuration has the point symmetry C_1 .


 Subroutine INISYM returns: Found  1 space group operations
 (whereof  1 operations are pure point group operations),
 and found     1 'primitive' translations

 
 
 KPOINTS: KP                                      

Automatic generation of k-mesh.
Space group operators:
 irot       det(A)        alpha          n_x          n_y          n_z        tau_x        tau_y        tau_z
    1     1.000000     0.000000     1.000000     0.000000     0.000000     0.000000     0.000000     0.000000
 
 Subroutine IBZKPT returns following result:
 ===========================================
 
 Found     24 irreducible k-points:
 
 Following reciprocal coordinates:
            Coordinates               Weight
  0.125000  0.125000  0.000000     16.000000
  0.250000 -0.125000  0.000000     16.000000
  0.125000 -0.250000  0.000000     16.000000
  0.375000  0.125000  0.000000     16.000000
  0.500000 -0.375000  0.000000     16.000000
  0.125000  0.500000  0.000000     16.000000
 -0.125000 -0.375000  0.000000     16.000000
  0.375000  0.500000  0.000000     16.000000
  0.500000 -0.125000  0.000000     16.000000
 -0.375000  0.125000  0.000000     16.000000
 -0.250000  0.375000  0.000000     16.000000
  0.125000  0.250000  0.000000     16.000000
 -0.125000  0.375000  0.000000     16.000000
 -0.375000  0.250000  0.000000     16.000000
 -0.250000 -0.125000  0.000000     16.000000
 -0.125000  0.125000  0.000000     16.000000
  0.000000  0.125000  0.000000     16.000000
  0.125000  0.000000  0.000000     16.000000
  0.375000  0.375000  0.000000     16.000000
 -0.250000 -0.375000  0.000000     16.000000
  0.375000  0.250000  0.000000     16.000000
 -0.375000  0.375000  0.000000     16.000000
  0.000000  0.375000  0.000000     16.000000
  0.375000  0.000000  0.000000     16.000000
 
 Following cartesian coordinates:
            Coordinates               Weight
  0.015042  0.026054  0.000000     16.000000
  0.030085  0.000000  0.000000     16.000000
  0.015042 -0.026054  0.000000     16.000000
  0.045127  0.043423  0.000000     16.000000
  0.060169 -0.017369  0.000000     16.000000
  0.015042  0.078162  0.000000     16.000000
 -0.015042 -0.060793  0.000000     16.000000
  0.045127  0.095531  0.000000     16.000000
  0.060169  0.017369  0.000000     16.000000
 -0.045127 -0.008685  0.000000     16.000000
 -0.030085  0.034739  0.000000     16.000000
  0.015042  0.043423  0.000000     16.000000
 -0.015042  0.043423  0.000000     16.000000
 -0.045127  0.008685  0.000000     16.000000
 -0.030085 -0.034739  0.000000     16.000000
 -0.015042  0.008685  0.000000     16.000000
  0.000000  0.017369  0.000000     16.000000
  0.015042  0.008685  0.000000     16.000000
  0.045127  0.078162  0.000000     16.000000
 -0.030085 -0.069477  0.000000     16.000000
  0.045127  0.060793  0.000000     16.000000
 -0.045127  0.026054  0.000000     16.000000
  0.000000  0.052108  0.000000     16.000000
  0.045127  0.026054  0.000000     16.000000
 


--------------------------------------------------------------------------------------------------------




 Dimension of arrays:
   k-points           NKPTS =     24   k-points in BZ     NKDIM =     24   number of bands    NBANDS=    232
   number of dos      NEDOS =    301   number of ions     NIONS =     39
   non local maximal  LDIM  =      6   non local SUM 2l+1 LMDIM =     18
   total plane-waves  NPLWV = 128000
   max r-space proj   IRMAX =   1966   max aug-charges    IRDMAX=   6482
   dimension x,y,z NGX =    40 NGY =   40 NGZ =   80
   dimension x,y,z NGXF=    80 NGYF=   80 NGZF=  160
   support grid    NGXF=    80 NGYF=   80 NGZF=  160
   ions per type =              36   1   2
   NGX,Y,Z   is equivalent  to a cutoff of   8.00,  8.00,  8.05 a.u.
   NGXF,Y,Z  is equivalent  to a cutoff of  16.00, 16.00, 16.10 a.u.

 SYSTEM =  ZrC (100)                               
 POSCAR =  final_re                                

 Startparameter for this run:
   NWRITE =      0    write-flag & timer
   PREC   = normal    normal or accurate (medium, high low for compatibility)
   ISTART =      0    job   : 0-new  1-cont  2-samecut
   ICHARG =      2    charge: 1-file 2-atom 10-const
   ISPIN  =      1    spin polarized calculation?
   LNONCOLLINEAR =      F non collinear calculations
   LSORBIT =      F    spin-orbit coupling
   INIWAV =      1    electr: 0-lowe 1-rand  2-diag
   LASPH  =      F    aspherical Exc in radial PAW
   METAGGA=      F    non-selfconsistent MetaGGA calc.

 Electronic Relaxation 1
   ENCUT  =  370.0 eV  27.19 Ry    5.21 a.u.  13.03 13.03 25.92*2*pi/ulx,y,z
   ENINI  =  370.0     initial cutoff
   ENAUG  =  644.9 eV  augmentation charge cutoff
   NELM   =    150;   NELMIN=  2; NELMDL= -5     # of ELM steps 
   EDIFF  = 0.1E-05   stopping-criterion for ELM
   LREAL  =      T    real-space projection
   NLSPLINE    = F    spline interpolate recip. space projectors
   LCOMPAT=      F    compatible to vasp.4.4
   GGA_COMPAT  = T    GGA compatible to vasp.4.4-vasp.4.6
   LMAXPAW     = -100 max onsite density
   LMAXMIX     =    2 max onsite mixed and CHGCAR
   VOSKOWN=      0    Vosko Wilk Nusair interpolation
   ROPT   =   -0.00050  -0.00050  -0.00050
 Ionic relaxation
   EDIFFG = -.3E-01   stopping-criterion for IOM
   NSW    =    100    number of steps for IOM
   NBLOCK =      1;   KBLOCK =    100    inner block; outer block 
   IBRION =      2    ionic relax: 0-MD 1-quasi-New 2-CG
   NFREE  =      1    steps in history (QN), initial steepest desc. (CG)
   ISIF   =      2    stress and relaxation
   IWAVPR =     11    prediction:  0-non 1-charg 2-wave 3-comb
   ISYM   =      2    0-nonsym 1-usesym 2-fastsym
   LCORR  =      T    Harris-Foulkes like correction to forces

   POTIM  = 0.5000    time-step for ionic-motion
   TEIN   =    0.0    initial temperature
   TEBEG  =    0.0;   TEEND  =   0.0 temperature during run
   SMASS  =  -3.00    Nose mass-parameter (am)
   estimated Nose-frequenzy (Omega)   =  0.10E-29 period in steps =****** mass=  -0.158E-26a.u.
   SCALEE = 1.0000    scale energy and forces
   NPACO  =    256;   APACO  = 16.0  distance and # of slots for P.C.
   PSTRESS=    0.0 pullay stress

  Mass of Ions in am
   POMASS = 106.42 12.01 16.00
  Ionic Valenz
   ZVAL   =  10.00  4.00  6.00
  Atomic Wigner-Seitz radii
   RWIGS  =  -1.00 -1.00 -1.00
  virtual crystal weights 
   VCA    =   1.00  1.00  1.00
   NELECT =     376.0000    total number of electrons
   NUPDOWN=      -1.0000    fix difference up-down

 DOS related values:
   EMIN   =  10.00;   EMAX   =-10.00  energy-range for DOS
   EFERMI =   0.00
   ISMEAR =     0;   SIGMA  =   0.41  broadening in eV -4-tet -1-fermi 0-gaus

 Electronic relaxation 2 (details)
   IALGO  =     38    algorithm
   LDIAG  =      T    sub-space diagonalisation (order eigenvalues)
   LSUBROT=      F    optimize rotation matrix (better conditioning)
   TURBO    =      0    0=normal 1=particle mesh
   IRESTART =      0    0=no restart 2=restart with 2 vectors
   NREBOOT  =      0    no. of reboots
   NMIN     =      0    reboot dimension
   EREF     =   0.00    reference energy to select bands
   IMIX   =      4    mixing-type and parameters
     AMIX     =   0.40;   BMIX     =  1.00
     AMIX_MAG =   1.60;   BMIX_MAG =  1.00
     AMIN     =   0.10
     WC   =   100.;   INIMIX=   1;  MIXPRE=   1;  MAXMIX= -45

 Intra band minimization:
   WEIMIN = 0.0010     energy-eigenvalue tresh-hold
   EBREAK =  0.11E-08  absolut break condition
   DEPER  =   0.30     relativ break condition  

   TIME   =   0.40     timestep for ELM

  volume/ion in A,a.u.               =      25.34       170.98
  Fermi-wavevector in a.u.,A,eV,Ry     =   1.186304  2.241790 19.147714  1.407317
  Thomas-Fermi vector in A             =   2.322480
 
 Write flags
   LWAVE        =      F    write WAVECAR
   LDOWNSAMPLE  =      F    k-point downsampling of WAVECAR
   LCHARG       =      F    write CHGCAR
   LVTOT        =      F    write LOCPOT, total local potential
   LVHAR        =      F    write LOCPOT, Hartree potential only
   LELF         =      F    write electronic localiz. function (ELF)
   LORBIT       =      0    0 simple, 1 ext, 2 COOP (PROOUT), +10 PAW based schemes


 Dipole corrections
   LMONO  =      F    monopole corrections only (constant potential shift)
   LDIPOL =      F    correct potential (dipole corrections)
   IDIPOL =      0    1-x, 2-y, 3-z, 4-all directions 
   EPSILON=  1.0000000 bulk dielectric constant

 Exchange correlation treatment:
   GGA     =    PE    GGA type
   LEXCH   =     8    internal setting for exchange type
   VOSKOWN=      0    Vosko Wilk Nusair interpolation
   LHFCALC =     F    Hartree Fock is set to
   LHFONE  =     F    Hartree Fock one center treatment
   AEXX    =    0.0000 exact exchange contribution

 Linear response parameters
   LEPSILON=     F    determine dielectric tensor
   LRPA    =     F    only Hartree local field effects (RPA)
   LNABLA  =     F    use nabla operator in PAW spheres
   LVEL    =     F    velocity operator in full k-point grid
   LINTERFAST=   F  fast interpolation
   KINTER  =     0    interpolate to denser k-point grid
   CSHIFT  =0.1000    complex shift for real part using Kramers Kronig
   OMEGAMAX=  -1.0    maximum frequency
   DEG_THRESHOLD= 0.2000000E-02 threshold for treating states as degnerate
   RTIME   =   -0.100 relaxation time in fs
  (WPLASMAI=    0.000 imaginary part of plasma frequency in eV, 0.658/RTIME)
   DFIELD  = 0.0000000 0.0000000 0.0000000 field for delta impulse in time
 
 Orbital magnetization related:
   ORBITALMAG=     F  switch on orbital magnetization
   LCHIMAG   =     F  perturbation theory with respect to B field
   DQ        =  0.001000  dq finite difference perturbation B field
   LLRAUG    =     F  two centre corrections for induced B field



--------------------------------------------------------------------------------------------------------


 conjugate gradient relaxation of ions
   using selective dynamics as specified on POSCAR
 charge density and potential will be updated during run
 non-spin polarized calculation
 Variant of blocked Davidson
 Davidson routine will perform the subspace rotation
 perform sub-space diagonalisation
    after iterative eigenvector-optimisation
 modified Broyden-mixing scheme, WC =      100.0
 initial mixing is a Kerker type mixing with AMIX =  0.4000 and BMIX =      1.0000
 Hartree-type preconditioning will be used
 using additional bands           44
 real space projection scheme for non local part
 use partial core corrections
 calculate Harris-corrections to forces 
   (improved forces if not selfconsistent)
 use gradient corrections 
 use of overlap-Matrix (Vanderbilt PP)
 Gauss-broadening in eV      SIGMA  =   0.41


--------------------------------------------------------------------------------------------------------


  energy-cutoff  :      370.00
  volume of cell :      988.15
      direct lattice vectors                 reciprocal lattice vectors
     8.309900284  0.000000000  0.000000000     0.120338387  0.069477400  0.000000000
    -4.154950142  7.196584749  0.000000000     0.000000000  0.138954801  0.000000000
     0.000000000  0.000000000 16.523500443     0.000000000  0.000000000  0.060519864

  length of vectors
     8.309900284  8.309900284 16.523500443     0.138954801  0.138954801  0.060519864


 
 k-points in units of 2pi/SCALE and weight: KP                                      
   0.01504230  0.02605403  0.00000000       0.042
   0.03008460  0.00000000  0.00000000       0.042
   0.01504230 -0.02605403  0.00000000       0.042
   0.04512690  0.04342338  0.00000000       0.042
   0.06016919 -0.01736935  0.00000000       0.042
   0.01504230  0.07816208  0.00000000       0.042
  -0.01504230 -0.06079273  0.00000000       0.042
   0.04512690  0.09553143  0.00000000       0.042
   0.06016919  0.01736935  0.00000000       0.042
  -0.04512690 -0.00868468  0.00000000       0.042
  -0.03008460  0.03473870  0.00000000       0.042
   0.01504230  0.04342338  0.00000000       0.042
  -0.01504230  0.04342338  0.00000000       0.042
  -0.04512690  0.00868468  0.00000000       0.042
  -0.03008460 -0.03473870  0.00000000       0.042
  -0.01504230  0.00868468  0.00000000       0.042
   0.00000000  0.01736935  0.00000000       0.042
   0.01504230  0.00868468  0.00000000       0.042
   0.04512690  0.07816208  0.00000000       0.042
  -0.03008460 -0.06947740  0.00000000       0.042
   0.04512690  0.06079273  0.00000000       0.042
  -0.04512690  0.02605403  0.00000000       0.042
   0.00000000  0.05210805  0.00000000       0.042
   0.04512690  0.02605403  0.00000000       0.042
 
 k-points in reciprocal lattice and weights: KP                                      
   0.12500000  0.12500000  0.00000000       0.042
   0.25000000 -0.12500000  0.00000000       0.042
   0.12500000 -0.25000000  0.00000000       0.042
   0.37500000  0.12500000  0.00000000       0.042
   0.50000000 -0.37500000  0.00000000       0.042
   0.12500000  0.50000000  0.00000000       0.042
  -0.12500000 -0.37500000  0.00000000       0.042
   0.37500000  0.50000000  0.00000000       0.042
   0.50000000 -0.12500000  0.00000000       0.042
  -0.37500000  0.12500000  0.00000000       0.042
  -0.25000000  0.37500000  0.00000000       0.042
   0.12500000  0.25000000  0.00000000       0.042
  -0.12500000  0.37500000  0.00000000       0.042
  -0.37500000  0.25000000  0.00000000       0.042
  -0.25000000 -0.12500000  0.00000000       0.042
  -0.12500000  0.12500000  0.00000000       0.042
   0.00000000  0.12500000  0.00000000       0.042
   0.12500000  0.00000000  0.00000000       0.042
   0.37500000  0.37500000  0.00000000       0.042
  -0.25000000 -0.37500000  0.00000000       0.042
   0.37500000  0.25000000  0.00000000       0.042
  -0.37500000  0.37500000  0.00000000       0.042
   0.00000000  0.37500000  0.00000000       0.042
   0.37500000  0.00000000  0.00000000       0.042
 
 position of ions in fractional coordinates (direct lattice) 
   0.99982000  0.00108000  0.43398000
   0.11093000  0.22330000  0.16024000
   0.22204000  0.11219000  0.29711000
   0.33315000  0.00108000  0.43398000
   0.44426000  0.22330000  0.16024000
   0.55538000  0.11219000  0.29711000
   0.66649000  0.00108000  0.43398000
   0.77760000  0.22330000  0.16024000
   0.88871000  0.11219000  0.29711000
   0.99982000  0.33441000  0.43398000
   0.11093000  0.55664000  0.16024000
   0.22204000  0.44552000  0.29711000
   0.33315000  0.33441000  0.43398000
   0.44426000  0.55664000  0.16024000
   0.55538000  0.44552000  0.29711000
   0.66649000  0.33441000  0.43398000
   0.77760000  0.55664000  0.16024000
   0.88871000  0.44552000  0.29711000
   0.99982000  0.66775000  0.43398000
   0.11093000  0.88997000  0.16024000
   0.22204000  0.77886000  0.29711000
   0.33315000  0.66775000  0.43398000
   0.44426000  0.88997000  0.16024000
   0.55538000  0.77886000  0.29711000
   0.66649000  0.66775000  0.43398000
   0.77760000  0.88997000  0.16024000
   0.88871000  0.77886000  0.29711000
   0.99982000  0.00108000  0.02337000
   0.33315000  0.00108000  0.02337000
   0.66649000  0.00108000  0.02337000
   0.99982000  0.33441000  0.02337000
   0.33315000  0.33441000  0.02337000
   0.66649000  0.33441000  0.02337000
   0.99982000  0.66775000  0.02337000
   0.33315000  0.66775000  0.02337000
   0.66649000  0.66775000  0.02337000
   0.25561000  0.12776000  0.72597000
   0.27368000  0.29323000  0.72657000
   0.22874000  0.95024000  0.73423000
 
 position of ions in cartesian coordinates  (Angst):
   8.30391716  0.00777231  7.17086872
  -0.00598313  1.60699737  2.64772571
   1.37898640  0.80738484  4.90929722
   2.76395593  0.00777231  7.17086872
   2.76395593  1.60699737  2.64772571
   4.14900856  0.80738484  4.90929722
   5.53397809  0.00777231  7.17086872
   5.53397809  1.60699737  2.64772571
   6.91894762  0.80738484  4.90929722
   6.91894762  2.40660991  7.17086872
  -1.39099421  4.00590693  2.64772571
  -0.00598313  3.20622244  4.90929722
   1.37898640  2.40660991  7.17086872
   1.37894485  4.00590693  2.64772571
   2.76403903  3.20622244  4.90929722
   4.14900856  2.40660991  7.17086872
   4.14896701  4.00590693  2.64772571
   5.53397809  3.20622244  4.90929722
   5.53393654  4.80551947  7.17086872
  -2.77596374  6.40474453  2.64772571
  -1.39099421  5.60513200  4.90929722
  -0.00602468  4.80551947  7.17086872
  -0.00602468  6.40474453  2.64772571
   1.37902795  5.60513200  4.90929722
   2.76399748  4.80551947  7.17086872
   2.76399748  6.40474453  2.64772571
   4.14896701  5.60513200  4.90929722
   8.30391716  0.00777231  0.38615421
   2.76395593  0.00777231  0.38615421
   5.53397809  0.00777231  0.38615421
   6.91894762  2.40660991  0.38615421
   1.37898640  2.40660991  0.38615421
   4.14900856  2.40660991  0.38615421
   5.53393654  4.80551947  0.38615421
  -0.00602468  4.80551947  0.38615421
   2.76399748  4.80551947  0.38615421
   1.59325718  0.91943567 11.99556562
   1.05589748  2.11025455 12.00547972
  -2.04739323  6.83848269 12.13204973
 


--------------------------------------------------------------------------------------------------------


 k-point  1 :   0.1250 0.1250 0.0000  plane waves:   15951
 k-point  2 :   0.2500-0.1250 0.0000  plane waves:   15951
 k-point  3 :   0.1250-0.2500 0.0000  plane waves:   15951
 k-point  4 :   0.3750 0.1250 0.0000  plane waves:   15982
 k-point  5 :   0.5000-0.3750 0.0000  plane waves:   15982
 k-point  6 :   0.1250 0.5000 0.0000  plane waves:   15982
 k-point  7 :  -0.1250-0.3750 0.0000  plane waves:   15982
 k-point  8 :   0.3750 0.5000 0.0000  plane waves:   15982
 k-point  9 :   0.5000-0.1250 0.0000  plane waves:   15982
 k-point 10 :  -0.3750 0.1250 0.0000  plane waves:   15967
 k-point 11 :  -0.2500 0.3750 0.0000  plane waves:   15967
 k-point 12 :   0.1250 0.2500 0.0000  plane waves:   15967
 k-point 13 :  -0.1250 0.3750 0.0000  plane waves:   15967
 k-point 14 :  -0.3750 0.2500 0.0000  plane waves:   15967
 k-point 15 :  -0.2500-0.1250 0.0000  plane waves:   15967
 k-point 16 :  -0.1250 0.1250 0.0000  plane waves:   15947
 k-point 17 :   0.0000 0.1250 0.0000  plane waves:   15947
 k-point 18 :   0.1250 0.0000 0.0000  plane waves:   15947
 k-point 19 :   0.3750 0.3750 0.0000  plane waves:   16001
 k-point 20 :  -0.2500-0.3750 0.0000  plane waves:   16001
 k-point 21 :   0.3750 0.2500 0.0000  plane waves:   16001
 k-point 22 :  -0.3750 0.3750 0.0000  plane waves:   15956
 k-point 23 :   0.0000 0.3750 0.0000  plane waves:   15956
 k-point 24 :   0.3750 0.0000 0.0000  plane waves:   15956

 maximum and minimum number of plane-waves per node :      2020     1969

 maximum number of plane-waves:     16001
 maximum index in each direction: 
   IXMAX=   13   IYMAX=   13   IZMAX=   25
   IXMIN=  -13   IYMIN=  -13   IZMIN=  -25


 real space projection operators:
  total allocation   :       9686.77 KBytes
  max/ min on nodes  :       1216.03       1204.73


 parallel 3D FFT for wavefunctions:
    minimum data exchange during FFTs selected (reduces bandwidth)
 parallel 3D FFT for charge:
    minimum data exchange during FFTs selected (reduces bandwidth)


 total amount of memory used by VASP MPI-rank0    59960. kBytes
=======================================================================

   base      :      30000. kBytes
   nonlr-proj:       2772. kBytes
   fftplans  :       1296. kBytes
   grid      :       2296. kBytes
   one-center:         77. kBytes
   wavefun   :      23519. kBytes
 
     INWAV:  cpu time    0.0002: real time    0.0002
 Broyden mixing: mesh for mixing (old mesh)
   NGX = 27   NGY = 27   NGZ = 51
  (NGX  = 80   NGY  = 80   NGZ  =160)
  gives a total of  37179 points

 initial charge density was supplied:
 charge density of overlapping atoms calculated
 number of electron     376.0000000 magnetization 
 keeping initial charge density in first step


--------------------------------------------------------------------------------------------------------


 Maximum index for non-local projection operator          259
 Maximum index for augmentation-charges          431 (set IRDMAX)


--------------------------------------------------------------------------------------------------------


 First call to EWALD:  gamma=   0.178
 Maximum number of real-space cells 4x 4x 2
 Maximum number of reciprocal cells 2x 2x 4

    FEWALD:  cpu time    0.0088: real time    0.0088


--------------------------------------- Iteration      1(   1)  ---------------------------------------


    POTLOK:  cpu time    0.1181: real time    0.1492
    SETDIJ:  cpu time    0.0217: real time    0.0221
     EDDAV:  cpu time   35.6103: real time   35.8210
       DOS:  cpu time    0.0185: real time    0.0185
    --------------------------------------------
      LOOP:  cpu time   35.7688: real time   36.0110

 eigenvalue-minimisations  : 11144
 total energy-change (2. order) : 0.2086220E+04  (-0.1517919E+05)
 number of electron     376.0000000 magnetization 
 augmentation part      376.0000000 magnetization 

 Free energy of the ion-electron system (eV)
  ---------------------------------------------------
  alpha Z        PSCENC =       918.22725072
  Ewald energy   TEWEN  =     20872.19098748
  -Hartree energ DENC   =    -53528.22666264
  -exchange      EXHF   =         0.00000000
  -V(xc)+E(xc)   XCENC  =      -994.07078374
  PAW double counting   =     29844.20032359   -27608.36462881
  entropy T*S    EENTRO =        -1.32122081
  eigenvalues    EBANDS =      2421.72159654
  atomic energy  EATOM  =     30161.86332653
  Solvation  Ediel_sol  =         0.00000000
  ---------------------------------------------------
  free energy    TOTEN  =      2086.22018887 eV

  energy without entropy =     2087.54140967  energy(sigma->0) =     2086.88079927


--------------------------------------------------------------------------------------------------------




--------------------------------------- Iteration      1(   2)  ---------------------------------------


     EDDAV:  cpu time   37.4774: real time   37.5645
       DOS:  cpu time    0.0195: real time    0.0195
    --------------------------------------------
      LOOP:  cpu time   37.4969: real time   37.5840

 eigenvalue-minimisations  : 12008
 total energy-change (2. order) :-0.2182865E+04  (-0.2055137E+04)
 number of electron     376.0000000 magnetization 
 augmentation part      376.0000000 magnetization 

 Free energy of the ion-electron system (eV)
  ---------------------------------------------------
  alpha Z        PSCENC =       918.22725072
  Ewald energy   TEWEN  =     20872.19098748
  -Hartree energ DENC   =    -53528.22666264
  -exchange      EXHF   =         0.00000000
  -V(xc)+E(xc)   XCENC  =      -994.07078374
  PAW double counting   =     29844.20032359   -27608.36462881
  entropy T*S    EENTRO =        -3.76126032
  eigenvalues    EBANDS =       241.29619467
  atomic energy  EATOM  =     30161.86332653
  Solvation  Ediel_sol  =         0.00000000
  ---------------------------------------------------
  free energy    TOTEN  =       -96.64525252 eV

  energy without entropy =      -92.88399220  energy(sigma->0) =      -94.76462236


--------------------------------------------------------------------------------------------------------




--------------------------------------- Iteration      1(   3)  ---------------------------------------


     EDDAV:  cpu time   38.4621: real time   38.6733
       DOS:  cpu time    0.0202: real time    0.0202
    --------------------------------------------
      LOOP:  cpu time   38.4824: real time   38.6936

 eigenvalue-minimisations  : 12480
 total energy-change (2. order) :-0.1122706E+03  (-0.1033648E+03)
 number of electron     376.0000000 magnetization 
 augmentation part      376.0000000 magnetization 

 Free energy of the ion-electron system (eV)
  ---------------------------------------------------
  alpha Z        PSCENC =       918.22725072
  Ewald energy   TEWEN  =     20872.19098748
  -Hartree energ DENC   =    -53528.22666264
  -exchange      EXHF   =         0.00000000
  -V(xc)+E(xc)   XCENC  =      -994.07078374
  PAW double counting   =     29844.20032359   -27608.36462881
  entropy T*S    EENTRO =        -5.23903101
  eigenvalues    EBANDS =       130.50336876
  atomic energy  EATOM  =     30161.86332653
  Solvation  Ediel_sol  =         0.00000000
  ---------------------------------------------------
  free energy    TOTEN  =      -208.91584912 eV

  energy without entropy =     -203.67681811  energy(sigma->0) =     -206.29633361


--------------------------------------------------------------------------------------------------------




--------------------------------------- Iteration      1(   4)  ---------------------------------------


     EDDAV:  cpu time   39.1391: real time   39.2017
       DOS:  cpu time    0.0201: real time    0.0201
    --------------------------------------------
      LOOP:  cpu time   39.1592: real time   39.2219

 eigenvalue-minimisations  : 12792
 total energy-change (2. order) :-0.3069567E+01  (-0.3014194E+01)
 number of electron     376.0000000 magnetization 
 augmentation part      376.0000000 magnetization 

 Free energy of the ion-electron system (eV)
  ---------------------------------------------------
  alpha Z        PSCENC =       918.22725072
  Ewald energy   TEWEN  =     20872.19098748
  -Hartree energ DENC   =    -53528.22666264
  -exchange      EXHF   =         0.00000000
  -V(xc)+E(xc)   XCENC  =      -994.07078374
  PAW double counting   =     29844.20032359   -27608.36462881
  entropy T*S    EENTRO =        -5.27031566
  eigenvalues    EBANDS =       127.46508637
  atomic energy  EATOM  =     30161.86332653
  Solvation  Ediel_sol  =         0.00000000
  ---------------------------------------------------
  free energy    TOTEN  =      -211.98541616 eV

  energy without entropy =     -206.71510050  energy(sigma->0) =     -209.35025833


--------------------------------------------------------------------------------------------------------




--------------------------------------- Iteration      1(   5)  ---------------------------------------


     EDDAV:  cpu time   39.2907: real time   39.4950
       DOS:  cpu time    0.0203: real time    0.0203
    CHARGE:  cpu time    1.1676: real time    1.1696
    MIXING:  cpu time    0.0074: real time    0.0090
    --------------------------------------------
      LOOP:  cpu time   40.4860: real time   40.6939

 eigenvalue-minimisations  : 12800
 total energy-change (2. order) :-0.9799904E-01  (-0.9793271E-01)
 number of electron     376.0000429 magnetization 
 augmentation part      146.8306252 magnetization 

 Broyden mixing:
  rms(total) = 0.40161E+01    rms(broyden)= 0.40150E+01
  rms(prec ) = 0.41703E+01
  weight for this iteration     100.00

 Free energy of the ion-electron system (eV)
  ---------------------------------------------------
  alpha Z        PSCENC =       918.22725072
  Ewald energy   TEWEN  =     20872.19098748
  -Hartree energ DENC   =    -53528.22666264
  -exchange      EXHF   =         0.00000000
  -V(xc)+E(xc)   XCENC  =      -994.07078374
  PAW double counting   =     29844.20032359   -27608.36462881
  entropy T*S    EENTRO =        -5.27057027
  eigenvalues    EBANDS =       127.36734193
  atomic energy  EATOM  =     30161.86332653
  Solvation  Ediel_sol  =         0.00000000
  ---------------------------------------------------
  free energy    TOTEN  =      -212.08341521 eV

  energy without entropy =     -206.81284493  energy(sigma->0) =     -209.44813007


--------------------------------------------------------------------------------------------------------




--------------------------------------- Iteration      1(   6)  ---------------------------------------


    POTLOK:  cpu time    0.0688: real time    0.0688
    SETDIJ:  cpu time    0.0198: real time    0.0198
     EDDAV:  cpu time   37.3424: real time   37.5311
       DOS:  cpu time    0.0203: real time    0.0203
    CHARGE:  cpu time    1.1638: real time    1.1648
    MIXING:  cpu time    0.0072: real time    0.0161
    --------------------------------------------
      LOOP:  cpu time   38.6223: real time   38.8209

 eigenvalue-minimisations  : 11896
 total energy-change (2. order) : 0.9161976E+01  (-0.3137835E+01)
 number of electron     376.0000442 magnetization 
 augmentation part      152.2337323 magnetization 

 Broyden mixing:
  rms(total) = 0.20061E+01    rms(broyden)= 0.20059E+01
  rms(prec ) = 0.20447E+01
  weight for this iteration     100.00

 eigenvalues of (default mixing * dielectric matrix)
  average eigenvalue GAMMA=   1.4506
  1.4506

 Free energy of the ion-electron system (eV)
  ---------------------------------------------------
  alpha Z        PSCENC =       918.22725072
  Ewald energy   TEWEN  =     20872.19098748
  -Hartree energ DENC   =    -53371.75285044
  -exchange      EXHF   =         0.00000000
  -V(xc)+E(xc)   XCENC  =     -1000.09790107
  PAW double counting   =     31991.28585943   -29799.33318115
  entropy T*S    EENTRO =        -5.19962329
  eigenvalues    EBANDS =        29.89469285
  atomic energy  EATOM  =     30161.86332653
  Solvation  Ediel_sol  =         0.00000000
  ---------------------------------------------------
  free energy    TOTEN  =      -202.92143894 eV

  energy without entropy =     -197.72181565  energy(sigma->0) =     -200.32162730


--------------------------------------------------------------------------------------------------------




--------------------------------------- Iteration      1(   7)  ---------------------------------------


    POTLOK:  cpu time    0.0691: real time    0.0692
    SETDIJ:  cpu time    0.0197: real time    0.0197
     EDDAV:  cpu time   37.9989: real time   38.0599
       DOS:  cpu time    0.0208: real time    0.0210
    CHARGE:  cpu time    1.1660: real time    1.1671
    MIXING:  cpu time    0.0029: real time    0.0044
    --------------------------------------------
      LOOP:  cpu time   39.2775: real time   39.3413

 eigenvalue-minimisations  : 12256
 total energy-change (2. order) :-0.3267777E+01  (-0.8722810E+00)
 number of electron     376.0000458 magnetization 
 augmentation part      152.6342700 magnetization 

 Broyden mixing:
  rms(total) = 0.21919E+01    rms(broyden)= 0.21917E+01
  rms(prec ) = 0.28980E+01
  weight for this iteration     100.00

 eigenvalues of (default mixing * dielectric matrix)
  average eigenvalue GAMMA=   1.0079
  1.6621  0.3537

 Free energy of the ion-electron system (eV)
  ---------------------------------------------------
  alpha Z        PSCENC =       918.22725072
  Ewald energy   TEWEN  =     20872.19098748
  -Hartree energ DENC   =    -53353.55695416
  -exchange      EXHF   =         0.00000000
  -V(xc)+E(xc)   XCENC  =     -1001.06175475
  PAW double counting   =     33694.62837322   -31524.60179913
  entropy T*S    EENTRO =        -4.86775876
  eigenvalues    EBANDS =        30.98911266
  atomic energy  EATOM  =     30161.86332653
  Solvation  Ediel_sol  =         0.00000000
  ---------------------------------------------------
  free energy    TOTEN  =      -206.18921618 eV

  energy without entropy =     -201.32145742  energy(sigma->0) =     -203.75533680


--------------------------------------------------------------------------------------------------------




--------------------------------------- Iteration      1(   8)  ---------------------------------------


    POTLOK:  cpu time    0.0691: real time    0.0691
    SETDIJ:  cpu time    0.0190: real time    0.0197
     EDDAV:  cpu time   38.1137: real time   38.3767
       DOS:  cpu time    0.0207: real time    0.0207
    CHARGE:  cpu time    1.1834: real time    1.1845
    MIXING:  cpu time    0.0025: real time    0.0025
    --------------------------------------------
      LOOP:  cpu time   39.4082: real time   39.6731

 eigenvalue-minimisations  : 12304
 total energy-change (2. order) : 0.2534584E+01  (-0.9744989E+00)
 number of electron     376.0000445 magnetization 
 augmentation part      152.4431724 magnetization 

 Broyden mixing:
  rms(total) = 0.11751E+01    rms(broyden)= 0.11747E+01
  rms(prec ) = 0.18138E+01
  weight for this iteration     100.00

 eigenvalues of (default mixing * dielectric matrix)
  average eigenvalue GAMMA=   1.0535
  2.1458  0.8099  0.2049

 Free energy of the ion-electron system (eV)
  ---------------------------------------------------
  alpha Z        PSCENC =       918.22725072
  Ewald energy   TEWEN  =     20872.19098748
  -Hartree energ DENC   =    -53416.25987130
  -exchange      EXHF   =         0.00000000
  -V(xc)+E(xc)   XCENC  =     -1001.30410217
  PAW double counting   =     34107.50322323   -31942.56800635
  entropy T*S    EENTRO =        -4.95689032
  eigenvalues    EBANDS =       101.64944976
  atomic energy  EATOM  =     30161.86332653
  Solvation  Ediel_sol  =         0.00000000
  ---------------------------------------------------
  free energy    TOTEN  =      -203.65463242 eV

  energy without entropy =     -198.69774210  energy(sigma->0) =     -201.17618726


--------------------------------------------------------------------------------------------------------




--------------------------------------- Iteration      1(   9)  ---------------------------------------


    POTLOK:  cpu time    0.0688: real time    0.0690
    SETDIJ:  cpu time    0.0196: real time    0.0194
     EDDAV:  cpu time   39.8793: real time   40.2191
       DOS:  cpu time    0.0203: real time    0.0203
    CHARGE:  cpu time    1.1748: real time    1.1759
    MIXING:  cpu time    0.0027: real time    0.0027
    --------------------------------------------
      LOOP:  cpu time   41.1656: real time   41.5065

 eigenvalue-minimisations  : 12976
 total energy-change (2. order) :-0.3919567E+01  (-0.7444132E+00)
 number of electron     376.0000430 magnetization 
 augmentation part      152.3240475 magnetization 

 Broyden mixing:
  rms(total) = 0.19911E+01    rms(broyden)= 0.19909E+01
  rms(prec ) = 0.36303E+01
  weight for this iteration     100.00

 eigenvalues of (default mixing * dielectric matrix)
  average eigenvalue GAMMA=   0.8856
  2.2861  0.8775  0.2468  0.1319

 Free energy of the ion-electron system (eV)
  ---------------------------------------------------
  alpha Z        PSCENC =       918.22725072
  Ewald energy   TEWEN  =     20872.19098748
  -Hartree energ DENC   =    -53413.70433743
  -exchange      EXHF   =         0.00000000
  -V(xc)+E(xc)   XCENC  =     -1001.17127519
  PAW double counting   =     34798.21318543   -32641.41386637
  entropy T*S    EENTRO =        -4.40771081
  eigenvalues    EBANDS =       102.62824049
  atomic energy  EATOM  =     30161.86332653
  Solvation  Ediel_sol  =         0.00000000
  ---------------------------------------------------
  free energy    TOTEN  =      -207.57419916 eV

  energy without entropy =     -203.16648835  energy(sigma->0) =     -205.37034375


--------------------------------------------------------------------------------------------------------




--------------------------------------- Iteration      1(  10)  ---------------------------------------


    POTLOK:  cpu time    0.0689: real time    0.0690
    SETDIJ:  cpu time    0.0195: real time    0.0195
     EDDAV:  cpu time   41.0824: real time   41.1597
       DOS:  cpu time    0.0212: real time    0.0212
    CHARGE:  cpu time    1.1688: real time    1.1700
    MIXING:  cpu time    0.0034: real time    0.0050
    --------------------------------------------
      LOOP:  cpu time   42.3644: real time   42.4444

 eigenvalue-minimisations  : 13536
 total energy-change (2. order) : 0.5546286E+01  (-0.4180005E+00)
 number of electron     376.0000447 magnetization 
 augmentation part      152.7468540 magnetization 

 Broyden mixing:
  rms(total) = 0.28537E+00    rms(broyden)= 0.28463E+00
  rms(prec ) = 0.44931E+00
  weight for this iteration     100.00

 eigenvalues of (default mixing * dielectric matrix)
  average eigenvalue GAMMA=   0.8896
  2.3910  1.0618  0.6567  0.2141  0.1243

 Free energy of the ion-electron system (eV)
  ---------------------------------------------------
  alpha Z        PSCENC =       918.22725072
  Ewald energy   TEWEN  =     20872.19098748
  -Hartree energ DENC   =    -53403.13093817
  -exchange      EXHF   =         0.00000000
  -V(xc)+E(xc)   XCENC  =     -1001.11301572
  PAW double counting   =     35086.94690854   -32933.56926218
  entropy T*S    EENTRO =        -5.20456089
  eigenvalues    EBANDS =       101.76139090
  atomic energy  EATOM  =     30161.86332653
  Solvation  Ediel_sol  =         0.00000000
  ---------------------------------------------------
  free energy    TOTEN  =      -202.02791279 eV

  energy without entropy =     -196.82335190  energy(sigma->0) =     -199.42563234


--------------------------------------------------------------------------------------------------------




--------------------------------------- Iteration      1(  11)  ---------------------------------------


    POTLOK:  cpu time    0.0691: real time    0.0691
    SETDIJ:  cpu time    0.0196: real time    0.0195
     EDDAV:  cpu time   37.1587: real time   37.4513
       DOS:  cpu time    0.0207: real time    0.0207
    CHARGE:  cpu time    1.1723: real time    1.1737
    MIXING:  cpu time    0.0029: real time    0.0029
    --------------------------------------------
      LOOP:  cpu time   38.4432: real time   38.7373

 eigenvalue-minimisations  : 11856
 total energy-change (2. order) : 0.2968394E-01  (-0.4837221E-01)
 number of electron     376.0000443 magnetization 
 augmentation part      152.6271765 magnetization 

 Broyden mixing:
  rms(total) = 0.20226E+00    rms(broyden)= 0.20220E+00
  rms(prec ) = 0.30049E+00
  weight for this iteration     100.00

 eigenvalues of (default mixing * dielectric matrix)
  average eigenvalue GAMMA=   0.7792
  2.3927  1.0584  0.6423  0.1219  0.2199  0.2401

 Free energy of the ion-electron system (eV)
  ---------------------------------------------------
  alpha Z        PSCENC =       918.22725072
  Ewald energy   TEWEN  =     20872.19098748
  -Hartree energ DENC   =    -53416.75537408
  -exchange      EXHF   =         0.00000000
  -V(xc)+E(xc)   XCENC  =     -1001.06486140
  PAW double counting   =     35268.08534277   -33115.62102506
  entropy T*S    EENTRO =        -5.21550709
  eigenvalues    EBANDS =       116.29163128
  atomic energy  EATOM  =     30161.86332653
  Solvation  Ediel_sol  =         0.00000000
  ---------------------------------------------------
  free energy    TOTEN  =      -201.99822885 eV

  energy without entropy =     -196.78272175  energy(sigma->0) =     -199.39047530


--------------------------------------------------------------------------------------------------------




--------------------------------------- Iteration      1(  12)  ---------------------------------------


    POTLOK:  cpu time    0.0684: real time    0.0684
    SETDIJ:  cpu time    0.0195: real time    0.0195
     EDDAV:  cpu time   36.4029: real time   36.6737
       DOS:  cpu time    0.0206: real time    0.0206
    CHARGE:  cpu time    1.1678: real time    1.1690
    MIXING:  cpu time    0.0031: real time    0.0031
    --------------------------------------------
      LOOP:  cpu time   37.6822: real time   37.9543

 eigenvalue-minimisations  : 11512
 total energy-change (2. order) : 0.3542048E-01  (-0.8875356E-02)
 number of electron     376.0000443 magnetization 
 augmentation part      152.6074450 magnetization 

 Broyden mixing:
  rms(total) = 0.66634E-01    rms(broyden)= 0.66582E-01
  rms(prec ) = 0.10759E+00
  weight for this iteration     100.00

 eigenvalues of (default mixing * dielectric matrix)
  average eigenvalue GAMMA=   0.7844
  2.4005  1.0507  0.7216  0.7216  0.1227  0.2110  0.2624

 Free energy of the ion-electron system (eV)
  ---------------------------------------------------
  alpha Z        PSCENC =       918.22725072
  Ewald energy   TEWEN  =     20872.19098748
  -Hartree energ DENC   =    -53418.54744250
  -exchange      EXHF   =         0.00000000
  -V(xc)+E(xc)   XCENC  =     -1001.03316669
  PAW double counting   =     35273.73610065   -33121.17872248
  entropy T*S    EENTRO =        -5.22425338
  eigenvalues    EBANDS =       118.00311129
  atomic energy  EATOM  =     30161.86332653
  Solvation  Ediel_sol  =         0.00000000
  ---------------------------------------------------
  free energy    TOTEN  =      -201.96280837 eV

  energy without entropy =     -196.73855499  energy(sigma->0) =     -199.35068168


--------------------------------------------------------------------------------------------------------




--------------------------------------- Iteration      1(  13)  ---------------------------------------


    POTLOK:  cpu time    0.0693: real time    0.0694
    SETDIJ:  cpu time    0.0195: real time    0.0195
     EDDAV:  cpu time   37.6648: real time   37.7401
       DOS:  cpu time    0.0208: real time    0.0208
    CHARGE:  cpu time    1.1712: real time    1.1733
    MIXING:  cpu time    0.0033: real time    0.0033
    --------------------------------------------
      LOOP:  cpu time   38.9490: real time   39.0264

 eigenvalue-minimisations  : 12096
 total energy-change (2. order) : 0.3463000E-02  (-0.1601385E-02)
 number of electron     376.0000444 magnetization 
 augmentation part      152.5790055 magnetization 

 Broyden mixing:
  rms(total) = 0.55219E-01    rms(broyden)= 0.55204E-01
  rms(prec ) = 0.74018E-01
  weight for this iteration     100.00

 eigenvalues of (default mixing * dielectric matrix)
  average eigenvalue GAMMA=   0.8538
  2.4039  1.2677  1.2677  0.7182  0.5917  0.1227  0.2135  0.2448

 Free energy of the ion-electron system (eV)
  ---------------------------------------------------
  alpha Z        PSCENC =       918.22725072
  Ewald energy   TEWEN  =     20872.19098748
  -Hartree energ DENC   =    -53424.62175538
  -exchange      EXHF   =         0.00000000
  -V(xc)+E(xc)   XCENC  =     -1000.96189911
  PAW double counting   =     35277.19104735   -33124.35505987
  entropy T*S    EENTRO =        -5.22945711
  eigenvalues    EBANDS =       123.73621403
  atomic energy  EATOM  =     30161.86332653
  Solvation  Ediel_sol  =         0.00000000
  ---------------------------------------------------
  free energy    TOTEN  =      -201.95934537 eV

  energy without entropy =     -196.72988825  energy(sigma->0) =     -199.34461681


--------------------------------------------------------------------------------------------------------




--------------------------------------- Iteration      1(  14)  ---------------------------------------


    POTLOK:  cpu time    0.0691: real time    0.0691
    SETDIJ:  cpu time    0.0195: real time    0.0195
     EDDAV:  cpu time   38.7467: real time   38.9612
       DOS:  cpu time    0.0209: real time    0.0209
    CHARGE:  cpu time    1.1871: real time    1.1881
    MIXING:  cpu time    0.0033: real time    0.0033
    --------------------------------------------
      LOOP:  cpu time   40.0467: real time   40.2622

 eigenvalue-minimisations  : 12528
 total energy-change (2. order) : 0.4206467E-02  (-0.4044804E-03)
 number of electron     376.0000444 magnetization 
 augmentation part      152.5717071 magnetization 

 Broyden mixing:
  rms(total) = 0.29959E-01    rms(broyden)= 0.29956E-01
  rms(prec ) = 0.47175E-01
  weight for this iteration     100.00

 eigenvalues of (default mixing * dielectric matrix)
  average eigenvalue GAMMA=   0.8674
  2.4041  1.5945  1.2764  0.7773  0.6225  0.5490  0.1227  0.2130  0.2470

 Free energy of the ion-electron system (eV)
  ---------------------------------------------------
  alpha Z        PSCENC =       918.22725072
  Ewald energy   TEWEN  =     20872.19098748
  -Hartree energ DENC   =    -53432.83354778
  -exchange      EXHF   =         0.00000000
  -V(xc)+E(xc)   XCENC  =     -1000.90299652
  PAW double counting   =     35264.29503115   -33111.17838776
  entropy T*S    EENTRO =        -5.23166082
  eigenvalues    EBANDS =       131.61485810
  atomic energy  EATOM  =     30161.86332653
  Solvation  Ediel_sol  =         0.00000000
  ---------------------------------------------------
  free energy    TOTEN  =      -201.95513890 eV

  energy without entropy =     -196.72347808  energy(sigma->0) =     -199.33930849


--------------------------------------------------------------------------------------------------------




--------------------------------------- Iteration      1(  15)  ---------------------------------------


    POTLOK:  cpu time    0.0690: real time    0.0691
    SETDIJ:  cpu time    0.0194: real time    0.0194
     EDDAV:  cpu time   37.3587: real time   37.6648
       DOS:  cpu time    0.0206: real time    0.0206
    CHARGE:  cpu time    1.1709: real time    1.1719
    MIXING:  cpu time    0.0038: real time    0.0038
    --------------------------------------------
      LOOP:  cpu time   38.6423: real time   38.9495

 eigenvalue-minimisations  : 11888
 total energy-change (2. order) : 0.1574995E-02  (-0.4391988E-03)
 number of electron     376.0000444 magnetization 
 augmentation part      152.5687429 magnetization 

 Broyden mixing:
  rms(total) = 0.29764E-01    rms(broyden)= 0.29758E-01
  rms(prec ) = 0.40976E-01
  weight for this iteration     100.00

 eigenvalues of (default mixing * dielectric matrix)
  average eigenvalue GAMMA=   0.8721
  2.3983  2.0212  1.2252  0.9589  0.6740  0.5977  0.1227  0.2129  0.2438  0.2659

 Free energy of the ion-electron system (eV)
  ---------------------------------------------------
  alpha Z        PSCENC =       918.22725072
  Ewald energy   TEWEN  =     20872.19098748
  -Hartree energ DENC   =    -53438.11783561
  -exchange      EXHF   =         0.00000000
  -V(xc)+E(xc)   XCENC  =     -1000.87337522
  PAW double counting   =     35252.57895134   -33099.34269032
  entropy T*S    EENTRO =        -5.23201934
  eigenvalues    EBANDS =       136.75184050
  atomic energy  EATOM  =     30161.86332653
  Solvation  Ediel_sol  =         0.00000000
  ---------------------------------------------------
  free energy    TOTEN  =      -201.95356391 eV

  energy without entropy =     -196.72154456  energy(sigma->0) =     -199.33755424


--------------------------------------------------------------------------------------------------------




--------------------------------------- Iteration      1(  16)  ---------------------------------------


    POTLOK:  cpu time    0.0692: real time    0.0692
    SETDIJ:  cpu time    0.0254: real time    0.0254
     EDDAV:  cpu time   37.4341: real time   37.4934
       DOS:  cpu time    0.0209: real time    0.0209
    CHARGE:  cpu time    1.1821: real time    1.1837
    MIXING:  cpu time    0.0042: real time    0.0049
    --------------------------------------------
      LOOP:  cpu time   38.7358: real time   38.7976

 eigenvalue-minimisations  : 12008
 total energy-change (2. order) : 0.1719032E-02  (-0.2433732E-03)
 number of electron     376.0000443 magnetization 
 augmentation part      152.5663428 magnetization 

 Broyden mixing:
  rms(total) = 0.18822E-01    rms(broyden)= 0.18818E-01
  rms(prec ) = 0.31091E-01
  weight for this iteration     100.00

 eigenvalues of (default mixing * dielectric matrix)
  average eigenvalue GAMMA=   0.8615
  2.3280  2.3280  1.1670  1.0288  0.6906  0.6297  0.4852  0.1227  0.2130  0.2455
  0.2380

 Free energy of the ion-electron system (eV)
  ---------------------------------------------------
  alpha Z        PSCENC =       918.22725072
  Ewald energy   TEWEN  =     20872.19098748
  -Hartree energ DENC   =    -53442.29867651
  -exchange      EXHF   =         0.00000000
  -V(xc)+E(xc)   XCENC  =     -1000.84984323
  PAW double counting   =     35243.27231822   -33089.96031818
  entropy T*S    EENTRO =        -5.23236833
  eigenvalues    EBANDS =       140.83547843
  atomic energy  EATOM  =     30161.86332653
  Solvation  Ediel_sol  =         0.00000000
  ---------------------------------------------------
  free energy    TOTEN  =      -201.95184488 eV

  energy without entropy =     -196.71947654  energy(sigma->0) =     -199.33566071


--------------------------------------------------------------------------------------------------------




--------------------------------------- Iteration      1(  17)  ---------------------------------------


    POTLOK:  cpu time    0.0692: real time    0.0692
    SETDIJ:  cpu time    0.0195: real time    0.0195
     EDDAV:  cpu time   37.1472: real time   37.5303
       DOS:  cpu time    0.0204: real time    0.0204
    CHARGE:  cpu time    1.1856: real time    1.1867
    MIXING:  cpu time    0.0041: real time    0.0041
    --------------------------------------------
      LOOP:  cpu time   38.4461: real time   38.8303

 eigenvalue-minimisations  : 11872
 total energy-change (2. order) : 0.5603576E-03  (-0.1550424E-03)
 number of electron     376.0000444 magnetization 
 augmentation part      152.5631434 magnetization 

 Broyden mixing:
  rms(total) = 0.15962E-01    rms(broyden)= 0.15960E-01
  rms(prec ) = 0.22246E-01
  weight for this iteration     100.00

 eigenvalues of (default mixing * dielectric matrix)
  average eigenvalue GAMMA=   0.9110
  2.7566  2.4463  1.2339  1.2339  0.9314  0.6646  0.5828  0.1227  0.2809  0.2449
  0.2132  0.2210

 Free energy of the ion-electron system (eV)
  ---------------------------------------------------
  alpha Z        PSCENC =       918.22725072
  Ewald energy   TEWEN  =     20872.19098748
  -Hartree energ DENC   =    -53445.32315646
  -exchange      EXHF   =         0.00000000
  -V(xc)+E(xc)   XCENC  =     -1000.83034846
  PAW double counting   =     35237.60225423   -33084.25344146
  entropy T*S    EENTRO =        -5.23296790
  eigenvalues    EBANDS =       143.80481080
  atomic energy  EATOM  =     30161.86332653
  Solvation  Ediel_sol  =         0.00000000
  ---------------------------------------------------
  free energy    TOTEN  =      -201.95128452 eV

  energy without entropy =     -196.71831662  energy(sigma->0) =     -199.33480057


--------------------------------------------------------------------------------------------------------




--------------------------------------- Iteration      1(  18)  ---------------------------------------


    POTLOK:  cpu time    0.0691: real time    0.0692
    SETDIJ:  cpu time    0.0195: real time    0.0195
     EDDAV:  cpu time   37.2627: real time   37.5518
       DOS:  cpu time    0.0210: real time    0.0212
    CHARGE:  cpu time    1.1810: real time    1.1822
    MIXING:  cpu time    0.0043: real time    0.0043
    --------------------------------------------
      LOOP:  cpu time   38.5576: real time   38.8481

 eigenvalue-minimisations  : 11856
 total energy-change (2. order) : 0.4539741E-03  (-0.1542030E-03)
 number of electron     376.0000444 magnetization 
 augmentation part      152.5569826 magnetization 

 Broyden mixing:
  rms(total) = 0.18917E-01    rms(broyden)= 0.18915E-01
  rms(prec ) = 0.31336E-01
  weight for this iteration     100.00

 eigenvalues of (default mixing * dielectric matrix)
  average eigenvalue GAMMA=   0.9132
  2.9445  2.4451  1.3435  1.3435  0.9869  0.6452  0.5619  0.5226  0.1227  0.2768
  0.2470  0.2129  0.2188

 Free energy of the ion-electron system (eV)
  ---------------------------------------------------
  alpha Z        PSCENC =       918.22725072
  Ewald energy   TEWEN  =     20872.19098748
  -Hartree energ DENC   =    -53450.83363971
  -exchange      EXHF   =         0.00000000
  -V(xc)+E(xc)   XCENC  =     -1000.79709099
  PAW double counting   =     35228.42848142   -33075.04478208
  entropy T*S    EENTRO =        -5.23378656
  eigenvalues    EBANDS =       149.24842265
  atomic energy  EATOM  =     30161.86332653
  Solvation  Ediel_sol  =         0.00000000
  ---------------------------------------------------
  free energy    TOTEN  =      -201.95083054 eV

  energy without entropy =     -196.71704398  energy(sigma->0) =     -199.33393726


--------------------------------------------------------------------------------------------------------




--------------------------------------- Iteration      1(  19)  ---------------------------------------


    POTLOK:  cpu time    0.0694: real time    0.0695
    SETDIJ:  cpu time    0.0197: real time    0.0197
     EDDAV:  cpu time   37.1524: real time   37.2081
       DOS:  cpu time    0.0206: real time    0.0206
    CHARGE:  cpu time    1.1895: real time    1.1908
    MIXING:  cpu time    0.0046: real time    0.0046
    --------------------------------------------
      LOOP:  cpu time   38.4562: real time   38.5132

 eigenvalue-minimisations  : 11904
 total energy-change (2. order) : 0.1900734E-03  (-0.5360672E-04)
 number of electron     376.0000444 magnetization 
 augmentation part      152.5575100 magnetization 

 Broyden mixing:
  rms(total) = 0.10422E-01    rms(broyden)= 0.10420E-01
  rms(prec ) = 0.16102E-01
  weight for this iteration     100.00

 eigenvalues of (default mixing * dielectric matrix)
  average eigenvalue GAMMA=   0.9151
  3.1069  2.4519  1.7219  1.2405  1.0374  0.6477  0.6477  0.5971  0.1227  0.2800
  0.2800  0.2458  0.2131  0.2184

 Free energy of the ion-electron system (eV)
  ---------------------------------------------------
  alpha Z        PSCENC =       918.22725072
  Ewald energy   TEWEN  =     20872.19098748
  -Hartree energ DENC   =    -53452.61082612
  -exchange      EXHF   =         0.00000000
  -V(xc)+E(xc)   XCENC  =     -1000.79413302
  PAW double counting   =     35226.89302759   -33073.54894240
  entropy T*S    EENTRO =        -5.23352080
  eigenvalues    EBANDS =       151.06218955
  atomic energy  EATOM  =     30161.86332653
  Solvation  Ediel_sol  =         0.00000000
  ---------------------------------------------------
  free energy    TOTEN  =      -201.95064047 eV

  energy without entropy =     -196.71711967  energy(sigma->0) =     -199.33388007


--------------------------------------------------------------------------------------------------------




--------------------------------------- Iteration      1(  20)  ---------------------------------------


    POTLOK:  cpu time    0.0696: real time    0.0696
    SETDIJ:  cpu time    0.0196: real time    0.0196
     EDDAV:  cpu time   36.8886: real time   37.2538
       DOS:  cpu time    0.0208: real time    0.0208
    CHARGE:  cpu time    1.1867: real time    1.1888
    MIXING:  cpu time    0.0047: real time    0.0047
    --------------------------------------------
      LOOP:  cpu time   38.1900: real time   38.5574

 eigenvalue-minimisations  : 11784
 total energy-change (2. order) :-0.5819435E-05  (-0.3264377E-04)
 number of electron     376.0000443 magnetization 
 augmentation part      152.5589433 magnetization 

 Broyden mixing:
  rms(total) = 0.53106E-02    rms(broyden)= 0.53078E-02
  rms(prec ) = 0.75810E-02
  weight for this iteration     100.00

 eigenvalues of (default mixing * dielectric matrix)
  average eigenvalue GAMMA=   0.9856
  3.4912  2.4279  2.3505  1.1153  1.0399  1.0399  0.6966  0.6966  0.5870  0.1227
  0.2874  0.2462  0.2514  0.2130  0.2183

 Free energy of the ion-electron system (eV)
  ---------------------------------------------------
  alpha Z        PSCENC =       918.22725072
  Ewald energy   TEWEN  =     20872.19098748
  -Hartree energ DENC   =    -53453.81358720
  -exchange      EXHF   =         0.00000000
  -V(xc)+E(xc)   XCENC  =     -1000.79454637
  PAW double counting   =     35226.41891883   -33073.12014907
  entropy T*S    EENTRO =        -5.23331929
  eigenvalues    EBANDS =       152.31047209
  atomic energy  EATOM  =     30161.86332653
  Solvation  Ediel_sol  =         0.00000000
  ---------------------------------------------------
  free energy    TOTEN  =      -201.95064629 eV

  energy without entropy =     -196.71732700  energy(sigma->0) =     -199.33398664


--------------------------------------------------------------------------------------------------------




--------------------------------------- Iteration      1(  21)  ---------------------------------------


    POTLOK:  cpu time    0.0695: real time    0.0696
    SETDIJ:  cpu time    0.0195: real time    0.0194
     EDDAV:  cpu time   36.8871: real time   37.0434
       DOS:  cpu time    0.0199: real time    0.0199
    CHARGE:  cpu time    1.1740: real time    1.2189
    MIXING:  cpu time    0.0050: real time    0.0050
    --------------------------------------------
      LOOP:  cpu time   38.1751: real time   38.3764

 eigenvalue-minimisations  : 11704
 total energy-change (2. order) :-0.1729699E-03  (-0.1862798E-04)
 number of electron     376.0000443 magnetization 
 augmentation part      152.5595034 magnetization 

 Broyden mixing:
  rms(total) = 0.51243E-02    rms(broyden)= 0.51237E-02
  rms(prec ) = 0.71978E-02
  weight for this iteration     100.00

 eigenvalues of (default mixing * dielectric matrix)
  average eigenvalue GAMMA=   1.0477
  4.4810  2.6773  2.4669  1.2327  1.2327  1.0615  0.6691  0.6691  0.5956  0.1227
  0.3327  0.2942  0.2475  0.2491  0.2130  0.2173

 Free energy of the ion-electron system (eV)
  ---------------------------------------------------
  alpha Z        PSCENC =       918.22725072
  Ewald energy   TEWEN  =     20872.19098748
  -Hartree energ DENC   =    -53455.38318930
  -exchange      EXHF   =         0.00000000
  -V(xc)+E(xc)   XCENC  =     -1000.79296058
  PAW double counting   =     35226.21665324   -33072.97320870
  entropy T*S    EENTRO =        -5.23359477
  eigenvalues    EBANDS =       153.93391612
  atomic energy  EATOM  =     30161.86332653
  Solvation  Ediel_sol  =         0.00000000
  ---------------------------------------------------
  free energy    TOTEN  =      -201.95081926 eV

  energy without entropy =     -196.71722449  energy(sigma->0) =     -199.33402187


--------------------------------------------------------------------------------------------------------




--------------------------------------- Iteration      1(  22)  ---------------------------------------


    POTLOK:  cpu time    0.0694: real time    0.0694
    SETDIJ:  cpu time    0.0209: real time    0.0209
     EDDAV:  cpu time   37.7309: real time   37.7953
       DOS:  cpu time    0.0203: real time    0.0203
    CHARGE:  cpu time    1.1870: real time    1.1883
    MIXING:  cpu time    0.0052: real time    0.0052
    --------------------------------------------
      LOOP:  cpu time   39.0335: real time   39.0992

 eigenvalue-minimisations  : 12080
 total energy-change (2. order) :-0.5688257E-04  (-0.7194040E-05)
 number of electron     376.0000443 magnetization 
 augmentation part      152.5594055 magnetization 

 Broyden mixing:
  rms(total) = 0.26567E-02    rms(broyden)= 0.26562E-02
  rms(prec ) = 0.42005E-02
  weight for this iteration     100.00

 eigenvalues of (default mixing * dielectric matrix)
  average eigenvalue GAMMA=   1.0964
  5.3281  2.7696  2.4421  1.3416  1.3416  1.0430  0.7370  0.7370  0.6821  0.5778
  0.1227  0.3086  0.2823  0.2495  0.2454  0.2130  0.2178

 Free energy of the ion-electron system (eV)
  ---------------------------------------------------
  alpha Z        PSCENC =       918.22725072
  Ewald energy   TEWEN  =     20872.19098748
  -Hartree energ DENC   =    -53455.91191958
  -exchange      EXHF   =         0.00000000
  -V(xc)+E(xc)   XCENC  =     -1000.79234166
  PAW double counting   =     35226.15874396   -33072.92895842
  entropy T*S    EENTRO =        -5.23375183
  eigenvalues    EBANDS =       154.47578667
  atomic energy  EATOM  =     30161.86332653
  Solvation  Ediel_sol  =         0.00000000
  ---------------------------------------------------
  free energy    TOTEN  =      -201.95087614 eV

  energy without entropy =     -196.71712431  energy(sigma->0) =     -199.33400023


--------------------------------------------------------------------------------------------------------




--------------------------------------- Iteration      1(  23)  ---------------------------------------


    POTLOK:  cpu time    0.0686: real time    0.0695
    SETDIJ:  cpu time    0.0195: real time    0.0195
     EDDAV:  cpu time   36.9928: real time   37.2543
       DOS:  cpu time    0.0211: real time    0.0211
    CHARGE:  cpu time    1.1824: real time    1.1833
    MIXING:  cpu time    0.0053: real time    0.0053
    --------------------------------------------
      LOOP:  cpu time   38.2897: real time   38.5530

 eigenvalue-minimisations  : 11736
 total energy-change (2. order) :-0.5311338E-04  (-0.1536518E-05)
 number of electron     376.0000443 magnetization 
 augmentation part      152.5591227 magnetization 

 Broyden mixing:
  rms(total) = 0.18449E-02    rms(broyden)= 0.18448E-02
  rms(prec ) = 0.28752E-02
  weight for this iteration     100.00

 eigenvalues of (default mixing * dielectric matrix)
  average eigenvalue GAMMA=   1.0716
  5.4522  2.7972  2.4350  1.3670  1.3670  1.0418  0.7589  0.7589  0.6803  0.5741
  0.1227  0.4016  0.3228  0.2836  0.2471  0.2471  0.2130  0.2178

 Free energy of the ion-electron system (eV)
  ---------------------------------------------------
  alpha Z        PSCENC =       918.22725072
  Ewald energy   TEWEN  =     20872.19098748
  -Hartree energ DENC   =    -53456.12400829
  -exchange      EXHF   =         0.00000000
  -V(xc)+E(xc)   XCENC  =     -1000.79224491
  PAW double counting   =     35225.97801378   -33072.74197989
  entropy T*S    EENTRO =        -5.23389335
  eigenvalues    EBANDS =       154.68161868
  atomic energy  EATOM  =     30161.86332653
  Solvation  Ediel_sol  =         0.00000000
  ---------------------------------------------------
  free energy    TOTEN  =      -201.95092926 eV

  energy without entropy =     -196.71703591  energy(sigma->0) =     -199.33398258


--------------------------------------------------------------------------------------------------------




--------------------------------------- Iteration      1(  24)  ---------------------------------------


    POTLOK:  cpu time    0.0696: real time    0.0696
    SETDIJ:  cpu time    0.0194: real time    0.0194
     EDDAV:  cpu time   32.9427: real time   32.9975
       DOS:  cpu time    0.0203: real time    0.0203
    CHARGE:  cpu time    1.1831: real time    1.1844
    MIXING:  cpu time    0.0056: real time    0.0056
    --------------------------------------------
      LOOP:  cpu time   34.2406: real time   34.2967

 eigenvalue-minimisations  : 10064
 total energy-change (2. order) :-0.1658047E-04  (-0.7038446E-06)
 number of electron     376.0000443 magnetization 
 augmentation part      152.5589733 magnetization 

 Broyden mixing:
  rms(total) = 0.16178E-02    rms(broyden)= 0.16177E-02
  rms(prec ) = 0.24367E-02
  weight for this iteration     100.00

 eigenvalues of (default mixing * dielectric matrix)
  average eigenvalue GAMMA=   1.1175
  5.7931  2.9514  2.3882  1.9016  1.3095  1.0866  1.0180  0.9402  0.6973  0.6973
  0.5832  0.1227  0.3119  0.2827  0.2465  0.2481  0.2130  0.2179  0.2225

 Free energy of the ion-electron system (eV)
  ---------------------------------------------------
  alpha Z        PSCENC =       918.22725072
  Ewald energy   TEWEN  =     20872.19098748
  -Hartree energ DENC   =    -53456.15942698
  -exchange      EXHF   =         0.00000000
  -V(xc)+E(xc)   XCENC  =     -1000.79229431
  PAW double counting   =     35225.95654100   -33072.71757713
  entropy T*S    EENTRO =        -5.23392807
  eigenvalues    EBANDS =       154.71417493
  atomic energy  EATOM  =     30161.86332653
  Solvation  Ediel_sol  =         0.00000000
  ---------------------------------------------------
  free energy    TOTEN  =      -201.95094584 eV

  energy without entropy =     -196.71701776  energy(sigma->0) =     -199.33398180


--------------------------------------------------------------------------------------------------------




--------------------------------------- Iteration      1(  25)  ---------------------------------------


    POTLOK:  cpu time    0.0690: real time    0.0690
    SETDIJ:  cpu time    0.0195: real time    0.0195
     EDDAV:  cpu time   32.6101: real time   32.7959
       DOS:  cpu time    0.0206: real time    0.0206
    CHARGE:  cpu time    1.1826: real time    1.1835
    MIXING:  cpu time    0.0059: real time    0.0059
    --------------------------------------------
      LOOP:  cpu time   33.9075: real time   34.0943

 eigenvalue-minimisations  :  9880
 total energy-change (2. order) :-0.3101630E-04  (-0.7884714E-06)
 number of electron     376.0000443 magnetization 
 augmentation part      152.5585777 magnetization 

 Broyden mixing:
  rms(total) = 0.50126E-03    rms(broyden)= 0.50092E-03
  rms(prec ) = 0.67453E-03
  weight for this iteration     100.00

 eigenvalues of (default mixing * dielectric matrix)
  average eigenvalue GAMMA=   1.1257
  5.9932  3.0182  2.2983  2.2983  1.3753  1.1132  1.1132  0.7716  0.7716  0.6555
  0.6555  0.5846  0.1227  0.3174  0.2839  0.2463  0.2484  0.2130  0.2179  0.2162

 Free energy of the ion-electron system (eV)
  ---------------------------------------------------
  alpha Z        PSCENC =       918.22725072
  Ewald energy   TEWEN  =     20872.19098748
  -Hartree energ DENC   =    -53456.22349959
  -exchange      EXHF   =         0.00000000
  -V(xc)+E(xc)   XCENC  =     -1000.79240575
  PAW double counting   =     35225.92027883   -33072.67334889
  entropy T*S    EENTRO =        -5.23400062
  eigenvalues    EBANDS =       154.77043443
  atomic energy  EATOM  =     30161.86332653
  Solvation  Ediel_sol  =         0.00000000
  ---------------------------------------------------
  free energy    TOTEN  =      -201.95097685 eV

  energy without entropy =     -196.71697623  energy(sigma->0) =     -199.33397654


--------------------------------------------------------------------------------------------------------




--------------------------------------- Iteration      1(  26)  ---------------------------------------


    POTLOK:  cpu time    0.0691: real time    0.0691
    SETDIJ:  cpu time    0.0193: real time    0.0193
     EDDAV:  cpu time   28.4853: real time   28.6536
       DOS:  cpu time    0.0210: real time    0.0210
    CHARGE:  cpu time    1.1820: real time    1.2011
    MIXING:  cpu time    0.0064: real time    0.0073
    --------------------------------------------
      LOOP:  cpu time   29.7832: real time   29.9715

 eigenvalue-minimisations  :  8152
 total energy-change (2. order) :-0.5485490E-05  (-0.1646667E-06)
 number of electron     376.0000443 magnetization 
 augmentation part      152.5585329 magnetization 

 Broyden mixing:
  rms(total) = 0.38503E-03    rms(broyden)= 0.38492E-03
  rms(prec ) = 0.46508E-03
  weight for this iteration     100.00

[...]


--------------------------------------------------------------------------------------------------------




--------------------------------------- Iteration     38(   2)  ---------------------------------------


    POTLOK:  cpu time    0.0695: real time    0.0699
    SETDIJ:  cpu time    0.0194: real time    0.0194
     EDDAV:  cpu time   36.4407: real time   36.4925
       DOS:  cpu time    0.0206: real time    0.0206
    CHARGE:  cpu time    1.1672: real time    1.1683
    MIXING:  cpu time    0.0022: real time    0.0022
    --------------------------------------------
      LOOP:  cpu time   37.7197: real time   37.7730

 eigenvalue-minimisations  : 11512
 total energy-change (2. order) :-0.8702477E-04  (-0.8266604E-04)
 number of electron     375.9999993 magnetization 
 augmentation part      152.7397812 magnetization 

 eigenvalues of (default mixing * dielectric matrix)
  average eigenvalue GAMMA=   0.4213
  0.4213

  free energy =  -0.204004477467E+03  energy without entropy=  -0.198767867077E+03


--------------------------------------------------------------------------------------------------------




--------------------------------------- Iteration     38(   3)  ---------------------------------------


    POTLOK:  cpu time    0.0686: real time    0.0690
    SETDIJ:  cpu time    0.0197: real time    0.0197
     EDDAV:  cpu time   37.3992: real time   37.6981
       DOS:  cpu time    0.0203: real time    0.0204
    CHARGE:  cpu time    1.1724: real time    1.1734
    MIXING:  cpu time    0.0024: real time    0.0024
    --------------------------------------------
      LOOP:  cpu time   38.6826: real time   38.9829

 eigenvalue-minimisations  : 11848
 total energy-change (2. order) :-0.1181577E-04  (-0.1260336E-04)
 number of electron     375.9999993 magnetization 
 augmentation part      152.7395061 magnetization 

 eigenvalues of (default mixing * dielectric matrix)
  average eigenvalue GAMMA=   0.3901
  0.6970  0.0832

  free energy =  -0.204004489283E+03  energy without entropy=  -0.198767965045E+03


--------------------------------------------------------------------------------------------------------




--------------------------------------- Iteration     38(   4)  ---------------------------------------


    POTLOK:  cpu time    0.0682: real time    0.0686
    SETDIJ:  cpu time    0.0195: real time    0.0195
     EDDAV:  cpu time   37.2646: real time   37.5496
       DOS:  cpu time    0.0198: real time    0.0198
    CHARGE:  cpu time    1.1657: real time    1.1668
    MIXING:  cpu time    0.0026: real time    0.0026
    --------------------------------------------
      LOOP:  cpu time   38.5405: real time   38.8270

 eigenvalue-minimisations  : 11824
 total energy-change (2. order) : 0.2592881E-04  (-0.5019311E-05)
 number of electron     375.9999993 magnetization 
 augmentation part      152.7394409 magnetization 

 eigenvalues of (default mixing * dielectric matrix)
  average eigenvalue GAMMA=   0.4038
  0.8854  0.2257  0.1002

  free energy =  -0.204004463354E+03  energy without entropy=  -0.198767953580E+03


--------------------------------------------------------------------------------------------------------




--------------------------------------- Iteration     38(   5)  ---------------------------------------


    POTLOK:  cpu time    0.0687: real time    0.0692
    SETDIJ:  cpu time    0.0194: real time    0.0194
     EDDAV:  cpu time   36.8262: real time   36.8842
       DOS:  cpu time    0.0201: real time    0.0201
    CHARGE:  cpu time    1.1670: real time    1.1680
    MIXING:  cpu time    0.0027: real time    0.0028
    --------------------------------------------
      LOOP:  cpu time   38.1041: real time   38.1635

 eigenvalue-minimisations  : 11728
 total energy-change (2. order) : 0.6024238E-05  (-0.9173814E-06)
 number of electron     375.9999993 magnetization 
 augmentation part      152.7397957 magnetization 

 eigenvalues of (default mixing * dielectric matrix)
  average eigenvalue GAMMA=   0.5774
  1.2150  0.7870  0.2164  0.0913

  free energy =  -0.204004457330E+03  energy without entropy=  -0.198767885084E+03


--------------------------------------------------------------------------------------------------------




--------------------------------------- Iteration     38(   6)  ---------------------------------------


    POTLOK:  cpu time    0.0685: real time    0.0689
    SETDIJ:  cpu time    0.0195: real time    0.0195
     EDDAV:  cpu time   37.0559: real time   37.2752
       DOS:  cpu time    0.0202: real time    0.0202
    CHARGE:  cpu time    1.1660: real time    1.1673
    MIXING:  cpu time    0.0030: real time    0.0030
    --------------------------------------------
      LOOP:  cpu time   38.3331: real time   38.5541

 eigenvalue-minimisations  : 11688
 total energy-change (2. order) :-0.2698427E-05  (-0.1350474E-05)
 number of electron     375.9999993 magnetization 
 augmentation part      152.7394788 magnetization 

 eigenvalues of (default mixing * dielectric matrix)
  average eigenvalue GAMMA=   0.7598
  2.3888  0.8711  0.0916  0.2637  0.1839

  free energy =  -0.204004460028E+03  energy without entropy=  -0.198767983162E+03


--------------------------------------------------------------------------------------------------------




--------------------------------------- Iteration     38(   7)  ---------------------------------------


    POTLOK:  cpu time    0.0703: real time    0.0708
    SETDIJ:  cpu time    0.0197: real time    0.0196
     EDDAV:  cpu time   36.6618: real time   36.8553
       DOS:  cpu time    0.0206: real time    0.0206
    CHARGE:  cpu time    1.1651: real time    1.1686
    MIXING:  cpu time    0.0031: real time    0.0031
    --------------------------------------------
      LOOP:  cpu time   37.9405: real time   38.1380

 eigenvalue-minimisations  : 11680
 total energy-change (2. order) : 0.5319547E-05  (-0.1094711E-05)
 number of electron     375.9999993 magnetization 
 augmentation part      152.7397240 magnetization 

 eigenvalues of (default mixing * dielectric matrix)
  average eigenvalue GAMMA=   0.7131
  2.5161  0.8339  0.4099  0.0916  0.2514  0.1756

  free energy =  -0.204004454708E+03  energy without entropy=  -0.198767900742E+03


--------------------------------------------------------------------------------------------------------




--------------------------------------- Iteration     38(   8)  ---------------------------------------


    POTLOK:  cpu time    0.0682: real time    0.0686
    SETDIJ:  cpu time    0.0194: real time    0.0194
     EDDAV:  cpu time   24.8223: real time   24.9900
       DOS:  cpu time    0.0200: real time    0.0200
    --------------------------------------------
      LOOP:  cpu time   24.9298: real time   25.0980

 eigenvalue-minimisations  :  6496
 total energy-change (2. order) : 0.4615722E-06  (-0.2358640E-06)
 number of electron     375.9999993 magnetization 
 augmentation part      152.7397240 magnetization 

  free energy =  -0.204004454247E+03  energy without entropy=  -0.198767915391E+03


--------------------------------------------------------------------------------------------------------




------------------------ aborting loop because EDIFF is reached ----------------------------------------


    CHARGE:  cpu time    1.1646: real time    1.1657
    FORLOC:  cpu time    0.0186: real time    0.0186
    FORNL :  cpu time    5.4372: real time    5.4441
    STRESS:  cpu time   16.4633: real time   16.5052
    FORCOR:  cpu time    0.0843: real time    0.0843
    FORHAR:  cpu time    0.0308: real time    0.0309
    MIXING:  cpu time    0.0030: real time    0.0031
    OFIELD:  cpu time    0.0001: real time    0.0001

  FORCE on cell =-STRESS in cart. coord.  units (eV):
  Direction    XX          YY          ZZ          XY          YZ          ZX
  --------------------------------------------------------------------------------------
  Alpha Z   918.22725   918.22725   918.22725
  Ewald   39932.60220 40483.60264-60343.35377  -290.44675   -32.19431    13.86853
  Hartree 49083.79517 49345.14414-45777.94508  -139.25517   -14.58177     6.34785
  E(xc)   -1955.56812 -1954.11343 -1966.36169    -0.75999    -0.08850     0.03754
  Local  -95664.62989-96427.18145 99373.69358   403.69465    43.74791   -18.92833
  n-local  -202.89334  -206.82513  -244.85236     2.05082     0.22744    -0.10045
  augment  2667.10244  2665.25664  2720.71759     0.96496     0.11112    -0.04447
  Kinetic  5207.87571  5162.69284  5315.71097    23.57230     2.74735    -1.17009
  Fock        0.00000     0.00000     0.00000     0.00000     0.00000     0.00000
  -------------------------------------------------------------------------------------
  Total     -13.48858   -13.19650    -4.16352    -0.17919    -0.03076     0.01059
  in kB     -21.87019   -21.39662    -6.75067    -0.29053    -0.04987     0.01716
  external pressure =      -16.67 kB  Pullay stress =        0.00 kB



--------------------------------------------------------------------------------------------------------



  FREE ENERGIE OF THE ION-ELECTRON SYSTEM (eV)
  ---------------------------------------------------
  free  energy   TOTEN  =      -204.00445425 eV

  energy  without entropy=     -198.76791539  energy(sigma->0) =     -201.38618482
 
 d Force = 0.8330705E-04[ 0.760E-05, 0.159E-03]  d Energy = 0.6664354E-04 0.167E-04
 d Force = 0.6530377E+01[ 0.653E+01, 0.653E+01]  d Ewald  = 0.6530377E+01-0.667E-07


--------------------------------------------------------------------------------------------------------


    POTLOK:  cpu time    0.0917: real time    0.0917


--------------------------------------------------------------------------------------------------------


 stress matrix after NEB project (eV)
    -13.48858     -0.17919      0.01059
     -0.17919    -13.19650     -0.03076
      0.01059     -0.03076     -4.16352
  FORCES: max atom, RMS     0.031452    0.008532
  FORCE total and by dimension    0.053282    0.029054
  Stress total and by dimension   19.325910   13.488583


--------------------------------------------------------------------------------------------------------


    WAVPRE:  cpu time    0.0412: real time    0.0455
    FEWALD:  cpu time    0.0032: real time    0.0032

 real space projection operators:
  total allocation   :       9692.17 KBytes
  max/ min on nodes  :       1218.00       1202.31

    ORTHCH:  cpu time    2.4554: real time    2.4602
     LOOP+:  cpu time  317.1444: real time  318.7968


--------------------------------------- Iteration     39(   1)  ---------------------------------------


    POTLOK:  cpu time    0.0927: real time    0.0980
    SETDIJ:  cpu time    0.0194: real time    0.0194
     EDDAV:  cpu time   35.6238: real time   35.8454
       DOS:  cpu time    0.0200: real time    0.0200
    CHARGE:  cpu time    1.1642: real time    1.1652
    MIXING:  cpu time    0.0022: real time    0.0022
    --------------------------------------------
      LOOP:  cpu time   36.9225: real time   37.1503

 eigenvalue-minimisations  : 11136
 total energy-change (2. order) :-0.1402143E-04  (-0.1759742E-03)
 number of electron     375.9999993 magnetization 
 augmentation part      152.7398502 magnetization 

  free energy =  -0.204004468730E+03  energy without entropy=  -0.198767828988E+03


--------------------------------------------------------------------------------------------------------




--------------------------------------- Iteration     39(   2)  ---------------------------------------


    POTLOK:  cpu time    0.0699: real time    0.0704
    SETDIJ:  cpu time    0.0198: real time    0.0198
     EDDAV:  cpu time   36.8574: real time   37.1104
       DOS:  cpu time    0.0208: real time    0.0208
    CHARGE:  cpu time    1.1541: real time    1.1561
    MIXING:  cpu time    0.0024: real time    0.0024
    --------------------------------------------
      LOOP:  cpu time   38.1245: real time   38.3799

 eigenvalue-minimisations  : 11616
 total energy-change (2. order) :-0.2761430E-05  (-0.3386531E-05)
 number of electron     375.9999993 magnetization 
 augmentation part      152.7397593 magnetization 

 eigenvalues of (default mixing * dielectric matrix)
  average eigenvalue GAMMA=   0.5901
  0.5901

  free energy =  -0.204004471491E+03  energy without entropy=  -0.198767857702E+03


--------------------------------------------------------------------------------------------------------




--------------------------------------- Iteration     39(   3)  ---------------------------------------


    POTLOK:  cpu time    0.0826: real time    0.0871
    SETDIJ:  cpu time    0.0195: real time    0.0195
     EDDAV:  cpu time   28.4837: real time   28.5219
       DOS:  cpu time    0.0199: real time    0.0199
    CHARGE:  cpu time    1.1672: real time    1.1692
    MIXING:  cpu time    0.0024: real time    0.0024
    --------------------------------------------
      LOOP:  cpu time   29.7753: real time   29.8199

 eigenvalue-minimisations  :  8088
 total energy-change (2. order) :-0.2524554E-05  (-0.9280839E-06)
 number of electron     375.9999993 magnetization 
 augmentation part      152.7398749 magnetization 

 eigenvalues of (default mixing * dielectric matrix)
  average eigenvalue GAMMA=   0.5479
  0.9745  0.1212

  free energy =  -0.204004474016E+03  energy without entropy=  -0.198767834249E+03


--------------------------------------------------------------------------------------------------------




--------------------------------------- Iteration     39(   4)  ---------------------------------------


    POTLOK:  cpu time    0.0683: real time    0.0687
    SETDIJ:  cpu time    0.0194: real time    0.0194
     EDDAV:  cpu time   26.7506: real time   26.8861
       DOS:  cpu time    0.0199: real time    0.0217
    CHARGE:  cpu time    1.1626: real time    1.2166
    MIXING:  cpu time    0.0028: real time    0.0028
    --------------------------------------------
      LOOP:  cpu time   28.0235: real time   28.2153

 eigenvalue-minimisations  :  7320
 total energy-change (2. order) : 0.2443681E-05  (-0.8373654E-06)
 number of electron     375.9999993 magnetization 
 augmentation part      152.7399046 magnetization 

 eigenvalues of (default mixing * dielectric matrix)
  average eigenvalue GAMMA=   0.5307
  1.2097  0.2937  0.0888

  free energy =  -0.204004471572E+03  energy without entropy=  -0.198767833420E+03


--------------------------------------------------------------------------------------------------------




--------------------------------------- Iteration     39(   5)  ---------------------------------------


    POTLOK:  cpu time    0.0699: real time    0.0704
    SETDIJ:  cpu time    0.0195: real time    0.0195
     EDDAV:  cpu time   25.0154: real time   25.0663
       DOS:  cpu time    0.0196: real time    0.0196
    --------------------------------------------
      LOOP:  cpu time   25.1244: real time   25.1758

 eigenvalue-minimisations  :  6600
 total energy-change (2. order) : 0.9267424E-06  (-0.1523026E-06)
 number of electron     375.9999993 magnetization 
 augmentation part      152.7399046 magnetization 

  free energy =  -0.204004470645E+03  energy without entropy=  -0.198767865970E+03


--------------------------------------------------------------------------------------------------------




------------------------ aborting loop because EDIFF is reached ----------------------------------------


    CHARGE:  cpu time    1.1682: real time    1.1694
    FORLOC:  cpu time    0.0186: real time    0.0186
    FORNL :  cpu time    5.5449: real time    5.5514
    STRESS:  cpu time   16.3096: real time   16.3504
    FORCOR:  cpu time    0.0843: real time    0.0843
    FORHAR:  cpu time    0.0307: real time    0.0314
    MIXING:  cpu time    0.0026: real time    0.0026
    OFIELD:  cpu time    0.0001: real time    0.0001

  FORCE on cell =-STRESS in cart. coord.  units (eV):
  Direction    XX          YY          ZZ          XY          YZ          ZX
  --------------------------------------------------------------------------------------
  Alpha Z   918.22725   918.22725   918.22725
  Ewald   39933.57133 40484.65541-60344.33373  -290.49798   -32.17948    13.85249
  Hartree 49084.23886 49345.60107-45778.33953  -139.26464   -14.57424     6.33649
  E(xc)   -1955.57226 -1954.11751 -1966.36512    -0.76006    -0.08843     0.03752
  Local  -95666.05006-96428.67406 99375.06588   403.74158    43.72617   -18.90116
  n-local  -202.89111  -206.82594  -244.84216     2.05300     0.22690    -0.10026
  augment  2667.10450  2665.25784  2720.71223     0.96532     0.11088    -0.04437
  Kinetic  5207.89386  5162.71833  5315.71773    23.56961     2.74508    -1.16918
  Fock        0.00000     0.00000     0.00000     0.00000     0.00000     0.00000
  -------------------------------------------------------------------------------------
  Total     -13.47763   -13.15759    -4.15744    -0.19318    -0.03312     0.01152
  in kB     -21.85243   -21.33353    -6.74082    -0.31321    -0.05370     0.01868
  external pressure =      -16.64 kB  Pullay stress =        0.00 kB



--------------------------------------------------------------------------------------------------------



  FREE ENERGIE OF THE ION-ELECTRON SYSTEM (eV)
  ---------------------------------------------------
  free  energy   TOTEN  =      -204.00447065 eV

  energy  without entropy=     -198.76786597  energy(sigma->0) =     -201.38616831
 
 d Force = 0.1602826E-04[ 0.529E-05, 0.268E-04]  d Energy = 0.1639856E-04-0.370E-06
 d Force =-0.1041942E+01[-0.104E+01,-0.104E+01]  d Ewald  =-0.1041942E+01-0.245E-08


--------------------------------------------------------------------------------------------------------


    POTLOK:  cpu time    0.0913: real time    0.0913


--------------------------------------------------------------------------------------------------------


 stress matrix after NEB project (eV)
    -13.47763     -0.19318      0.01152
     -0.19318    -13.15759     -0.03312
      0.01152     -0.03312     -4.15744
  FORCES: max atom, RMS     0.025212    0.007118
  FORCE total and by dimension    0.044449    0.022597
  Stress total and by dimension   19.290675   13.477629
 Conjugate gradient step on ions:
 trial-energy change:   -0.000016  1 .order   -0.000016   -0.000027   -0.000005
  (g-gl).g = 0.952E-04      g.g   = 0.137E-03  gl.gl    = 0.667E-03
 g(Force)  = 0.137E-03   g(Stress)= 0.000E+00 ortho     = 0.228E-04
 gamma     =   0.14269
 trial     =   0.19087
 opt step  =   0.23793  (harmonic =   0.23793) maximal distance =0.00033232
 next E    =  -204.004471   (d E  =  -0.00002)


--------------------------------------------------------------------------------------------------------


  
 reached required accuracy - stopping structural energy minimisation
     LOOP+:  cpu time  181.3229: real time  182.1524
    4ORBIT:  cpu time    0.0000: real time    0.0000

 total amount of memory used by VASP MPI-rank0    59960. kBytes
=======================================================================

   base      :      30000. kBytes
   nonlr-proj:       2772. kBytes
   fftplans  :       1296. kBytes
   grid      :       2296. kBytes
   one-center:         77. kBytes
   wavefun   :      23519. kBytes
 
  
  
 General timing and accounting informations for this job:
 ========================================================
  
                  Total CPU time used (sec):    15337.552
                            User time (sec):    15299.300
                          System time (sec):       38.252
                         Elapsed time (sec):    15423.590
  
                   Maximum memory used (kb):     1182488.
                   Average memory used (kb):           0.
  
                          Minor page faults:      3033256
                          Major page faults:            0
                 Voluntary context switches:       144246
