 vasp.6.4.2 20Jul23 (build Jun  3 2025 15:36:07) complex                         
 executed on              LinuxNV date 2025.06.06  14:52:50
 running    5 mpi-ranks, with    1 threads/rank, on    5 nodes
 each image running on    1 cores
 distrk:  each k-point on    1 cores,    1 groups
 distr:  one band on NCORE=   1 cores,    1 groups
 OpenACC runtime initialized ...    5 GPUs detected


--------------------------------------------------------------------------------------------------------


 INCAR:
   SYSTEM = Si
   ISTART = 0
   ICHARG = 0
   NCORE = 8
   ISPIN = 2
   NELM = 20
   ENCUT = 400
   PREC = Accurate
   ISMEAR = 0
   SIGMA = 0.01
   EDIFF = 1E-10
   ALGO = Normal
   NELECT = 1072
   IBRION = 3
   NSW = 500
   POTIM = 0
   ISIF = 0
   IOPT = 1
   EDIFFG = -0.010
   ICHAIN = 0
   IMAGES = 5
   SPRING = -5.0
   LCLIMB = .FALSE.

 POTCAR:    PAW_PBE Li_sv 10Sep2004               
 POTCAR:    PAW_PBE F 08Apr2002                   
 -----------------------------------------------------------------------------
|                                                                             |
|           W    W    AA    RRRRR   N    N  II  N    N   GGGG   !!!           |
|           W    W   A  A   R    R  NN   N  II  NN   N  G    G  !!!           |
|           W    W  A    A  R    R  N N  N  II  N N  N  G       !!!           |
|           W WW W  AAAAAA  RRRRR   N  N N  II  N  N N  G  GGG   !            |
|           WW  WW  A    A  R   R   N   NN  II  N   NN  G    G                |
|           W    W  A    A  R    R  N    N  II  N    N   GGGG   !!!           |
|                                                                             |
|     You use a magnetic or noncollinear calculation, but did not specify     |
|     the initial magnetic moment with the MAGMOM tag. Note that a            |
|     default of 1 will be used for all atoms. This ferromagnetic setup       |
|     may break the symmetry of the crystal, in particular it may rule        |
|     out finding an antiferromagnetic solution. Thence, we recommend         |
|     setting the initial magnetic moment manually or verifying carefully     |
|     that this magnetic setup is desired.                                    |
|                                                                             |
 -----------------------------------------------------------------------------

 POTCAR:    PAW_PBE Li_sv 10Sep2004               
   SHA256 =  7e51fe1804c037e1dccc81a9c376d94d693a7559600c847f4b41960edb8ab895 Li_sv/POTCAR          
   COPYR  = (c) Copyright 10Sep2004 Georg Kresse                                                    
   COPYR  = This file is part of the software VASP. Any use, copying, and all other rights are regul
   COPYR  = If you do not have a valid VASP license, you may not use, copy or distribute this file. 
   VRHFIN =Li: 1s2s2p                                                                               
   LEXCH  = PE                                                                                      
   EATOM  =   202.7858 eV,   14.9043 Ry                                                             
                                                                                                    
   TITEL  = PAW_PBE Li_sv 10Sep2004                                                                 
   LULTRA =        F    use ultrasoft PP ?                                                          
   IUNSCR =        0    unscreen: 0-lin 1-nonlin 2-no                                               
   RPACOR =    0.000    partial core radius                                                         
   POMASS =    7.010; ZVAL   =    3.000    mass and valenz                                          
   RCORE  =    1.700    outmost cutoff radius                                                       
   RWIGS  =    2.050; RWIGS  =    1.085    wigner-seitz radius (au A)                               
   ENMAX  =  499.034; ENMIN  =  374.276 eV                                                          
   ICORE  =        2    local potential                                                             
   LCOR   =        T    correct aug charges                                                         
   LPAW   =        T    paw PP                                                                      
   EAUG   =  628.945                                                                                
   RMAX   =    1.732    core radius for proj-oper                                                   
   RAUG   =    1.300    factor for augmentation sphere                                              
   RDEP   =    1.728    radius for radial grids                                                     
   RDEPT  =    1.329    core radius for aug-charge                                                  
                                                                                                    
   Atomic configuration                                                                             
    4 entries                                                                                       
     n  l   j            E        occ.                                                              
     1  0  0.50       -51.8549   2.0000                                                             
     2  0  0.50        -2.8742   1.0000                                                             
     2  1  0.50        -1.3606   0.0000                                                             
     3  2  1.50        -1.3606   0.0000                                                             
   Description                                                                                      
     l       E           TYP  RCUT    TYP  RCUT                                                     
     0    -51.8548813     23  1.400                                                                 
     0     -2.8742052     23  1.700                                                                 
     1     -1.3605826     23  1.400                                                                 
     2     -1.3605826     23  1.400                                                                 
  local pseudopotential read in
  atomic valenz-charges read in
  non local Contribution for L=            0  read in
    real space projection operators read in
  non local Contribution for L=            0  read in
    real space projection operators read in
  non local Contribution for L=            1  read in
    real space projection operators read in
    PAW grid and wavefunctions read in
 
   number of l-projection  operators is LMAX  =            3
   number of lm-projection operators is LMMAX =            5
 
 POTCAR:    PAW_PBE F 08Apr2002                   
   SHA256 =  53c630871ac675939349fc2b976745ee17808dedc90b5bdde026bc81f0faf456 F/POTCAR              
   COPYR  = (c) Copyright 08Apr2002 Georg Kresse                                                    
   COPYR  = This file is part of the software VASP. Any use, copying, and all other rights are regul
   COPYR  = If you do not have a valid VASP license, you may not use, copy or distribute this file. 
   VRHFIN =F: s2p5                                                                                  
   LEXCH  = PE                                                                                      
   EATOM  =   659.6475 eV,   48.4827 Ry                                                             
                                                                                                    
   TITEL  = PAW_PBE F 08Apr2002                                                                     
   LULTRA =        F    use ultrasoft PP ?                                                          
   IUNSCR =        1    unscreen: 0-lin 1-nonlin 2-no                                               
   RPACOR =    1.200    partial core radius                                                         
   POMASS =   18.998; ZVAL   =    7.000    mass and valenz                                          
   RCORE  =    1.520    outmost cutoff radius                                                       
   RWIGS  =    1.500; RWIGS  =    0.794    wigner-seitz radius (au A)                               
   ENMAX  =  400.000; ENMIN  =  300.000 eV                                                          
   ICORE  =        2    local potential                                                             
   LCOR   =        T    correct aug charges                                                         
   LPAW   =        T    paw PP                                                                      
   EAUG   =  613.614                                                                                
   RMAX   =    1.555    core radius for proj-oper                                                   
   RAUG   =    1.300    factor for augmentation sphere                                              
   RDEP   =    1.539    radius for radial grids                                                     
   RDEPT  =    1.299    core radius for aug-charge                                                  
                                                                                                    
   Atomic configuration                                                                             
    4 entries                                                                                       
     n  l   j            E        occ.                                                              
     1  0  0.50      -663.3661   2.0000                                                             
     2  0  0.50       -29.8995   2.0000                                                             
     2  1  0.50       -11.1114   5.0000                                                             
     3  2  1.50       -10.8847   0.0000                                                             
   Description                                                                                      
     l       E           TYP  RCUT    TYP  RCUT                                                     
     0    -29.8995018     23  1.200                                                                 
     0     -9.5240782     23  1.200                                                                 
     1    -11.1113914     23  1.520                                                                 
     1      1.3605826     23  1.520                                                                 
     2    -10.8846608      7  1.500                                                                 
  local pseudopotential read in
  partial core-charges read in
  partial kinetic energy density read in
  atomic valenz-charges read in
  non local Contribution for L=            0  read in
    real space projection operators read in
  non local Contribution for L=            0  read in
    real space projection operators read in
  non local Contribution for L=            1  read in
    real space projection operators read in
  non local Contribution for L=            1  read in
    real space projection operators read in
    PAW grid and wavefunctions read in
 
   number of l-projection  operators is LMAX  =            4
   number of lm-projection operators is LMMAX =            8
 
 -----------------------------------------------------------------------------
|                                                                             |
|               ----> ADVICE to this user running VASP <----                  |
|                                                                             |
|     You have a (more or less) 'large supercell' and for larger cells it     |
|     might be more efficient to use real-space projection operators.         |
|     Therefore, try LREAL= Auto in the INCAR file.                           |
|     Mind: For very accurate calculation, you might also keep the            |
|     reciprocal projection scheme (i.e. LREAL=.FALSE.).                      |
|                                                                             |
 -----------------------------------------------------------------------------

  PAW_PBE Li_sv 10Sep2004               :
 energy of atom  1       EATOM= -202.7858
 kinetic energy error for atom=    0.0926 (will be added to EATOM!!)
  PAW_PBE F 08Apr2002                   :
 energy of atom  2       EATOM= -659.6475
 kinetic energy error for atom=    0.1978 (will be added to EATOM!!)
 
 
 POSCAR: Li   F
  positions in direct lattice
  No initial velocities read in
 exchange correlation table for  LEXCH =        8
   RHO(1)=    0.500       N(1)  =     2000
   RHO(2)=  100.500       N(2)  =     4000

 VTST: version 4.1, (05/19/21)

 CHAIN: initializing optimizer
 
 OPT: Using LBFGS optimizer
 OPT: LBFGS, Init
 OPT: LBFGS, MEMORY             20
 OPT: LBFGS, IMAGES              5
 OPT: LBFGS, MAXMOVE      0.200000
 OPT: LBFGS, LGLOBAL      T
 OPT: LBFGS, INVCURV      0.010000
 OPT: LBFGS, LLINEOPT      F
 OPT: LBFGS, FDSTEP       0.005000
 OPT: LBFGS, LAUTOSCALE      T
 OPT: LBFGS, DAMPING      2.000000
 
 CHAIN: Read ICHAIN             0
 CHAIN: Running the NEB
 NEB:          SPRING     -5.000000
 NEB:          LCLIMB      F
 NEB:     LTANGENTOLD      F
 NEB:           LDNEB      F
 NEB:        LDNEBORG      F
 NEB:        LNEBCELL      F
 NEB:          EFIRST      0.000000
 NEB:           ELAST      0.000000
 
 POSCAR: Li   F
  positions in direct lattice
  No initial velocities read in
 
 POSCAR: Li   F
  positions in direct lattice
  No initial velocities read in
 
 POSCAR: Li   F
  positions in direct lattice
  No initial velocities read in
 
 POSCAR: Li   F
  positions in direct lattice
  No initial velocities read in
 


--------------------------------------------------------------------------------------------------------


 ion  position               nearest neighbor table
   1  0.999  0.002  0.000- 207 1.99 109 1.99 136 2.00 138 2.01 115 2.09 190 2.14
   2  1.000  0.000  0.333- 208 2.01 110 2.01 137 2.01 116 2.02 136 2.03 191 2.12
   3  1.000  0.000  0.666- 209 2.00 137 2.01 111 2.01 138 2.03 117 2.04 192 2.23
   4  0.999  0.331  0.000- 210 1.99 109 1.99 139 2.00 141 2.01 112 2.09 193 2.14
   5  1.000  0.333  0.333- 211 2.01 110 2.01 140 2.01 113 2.02 139 2.03 194 2.12
   6  1.000  0.333  0.666- 212 2.00 140 2.01 111 2.01 141 2.03 114 2.04 195 2.23
   7  0.986  0.667  0.003- 144 1.73 213 1.87 142 1.95 112 1.97 115 1.97
   8  0.999  0.667  0.335- 143 1.99 214 1.99 113 2.01 116 2.01 196 2.03 142 2.07
   9  0.999  0.667  0.662- 143 1.97 215 1.98 114 2.00 117 2.00 197 2.02
  10  0.335  0.002  0.000- 147 1.48 198 1.99 118 1.99 124 2.08 190 2.14
  11  0.334  0.000  0.334- 145 1.35 199 2.01 119 2.01 125 2.02 191 2.13
  12  0.334  0.000  0.666- 146 1.34 200 2.01 120 2.01 126 2.03 192 2.23
  13  0.335  0.332  0.000- 150 1.51 201 1.99 118 1.99 121 2.08 193 2.14
  14  0.334  0.333  0.334- 148 1.35 202 2.01 119 2.01 122 2.02 194 2.13
  15  0.334  0.333  0.666- 149 1.34 203 2.01 120 2.01 123 2.02 195 2.24
  16  0.348  0.667  0.000- 153 1.53 204 1.87 121 1.98 124 1.98
  17  0.335  0.667  0.335- 151 1.40 205 1.99 122 2.00 125 2.01 196 2.03
  18  0.335  0.667  0.665- 152 1.32 206 1.99 123 2.00 126 2.00 197 2.04
  19  0.667  0.000  0.000- 156 1.50 127 2.01 133 2.01 198 2.02 207 2.02
  20  0.667  0.000  0.333- 154 1.35 128 2.01 199 2.02 208 2.02 134 2.02
  21  0.667  0.000  0.666- 155 1.34 129 2.01 200 2.02 209 2.02 135 2.02
  22  0.667  0.333  0.000- 159 1.50 127 2.01 130 2.01 201 2.02 210 2.02
  23  0.667  0.333  0.333- 157 1.35 128 2.01 202 2.02 211 2.02 131 2.02
  24  0.667  0.333  0.666- 158 1.34 129 2.01 203 2.02 212 2.02 132 2.02
  25  0.666  0.667  0.000- 162 1.96 204 1.98 213 1.99 130 2.02 133 2.02
  26  0.667  0.667  0.334- 160 1.34 131 2.01 134 2.01 205 2.02 214 2.02
  27  0.666  0.667  0.666- 161 1.33 132 2.01 135 2.01 206 2.02 215 2.03
  28  1.000  0.167  0.167- 110 2.01 109 2.01 136 2.02 139 2.02 181 2.11 163 2.12
  29  1.000  0.167  0.500- 110 2.02 111 2.02 137 2.02 140 2.02 182 2.12 164 2.12
  30  1.000  0.167  0.833- 111 2.01 109 2.02 138 2.02 141 2.02 183 2.22 165 2.23
  31  1.000  0.500  0.167- 139 2.00 113 2.00 142 2.02 112 2.03 184 2.11 166 2.11
  32  1.000  0.500  0.500- 140 2.00 143 2.02 113 2.02 114 2.04 185 2.11 167 2.12
  33  1.000  0.497  0.833- 141 1.97 114 1.99 112 2.01 186 2.23
  34  1.000  0.834  0.167- 136 2.00 116 2.00 142 2.02 115 2.03 187 2.11 169 2.11
  35  1.000  0.834  0.500- 137 2.00 143 2.02 116 2.02 117 2.04 188 2.11 170 2.12
  36  1.000  0.836  0.833- 189 1.41 144 1.71 138 1.97 117 1.99 115 2.01
  37  0.334  0.167  0.167- 119 2.01 118 2.02 172 2.11 163 2.13 145 2.13 148 2.13
  38  0.334  0.167  0.500- 119 2.02 120 2.02 173 2.12 164 2.12 146 2.13 149 2.13
  39  0.334  0.167  0.833- 147 1.51 120 2.01 118 2.01 174 2.22 165 2.23
  40  0.334  0.500  0.167- 122 2.00 121 2.02 148 2.11 175 2.11 151 2.11 166 2.11
  41  0.334  0.500  0.500- 122 2.02 123 2.02 149 2.11 176 2.12 152 2.12 167 2.13
  42  0.334  0.500  0.833- 150 1.49 123 2.00 121 2.01 177 2.22
  43  0.334  0.834  0.167- 125 2.00 124 2.02 145 2.11 178 2.11 151 2.11 169 2.11
  44  0.334  0.834  0.500- 125 2.02 126 2.02 146 2.11 179 2.12 152 2.13 170 2.13
  45  0.334  0.834  0.833- 153 1.65 171 1.65 126 2.00 124 2.01
  46  0.667  0.167  0.167- 128 2.01 127 2.02 172 2.12 154 2.12 157 2.13 181 2.13
  47  0.667  0.167  0.500- 128 2.01 129 2.02 173 2.12 182 2.12 155 2.12 158 2.13
  48  0.667  0.167  0.833- 156 1.50 129 2.01 127 2.01 174 2.23 183 2.23
  49  0.667  0.500  0.167- 131 2.01 130 2.02 157 2.11 160 2.13 175 2.13 184 2.13
  50  0.667  0.500  0.500- 131 2.02 132 2.02 158 2.12 161 2.12 176 2.12 185 2.13
  51  0.666  0.500  0.833- 159 1.49 162 1.58 132 2.01 130 2.01 177 2.24 186 2.25
  52  0.667  0.834  0.167- 134 2.01 133 2.02 154 2.11 160 2.13 178 2.13 187 2.13
  53  0.667  0.834  0.500- 134 2.02 135 2.02 155 2.12 161 2.12 179 2.12 188 2.13
  54  0.666  0.834  0.833- 180 1.65 135 2.01 133 2.01
  55  0.167  0.002  0.168- 190 1.36 136 2.01 163 2.10 145 2.11 169 2.17
  56  0.167  0.000  0.500- 191 1.35 137 2.01 146 2.12 164 2.12 170 2.13
  57  0.167  0.002  0.832- 192 1.47 171 1.72 138 2.01 147 2.21
  58  0.167  0.332  0.168- 193 1.36 139 2.01 163 2.10 148 2.11 166 2.17
  59  0.167  0.333  0.500- 194 1.35 140 2.01 149 2.12 164 2.12 167 2.13
  60  0.167  0.331  0.832- 165 1.48 195 1.50 141 2.01 150 2.23
  61  0.167  0.667  0.181- 196 1.87 142 1.98 151 2.02 166 2.02 169 2.02
  62  0.167  0.667  0.500- 196 1.98 197 1.99 143 2.02 167 2.12 170 2.12 152 2.13
  63  0.169  0.667  0.819- 168 1.57 144 1.73 197 1.87
  64  0.500  0.000  0.167- 199 2.01 198 2.02 172 2.12 154 2.12 145 2.13 178 2.13
  65  0.500  0.000  0.500- 199 2.02 200 2.02 173 2.12 155 2.12 179 2.13 146 2.13
  66  0.500  0.000  0.833- 180 1.65 200 2.01 198 2.02 156 2.22 147 2.24
  67  0.500  0.333  0.167- 202 2.01 201 2.02 172 2.12 157 2.12 175 2.13 148 2.13
  68  0.500  0.333  0.500- 202 2.02 203 2.02 173 2.12 158 2.12 176 2.13 149 2.13
  69  0.500  0.333  0.833- 174 1.50 203 2.01 201 2.02 159 2.23 150 2.24
  70  0.502  0.667  0.168- 205 1.99 204 2.03 160 2.10 175 2.11 178 2.11 151 2.17
  71  0.500  0.667  0.500- 205 2.02 206 2.02 161 2.11 152 2.12 176 2.12 179 2.12
  72  0.502  0.667  0.832- 177 1.50 153 1.72 206 1.99 204 2.03
  73  0.833  0.000  0.167- 208 2.01 207 2.02 136 2.02 154 2.12 181 2.12 187 2.13
  74  0.833  0.000  0.500- 208 2.02 137 2.02 209 2.02 155 2.12 182 2.12 188 2.13
  75  0.833  0.000  0.833- 189 1.86 209 2.00 207 2.02 138 2.03 156 2.22
  76  0.833  0.333  0.167- 211 2.01 210 2.02 139 2.02 157 2.12 181 2.12 184 2.13
  77  0.833  0.333  0.500- 211 2.02 140 2.02 212 2.02 158 2.12 182 2.12 185 2.13
  78  0.833  0.333  0.833- 183 1.50 212 2.00 210 2.02 141 2.03 159 2.22
  79  0.831  0.667  0.168- 214 1.99 213 2.04 142 2.08 160 2.09 184 2.10 187 2.10
  80  0.833  0.667  0.500- 143 2.02 214 2.02 215 2.03 185 2.11 188 2.11 161 2.12
  81  0.829  0.667  0.832- 186 1.51 162 1.55 215 1.98 213 2.02
  82  0.167  0.167  0.000- 165 1.51 118 2.02 109 2.02 190 2.09 193 2.09
  83  0.167  0.167  0.334- 163 1.34 119 2.01 110 2.01 191 2.13 194 2.13
  84  0.167  0.167  0.666- 164 1.34 192 1.51 120 2.01 111 2.01
  85  0.167  0.486  0.000- 168 1.57 121 1.98 112 1.98 193 1.99
  86  0.167  0.499  0.335- 166 1.40 122 2.00 113 2.01 196 2.03 194 2.09
  87  0.167  0.499  0.665- 167 1.32 195 1.49 123 2.00 114 2.01 197 2.03
  88  0.167  0.847  0.000- 171 1.53 124 1.98 115 1.98 190 1.99
  89  0.167  0.835  0.335- 169 1.40 125 2.00 116 2.01 196 2.03 191 2.09
  90  0.167  0.835  0.665- 170 1.32 126 2.00 117 2.01 197 2.03
  91  0.500  0.167  0.000- 174 1.50 127 2.01 118 2.01 198 2.02 201 2.02
  92  0.500  0.167  0.333- 172 1.35 128 2.01 199 2.02 202 2.02 119 2.02
  93  0.500  0.167  0.666- 173 1.34 129 2.01 200 2.02 203 2.02 120 2.02
  94  0.502  0.499  0.000- 177 1.51 201 1.99 130 2.00 204 2.03 121 2.08
  95  0.500  0.500  0.333- 175 1.35 202 2.01 131 2.01 205 2.02 122 2.02
  96  0.500  0.500  0.666- 176 1.34 203 2.00 132 2.01 206 2.02 123 2.03
  97  0.502  0.835  0.000- 180 1.62 198 1.99 133 2.00 204 2.03 124 2.08
  98  0.500  0.834  0.333- 178 1.35 199 2.01 134 2.01 205 2.02 125 2.02
  99  0.500  0.834  0.666- 179 1.34 200 2.00 135 2.01 206 2.02 126 2.03
 100  0.833  0.167  0.000- 183 1.50 127 2.01 109 2.01 207 2.02 210 2.02
 101  0.833  0.167  0.333- 181 1.35 128 2.01 208 2.02 110 2.02 211 2.02
 102  0.833  0.167  0.666- 182 1.34 129 2.01 111 2.02 209 2.02 212 2.02
 103  0.832  0.499  0.000- 186 1.51 162 1.96 210 1.99 130 1.99 213 2.03 112 2.08
 104  0.833  0.500  0.333- 184 1.35 211 2.00 131 2.01 214 2.02 113 2.02
 105  0.833  0.500  0.666- 185 1.34 212 2.00 132 2.01 215 2.02 114 2.02
 106  0.832  0.835  0.000- 189 1.84 207 1.99 133 1.99 213 2.03 115 2.08
 107  0.833  0.834  0.334- 187 1.35 208 2.00 134 2.01 214 2.02 116 2.02
 108  0.833  0.834  0.666- 188 1.34 209 2.00 135 2.01 215 2.02 117 2.02
 109  1.000  0.167  0.000-   1 1.99   4 1.99 100 2.01  28 2.01  30 2.02  82 2.02
 110  0.000  0.167  0.333-  28 2.01   2 2.01   5 2.01  83 2.01  29 2.02 101 2.02
 111  0.000  0.167  0.667-   3 2.01   6 2.01  30 2.01  84 2.01  29 2.02 102 2.02
 112  0.004  0.504  0.999-   7 1.97  85 1.98  33 2.01  31 2.03 103 2.08   4 2.09
 113  0.001  0.501  0.333-  31 2.00  86 2.01   8 2.01  32 2.02   5 2.02 104 2.02
 114  0.001  0.501  0.668-  33 1.99   9 2.00  87 2.01 105 2.02   6 2.04  32 2.04
 115  0.004  0.829  0.999-   7 1.97  88 1.98  36 2.01  34 2.03 106 2.08   1 2.09
 116  0.001  0.833  0.333-  34 2.00  89 2.01   8 2.01  35 2.02 107 2.02   2 2.02
 117  0.001  0.832  0.668-  36 1.99   9 2.00  90 2.01 108 2.02  35 2.04   3 2.04
 118  0.334  0.167  1.000- 147 1.90  10 1.99  13 1.99  91 2.01  39 2.01  37 2.02  82 2.02
 119  0.333  0.167  0.333-  37 2.01  83 2.01  11 2.01  14 2.01  38 2.02  92 2.02
 120  0.333  0.167  0.667-  39 2.01  84 2.01  12 2.01  15 2.01  38 2.02  93 2.02
 121  0.330  0.504  1.000-  85 1.98  16 1.98  42 2.01  40 2.02  13 2.08  94 2.08
 122  0.333  0.501  0.333-  40 2.00  86 2.00  17 2.00  41 2.02  14 2.02  95 2.02
 123  0.332  0.501  0.668-  42 2.00  87 2.00  18 2.00  15 2.02  41 2.02  96 2.03
 124  0.330  0.830  1.000-  88 1.98  16 1.98  45 2.01  43 2.02  97 2.08  10 2.08
 125  0.333  0.833  0.333-  43 2.00  89 2.00  17 2.01  44 2.02  98 2.02  11 2.02
 126  0.332  0.833  0.668-  45 2.00  90 2.00  18 2.00  44 2.02  99 2.03  12 2.03
 127  0.667  0.167  1.000- 156 1.90 100 2.01  19 2.01  22 2.01  91 2.01  48 2.01  46 2.02
 128  0.667  0.167  0.333-  46 2.01 101 2.01  20 2.01  23 2.01  92 2.01  47 2.01
 129  0.667  0.167  0.667-  48 2.01 102 2.01  21 2.01  24 2.01  93 2.01  47 2.02
 130  0.667  0.500  1.000- 159 1.89 103 1.99  94 2.00  51 2.01  22 2.01  25 2.02  49 2.02
 131  0.667  0.500  0.333-  49 2.01  26 2.01 104 2.01  95 2.01  50 2.02  23 2.02
 132  0.667  0.500  0.667-  51 2.01  27 2.01 105 2.01  96 2.01  50 2.02  24 2.02
 133  0.667  0.834  1.000- 106 1.99  97 2.00  54 2.01  19 2.01  25 2.02  52 2.02
 134  0.667  0.833  0.333-  52 2.01 107 2.01  26 2.01  98 2.01  53 2.02  20 2.02
 135  0.667  0.833  0.667-  54 2.01 108 2.01  27 2.01  99 2.01  53 2.02  21 2.02
 136  0.001  0.999  0.166-  34 2.00   1 2.00  55 2.01  73 2.02  28 2.02   2 2.03
 137  0.000  1.000  0.500-  35 2.00   3 2.01  56 2.01   2 2.01  74 2.02  29 2.02
 138  0.001  1.000  0.834-  36 1.97  57 2.01   1 2.01  30 2.02  75 2.03   3 2.03
 139  0.001  0.334  0.166-  31 2.00   4 2.00  58 2.01  76 2.02  28 2.02   5 2.03
 140  0.000  0.334  0.500-  32 2.00   6 2.01  59 2.01   5 2.01  77 2.02  29 2.02
 141  0.001  0.334  0.834-  33 1.97  60 2.01   4 2.01  30 2.02  78 2.03   6 2.03
 142  0.004  0.667  0.164-   7 1.95  61 1.98  31 2.02  34 2.02   8 2.07  79 2.08
 143  1.000  0.667  0.499-   9 1.97   8 1.99  80 2.02  32 2.02  35 2.02  62 2.02
 144  0.059  0.722  0.892-  36 1.71  63 1.73   7 1.73
 145  0.333  0.999  0.222-  11 1.35  55 2.11  43 2.11  37 2.13  64 2.13
 146  0.333  1.000  0.556-  12 1.34  44 2.11  56 2.12  38 2.13  65 2.13
 147  0.333  0.055  0.890-  10 1.48  39 1.51 118 1.90  57 2.21  66 2.24
 148  0.333  0.334  0.222-  14 1.35  58 2.11  40 2.11  67 2.13  37 2.13
 149  0.333  0.334  0.556-  15 1.34  41 2.11  59 2.12  38 2.13  68 2.13
 150  0.333  0.390  0.889-  42 1.49  13 1.51  60 2.23  69 2.24
 151  0.330  0.667  0.219-  17 1.40  61 2.02  40 2.11  43 2.11  70 2.17
 152  0.334  0.667  0.556-  18 1.32  71 2.12  41 2.12  44 2.13  62 2.13
 153  0.385  0.722  0.892-  16 1.53  45 1.65  72 1.72
 154  0.667  1.000  0.222-  20 1.35  52 2.11  73 2.12  64 2.12  46 2.12
 155  0.667  1.000  0.556-  21 1.34  53 2.12  74 2.12  65 2.12  47 2.12
 156  0.667  0.055  0.889-  19 1.50  48 1.50 127 1.90  75 2.22  66 2.22
 157  0.667  0.334  0.222-  23 1.35  49 2.11  76 2.12  67 2.12  46 2.13
 158  0.667  0.334  0.556-  24 1.34  50 2.12  77 2.12  68 2.12  47 2.13
 159  0.667  0.389  0.889-  51 1.49  22 1.50 130 1.89  78 2.22  69 2.23
 160  0.667  0.667  0.223-  26 1.34  79 2.09  70 2.10  49 2.13  52 2.13
 161  0.666  0.667  0.556-  27 1.33  71 2.11  80 2.12  50 2.12  53 2.12
 162  0.750  0.583  0.888- 186 1.07  81 1.55  51 1.58 103 1.96  25 1.96
 163  0.167  0.167  0.223-  83 1.34  55 2.10  58 2.10  28 2.12  37 2.13
 164  0.167  0.167  0.556-  84 1.34  56 2.12  59 2.12  38 2.12  29 2.12
 165  0.167  0.222  0.888-  60 1.48  82 1.51  30 2.23  39 2.23
 166  0.167  0.504  0.219-  86 1.40  61 2.02  31 2.11  40 2.11  58 2.17
 167  0.166  0.500  0.556-  87 1.32  32 2.12  62 2.12  59 2.13  41 2.13
 168  0.167  0.559  0.892-  63 1.57  85 1.57
 169  0.167  0.830  0.219-  89 1.40  61 2.02  34 2.11  43 2.11  55 2.17
 170  0.166  0.833  0.556-  90 1.32  35 2.12  62 2.12  56 2.13  44 2.13
 171  0.222  0.885  0.892-  88 1.53  45 1.65  57 1.72
 172  0.500  0.167  0.222-  92 1.35  37 2.11  64 2.12  67 2.12  46 2.12
 173  0.500  0.167  0.556-  93 1.34  38 2.12  68 2.12  65 2.12  47 2.12
 174  0.500  0.222  0.889-  91 1.50  69 1.50 201 1.90  39 2.22  48 2.23
 175  0.499  0.501  0.222-  95 1.35  70 2.11  40 2.11  49 2.13  67 2.13
 176  0.500  0.500  0.556-  96 1.34  41 2.12  71 2.12  50 2.12  68 2.13
 177  0.499  0.556  0.890-  72 1.50  94 1.51 204 1.89  42 2.22  51 2.24
 178  0.499  0.833  0.222-  98 1.35  70 2.11  43 2.11  52 2.13  64 2.13
 179  0.500  0.833  0.556-  99 1.34  44 2.12  71 2.12  53 2.12  65 2.13
 180  0.555  0.888  0.890-  97 1.62  54 1.65  66 1.65
 181  0.834  0.167  0.222- 101 1.35  28 2.11  73 2.12  76 2.12  46 2.13
 182  0.833  0.167  0.556- 102 1.34  29 2.12  74 2.12  77 2.12  47 2.12
 183  0.834  0.222  0.889-  78 1.50 100 1.50 210 1.90  30 2.22  48 2.23
 184  0.834  0.501  0.222- 104 1.35  79 2.10  31 2.11  76 2.13  49 2.13
 185  0.834  0.501  0.556- 105 1.34  32 2.11  80 2.11  50 2.13  77 2.13
 186  0.834  0.556  0.889- 162 1.07  81 1.51 103 1.51 213 1.88  33 2.23  51 2.25
 187  0.834  0.833  0.222- 107 1.35  79 2.10  34 2.11  73 2.13  52 2.13
 188  0.834  0.832  0.556- 108 1.34  35 2.11  80 2.11  53 2.13  74 2.13
 189  0.890  0.860  0.862-  36 1.41 106 1.84  75 1.86
 190  0.167  0.003  0.056-  55 1.36  88 1.99  82 2.09   1 2.14  10 2.14
 191  0.167  0.999  0.388-  56 1.35  89 2.09   2 2.12  11 2.13  83 2.13
 192  0.167  0.055  0.723-  57 1.47  84 1.51   3 2.23  12 2.23
 193  0.167  0.331  0.056-  58 1.36  85 1.99  82 2.09   4 2.14  13 2.14
 194  0.167  0.334  0.388-  59 1.35  86 2.09   5 2.12  14 2.13  83 2.13
 195  0.166  0.390  0.722-  87 1.49  60 1.50   6 2.23  15 2.24
 196  0.167  0.667  0.336-  61 1.87  62 1.98  17 2.03  89 2.03  86 2.03   8 2.03
 197  0.166  0.667  0.665-  63 1.87  62 1.99   9 2.02  90 2.03  87 2.03  18 2.04
 198  0.499  0.999  1.000-  97 1.99  10 1.99  66 2.02  64 2.02  19 2.02  91 2.02
 199  0.500  1.000  0.333-  98 2.01  11 2.01  64 2.01  20 2.02  65 2.02  92 2.02
 200  0.500  1.000  0.667-  99 2.00  66 2.01  12 2.01  21 2.02  93 2.02  65 2.02
 201  0.499  0.334  1.000- 174 1.90  94 1.99  13 1.99  69 2.02  67 2.02  22 2.02  91 2.02
 202  0.500  0.334  0.333-  95 2.01  14 2.01  67 2.01  23 2.02  68 2.02  92 2.02
 203  0.500  0.334  0.667-  96 2.00  15 2.01  69 2.01  24 2.02  68 2.02  93 2.02
 204  0.503  0.667  0.000-  16 1.87 177 1.89  25 1.98  70 2.03  72 2.03  97 2.03  94 2.03
 205  0.499  0.667  0.333-  17 1.99  70 1.99  95 2.02  98 2.02  26 2.02  71 2.02
 206  0.499  0.667  0.667-  18 1.99  72 1.99  27 2.02  96 2.02  99 2.02  71 2.02
 207  0.834  0.999  1.000- 106 1.99   1 1.99  75 2.02  73 2.02 100 2.02  19 2.02
 208  0.834  1.000  0.333- 107 2.00   2 2.01  73 2.01  74 2.02 101 2.02  20 2.02
 209  0.834  1.000  0.667- 108 2.00   3 2.00  75 2.00 102 2.02  74 2.02  21 2.02
 210  0.834  0.334  1.000- 183 1.90 103 1.99   4 1.99  78 2.02  76 2.02 100 2.02  22 2.02
 211  0.834  0.334  0.333- 104 2.00   5 2.01  76 2.01  77 2.02 101 2.02  23 2.02
 212  0.834  0.334  0.667- 105 2.00   6 2.00  78 2.00  77 2.02 102 2.02  24 2.02
 213  0.831  0.667  0.999-   7 1.87 186 1.88  25 1.99  81 2.02 106 2.03 103 2.03  79 2.04
 214  0.834  0.667  0.333-  79 1.99   8 1.99  80 2.02 104 2.02 107 2.02  26 2.02
 215  0.835  0.667  0.668-   9 1.98  81 1.98 105 2.02 108 2.02  80 2.03  27 2.03
 
  LATTYP: Found a simple cubic cell.
 ALAT       =    12.0789003372
  
  Lattice vectors:
  
 A1 = (  12.0789003372,   0.0000000000,   0.0000000000)
 A2 = (   0.0000000000,  12.0789003372,   0.0000000000)
 A3 = (   0.0000000000,   0.0000000000,  12.0789003372)


Analysis of symmetry for initial positions (statically):
=====================================================================
 Subroutine PRICEL returns:
 Original cell was already a primitive cell.
 

 Routine SETGRP: Setting up the symmetry group for a 
 simple cubic supercell.


 Subroutine GETGRP returns: Found  1 space group operations
 (whereof  1 operations were pure point group operations)
 out of a pool of 48 trial point group operations.


The static configuration has the point symmetry C_1 .


Analysis of symmetry for dynamics (positions and initial velocities):
=====================================================================
 Subroutine PRICEL returns:
 Original cell was already a primitive cell.
 

 Routine SETGRP: Setting up the symmetry group for a 
 simple cubic supercell.


 Subroutine GETGRP returns: Found  1 space group operations
 (whereof  1 operations were pure point group operations)
 out of a pool of 48 trial point group operations.


The dynamic configuration has the point symmetry C_1 .


Analysis of structural, dynamic, and magnetic symmetry:
=====================================================================
 Subroutine PRICEL returns:
 Original cell was already a primitive cell.
 

 Routine SETGRP: Setting up the symmetry group for a 
 simple cubic supercell.


 Subroutine GETGRP returns: Found  1 space group operations
 (whereof  1 operations were pure point group operations)
 out of a pool of 48 trial point group operations.


The overall configuration has the point symmetry C_1 .


 Subroutine INISYM returns: Found  1 space group operations
 (whereof  1 operations are pure point group operations),
 and found     1 'primitive' translations


----------------------------------------------------------------------------------------

                                     Primitive cell                                     

  volume of cell :    1762.3095

  direct lattice vectors                    reciprocal lattice vectors
    12.078900337  0.000000000  0.000000000     0.082788993  0.000000000  0.000000000
     0.000000000 12.078900337  0.000000000     0.000000000  0.082788993  0.000000000
     0.000000000  0.000000000 12.078900337     0.000000000  0.000000000  0.082788993

  length of vectors
    12.078900337 12.078900337 12.078900337     0.082788993  0.082788993  0.082788993

  position of ions in fractional coordinates (direct lattice)
     0.998667570  0.001954626  0.000272716
     0.999691380  0.000227157  0.333487567
     0.999690722  0.000487809  0.666241694
     0.998651798  0.331423755  0.000270634
     0.999681052  0.333137113  0.333496787
     0.999680781  0.332880992  0.666234709
     0.985907571  0.666643959  0.002819690
     0.998634717  0.666640000  0.334934901
     0.998631722  0.666641960  0.662271160
     0.334726735  0.001674667  0.000063169
     0.333689553  0.000190580  0.333500981
     0.333692939  0.000191570  0.666437245
     0.334720131  0.331728209  0.000063199
     0.333693095  0.333183637  0.333506163
     0.333696814  0.333179439  0.666431778
     0.347643592  0.666654601  0.000273832
     0.334732506  0.666637233  0.334928982
     0.334982559  0.666635334  0.664809008
     0.666651490  0.000365430  0.000062871
     0.666634354  0.000165067  0.333473520
     0.666629965  0.000169133  0.666464020
     0.666633709  0.332996959  0.000063469
     0.666623466  0.333202103  0.333483256
     0.666618365  0.333197332  0.666453871
     0.666339672  0.666649084  0.000274149
     0.666583848  0.666645224  0.333674021
     0.666333021  0.666643305  0.666062783
     0.999826056  0.166658561  0.166892075
     0.999847530  0.166668051  0.499933309
     0.999826113  0.166656908  0.833171903
     0.999817927  0.499546368  0.167147648
     0.999818171  0.499544950  0.499674203
     0.999816477  0.496997002  0.833174350
     0.999831178  0.833792613  0.167133202
     0.999817564  0.833793250  0.499671895
     0.999830010  0.836319507  0.833184823
     0.333572918  0.166652826  0.166850645
     0.333525456  0.166656940  0.499973228
     0.333610977  0.166651029  0.833174318
     0.333557283  0.499752992  0.166844272
     0.333554721  0.499753570  0.499968460
     0.333843981  0.499543225  0.833187891
     0.333567738  0.833591233  0.166842669
     0.333560678  0.833591554  0.499968071
     0.333851435  0.833789732  0.833189360
     0.666629171  0.166646334  0.166814484
     0.666629741  0.166653649  0.499972470
     0.666590799  0.166645784  0.833210945
     0.666629455  0.499749750  0.166857570
     0.666636907  0.499785481  0.499967718
     0.666341598  0.499539353  0.833174197
     0.666625371  0.833604474  0.166850919
     0.666625775  0.833560904  0.499967754
     0.666340338  0.833804508  0.833180194
     0.166727235  0.001672893  0.168015787
     0.166721100  0.000360174  0.499968340
     0.166931147  0.001966830  0.832015199
     0.166723793  0.331716246  0.168018947
     0.166714758  0.333000414  0.499967866
     0.166930227  0.331424280  0.832008680
     0.166911803  0.666641134  0.180899753
     0.166917456  0.666649378  0.499672472
     0.169427554  0.666636488  0.819423818
     0.500166729  0.000188413  0.166990506
     0.500139940  0.000162230  0.499973222
     0.500166364  0.000224875  0.833035965
     0.500166674  0.333172805  0.166984865
     0.500138213  0.333184640  0.499972785
     0.500166207  0.333134261  0.833040202
     0.501642512  0.666650162  0.168044755
     0.500327417  0.666658523  0.499934568
     0.501642671  0.666648938  0.832019972
     0.833153143  0.000195132  0.166984963
     0.833151147  0.000168946  0.499967851
     0.832948622  0.000490450  0.833045479
     0.833142341  0.333168592  0.166983786
     0.833157867  0.333188763  0.499967263
     0.832935458  0.332876771  0.833043785
     0.831479915  0.666664093  0.168309057
     0.832764666  0.666654102  0.499671434
     0.828960825  0.666659995  0.832014735
     0.166699277  0.166655040  0.000037116
     0.166675788  0.166649800  0.333676591
     0.166682312  0.166648445  0.666286056
     0.166681810  0.485866475  0.000036436
     0.166676979  0.498594704  0.334934373
     0.166672597  0.498595404  0.665029664
     0.166712139  0.847353866  0.000037032
     0.166677611  0.834704562  0.334929956
     0.166673236  0.834700775  0.665034878
     0.500340896  0.166671181  0.000030051
     0.500141803  0.166655928  0.333477478
     0.500140868  0.166654472  0.666492275
     0.501635338  0.498600932  0.000036716
     0.500160964  0.499655457  0.333488275
     0.500160534  0.499648782  0.666473889
     0.501646678  0.834721578  0.000037227
     0.500162386  0.833688859  0.333497113
     0.500162403  0.833693616  0.666466361
     0.833011913  0.166653243  0.000037246
     0.833200965  0.166646911  0.333481685
     0.833194314  0.166646786  0.666480478
     0.831711889  0.498609313  0.000036741
     0.833166089  0.499645254  0.333495896
     0.833167729  0.499645061  0.666467117
     0.831736678  0.834723612  0.000036986
     0.833176254  0.833703784  0.333502944
     0.833177699  0.833701711  0.666461120
     0.999654144  0.166680926  0.000072544
     0.000208689  0.166675649  0.333037256
     0.000208693  0.166674712  0.666887787
     0.003557970  0.504267875  0.999288504
     0.000677532  0.500604039  0.332527802
     0.000675991  0.501386065  0.668181348
     0.003569862  0.829060664  0.999290248
     0.000683886  0.832710935  0.332529436
     0.000682191  0.831927665  0.668178799
     0.333650135  0.166678260  0.999958416
     0.333107474  0.166672593  0.333045014
     0.333077015  0.166671063  0.666995410
     0.329617695  0.503684172  0.999864476
     0.332579553  0.500719583  0.332529813
     0.332477156  0.500814332  0.667608429
     0.329636732  0.829644448  0.999864477
     0.332587072  0.832601347  0.332535954
     0.332484604  0.832501451  0.667602295
     0.666743763  0.166672952  0.999958831
     0.666700571  0.166668356  0.333191777
     0.666730040  0.166667965  0.666848164
     0.666843772  0.499771517  0.999864811
     0.666733651  0.500247394  0.333036988
     0.666834718  0.500341244  0.667100533
     0.666843624  0.833563451  0.999864574
     0.666731066  0.833092196  0.333041181
     0.666832586  0.832993752  0.667096568
     0.000706613  0.999091016  0.165843154
     0.000198732  0.999603691  0.500120310
     0.000706268  0.999744659  0.834033315
     0.000696701  0.334253133  0.165843474
     0.000204721  0.333746791  0.500123563
     0.000696402  0.333593467  0.834030956
     0.003554329  0.666661166  0.163619471
     0.999638320  0.666666264  0.499469471
     0.059054168  0.722163434  0.892416509
     0.332600336  0.999164745  0.221578334
     0.333003536  0.999594699  0.555555654
     0.332601989  0.054826043  0.889531363
     0.332600742  0.334181115  0.221579156
     0.333007227  0.333749749  0.555556428
     0.332531824  0.389681046  0.889460622
     0.329653986  0.666658416  0.218765878
     0.334219168  0.666658020  0.555558262
     0.385389422  0.722161305  0.892414442
     0.666738252  0.999663403  0.222062535
     0.666805280  0.999740966  0.555556549
     0.666735823  0.055325664  0.889046746
     0.666727252  0.333679643  0.222062530
     0.666797319  0.333597974  0.555556284
     0.666796747  0.389180335  0.888977111
     0.666798185  0.666664978  0.222702920
     0.666149480  0.666663652  0.555558100
     0.749965605  0.583332807  0.888473883
     0.166630382  0.166673515  0.222638062
     0.166739138  0.166673471  0.555556070
     0.166532879  0.222365315  0.888370681
     0.166522300  0.503686841  0.218796919
     0.165951254  0.500347080  0.555556846
     0.166523751  0.558968252  0.892313068
     0.166530914  0.829637695  0.218801455
     0.165948726  0.832982886  0.555556595
     0.222225951  0.885330708  0.892438492
     0.499721409  0.166675839  0.222039524
     0.499868156  0.166676706  0.555556005
     0.499721131  0.222269913  0.889040660
     0.499217428  0.500727728  0.221578308
     0.499724736  0.500125153  0.555555515
     0.499217999  0.556203030  0.889529978
     0.499221051  0.832605809  0.221579766
     0.499720183  0.833195751  0.555556562
     0.554820147  0.888202728  0.889529217
     0.833677647  0.166668645  0.222065316
     0.833405556  0.166671713  0.555556480
     0.833775408  0.222361642  0.888943272
     0.834269663  0.500831009  0.221680402
     0.834339214  0.500915553  0.555556698
     0.834270097  0.556112624  0.889429141
     0.834274888  0.832516423  0.221680737
     0.834343886  0.832419032  0.555556958
     0.889553292  0.860274369  0.861672064
     0.166638360  0.002596001  0.055554811
     0.166530567  0.999226166  0.388405147
     0.166530304  0.055096525  0.722704157
     0.166631384  0.330721935  0.055554892
     0.166524855  0.334112904  0.388406886
     0.165948542  0.389508095  0.722130767
     0.166727413  0.666652041  0.335947673
     0.165937902  0.666650776  0.664763677
     0.499405611  0.999343663  0.999960567
     0.499742416  0.999710913  0.333052086
     0.499742011  0.999679861  0.666988426
     0.499388064  0.334014189  0.999958658
     0.499738091  0.333633764  0.333059973
     0.499737378  0.333663134  0.666979783
     0.502658505  0.666661739  0.000072793
     0.499382468  0.666664435  0.332708475
     0.499382572  0.666663031  0.667218437
     0.834119011  0.999224740  0.999862482
     0.833652896  0.999678806  0.333056217
     0.833750362  0.999578786  0.667079530
     0.834103058  0.334113216  0.999861276
     0.833648595  0.333663644  0.333062485
     0.833745034  0.333762609  0.667073029
     0.831383731  0.666670654  0.999290567
     0.833884432  0.666664236  0.332713010
     0.834670222  0.666663121  0.667997540

  ion indices of the primitive-cell ions
   primitive index   ion index
                 1           1
                 2           2
                 3           3
                 4           4
                 5           5
                 6           6
                 7           7
                 8           8
                 9           9
                10          10
                11          11
                12          12
                13          13
                14          14
                15          15
                16          16
                17          17
                18          18
                19          19
                20          20
                21          21
                22          22
                23          23
                24          24
                25          25
                26          26
                27          27
                28          28
                29          29
                30          30
                31          31
                32          32
                33          33
                34          34
                35          35
                36          36
                37          37
                38          38
                39          39
                40          40
                41          41
                42          42
                43          43
                44          44
                45          45
                46          46
                47          47
                48          48
                49          49
                50          50
                51          51
                52          52
                53          53
                54          54
                55          55
                56          56
                57          57
                58          58
                59          59
                60          60
                61          61
                62          62
                63          63
                64          64
                65          65
                66          66
                67          67
                68          68
                69          69
                70          70
                71          71
                72          72
                73          73
                74          74
                75          75
                76          76
                77          77
                78          78
                79          79
                80          80
                81          81
                82          82
                83          83
                84          84
                85          85
                86          86
                87          87
                88          88
                89          89
                90          90
                91          91
                92          92
                93          93
                94          94
                95          95
                96          96
                97          97
                98          98
                99          99
               100         100
               101         101
               102         102
               103         103
               104         104
               105         105
               106         106
               107         107
               108         108
               109         109
               110         110
               111         111
               112         112
               113         113
               114         114
               115         115
               116         116
               117         117
               118         118
               119         119
               120         120
               121         121
               122         122
               123         123
               124         124
               125         125
               126         126
               127         127
               128         128
               129         129
               130         130
               131         131
               132         132
               133         133
               134         134
               135         135
               136         136
               137         137
               138         138
               139         139
               140         140
               141         141
               142         142
               143         143
               144         144
               145         145
               146         146
               147         147
               148         148
               149         149
               150         150
               151         151
               152         152
               153         153
               154         154
               155         155
               156         156
               157         157
               158         158
               159         159
               160         160
               161         161
               162         162
               163         163
               164         164
               165         165
               166         166
               167         167
               168         168
               169         169
               170         170
               171         171
               172         172
               173         173
               174         174
               175         175
               176         176
               177         177
               178         178
               179         179
               180         180
               181         181
               182         182
               183         183
               184         184
               185         185
               186         186
               187         187
               188         188
               189         189
               190         190
               191         191
               192         192
               193         193
               194         194
               195         195
               196         196
               197         197
               198         198
               199         199
               200         200
               201         201
               202         202
               203         203
               204         204
               205         205
               206         206
               207         207
               208         208
               209         209
               210         210
               211         211
               212         212
               213         213
               214         214
               215         215

----------------------------------------------------------------------------------------

 
 
 KPOINTS: Gamma-point only                        

Automatic generation of k-mesh.
 Grid dimensions read from file:
 generate k-points for:    1    1    1

 Generating k-lattice:

  Cartesian coordinates                     Fractional coordinates (reciprocal lattice)
     0.082788993  0.000000000  0.000000000     1.000000000  0.000000000  0.000000000
     0.000000000  0.082788993  0.000000000     0.000000000  1.000000000  0.000000000
     0.000000000  0.000000000  0.082788993     0.000000000  0.000000000  1.000000000

  Length of vectors
     0.082788993  0.082788993  0.082788993

  Shift w.r.t. Gamma in fractional coordinates (k-lattice)
     0.000000000  0.000000000  0.000000000

 
 Subroutine IBZKPT returns following result:
 ===========================================
 
 Found      1 irreducible k-points:
 
 Following reciprocal coordinates:
            Coordinates               Weight
  0.000000  0.000000  0.000000      1.000000
 
 Following cartesian coordinates:
            Coordinates               Weight
  0.000000  0.000000  0.000000      1.000000
 


--------------------------------------------------------------------------------------------------------




 Dimension of arrays:
   k-points           NKPTS =      1   k-points in BZ     NKDIM =      1   number of bands    NBANDS=    752
   number of dos      NEDOS =    301   number of ions     NIONS =    215
   non local maximal  LDIM  =      4   non local SUM 2l+1 LMDIM =      8
   total plane-waves  NPLWV = 512000
   max r-space proj   IRMAX =      1   max aug-charges    IRDMAX=   3893
   dimension x,y,z NGX =    80 NGY =   80 NGZ =   80
   dimension x,y,z NGXF=   160 NGYF=  160 NGZF=  160
   support grid    NGXF=   160 NGYF=  160 NGZF=  160
   ions per type =             108 107
   NGX,Y,Z   is equivalent  to a cutoff of  11.01, 11.01, 11.01 a.u.
   NGXF,Y,Z  is equivalent  to a cutoff of  22.02, 22.02, 22.02 a.u.

 SYSTEM =  Si                                      
 POSCAR =  Li   F                                  

 Startparameter for this run:
   NWRITE =      2    write-flag & timer
   PREC   = accura    normal or accurate (medium, high low for compatibility)
   ISTART =      0    job   : 0-new  1-cont  2-samecut
   ICHARG =      0    charge: 1-file 2-atom 10-const
   ISPIN  =      2    spin polarized calculation?
   LNONCOLLINEAR =      F non collinear calculations
   LSORBIT =      F    spin-orbit coupling
   INIWAV =      1    electr: 0-lowe 1-rand  2-diag
   LASPH  =      F    aspherical Exc in radial PAW
 Electronic Relaxation 1
   ENCUT  =  400.0 eV  29.40 Ry    5.42 a.u.  19.70 19.70 19.70*2*pi/ulx,y,z
   ENINI  =  400.0     initial cutoff
   ENAUG  =  628.9 eV  augmentation charge cutoff
   NELM   =     20;   NELMIN=  2; NELMDL= -5     # of ELM steps 
   EDIFF  = 0.1E-09   stopping-criterion for ELM
   LREAL  =      F    real-space projection
   NLSPLINE    = F    spline interpolate recip. space projectors
   LCOMPAT=      F    compatible to vasp.4.4
   GGA_COMPAT  = T    GGA compatible to vasp.4.4-vasp.4.6
   LMAXPAW     = -100 max onsite density
   LMAXMIX     =    2 max onsite mixed and CHGCAR
   VOSKOWN=      0    Vosko Wilk Nusair interpolation
   ROPT   =    0.00000   0.00000
 Ionic relaxation
   EDIFFG = -.1E-01   stopping-criterion for IOM
   NSW    =    500    number of steps for IOM
   NBLOCK =      1;   KBLOCK =    500    inner block; outer block 
   IBRION =      3    ionic relax: 0-MD 1-quasi-New 2-CG
   NFREE  =      0    steps in history (QN), initial steepest desc. (CG)
   ISIF   =      0    stress and relaxation
   IWAVPR =     11    prediction:  0-non 1-charg 2-wave 3-comb
   ISYM   =      2    0-nonsym 1-usesym 2-fastsym
   LCORR  =      T    Harris-Foulkes like correction to forces

   POTIM  = 0.0000    time-step for ionic-motion
   TEIN   =    0.0    initial temperature
   TEBEG  =    0.0;   TEEND  =   0.0 temperature during run
   SMASS  =  -3.00    Nose mass-parameter (am)
   estimated Nose-frequenzy (Omega)   =  0.10E-29 period in steps = 0.00E+00 mass=  -0.333E-26a.u.
   SCALEE = 1.0000    scale energy and forces
   NPACO  =    256;   APACO  = 10.0  distance and # of slots for P.C.
   PSTRESS=    0.0 pullay stress

  Mass of Ions in am
   POMASS =   7.01 19.00
  Ionic Valenz
   ZVAL   =   3.00  7.00
  Atomic Wigner-Seitz radii
   RWIGS  =  -1.00 -1.00
  virtual crystal weights 
   VCA    =   1.00  1.00
   NELECT =    1072.0000    total number of electrons
   NUPDOWN=      -1.0000    fix difference up-down

 DOS related values:
   EMIN   =  10.00;   EMAX   =-10.00  energy-range for DOS
   EFERMI =   0.00;   METHOD = LEGACY      
   ISMEAR =     0;   SIGMA  =   0.01  broadening in eV -4-tet -1-fermi 0-gaus

 Electronic relaxation 2 (details)
   IALGO  =     38    algorithm
   LDIAG  =      T    sub-space diagonalisation (order eigenvalues)
   LSUBROT=      F    optimize rotation matrix (better conditioning)
   TURBO    =      0    0=normal 1=particle mesh
   IRESTART =      0    0=no restart 2=restart with 2 vectors
   NREBOOT  =      0    no. of reboots
   NMIN     =      0    reboot dimension
   EREF     =   0.00    reference energy to select bands
   IMIX   =      4    mixing-type and parameters
     AMIX     =   0.40;   BMIX     =  1.00
     AMIX_MAG =   1.60;   BMIX_MAG =  1.00
     AMIN     =   0.10
     WC   =   100.;   INIMIX=   1;  MIXPRE=   1;  MAXMIX= -45

 Intra band minimization:
   WEIMIN = 0.0010     energy-eigenvalue tresh-hold
   EBREAK =  0.33E-13  absolut break condition
   DEPER  =   0.30     relativ break condition  

   TIME   =   0.40     timestep for ELM

  volume/ion in A,a.u.               =       8.20        55.31
  Fermi-wavevector in a.u.,A,eV,Ry     =   1.387115  2.621267 26.178794  1.924087
  Thomas-Fermi vector in A             =   2.511366
 
 Write flags
   LWAVE        =      T    write WAVECAR
   LDOWNSAMPLE  =      F    k-point downsampling of WAVECAR
   LCHARG       =      T    write CHGCAR
   LVTOT        =      F    write LOCPOT, total local potential
   LVHAR        =      F    write LOCPOT, Hartree potential only
   LELF         =      F    write electronic localiz. function (ELF)
   LORBIT       =      0    0 simple, 1 ext, 2 COOP (PROOUT), +10 PAW based schemes


 Dipole corrections
   LMONO  =      F    monopole corrections only (constant potential shift)
   LDIPOL =      F    correct potential (dipole corrections)
   IDIPOL =      0    1-x, 2-y, 3-z, 4-all directions 
   EPSILON=  1.0000000 bulk dielectric constant

 Exchange correlation treatment:
   GGA     =    --    GGA type
   LEXCH   =     8    internal setting for exchange type
   LIBXC   =     F    Libxc                    
   VOSKOWN =     0    Vosko Wilk Nusair interpolation
   LHFCALC =     F    Hartree Fock is set to
   LHFONE  =     F    Hartree Fock one center treatment
   AEXX    =    0.0000 exact exchange contribution

 Linear response parameters
   LEPSILON=     F    determine dielectric tensor
   LRPA    =     F    only Hartree local field effects (RPA)
   LNABLA  =     F    use nabla operator in PAW spheres
   LVEL    =     F    velocity operator in full k-point grid
   CSHIFT  =0.1000    complex shift for real part using Kramers Kronig
   OMEGAMAX=  -1.0    maximum frequency
   DEG_THRESHOLD= 0.2000000E-02 threshold for treating states as degnerate
   RTIME   =   -0.100 relaxation time in fs
  (WPLASMAI=    0.000 imaginary part of plasma frequency in eV, 0.658/RTIME)
   DFIELD  = 0.0000000 0.0000000 0.0000000 field for delta impulse in time
 
  Optional k-point grid parameters
   LKPOINTS_OPT  =     F    use optional k-point grid
   KPOINTS_OPT_MODE=     1    mode for optional k-point grid
 
 Orbital magnetization related:
   ORBITALMAG=     F  switch on orbital magnetization
   LCHIMAG   =     F  perturbation theory with respect to B field
   DQ        =  0.001000  dq finite difference perturbation B field
   LLRAUG    =     F  two centre corrections for induced B field
   LBONE     =     F  B-component reconstruction in AE one-centre
   LVGVCALC  =     T  calculate vGv susceptibility
   LVGVAPPL  =     F  apply vGv susceptibility instead of pGv for G=0

 Random number generation:
   RANDOM_GENERATOR = DEFAULT
   PCG_SEED         = not used


--------------------------------------------------------------------------------------------------------


 quickmin algorithm: (dynamic with friction)
 charge density and potential will be updated during run
 spin polarized calculation
 Variant of blocked Davidson
 Davidson routine will perform the subspace rotation
 perform sub-space diagonalisation
    after iterative eigenvector-optimisation
 modified Broyden-mixing scheme, WC =      100.0
 initial mixing is a Kerker type mixing with AMIX =  0.4000 and BMIX =      1.0000
 Hartree-type preconditioning will be used
 using additional bands           216
 reciprocal scheme for non local part
 use partial core corrections
 calculate Harris-corrections to forces 
   (improved forces if not selfconsistent)
 use gradient corrections 
 use of overlap-Matrix (Vanderbilt PP)
 Gauss-broadening in eV      SIGMA  =   0.01


--------------------------------------------------------------------------------------------------------


  energy-cutoff  :      400.00
  volume of cell :     1762.31
      direct lattice vectors                 reciprocal lattice vectors
    12.078900337  0.000000000  0.000000000     0.082788993  0.000000000  0.000000000
     0.000000000 12.078900337  0.000000000     0.000000000  0.082788993  0.000000000
     0.000000000  0.000000000 12.078900337     0.000000000  0.000000000  0.082788993

  length of vectors
    12.078900337 12.078900337 12.078900337     0.082788993  0.082788993  0.082788993


 
 k-points in units of 2pi/SCALE and weight: Gamma-point only                        
   0.00000000  0.00000000  0.00000000       1.000
 
 k-points in reciprocal lattice and weights: Gamma-point only                        
   0.00000000  0.00000000  0.00000000       1.000
 
 position of ions in fractional coordinates (direct lattice) 
   0.99866757  0.00195463  0.00027272
   0.99969138  0.00022716  0.33348757
   0.99969072  0.00048781  0.66624169
   0.99865180  0.33142375  0.00027063
   0.99968105  0.33313711  0.33349679
   0.99968078  0.33288099  0.66623471
   0.98590757  0.66664396  0.00281969
   0.99863472  0.66664000  0.33493490
   0.99863172  0.66664196  0.66227116
   0.33472673  0.00167467  0.00006317
   0.33368955  0.00019058  0.33350098
   0.33369294  0.00019157  0.66643725
   0.33472013  0.33172821  0.00006320
   0.33369310  0.33318364  0.33350616
   0.33369681  0.33317944  0.66643178
   0.34764359  0.66665460  0.00027383
   0.33473251  0.66663723  0.33492898
   0.33498256  0.66663533  0.66480901
   0.66665149  0.00036543  0.00006287
   0.66663435  0.00016507  0.33347352
   0.66662996  0.00016913  0.66646402
   0.66663371  0.33299696  0.00006347
   0.66662347  0.33320210  0.33348326
   0.66661836  0.33319733  0.66645387
   0.66633967  0.66664908  0.00027415
   0.66658385  0.66664522  0.33367402
   0.66633302  0.66664331  0.66606278
   0.99982606  0.16665856  0.16689207
   0.99984753  0.16666805  0.49993331
   0.99982611  0.16665691  0.83317190
   0.99981793  0.49954637  0.16714765
   0.99981817  0.49954495  0.49967420
   0.99981648  0.49699700  0.83317435
   0.99983118  0.83379261  0.16713320
   0.99981756  0.83379325  0.49967190
   0.99983001  0.83631951  0.83318482
   0.33357292  0.16665283  0.16685064
   0.33352546  0.16665694  0.49997323
   0.33361098  0.16665103  0.83317432
   0.33355728  0.49975299  0.16684427
   0.33355472  0.49975357  0.49996846
   0.33384398  0.49954322  0.83318789
   0.33356774  0.83359123  0.16684267
   0.33356068  0.83359155  0.49996807
   0.33385143  0.83378973  0.83318936
   0.66662917  0.16664633  0.16681448
   0.66662974  0.16665365  0.49997247
   0.66659080  0.16664578  0.83321094
   0.66662945  0.49974975  0.16685757
   0.66663691  0.49978548  0.49996772
   0.66634160  0.49953935  0.83317420
   0.66662537  0.83360447  0.16685092
   0.66662577  0.83356090  0.49996775
   0.66634034  0.83380451  0.83318019
   0.16672724  0.00167289  0.16801579
   0.16672110  0.00036017  0.49996834
   0.16693115  0.00196683  0.83201520
   0.16672379  0.33171625  0.16801895
   0.16671476  0.33300041  0.49996787
   0.16693023  0.33142428  0.83200868
   0.16691180  0.66664113  0.18089975
   0.16691746  0.66664938  0.49967247
   0.16942755  0.66663649  0.81942382
   0.50016673  0.00018841  0.16699051
   0.50013994  0.00016223  0.49997322
   0.50016636  0.00022488  0.83303596
   0.50016667  0.33317280  0.16698487
   0.50013821  0.33318464  0.49997279
   0.50016621  0.33313426  0.83304020
   0.50164251  0.66665016  0.16804475
   0.50032742  0.66665852  0.49993457
   0.50164267  0.66664894  0.83201997
   0.83315314  0.00019513  0.16698496
   0.83315115  0.00016895  0.49996785
   0.83294862  0.00049045  0.83304548
   0.83314234  0.33316859  0.16698379
   0.83315787  0.33318876  0.49996726
   0.83293546  0.33287677  0.83304378
   0.83147991  0.66666409  0.16830906
   0.83276467  0.66665410  0.49967143
   0.82896083  0.66666000  0.83201473
   0.16669928  0.16665504  0.00003712
   0.16667579  0.16664980  0.33367659
   0.16668231  0.16664845  0.66628606
   0.16668181  0.48586647  0.00003644
   0.16667698  0.49859470  0.33493437
   0.16667260  0.49859540  0.66502966
   0.16671214  0.84735387  0.00003703
   0.16667761  0.83470456  0.33492996
   0.16667324  0.83470077  0.66503488
   0.50034090  0.16667118  0.00003005
   0.50014180  0.16665593  0.33347748
   0.50014087  0.16665447  0.66649227
   0.50163534  0.49860093  0.00003672
   0.50016096  0.49965546  0.33348828
   0.50016053  0.49964878  0.66647389
   0.50164668  0.83472158  0.00003723
   0.50016239  0.83368886  0.33349711
   0.50016240  0.83369362  0.66646636
   0.83301191  0.16665324  0.00003725
   0.83320097  0.16664691  0.33348168
   0.83319431  0.16664679  0.66648048
   0.83171189  0.49860931  0.00003674
   0.83316609  0.49964525  0.33349590
   0.83316773  0.49964506  0.66646712
   0.83173668  0.83472361  0.00003699
   0.83317625  0.83370378  0.33350294
   0.83317770  0.83370171  0.66646112
   0.99965414  0.16668093  0.00007254
   0.00020869  0.16667565  0.33303726
   0.00020869  0.16667471  0.66688779
   0.00355797  0.50426788  0.99928850
   0.00067753  0.50060404  0.33252780
   0.00067599  0.50138606  0.66818135
   0.00356986  0.82906066  0.99929025
   0.00068389  0.83271093  0.33252944
   0.00068219  0.83192766  0.66817880
   0.33365014  0.16667826  0.99995842
   0.33310747  0.16667259  0.33304501
   0.33307701  0.16667106  0.66699541
   0.32961769  0.50368417  0.99986448
   0.33257955  0.50071958  0.33252981
   0.33247716  0.50081433  0.66760843
   0.32963673  0.82964445  0.99986448
   0.33258707  0.83260135  0.33253595
   0.33248460  0.83250145  0.66760229
   0.66674376  0.16667295  0.99995883
   0.66670057  0.16666836  0.33319178
   0.66673004  0.16666796  0.66684816
   0.66684377  0.49977152  0.99986481
   0.66673365  0.50024739  0.33303699
   0.66683472  0.50034124  0.66710053
   0.66684362  0.83356345  0.99986457
   0.66673107  0.83309220  0.33304118
   0.66683259  0.83299375  0.66709657
   0.00070661  0.99909102  0.16584315
   0.00019873  0.99960369  0.50012031
   0.00070627  0.99974466  0.83403331
   0.00069670  0.33425313  0.16584347
   0.00020472  0.33374679  0.50012356
   0.00069640  0.33359347  0.83403096
   0.00355433  0.66666117  0.16361947
   0.99963832  0.66666626  0.49946947
   0.05905417  0.72216343  0.89241651
   0.33260034  0.99916474  0.22157833
   0.33300354  0.99959470  0.55555565
   0.33260199  0.05482604  0.88953136
   0.33260074  0.33418111  0.22157916
   0.33300723  0.33374975  0.55555643
   0.33253182  0.38968105  0.88946062
   0.32965399  0.66665842  0.21876588
   0.33421917  0.66665802  0.55555826
   0.38538942  0.72216130  0.89241444
   0.66673825  0.99966340  0.22206253
   0.66680528  0.99974097  0.55555655
   0.66673582  0.05532566  0.88904675
   0.66672725  0.33367964  0.22206253
   0.66679732  0.33359797  0.55555628
   0.66679675  0.38918034  0.88897711
   0.66679818  0.66666498  0.22270292
   0.66614948  0.66666365  0.55555810
   0.74996561  0.58333281  0.88847388
   0.16663038  0.16667352  0.22263806
   0.16673914  0.16667347  0.55555607
   0.16653288  0.22236531  0.88837068
   0.16652230  0.50368684  0.21879692
   0.16595125  0.50034708  0.55555685
   0.16652375  0.55896825  0.89231307
   0.16653091  0.82963770  0.21880146
   0.16594873  0.83298289  0.55555659
   0.22222595  0.88533071  0.89243849
   0.49972141  0.16667584  0.22203952
   0.49986816  0.16667671  0.55555601
   0.49972113  0.22226991  0.88904066
   0.49921743  0.50072773  0.22157831
   0.49972474  0.50012515  0.55555552
   0.49921800  0.55620303  0.88952998
   0.49922105  0.83260581  0.22157977
   0.49972018  0.83319575  0.55555656
   0.55482015  0.88820273  0.88952922
   0.83367765  0.16666864  0.22206532
   0.83340556  0.16667171  0.55555648
   0.83377541  0.22236164  0.88894327
   0.83426966  0.50083101  0.22168040
   0.83433921  0.50091555  0.55555670
   0.83427010  0.55611262  0.88942914
   0.83427489  0.83251642  0.22168074
   0.83434389  0.83241903  0.55555696
   0.88955329  0.86027437  0.86167206
   0.16663836  0.00259600  0.05555481
   0.16653057  0.99922617  0.38840515
   0.16653030  0.05509652  0.72270416
   0.16663138  0.33072194  0.05555489
   0.16652485  0.33411290  0.38840689
   0.16594854  0.38950810  0.72213077
   0.16672741  0.66665204  0.33594767
   0.16593790  0.66665078  0.66476368
   0.49940561  0.99934366  0.99996057
   0.49974242  0.99971091  0.33305209
   0.49974201  0.99967986  0.66698843
   0.49938806  0.33401419  0.99995866
   0.49973809  0.33363376  0.33305997
   0.49973738  0.33366313  0.66697978
   0.50265850  0.66666174  0.00007279
   0.49938247  0.66666443  0.33270848
   0.49938257  0.66666303  0.66721844
   0.83411901  0.99922474  0.99986248
   0.83365290  0.99967881  0.33305622
   0.83375036  0.99957879  0.66707953
   0.83410306  0.33411322  0.99986128
   0.83364860  0.33366364  0.33306248
   0.83374503  0.33376261  0.66707303
   0.83138373  0.66667065  0.99929057
   0.83388443  0.66666424  0.33271301
   0.83467022  0.66666312  0.66799754
 
 position of ions in cartesian coordinates  (Angst):
  12.06280604  0.02360973  0.00329412
  12.07517255  0.00274380  4.02816309
  12.07516460  0.00589220  8.04746703
  12.06261554  4.00323450  0.00326896
  12.07504780  4.02392999  4.02827445
  12.07504452  4.02083633  8.04738265
  11.90867929  8.05232594  0.03405875
  12.06240922  8.05227812  4.04564528
  12.06237304  8.05230180  7.99950734
   4.04313087  0.02022814  0.00076301
   4.03060285  0.00230200  4.02832511
   4.03064375  0.00231395  8.04982907
   4.04305110  4.00691198  0.00076337
   4.03064564  4.02449195  4.02838771
   4.03069056  4.02444124  8.04976303
   4.19915231  8.05245448  0.00330759
   4.04320057  8.05224470  4.04557379
   4.04622094  8.05222177  8.03016175
   8.05241691  0.00441399  0.00075941
   8.05220992  0.00199383  4.02799342
   8.05215690  0.00204294  8.05015247
   8.05220214  4.02223708  0.00076664
   8.05207840  4.02471499  4.02811102
   8.05201679  4.02465737  8.05002989
   8.04865048  8.05238784  0.00331142
   8.05159987  8.05234122  4.03041524
   8.04857015  8.05231805  8.04530597
  12.07679928  2.01305214  2.01587274
  12.07705867  2.01316678  6.03864461
  12.07679997  2.01303219 10.06380038
  12.07670109  6.03397080  2.01895979
  12.07670404  6.03395367  6.03551490
  12.07668358  6.00317726 10.06382993
  12.07686115 10.07129787  2.01878529
  12.07669671 10.07130557  6.03548703
  12.07684705 10.10181997 10.06395644
   4.02919403  2.01298288  2.01537231
   4.02862074  2.01303257  6.03912679
   4.02965374  2.01296117 10.06382955
   4.02900517  6.03646658  2.01529534
   4.02897423  6.03647356  6.03906920
   4.03246818  6.03393283 10.06399349
   4.02913147 10.06886542  2.01527597
   4.02904619 10.06886930  6.03906450
   4.03255821 10.07126308 10.06401124
   8.05214732  2.01290446  2.01493553
   8.05215420  2.01299282  6.03911763
   8.05168383  2.01289781 10.06427196
   8.05215075  6.03642743  2.01545596
   8.05224076  6.03685902  6.03906024
   8.04867375  6.03388606 10.06382809
   8.05210142 10.06902536  2.01537562
   8.05210629 10.06849909  6.03906067
   8.04865853 10.07144155 10.06390053
   2.01388166  0.02020671  2.02944595
   2.01380755  0.00435050  6.03906775
   2.01634468  0.02375715 10.04982867
   2.01384008  4.00676747  2.02948411
   2.01373095  4.02227881  6.03906202
   2.01633358  4.00324085 10.04974992
   2.01611104  8.05229182  2.18507009
   2.01617931  8.05239139  6.03549399
   2.04649854  8.05223570  9.89773863
   6.04146407  0.00227583  2.01706168
   6.04114049  0.00195956  6.03912672
   6.04145967  0.00271625 10.06215840
   6.04146341  4.02436111  2.01699355
   6.04111963  4.02450406  6.03912145
   6.04145777  4.02389553 10.06220958
   6.05928991  8.05240087  2.02979585
   6.04340501  8.05250186  6.03865983
   6.05929183  8.05238608 10.04988632
  10.06357378  0.00235698  2.01699473
  10.06354967  0.00204069  6.03906184
  10.06110339  0.00592409 10.06227332
  10.06344330  4.02431022  2.01698051
  10.06363085  4.02455386  6.03905475
  10.06094439  4.02078534 10.06225285
  10.04336302  8.05256914  2.03298833
  10.05888140  8.05244846  6.03548145
  10.01293519  8.05251964 10.04982306
   2.01354395  2.01300962  0.00044832
   2.01326023  2.01294633  4.03044629
   2.01333904  2.01292996  8.04800286
   2.01333297  5.86873273  0.00044010
   2.01327462  6.02247574  4.04563891
   2.01322169  6.02248420  8.03282704
   2.01369931 10.23510290  0.00044730
   2.01328225 10.08231322  4.04558555
   2.01322941 10.08226747  8.03289001
   6.04356782  2.01320458  0.00036298
   6.04116300  2.01302035  4.02804122
   6.04115170  2.01300276  8.05049376
   6.05920326  6.02255097  0.00044349
   6.04139444  6.03528847  4.02817164
   6.04138925  6.03520784  8.05027168
   6.05934022 10.08251875  0.00044966
   6.04141161 10.07004464  4.02827840
   6.04141181 10.07010210  8.05018075
  10.06186788  2.01298791  0.00044989
  10.06415142  2.01291143  4.02809203
  10.06407108  2.01290992  8.05035127
  10.04616502  6.02265220  0.00044379
  10.06373016  6.03516523  4.02826369
  10.06374996  6.03516290  8.05018989
  10.04646444 10.08254332  0.00044675
  10.06385293 10.07022492  4.02834883
  10.06387039 10.07019988  8.05011745
  12.07472277  2.01332230  0.00087625
   0.00252074  2.01325855  4.02272382
   0.00252078  2.01324724  8.05527112
   0.04297636  6.09100141 12.07030624
   0.00818384  6.04674630  4.01657018
   0.00816523  6.05619231  8.07089591
   0.04312000 10.01414113 12.07032731
   0.00826060 10.05823239  4.01658991
   0.00824012 10.04877135  8.07086512
   4.03012673  2.01329010 12.07839805
   4.02357198  2.01322164  4.02281753
   4.02320406  2.01320316  8.05657109
   3.98141929  6.08395092 12.07726335
   4.01719527  6.04814194  4.01659447
   4.01595843  6.04928641  8.06397568
   3.98164924 10.02119261 12.07726337
   4.01728610 10.05690869  4.01666864
   4.01604840 10.05570206  8.06390158
   8.05353147  2.01322598 12.07840306
   8.05300976  2.01317047  4.02459026
   8.05336570  2.01316573  8.05479252
   8.05473946  6.03669035 12.07726740
   8.05340932  6.04243842  4.02272058
   8.05463010  6.04357202  8.05784085
   8.05473767 10.06852986 12.07726453
   8.05337810 10.06283760  4.02277123
   8.05460435 10.06164851  8.05779296
   0.00853511 12.06792080  2.00320293
   0.00240047 12.07411336  6.04090338
   0.00853094 12.07581610 10.07420529
   0.00841539  4.03741028  2.00320680
   0.00247280  4.03129422  6.04094268
   0.00841177  4.02944225 10.07417680
   0.04293238  8.05253379  1.97634328
  12.07453164  8.05259536  6.03304196
   0.71330941  8.72294015 10.77941007
   4.01744631 12.06881137  2.67642261
   4.02231653 12.07400474  6.71050138
   4.01746627  0.66223831 10.74456069
   4.01745121  4.03654038  2.67643254
   4.02236111  4.03132996  6.71051073
   4.01661876  4.70691852 10.74370621
   3.98185764  8.05250057  2.64245123
   4.03700002  8.05249578  6.71053288
   4.65508042  8.72291443 10.77938510
   8.05346489 12.07483461  2.68227122
   8.05427452 12.07577150  6.71051219
   8.05343555  0.66827318 10.73870704
   8.05333203  4.03048316  2.68227117
   8.05417836  4.02949668  6.71050898
   8.05417145  4.70087049 10.73786593
   8.05418882  8.05257983  2.69000638
   8.04635318  8.05256381  6.71053092
   9.05875980  7.04601884 10.73178749
   2.01271178  2.01323278  2.68922297
   2.01402543  2.01323225  6.71050640
   2.01153405  2.68592847 10.73054092
   2.01140626  6.08398315  2.64282617
   2.00450866  6.04364251  6.71051578
   2.01142380  6.75172181 10.77816062
   2.01151032 10.02111104  2.64288097
   2.00447812 10.06151726  6.71051274
   2.68424511 10.69382139 10.77967560
   6.03608510  2.01326084  2.68199328
   6.03785764  2.01327132  6.71050562
   6.03608174  2.68477613 10.73863352
   6.02999755  6.04824033  2.67642230
   6.03612528  6.04096187  6.71049970
   6.03000445  6.71832096 10.74454395
   6.03004132 10.05696259  2.67643991
   6.03607029 10.06408844  6.71051235
   6.70161726 10.72851223 10.74453476
  10.06990921  2.01317395  2.68230482
  10.06662266  2.01321100  6.71051136
  10.07109005  2.68588411 10.73745719
  10.07706011  6.04948785  2.67765549
  10.07790021  6.05050904  6.71051399
  10.07706535  6.71722896 10.74332595
  10.07712323 10.05588290  2.67765952
  10.07795665 10.05470653  6.71051713
  10.74482556 10.39116837 10.40805098
   2.01280815  0.03135684  0.67104103
   2.01150612 12.06955328  4.69150706
   2.01150295  0.66550543  8.72947149
   2.01272388  3.99475729  0.67104200
   2.01143712  4.03571647  4.69152807
   2.00447590  4.70482946  8.72254557
   2.01388380  8.05242357  4.05787846
   2.00434738  8.05240828  8.02961420
   6.03227061 12.07097251 12.07842402
   6.03633884 12.07540848  4.02290296
   6.03633395 12.07503341  8.05648673
   6.03205865  4.03452410 12.07840097
   6.03628659  4.02992898  4.02299822
   6.03627798  4.03028374  8.05638232
   6.07156198  8.05254071  0.00087926
   6.03199106  8.05257327  4.01875251
   6.03199232  8.05255630  8.05926500
  10.07524040 12.06953605 12.07723927
  10.06961024 12.07502066  4.02295286
  10.07078753 12.07381253  8.05758717
  10.07504770  4.03572024 12.07722470
  10.06955830  4.03028991  4.02302856
  10.07072317  4.03148529  8.05750863
  10.04220123  8.05264839 12.07033116
  10.07240694  8.05257086  4.01880728
  10.08189842  8.05255740  8.06867571
 


--------------------------------------------------------------------------------------------------------


 k-point   1 :   0.0000 0.0000 0.0000  plane waves:   31919

 maximum and minimum number of plane-waves per node :     31919    31919

 maximum number of plane-waves:     31919
 maximum index in each direction: 
   IXMAX=   19   IYMAX=   19   IZMAX=   19
   IXMIN=  -19   IYMIN=  -19   IZMIN=  -19


 serial   3D FFT for wavefunctions
 parallel 3D FFT for charge:
    minimum data exchange during FFTs selected (reduces bandwidth)


 total amount of memory used by VASP MPI-rank0  1460119. kBytes
=======================================================================

   base      :      30000. kBytes
   nonl-proj :     113886. kBytes
   fftplans  :     141100. kBytes
   grid      :     372121. kBytes
   one-center:       1320. kBytes
   wavefun   :     801692. kBytes
 
     INWAV:  cpu time      0.0000: real time      0.0003
 Broyden mixing: mesh for mixing (old mesh)
   NGX = 39   NGY = 39   NGZ = 39
  (NGX  =160   NGY  =160   NGZ  =160)
  gives a total of  59319 points

 charge density for first step will be calculated from the start-wavefunctions


--------------------------------------------------------------------------------------------------------


 Maximum index for augmentation-charges          3635 (set IRDMAX)


--------------------------------------------------------------------------------------------------------


 initial charge from wavefunction
 First call to EWALD:  gamma=   0.147
 Maximum number of real-space cells 3x 3x 3
 Maximum number of reciprocal cells 3x 3x 3

    FEWALD:  cpu time      0.2506: real time      0.2511


--------------------------------------- Ionic step        1  -------------------------------------------




--------------------------------------- Iteration      1(   1)  ---------------------------------------


    POTLOK:  cpu time      0.1296: real time      0.1303
    SETDIJ:  cpu time      0.7789: real time      0.7808
     EDDAV:  cpu time     11.9180: real time     11.9501
       DOS:  cpu time      0.0003: real time      0.0003
    --------------------------------------------
      LOOP:  cpu time     12.8268: real time     12.8614

 eigenvalue-minimisations  :  4120
 total energy-change (2. order) :-0.2202749E+05  (-0.9002972E+05)
 number of electron    1071.9999958 magnetization      -0.0000002
 augmentation part       91.8366501 magnetization      -0.2890466

 Free energy of the ion-electron system (eV)
  ---------------------------------------------------
  alpha Z        PSCENC =      2139.14908826
  Ewald energy   TEWEN  =    -55937.49859091
  -Hartree energ DENC   =      -644.18020858
  -exchange      EXHF   =         0.00000000
  -V(xc)+E(xc)   XCENC  =      3517.04892449
  PAW double counting   =     17486.46197234   -17892.95364015
  entropy T*S    EENTRO =         0.00000000
  eigenvalues    EBANDS =    -63147.50137642
  atomic energy  EATOM  =     92451.98304323
  Solvation  Ediel_sol  =         0.00000000
  ---------------------------------------------------
  free energy    TOTEN  =    -22027.49078775 eV

  energy without entropy =   -22027.49078775  energy(sigma->0) =   -22027.49078775


--------------------------------------------------------------------------------------------------------




--------------------------------------- Iteration      1(   2)  ---------------------------------------


     EDDAV:  cpu time      9.4014: real time      9.4302
       DOS:  cpu time      0.0002: real time      0.0002
    --------------------------------------------
      LOOP:  cpu time      9.4016: real time      9.4305

 eigenvalue-minimisations  :  3144
 total energy-change (2. order) :-0.1325934E+05  (-0.1305459E+05)
 number of electron    1071.9999958 magnetization      -0.0000002
 augmentation part       91.8366501 magnetization      -0.2890466

 Free energy of the ion-electron system (eV)
  ---------------------------------------------------
  alpha Z        PSCENC =      2139.14908826
  Ewald energy   TEWEN  =    -55937.49859091
  -Hartree energ DENC   =      -644.18020858
  -exchange      EXHF   =         0.00000000
  -V(xc)+E(xc)   XCENC  =      3517.04892449
  PAW double counting   =     17486.46197234   -17892.95364015
  entropy T*S    EENTRO =        -0.00000000
  eigenvalues    EBANDS =    -76406.83849571
  atomic energy  EATOM  =     92451.98304323
  Solvation  Ediel_sol  =         0.00000000
  ---------------------------------------------------
  free energy    TOTEN  =    -35286.82790704 eV

  energy without entropy =   -35286.82790704  energy(sigma->0) =   -35286.82790704


--------------------------------------------------------------------------------------------------------




--------------------------------------- Iteration      1(   3)  ---------------------------------------


     EDDAV:  cpu time     12.4476: real time     12.4881
       DOS:  cpu time      0.0008: real time      0.0008
    --------------------------------------------
      LOOP:  cpu time     12.4485: real time     12.4890

 eigenvalue-minimisations  :  4448
 total energy-change (2. order) :-0.1473340E+04  (-0.1458592E+04)
 number of electron    1071.9999958 magnetization      -0.0000002
 augmentation part       91.8366501 magnetization      -0.2890466

 Free energy of the ion-electron system (eV)
  ---------------------------------------------------
  alpha Z        PSCENC =      2139.14908826
  Ewald energy   TEWEN  =    -55937.49859091
  -Hartree energ DENC   =      -644.18020858
  -exchange      EXHF   =         0.00000000
  -V(xc)+E(xc)   XCENC  =      3517.04892449
  PAW double counting   =     17486.46197234   -17892.95364015
  entropy T*S    EENTRO =        -0.00089706
  eigenvalues    EBANDS =    -77880.17753069
  atomic energy  EATOM  =     92451.98304323
  Solvation  Ediel_sol  =         0.00000000
  ---------------------------------------------------
  free energy    TOTEN  =    -36760.16783909 eV

  energy without entropy =   -36760.16694202  energy(sigma->0) =   -36760.16739055


--------------------------------------------------------------------------------------------------------




--------------------------------------- Iteration      1(   4)  ---------------------------------------


     EDDAV:  cpu time     14.0755: real time     14.1230
       DOS:  cpu time      0.0003: real time      0.0003
    --------------------------------------------
      LOOP:  cpu time     14.0758: real time     14.1233

 eigenval