<?xml version="1.0" encoding="ISO-8859-1"?>
<modeling>
 <generator>
  <i name="program" type="string">vasp </i>
  <i name="version" type="string">6.4.2  </i>
  <i name="subversion" type="string">20Jul23 (build Jun  3 2025 15:36:07) complex                          parallel </i>
  <i name="platform" type="string">LinuxNV </i>
  <i name="date" type="string">2025 06 06 </i>
  <i name="time" type="string">14:52:50 </i>
 </generator>
 <incar>
  <i type="string" name="SYSTEM">Si</i>
  <i type="int" name="ISTART">     0</i>
  <i type="string" name="PREC">Accurate</i>
  <i type="string" name="ALGO">Normal</i>
  <i type="int" name="ISPIN">     2</i>
  <i type="int" name="ICHARG">     0</i>
  <i type="int" name="NELM">    20</i>
  <i type="int" name="IBRION">     3</i>
  <i name="EDIFF">      0.00000000</i>
  <i name="EDIFFG">     -0.01000000</i>
  <i type="int" name="NSW">   500</i>
  <i type="int" name="ISIF">     0</i>
  <i name="ENCUT">    400.00000000</i>
  <i name="POTIM">      0.00000000</i>
  <i name="NELECT">   1072.00000000</i>
  <i type="int" name="ISMEAR">     0</i>
  <i name="SIGMA">      0.01000000</i>
  <i name="SPRING">     -5.00000000</i>
 </incar>
 <primitive_cell>
  <structure name="primitive_cell" >
   <crystal>
    <varray name="basis" >
     <v>      12.07890034       0.00000000       0.00000000 </v>
     <v>       0.00000000      12.07890034       0.00000000 </v>
     <v>       0.00000000       0.00000000      12.07890034 </v>
    </varray>
    <i name="volume">   1762.30954632 </i>
    <varray name="rec_basis" >
     <v>       0.08278899       0.00000000       0.00000000 </v>
     <v>       0.00000000       0.08278899       0.00000000 </v>
     <v>       0.00000000       0.00000000       0.08278899 </v>
    </varray>
   </crystal>
   <varray name="positions" >
    <v>       0.99866757       0.00195463       0.00027272 </v>
    <v>       0.99969138       0.00022716       0.33348757 </v>
    <v>       0.99969072       0.00048781       0.66624169 </v>
    <v>       0.99865180       0.33142375       0.00027063 </v>
    <v>       0.99968105       0.33313711       0.33349679 </v>
    <v>       0.99968078       0.33288099       0.66623471 </v>
    <v>       0.98590757       0.66664396       0.00281969 </v>
    <v>       0.99863472       0.66664000       0.33493490 </v>
    <v>       0.99863172       0.66664196       0.66227116 </v>
    <v>       0.33472673       0.00167467       0.00006317 </v>
    <v>       0.33368955       0.00019058       0.33350098 </v>
    <v>       0.33369294       0.00019157       0.66643725 </v>
    <v>       0.33472013       0.33172821       0.00006320 </v>
    <v>       0.33369310       0.33318364       0.33350616 </v>
    <v>       0.33369681       0.33317944       0.66643178 </v>
    <v>       0.34764359       0.66665460       0.00027383 </v>
    <v>       0.33473251       0.66663723       0.33492898 </v>
    <v>       0.33498256       0.66663533       0.66480901 </v>
    <v>       0.66665149       0.00036543       0.00006287 </v>
    <v>       0.66663435       0.00016507       0.33347352 </v>
    <v>       0.66662996       0.00016913       0.66646402 </v>
    <v>       0.66663371       0.33299696       0.00006347 </v>
    <v>       0.66662347       0.33320210       0.33348326 </v>
    <v>       0.66661836       0.33319733       0.66645387 </v>
    <v>       0.66633967       0.66664908       0.00027415 </v>
    <v>       0.66658385       0.66664522       0.33367402 </v>
    <v>       0.66633302       0.66664331       0.66606278 </v>
    <v>       0.99982606       0.16665856       0.16689207 </v>
    <v>       0.99984753       0.16666805       0.49993331 </v>
    <v>       0.99982611       0.16665691       0.83317190 </v>
    <v>       0.99981793       0.49954637       0.16714765 </v>
    <v>       0.99981817       0.49954495       0.49967420 </v>
    <v>       0.99981648       0.49699700       0.83317435 </v>
    <v>       0.99983118       0.83379261       0.16713320 </v>
    <v>       0.99981756       0.83379325       0.49967190 </v>
    <v>       0.99983001       0.83631951       0.83318482 </v>
    <v>       0.33357292       0.16665283       0.16685064 </v>
    <v>       0.33352546       0.16665694       0.49997323 </v>
    <v>       0.33361098       0.16665103       0.83317432 </v>
    <v>       0.33355728       0.49975299       0.16684427 </v>
    <v>       0.33355472       0.49975357       0.49996846 </v>
    <v>       0.33384398       0.49954322       0.83318789 </v>
    <v>       0.33356774       0.83359123       0.16684267 </v>
    <v>       0.33356068       0.83359155       0.49996807 </v>
    <v>       0.33385143       0.83378973       0.83318936 </v>
    <v>       0.66662917       0.16664633       0.16681448 </v>
    <v>       0.66662974       0.16665365       0.49997247 </v>
    <v>       0.66659080       0.16664578       0.83321094 </v>
    <v>       0.66662945       0.49974975       0.16685757 </v>
    <v>       0.66663691       0.49978548       0.49996772 </v>
    <v>       0.66634160       0.49953935       0.83317420 </v>
    <v>       0.66662537       0.83360447       0.16685092 </v>
    <v>       0.66662577       0.83356090       0.49996775 </v>
    <v>       0.66634034       0.83380451       0.83318019 </v>
    <v>       0.16672724       0.00167289       0.16801579 </v>
    <v>       0.16672110       0.00036017       0.49996834 </v>
    <v>       0.16693115       0.00196683       0.83201520 </v>
    <v>       0.16672379       0.33171625       0.16801895 </v>
    <v>       0.16671476       0.33300041       0.49996787 </v>
    <v>       0.16693023       0.33142428       0.83200868 </v>
    <v>       0.16691180       0.66664113       0.18089975 </v>
    <v>       0.16691746       0.66664938       0.49967247 </v>
    <v>       0.16942755       0.66663649       0.81942382 </v>
    <v>       0.50016673       0.00018841       0.16699051 </v>
    <v>       0.50013994       0.00016223       0.49997322 </v>
    <v>       0.50016636       0.00022488       0.83303596 </v>
    <v>       0.50016667       0.33317280       0.16698487 </v>
    <v>       0.50013821       0.33318464       0.49997279 </v>
    <v>       0.50016621       0.33313426       0.83304020 </v>
    <v>       0.50164251       0.66665016       0.16804475 </v>
    <v>       0.50032742       0.66665852       0.49993457 </v>
    <v>       0.50164267       0.66664894       0.83201997 </v>
    <v>       0.83315314       0.00019513       0.16698496 </v>
    <v>       0.83315115       0.00016895       0.49996785 </v>
    <v>       0.83294862       0.00049045       0.83304548 </v>
    <v>       0.83314234       0.33316859       0.16698379 </v>
    <v>       0.83315787       0.33318876       0.49996726 </v>
    <v>       0.83293546       0.33287677       0.83304378 </v>
    <v>       0.83147991       0.66666409       0.16830906 </v>
    <v>       0.83276467       0.66665410       0.49967143 </v>
    <v>       0.82896083       0.66666000       0.83201473 </v>
    <v>       0.16669928       0.16665504       0.00003712 </v>
    <v>       0.16667579       0.16664980       0.33367659 </v>
    <v>       0.16668231       0.16664845       0.66628606 </v>
    <v>       0.16668181       0.48586647       0.00003644 </v>
    <v>       0.16667698       0.49859470       0.33493437 </v>
    <v>       0.16667260       0.49859540       0.66502966 </v>
    <v>       0.16671214       0.84735387       0.00003703 </v>
    <v>       0.16667761       0.83470456       0.33492996 </v>
    <v>       0.16667324       0.83470077       0.66503488 </v>
    <v>       0.50034090       0.16667118       0.00003005 </v>
    <v>       0.50014180       0.16665593       0.33347748 </v>
    <v>       0.50014087       0.16665447       0.66649227 </v>
    <v>       0.50163534       0.49860093       0.00003672 </v>
    <v>       0.50016096       0.49965546       0.33348828 </v>
    <v>       0.50016053       0.49964878       0.66647389 </v>
    <v>       0.50164668       0.83472158       0.00003723 </v>
    <v>       0.50016239       0.83368886       0.33349711 </v>
    <v>       0.50016240       0.83369362       0.66646636 </v>
    <v>       0.83301191       0.16665324       0.00003725 </v>
    <v>       0.83320097       0.16664691       0.33348168 </v>
    <v>       0.83319431       0.16664679       0.66648048 </v>
    <v>       0.83171189       0.49860931       0.00003674 </v>
    <v>       0.83316609       0.49964525       0.33349590 </v>
    <v>       0.83316773       0.49964506       0.66646712 </v>
    <v>       0.83173668       0.83472361       0.00003699 </v>
    <v>       0.83317625       0.83370378       0.33350294 </v>
    <v>       0.83317770       0.83370171       0.66646112 </v>
    <v>       0.99965414       0.16668093       0.00007254 </v>
    <v>       0.00020869       0.16667565       0.33303726 </v>
    <v>       0.00020869       0.16667471       0.66688779 </v>
    <v>       0.00355797       0.50426788       0.99928850 </v>
    <v>       0.00067753       0.50060404       0.33252780 </v>
    <v>       0.00067599       0.50138606       0.66818135 </v>
    <v>       0.00356986       0.82906066       0.99929025 </v>
    <v>       0.00068389       0.83271093       0.33252944 </v>
    <v>       0.00068219       0.83192766       0.66817880 </v>
    <v>       0.33365014       0.16667826       0.99995842 </v>
    <v>       0.33310747       0.16667259       0.33304501 </v>
    <v>       0.33307701       0.16667106       0.66699541 </v>
    <v>       0.32961769       0.50368417       0.99986448 </v>
    <v>       0.33257955       0.50071958       0.33252981 </v>
    <v>       0.33247716       0.50081433       0.66760843 </v>
    <v>       0.32963673       0.82964445       0.99986448 </v>
    <v>       0.33258707       0.83260135       0.33253595 </v>
    <v>       0.33248460       0.83250145       0.66760229 </v>
    <v>       0.66674376       0.16667295       0.99995883 </v>
    <v>       0.66670057       0.16666836       0.33319178 </v>
    <v>       0.66673004       0.16666796       0.66684816 </v>
    <v>       0.66684377       0.49977152       0.99986481 </v>
    <v>       0.66673365       0.50024739       0.33303699 </v>
    <v>       0.66683472       0.50034124       0.66710053 </v>
    <v>       0.66684362       0.83356345       0.99986457 </v>
    <v>       0.66673107       0.83309220       0.33304118 </v>
    <v>       0.66683259       0.83299375       0.66709657 </v>
    <v>       0.00070661       0.99909102       0.16584315 </v>
    <v>       0.00019873       0.99960369       0.50012031 </v>
    <v>       0.00070627       0.99974466       0.83403331 </v>
    <v>       0.00069670       0.33425313       0.16584347 </v>
    <v>       0.00020472       0.33374679       0.50012356 </v>
    <v>       0.00069640       0.33359347       0.83403096 </v>
    <v>       0.00355433       0.66666117       0.16361947 </v>
    <v>       0.99963832       0.66666626       0.49946947 </v>
    <v>       0.05905417       0.72216343       0.89241651 </v>
    <v>       0.33260034       0.99916474       0.22157833 </v>
    <v>       0.33300354       0.99959470       0.55555565 </v>
    <v>       0.33260199       0.05482604       0.88953136 </v>
    <v>       0.33260074       0.33418111       0.22157916 </v>
    <v>       0.33300723       0.33374975       0.55555643 </v>
    <v>       0.33253182       0.38968105       0.88946062 </v>
    <v>       0.32965399       0.66665842       0.21876588 </v>
    <v>       0.33421917       0.66665802       0.55555826 </v>
    <v>       0.38538942       0.72216130       0.89241444 </v>
    <v>       0.66673825       0.99966340       0.22206253 </v>
    <v>       0.66680528       0.99974097       0.55555655 </v>
    <v>       0.66673582       0.05532566       0.88904675 </v>
    <v>       0.66672725       0.33367964       0.22206253 </v>
    <v>       0.66679732       0.33359797       0.55555628 </v>
    <v>       0.66679675       0.38918034       0.88897711 </v>
    <v>       0.66679818       0.66666498       0.22270292 </v>
    <v>       0.66614948       0.66666365       0.55555810 </v>
    <v>       0.74996561       0.58333281       0.88847388 </v>
    <v>       0.16663038       0.16667352       0.22263806 </v>
    <v>       0.16673914       0.16667347       0.55555607 </v>
    <v>       0.16653288       0.22236531       0.88837068 </v>
    <v>       0.16652230       0.50368684       0.21879692 </v>
    <v>       0.16595125       0.50034708       0.55555685 </v>
    <v>       0.16652375       0.55896825       0.89231307 </v>
    <v>       0.16653091       0.82963770       0.21880146 </v>
    <v>       0.16594873       0.83298289       0.55555659 </v>
    <v>       0.22222595       0.88533071       0.89243849 </v>
    <v>       0.49972141       0.16667584       0.22203952 </v>
    <v>       0.49986816       0.16667671       0.55555601 </v>
    <v>       0.49972113       0.22226991       0.88904066 </v>
    <v>       0.49921743       0.50072773       0.22157831 </v>
    <v>       0.49972474       0.50012515       0.55555552 </v>
    <v>       0.49921800       0.55620303       0.88952998 </v>
    <v>       0.49922105       0.83260581       0.22157977 </v>
    <v>       0.49972018       0.83319575       0.55555656 </v>
    <v>       0.55482015       0.88820273       0.88952922 </v>
    <v>       0.83367765       0.16666864       0.22206532 </v>
    <v>       0.83340556       0.16667171       0.55555648 </v>
    <v>       0.83377541       0.22236164       0.88894327 </v>
    <v>       0.83426966       0.50083101       0.22168040 </v>
    <v>       0.83433921       0.50091555       0.55555670 </v>
    <v>       0.83427010       0.55611262       0.88942914 </v>
    <v>       0.83427489       0.83251642       0.22168074 </v>
    <v>       0.83434389       0.83241903       0.55555696 </v>
    <v>       0.88955329       0.86027437       0.86167206 </v>
    <v>       0.16663836       0.00259600       0.05555481 </v>
    <v>       0.16653057       0.99922617       0.38840515 </v>
    <v>       0.16653030       0.05509652       0.72270416 </v>
    <v>       0.16663138       0.33072194       0.05555489 </v>
    <v>       0.16652485       0.33411290       0.38840689 </v>
    <v>       0.16594854       0.38950810       0.72213077 </v>
    <v>       0.16672741       0.66665204       0.33594767 </v>
    <v>       0.16593790       0.66665078       0.66476368 </v>
    <v>       0.49940561       0.99934366       0.99996057 </v>
    <v>       0.49974242       0.99971091       0.33305209 </v>
    <v>       0.49974201       0.99967986       0.66698843 </v>
    <v>       0.49938806       0.33401419       0.99995866 </v>
    <v>       0.49973809       0.33363376       0.33305997 </v>
    <v>       0.49973738       0.33366313       0.66697978 </v>
    <v>       0.50265850       0.66666174       0.00007279 </v>
    <v>       0.49938247       0.66666443       0.33270848 </v>
    <v>       0.49938257       0.66666303       0.66721844 </v>
    <v>       0.83411901       0.99922474       0.99986248 </v>
    <v>       0.83365290       0.99967881       0.33305622 </v>
    <v>       0.83375036       0.99957879       0.66707953 </v>
    <v>       0.83410306       0.33411322       0.99986128 </v>
    <v>       0.83364860       0.33366364       0.33306248 </v>
    <v>       0.83374503       0.33376261       0.66707303 </v>
    <v>       0.83138373       0.66667065       0.99929057 </v>
    <v>       0.83388443       0.66666424       0.33271301 </v>
    <v>       0.83467022       0.66666312       0.66799754 </v>
   </varray>
  </structure>
  <varray name="primitive_index" >
   <v type="int" >        1 </v>
   <v type="int" >        2 </v>
   <v type="int" >        3 </v>
   <v type="int" >        4 </v>
   <v type="int" >        5 </v>
   <v type="int" >        6 </v>
   <v type="int" >        7 </v>
   <v type="int" >        8 </v>
   <v type="int" >        9 </v>
   <v type="int" >       10 </v>
   <v type="int" >       11 </v>
   <v type="int" >       12 </v>
   <v type="int" >       13 </v>
   <v type="int" >       14 </v>
   <v type="int" >       15 </v>
   <v type="int" >       16 </v>
   <v type="int" >       17 </v>
   <v type="int" >       18 </v>
   <v type="int" >       19 </v>
   <v type="int" >       20 </v>
   <v type="int" >       21 </v>
   <v type="int" >       22 </v>
   <v type="int" >       23 </v>
   <v type="int" >       24 </v>
   <v type="int" >       25 </v>
   <v type="int" >       26 </v>
   <v type="int" >       27 </v>
   <v type="int" >       28 </v>
   <v type="int" >       29 </v>
   <v type="int" >       30 </v>
   <v type="int" >       31 </v>
   <v type="int" >       32 </v>
   <v type="int" >       33 </v>
   <v type="int" >       34 </v>
   <v type="int" >       35 </v>
   <v type="int" >       36 </v>
   <v type="int" >       37 </v>
   <v type="int" >       38 </v>
   <v type="int" >       39 </v>
   <v type="int" >       40 </v>
   <v type="int" >       41 </v>
   <v type="int" >       42 </v>
   <v type="int" >       43 </v>
   <v type="int" >       44 </v>
   <v type="int" >       45 </v>
   <v type="int" >       46 </v>
   <v type="int" >       47 </v>
   <v type="int" >       48 </v>
   <v type="int" >       49 </v>
   <v type="int" >       50 </v>
   <v type="int" >       51 </v>
   <v type="int" >       52 </v>
   <v type="int" >       53 </v>
   <v type="int" >       54 </v>
   <v type="int" >       55 </v>
   <v type="int" >       56 </v>
   <v type="int" >       57 </v>
   <v type="int" >       58 </v>
   <v type="int" >       59 </v>
   <v type="int" >       60 </v>
   <v type="int" >       61 </v>
   <v type="int" >       62 </v>
   <v type="int" >       63 </v>
   <v type="int" >       64 </v>
   <v type="int" >       65 </v>
   <v type="int" >       66 </v>
   <v type="int" >       67 </v>
   <v type="int" >       68 </v>
   <v type="int" >       69 </v>
   <v type="int" >       70 </v>
   <v type="int" >       71 </v>
   <v type="int" >       72 </v>
   <v type="int" >       73 </v>
   <v type="int" >       74 </v>
   <v type="int" >       75 </v>
   <v type="int" >       76 </v>
   <v type="int" >       77 </v>
   <v type="int" >       78 </v>
   <v type="int" >       79 </v>
   <v type="int" >       80 </v>
   <v type="int" >       81 </v>
   <v type="int" >       82 </v>
   <v type="int" >       83 </v>
   <v type="int" >       84 </v>
   <v type="int" >       85 </v>
   <v type="int" >       86 </v>
   <v type="int" >       87 </v>
   <v type="int" >       88 </v>
   <v type="int" >       89 </v>
   <v type="int" >       90 </v>
   <v type="int" >       91 </v>
   <v type="int" >       92 </v>
   <v type="int" >       93 </v>
   <v type="int" >       94 </v>
   <v type="int" >       95 </v>
   <v type="int" >       96 </v>
   <v type="int" >       97 </v>
   <v type="int" >       98 </v>
   <v type="int" >       99 </v>
   <v type="int" >      100 </v>
   <v type="int" >      101 </v>
   <v type="int" >      102 </v>
   <v type="int" >      103 </v>
   <v type="int" >      104 </v>
   <v type="int" >      105 </v>
   <v type="int" >      106 </v>
   <v type="int" >      107 </v>
   <v type="int" >      108 </v>
   <v type="int" >      109 </v>
   <v type="int" >      110 </v>
   <v type="int" >      111 </v>
   <v type="int" >      112 </v>
   <v type="int" >      113 </v>
   <v type="int" >      114 </v>
   <v type="int" >      115 </v>
   <v type="int" >      116 </v>
   <v type="int" >      117 </v>
   <v type="int" >      118 </v>
   <v type="int" >      119 </v>
   <v type="int" >      120 </v>
   <v type="int" >      121 </v>
   <v type="int" >      122 </v>
   <v type="int" >      123 </v>
   <v type="int" >      124 </v>
   <v type="int" >      125 </v>
   <v type="int" >      126 </v>
   <v type="int" >      127 </v>
   <v type="int" >      128 </v>
   <v type="int" >      129 </v>
   <v type="int" >      130 </v>
   <v type="int" >      131 </v>
   <v type="int" >      132 </v>
   <v type="int" >      133 </v>
   <v type="int" >      134 </v>
   <v type="int" >      135 </v>
   <v type="int" >      136 </v>
   <v type="int" >      137 </v>
   <v type="int" >      138 </v>
   <v type="int" >      139 </v>
   <v type="int" >      140 </v>
   <v type="int" >      141 </v>
   <v type="int" >      142 </v>
   <v type="int" >      143 </v>
   <v type="int" >      144 </v>
   <v type="int" >      145 </v>
   <v type="int" >      146 </v>
   <v type="int" >      147 </v>
   <v type="int" >      148 </v>
   <v type="int" >      149 </v>
   <v type="int" >      150 </v>
   <v type="int" >      151 </v>
   <v type="int" >      152 </v>
   <v type="int" >      153 </v>
   <v type="int" >      154 </v>
   <v type="int" >      155 </v>
   <v type="int" >      156 </v>
   <v type="int" >      157 </v>
   <v type="int" >      158 </v>
   <v type="int" >      159 </v>
   <v type="int" >      160 </v>
   <v type="int" >      161 </v>
   <v type="int" >      162 </v>
   <v type="int" >      163 </v>
   <v type="int" >      164 </v>
   <v type="int" >      165 </v>
   <v type="int" >      166 </v>
   <v type="int" >      167 </v>
   <v type="int" >      168 </v>
   <v type="int" >      169 </v>
   <v type="int" >      170 </v>
   <v type="int" >      171 </v>
   <v type="int" >      172 </v>
   <v type="int" >      173 </v>
   <v type="int" >      174 </v>
   <v type="int" >      175 </v>
   <v type="int" >      176 </v>
   <v type="int" >      177 </v>
   <v type="int" >      178 </v>
   <v type="int" >      179 </v>
   <v type="int" >      180 </v>
   <v type="int" >      181 </v>
   <v type="int" >      182 </v>
   <v type="int" >      183 </v>
   <v type="int" >      184 </v>
   <v type="int" >      185 </v>
   <v type="int" >      186 </v>
   <v type="int" >      187 </v>
   <v type="int" >      188 </v>
   <v type="int" >      189 </v>
   <v type="int" >      190 </v>
   <v type="int" >      191 </v>
   <v type="int" >      192 </v>
   <v type="int" >      193 </v>
   <v type="int" >      194 </v>
   <v type="int" >      195 </v>
   <v type="int" >      196 </v>
   <v type="int" >      197 </v>
   <v type="int" >      198 </v>
   <v type="int" >      199 </v>
   <v type="int" >      200 </v>
   <v type="int" >      201 </v>
   <v type="int" >      202 </v>
   <v type="int" >      203 </v>
   <v type="int" >      204 </v>
   <v type="int" >      205 </v>
   <v type="int" >      206 </v>
   <v type="int" >      207 </v>
   <v type="int" >      208 </v>
   <v type="int" >      209 </v>
   <v type="int" >      210 </v>
   <v type="int" >      211 </v>
   <v type="int" >      212 </v>
   <v type="int" >      213 </v>
   <v type="int" >      214 </v>
   <v type="int" >      215 </v>
  </varray>
 </primitive_cell>
 <kpoints>
  <generation param="Monkhorst-Pack">
   <v type="int" name="divisions">       1        1        1 </v>
   <v name="usershift">      0.00000000       0.00000000       0.00000000 </v>
   <v name="genvec1">      1.00000000       0.00000000       0.00000000 </v>
   <v name="genvec2">      0.00000000       1.00000000       0.00000000 </v>
   <v name="genvec3">      0.00000000       0.00000000       1.00000000 </v>
   <v name="shift">      0.00000000       0.00000000       0.00000000 </v>
  </generation>
  <varray name="kpointlist" >
   <v>       0.00000000       0.00000000       0.00000000 </v>
  </varray>
  <varray name="weights" >
   <v>       1.00000000 </v>
  </varray>
 </kpoints>
 <parameters>
  <separator name="general" >
   <i type="string" name="SYSTEM">Si</i>
   <i type="logical" name="LCOMPAT"> F  </i>
  </separator>
  <separator name="electronic" >
   <i type="string" name="PREC">accura</i>
   <i name="ENMAX">    400.00000000</i>
   <i name="ENAUG">    628.94500000</i>
   <i name="EDIFF">      0.00000000</i>
   <i type="int" name="IALGO">    38</i>
   <i type="int" name="IWAVPR">    11</i>
   <i type="int" name="NBANDS">   752</i>
   <i type="int" name="NBANDSLOW">    -1</i>
   <i type="int" name="NBANDSHIGH">    -1</i>
   <i name="NELECT">   1072.00000000</i>
   <i type="int" name="TURBO">     0</i>
   <i type="int" name="IRESTART">     0</i>
   <i type="int" name="NREBOOT">     0</i>
   <i type="int" name="NMIN">     0</i>
   <i name="EREF">      0.00000000</i>
   <separator name="electronic smearing" >
    <i type="int" name="ISMEAR">     0</i>
    <i name="SIGMA">      0.01000000</i>
    <i name="KSPACING">      0.50000000</i>
    <i type="logical" name="KGAMMA"> T  </i>
    <i type="logical" name="KBLOWUP"> T  </i>
   </separator>
   <separator name="electronic projectors" >
    <i type="logical" name="LREAL"> F  </i>
    <v name="ROPT">      0.00000000      0.00000000</v>
    <i type="int" name="LMAXPAW">  -100</i>
    <i type="int" name="LMAXMIX">     2</i>
    <i type="logical" name="NLSPLINE"> F  </i>
   </separator>
   <separator name="electronic startup" >
    <i type="int" name="ISTART">     0</i>
    <i type="int" name="ICHARG">     0</i>
    <i type="int" name="INIWAV">     1</i>
   </separator>
   <separator name="electronic spin" >
    <i type="int" name="ISPIN">     2</i>
    <i type="logical" name="LNONCOLLINEAR"> F  </i>
    <v name="MAGMOM">      1.00000000      1.00000000      1.00000000      1.00000000      1.00000000      1.00000000      1.00000000      1.00000000      1.00000000      1.00000000      1.00000000      1.00000000      1.00000000      1.00000000      1.00000000      1.00000000      1.00000000      1.00000000      1.00000000      1.00000000
      1.00000000      1.00000000      1.00000000      1.00000000      1.00000000      1.00000000      1.00000000      1.00000000      1.00000000      1.00000000      1.00000000      1.00000000      1.00000000      1.00000000      1.00000000      1.00000000      1.00000000      1.00000000      1.00000000      1.00000000
      1.00000000      1.00000000      1.00000000      1.00000000      1.00000000      1.00000000      1.00000000      1.00000000      1.00000000      1.00000000      1.00000000      1.00000000      1.00000000      1.00000000      1.00000000      1.00000000      1.00000000      1.00000000      1.00000000      1.00000000
      1.00000000      1.00000000      1.00000000      1.00000000      1.00000000      1.00000000      1.00000000      1.00000000      1.00000000      1.00000000      1.00000000      1.00000000      1.00000000      1.00000000      1.00000000      1.00000000      1.00000000      1.00000000      1.00000000      1.00000000
      1.00000000      1.00000000      1.00000000      1.00000000      1.00000000      1.00000000      1.00000000      1.00000000      1.00000000      1.00000000      1.00000000      1.00000000      1.00000000      1.00000000      1.00000000      1.00000000      1.00000000      1.00000000      1.00000000      1.00000000
      1.00000000      1.00000000      1.00000000      1.00000000      1.00000000      1.00000000      1.00000000      1.00000000      1.00000000      1.00000000      1.00000000      1.00000000      1.00000000      1.00000000      1.00000000      1.00000000      1.00000000      1.00000000      1.00000000      1.00000000
      1.00000000      1.00000000      1.00000000      1.00000000      1.00000000      1.00000000      1.00000000      1.00000000      1.00000000      1.00000000      1.00000000      1.00000000      1.00000000      1.00000000      1.00000000      1.00000000      1.00000000      1.00000000      1.00000000      1.00000000
      1.00000000      1.00000000      1.00000000      1.00000000      1.00000000      1.00000000      1.00000000      1.00000000      1.00000000      1.00000000      1.00000000      1.00000000      1.00000000      1.00000000      1.00000000      1.00000000      1.00000000      1.00000000      1.00000000      1.00000000
      1.00000000      1.00000000      1.00000000      1.00000000      1.00000000      1.00000000      1.00000000      1.00000000      1.00000000      1.00000000      1.00000000      1.00000000      1.00000000      1.00000000      1.00000000      1.00000000      1.00000000      1.00000000      1.00000000      1.00000000
      1.00000000      1.00000000      1.00000000      1.00000000      1.00000000      1.00000000      1.00000000      1.00000000      1.00000000      1.00000000      1.00000000      1.00000000      1.00000000      1.00000000      1.00000000      1.00000000      1.00000000      1.00000000      1.00000000      1.00000000
      1.00000000      1.00000000      1.00000000      1.00000000      1.00000000      1.00000000      1.00000000      1.00000000      1.00000000      1.00000000      1.00000000      1.00000000      1.00000000      1.00000000      1.00000000</v>
    <i name="NUPDOWN">     -1.00000000</i>
    <i type="logical" name="LSORBIT"> F  </i>
    <v name="SAXIS">      0.00000000      0.00000000      1.00000000</v>
    <i type="logical" name="LSPIRAL"> F  </i>
    <v name="QSPIRAL">      0.00000000      0.00000000      0.00000000</v>
    <i type="logical" name="LZEROZ"> F  </i>
   </separator>
   <separator name="electronic exchange-correlation" >
    <i type="logical" name="LASPH"> F  </i>
    <i type="logical" name="LMETAGGA"> F  </i>
   </separator>
   <separator name="electronic convergence" >
    <i type="int" name="NELM">    20</i>
    <i type="int" name="NELMDL">    -5</i>
    <i type="int" name="NELMIN">     2</i>
    <i name="ENINI">    400.00000000</i>
    <separator name="electronic convergence detail" >
     <i type="logical" name="LDIAG"> T  </i>
     <i type="logical" name="LSUBROT"> F  </i>
     <i name="WEIMIN">      0.00100000</i>
     <i name="EBREAK">      0.00000000</i>
     <i name="DEPER">      0.30000000</i>
     <i type="int" name="NRMM">     4</i>
     <i name="TIME">      0.40000000</i>
    </separator>
   </separator>
   <separator name="electronic mixer" >
    <i name="AMIX">      0.40000000</i>
    <i name="BMIX">      1.00000000</i>
    <i name="AMIN">      0.10000000</i>
    <i name="AMIX_MAG">      1.60000000</i>
    <i name="BMIX_MAG">      1.00000000</i>
    <separator name="electronic mixer details" >
     <i type="int" name="IMIX">     4</i>
     <i type="logical" name="MIXFIRST"> F  </i>
     <i type="int" name="MAXMIX">   -45</i>
     <i name="WC">    100.00000000</i>
     <i type="int" name="INIMIX">     1</i>
     <i type="int" name="MIXPRE">     1</i>
     <i type="int" name="MREMOVE">     5</i>
    </separator>
   </separator>
   <separator name="electronic dipolcorrection" >
    <i type="logical" name="LDIPOL"> F  </i>
    <i type="logical" name="LMONO"> F  </i>
    <i type="int" name="IDIPOL">     0</i>
    <i name="EPSILON">      1.00000000</i>
    <v name="DIPOL">   -100.00000000   -100.00000000   -100.00000000</v>
    <i name="EFIELD">      0.00000000</i>
   </separator>
  </separator>
  <separator name="grids" >
   <i type="int" name="NGX">    80</i>
   <i type="int" name="NGY">    80</i>
   <i type="int" name="NGZ">    80</i>
   <i type="int" name="NGXF">   160</i>
   <i type="int" name="NGYF">   160</i>
   <i type="int" name="NGZF">   160</i>
   <i type="logical" name="ADDGRID"> F  </i>
  </separator>
  <separator name="ionic" >
   <i type="int" name="NSW">   500</i>
   <i type="int" name="IBRION">     3</i>
   <i type="int" name="MDALGO">     0</i>
   <i type="int" name="ISIF">     0</i>
   <i name="PSTRESS">      0.00000000</i>
   <i name="EDIFFG">     -0.01000000</i>
   <i type="int" name="NFREE">     0</i>
   <i name="POTIM">      0.00000000</i>
   <i name="SMASS">     -3.00000000</i>
   <i name="SCALEE">      1.00000000</i>
  </separator>
  <separator name="ionic md" >
   <i name="TEBEG">      0.00010000</i>
   <i name="TEEND">      0.00010000</i>
   <i type="int" name="NBLOCK">     1</i>
   <i type="int" name="KBLOCK">   500</i>
   <i type="int" name="NPACO">   256</i>
   <i name="APACO">     10.00000000</i>
  </separator>
  <separator name="symmetry" >
   <i type="int" name="ISYM">     2</i>
   <i name="SYMPREC">      0.00001000</i>
  </separator>
  <separator name="dos" >
   <i type="int" name="LORBIT">     0</i>
   <v name="RWIGS">     -1.00000000     -1.00000000</v>
   <i type="int" name="NEDOS">   301</i>
   <i name="EMIN">     10.00000000</i>
   <i name="EMAX">    -10.00000000</i>
   <i name="EFERMI">      0.00000000</i>
  </separator>
  <separator name="writing" >
   <i type="int" name="NWRITE">     2</i>
   <i type="logical" name="LWAVE"> T  </i>
   <i type="logical" name="LDOWNSAMPLE"> F  </i>
   <i type="logical" name="LCHARG"> T  </i>
   <i type="logical" name="LPARD"> F  </i>
   <i type="logical" name="LVTOT"> F  </i>
   <i type="logical" name="LVHAR"> F  </i>
   <i type="logical" name="LELF"> F  </i>
   <i type="logical" name="LOPTICS"> F  </i>
   <v name="STM">      0.00000000      0.00000000      0.00000000      0.00000000      0.00000000      0.00000000      0.00000000</v>
  </separator>
  <separator name="performance" >
   <i type="int" name="NPAR">     1</i>
   <i type="int" name="NSIM">     4</i>
   <i type="int" name="NBLK">    -1</i>
   <i type="logical" name="LPLANE"> T  </i>
   <i type="logical" name="LSCALAPACK"> T  </i>
   <i type="logical" name="LSCAAWARE"> F  </i>
   <i type="logical" name="LSCALU"> F  </i>
   <i type="logical" name="LASYNC"> F  </i>
   <i type="logical" name="LORBITALREAL"> F  </i>
  </separator>
  <separator name="miscellaneous" >
   <i type="int" name="IDIOT">     3</i>
   <i type="int" name="PHON_NSTRUCT">    -1</i>
   <i type="logical" name="LMUSIC"> F  </i>
   <v name="POMASS">      7.01000000     18.99800000</v>
   <v name="DARWINR">      0.00000000      0.00000000</v>
   <v name="DARWINV">      1.00000000      1.00000000</v>
   <i type="logical" name="LCORR"> T  </i>
  </separator>
  <i type="logical" name="GGA_COMPAT"> T  </i>
  <i type="logical" name="LBERRY"> F  </i>
  <i type="int" name="ICORELEVEL">     0</i>
  <i type="logical" name="LDAU"> F  </i>
  <i type="int" name="I_CONSTRAINED_M">     0</i>
  <separator name="electronic exchange-correlation" >
   <i type="string" name="GGA">--</i>
   <i type="int" name="VOSKOWN">     0</i>
   <i type="logical" name="LHFCALC"> F  </i>
   <i type="string" name="PRECFOCK"></i>
   <i type="logical" name="LSYMGRAD"> F  </i>
   <i type="logical" name="LHFONE"> F  </i>
   <i type="logical" name="LRHFCALC"> F  </i>
   <i type="logical" name="LTHOMAS"> F  </i>
   <i type="logical" name="LMODELHF"> F  </i>
   <i type="logical" name="LFOCKACE"> F  </i>
   <i name="ENCUT4O">     -1.00000000</i>
   <i type="int" name="EXXOEP">     0</i>
   <i type="int" name="FOURORBIT">     0</i>
   <i name="AEXX">      0.00000000</i>
   <i name="HFALPHA">      0.00000000</i>
   <i name="MCALPHA">      0.00000000</i>
   <i name="ALDAX">      1.00000000</i>
   <i name="AGGAX">      1.00000000</i>
   <i name="ALDAC">      1.00000000</i>
   <i name="AGGAC">      1.00000000</i>
   <i type="int" name="NKREDX">     1</i>
   <i type="int" name="NKREDY">     1</i>
   <i type="int" name="NKREDZ">     1</i>
   <i type="logical" name="SHIFTRED"> F  </i>
   <i type="logical" name="ODDONLY"> F  </i>
   <i type="logical" name="EVENONLY"> F  </i>
   <i type="int" name="LMAXFOCK">     0</i>
   <i type="int" name="NMAXFOCKAE">     0</i>
   <i type="logical" name="LFOCKAEDFT"> F  </i>
   <i name="HFSCREEN">      0.00000000</i>
   <i name="HFSCREENC">      0.00000000</i>
   <i type="int" name="NBANDSGWLOW">     0</i>
  </separator>
  <separator name="vdW DFT" >
   <i type="logical" name="LUSE_VDW"> F  </i>
   <i type="int" name="IVDW_NL">     1</i>
   <i type="logical" name="LSPIN_VDW"> F  </i>
   <i name="Zab_VDW">     -0.84910000</i>
   <i name="PARAM1">      0.12340000</i>
   <i name="PARAM2">      1.00000000</i>
   <i name="PARAM3">      0.00000000</i>
  </separator>
  <separator name="model GW" >
   <i type="int" name="MODEL_GW">     0</i>
   <i name="MODEL_EPS0">      4.91807315</i>
   <i name="MODEL_ALPHA">      1.00000000</i>
  </separator>
  <separator name="linear response parameters" >
   <i type="logical" name="LEPSILON"> F  </i>
   <i type="logical" name="LRPA"> F  </i>
   <i type="logical" name="LNABLA"> F  </i>
   <i type="logical" name="LVEL"> F  </i>
   <i name="CSHIFT">      0.10000000</i>
   <i name="OMEGAMAX">     -1.00000000</i>
   <i name="DEG_THRESHOLD">      0.00200000</i>
   <i name="RTIME">     -0.10000000</i>
   <i name="WPLASMAI">      0.00000000</i>
   <v name="DFIELD">      0.00000000      0.00000000      0.00000000</v>
   <v name="WPLASMA">      0.00000000      0.00000000      0.00000000      0.00000000      0.00000000      0.00000000      0.00000000      0.00000000      0.00000000</v>
  </separator>
  <separator name="orbital magnetization" >
   <i type="logical" name="NUCIND"> F  </i>
   <v name="MAGPOS">      0.00000000      0.00000000      0.00000000</v>
   <i type="logical" name="LNICSALL"> T  </i>
   <i type="logical" name="ORBITALMAG"> F  </i>
   <i type="logical" name="LMAGBLOCH"> F  </i>
   <i type="logical" name="LCHIMAG"> F  </i>
   <i type="logical" name="LGAUGE"> T  </i>
   <i type="int" name="MAGATOM">     0</i>
   <v name="MAGDIPOL">      0.00000000      0.00000000      0.00000000</v>
   <v name="AVECCONST">      0.00000000      0.00000000      0.00000000</v>
  </separator>
  <separator name="response functions" >
   <i type="logical" name="LALL_IN_ONE"> F  </i>
   <i type="int" name="IALL_IN_ONE">    -1</i>
   <i type="int" name="NBANDS_WAVE">    -1</i>
   <i type="logical" name="LFINITE_TEMPERATURE"> F  </i>
   <i type="logical" name="LADDER"> F  </i>
   <i type="logical" name="LRPAFORCE"> F  </i>
   <i type="logical" name="LFXC"> F  </i>
   <i type="logical" name="LHARTREE"> T  </i>
   <i type="int" name="IBSE">     0</i>
   <v type="int" name="KPOINT">    -1     0     0     0</v>
   <i type="logical" name="LTCTC"> F  </i>
   <i type="logical" name="LTCTE"> F  </i>
   <i type="logical" name="LTETE"> F  </i>
   <i type="logical" name="LTRIPLET"> F  </i>
   <i type="logical" name="LFXCEPS"> F  </i>
   <i type="logical" name="LFXHEG"> F  </i>
   <i type="int" name="NATURALO">     2</i>
   <i type="logical" name="LHOLEGF"> F  </i>
   <i type="logical" name="L2ORDER"> F  </i>
   <i type="logical" name="LDMP1"> F  </i>
   <i type="logical" name="LMP2LT"> F  </i>
   <i type="logical" name="LSMP2LT"> F  </i>
   <i type="logical" name="LGWLF"> F  </i>
   <i name="ENCUTGW">     -1.60000002</i>
   <i name="ENCUTGWSOFT">     -1.60000002</i>
   <i name="ENCUTLF">     -1.00000000</i>
   <i type="logical" name="LESF_SPLINES"> F  </i>
   <i type="int" name="LMAXMP2">    -1</i>
   <i name="SCISSOR">      0.00000000</i>
   <i type="int" name="NOMEGA">     0</i>
   <i type="int" name="NOMEGAR">     0</i>
   <i type="int" name="NBANDSGW">    -1</i>
   <i type="int" name="NBANDSO">    -1</i>
   <i type="int" name="NBANDSV">    -1</i>
   <i type="int" name="NELMGW">     1</i>
   <i type="int" name="NELMHF">     1</i>
   <i type="int" name="DIM">     3</i>
   <i type="int" name="IESPILON">     4</i>
   <i type="int" name="ANTIRES">     0</i>
   <i name="OMEGAMAX">    -30.00000000</i>
   <i name="OMEGAMIN">    -30.00000000</i>
   <i name="OMEGATL">   -200.00000000</i>
   <i type="int" name="OMEGAGRID">     0</i>
   <i name="CSHIFT">     -0.10000000</i>
   <i type="logical" name="LSELFENERGY"> F  </i>
   <i type="logical" name="LSPECTRAL"> F  </i>
   <i type="logical" name="LSPECTRALGW"> F  </i>
   <i type="logical" name="LSINGLES"> F  </i>
   <i type="logical" name="LFERMIGW"> F  </i>
   <i type="logical" name="ODDONLYGW"> F  </i>
   <i type="logical" name="EVENONLYGW"> F  </i>
   <i type="int" name="NKREDLFX">     1</i>
   <i type="int" name="NKREDLFY">     1</i>
   <i type="int" name="NKREDLFZ">     1</i>
   <i type="int" name="MAXMEM">  2800</i>
   <i type="int" name="TELESCOPE">     0</i>
   <i type="int" name="NTAUPAR">    -1</i>
   <i type="int" name="NOMEGAPAR">    -1</i>
   <i name="DAMP_NEWTON">      0.80000001</i>
   <i name="LAMBDA">      1.00000000</i>
  </separator>
  <separator name="External order field" >
   <i name="OFIELD_KAPPA">      0.00000000</i>
   <v name="OFIELD_K">      0.00000000      0.00000000      0.00000000</v>
   <i name="OFIELD_Q6_NEAR">      0.00000000</i>
   <i name="OFIELD_Q6_FAR">      0.00000000</i>
   <i name="OFIELD_A">      0.00000000</i>
  </separator>
  <separator name="optional k-points parameters" >
   <i type="int" name="KPOINTS_OPT_MODE">     1</i>
   <i type="logical" name="LKPOINTS_OPT"> F  </i>
  </separator>
 </parameters>
 <atominfo>
  <atoms>     215 </atoms>
  <types>       2 </types>
  <array name="atoms" >
   <dimension dim="1">ion</dimension>
   <field type="string">element</field>
   <field type="int">atomtype</field>
   <set>
    <rc><c>Li</c><c>   1</c></rc>
    <rc><c>Li</c><c>   1</c></rc>
    <rc><c>Li</c><c>   1</c></rc>
    <rc><c>Li</c><c>   1</c></rc>
    <rc><c>Li</c><c>   1</c></rc>
    <rc><c>Li</c><c>   1</c></rc>
    <rc><c>Li</c><c>   1</c></rc>
    <rc><c>Li</c><c>   1</c></rc>
    <rc><c>Li</c><c>   1</c></rc>
    <rc><c>Li</c><c>   1</c></rc>
    <rc><c>Li</c><c>   1</c></rc>
    <rc><c>Li</c><c>   1</c></rc>
    <rc><c>Li</c><c>   1</c></rc>
    <rc><c>Li</c><c>   1</c></rc>
    <rc><c>Li</c><c>   1</c></rc>
    <rc><c>Li</c><c>   1</c></rc>
    <rc><c>Li</c><c>   1</c></rc>
    <rc><c>Li</c><c>   1</c></rc>
    <rc><c>Li</c><c>   1</c></rc>
    <rc><c>Li</c><c>   1</c></rc>
    <rc><c>Li</c><c>   1</c></rc>
    <rc><c>Li</c><c>   1</c></rc>
    <rc><c>Li</c><c>   1</c></rc>
    <rc><c>Li</c><c>   1</c></rc>
    <rc><c>Li</c><c>   1</c></rc>
    <rc><c>Li</c><c>   1</c></rc>
    <rc><c>Li</c><c>   1</c></rc>
    <rc><c>Li</c><c>   1</c></rc>
    <rc><c>Li</c><c>   1</c></rc>
    <rc><c>Li</c><c>   1</c></rc>
    <rc><c>Li</c><c>   1</c></rc>
    <rc><c>Li</c><c>   1</c></rc>
    <rc><c>Li</c><c>   1</c></rc>
    <rc><c>Li</c><c>   1</c></rc>
    <rc><c>Li</c><c>   1</c></rc>
    <rc><c>Li</c><c>   1</c></rc>
    <rc><c>Li</c><c>   1</c></rc>
    <rc><c>Li</c><c>   1</c></rc>
    <rc><c>Li</c><c>   1</c></rc>
    <rc><c>Li</c><c>   1</c></rc>
    <rc><c>Li</c><c>   1</c></rc>
    <rc><c>Li</c><c>   1</c></rc>
    <rc><c>Li</c><c>   1</c></rc>
    <rc><c>Li</c><c>   1</c></rc>
    <rc><c>Li</c><c>   1</c></rc>
    <rc><c>Li</c><c>   1</c></rc>
    <rc><c>Li</c><c>   1</c></rc>
    <rc><c>Li</c><c>   1</c></rc>
    <rc><c>Li</c><c>   1</c></rc>
    <rc><c>Li</c><c>   1</c></rc>
    <rc><c>Li</c><c>   1</c></rc>
    <rc><c>Li</c><c>   1</c></rc>
    <rc><c>Li</c><c>   1</c></rc>
    <rc><c>Li</c><c>   1</c></rc>
    <rc><c>Li</c><c>   1</c></rc>
    <rc><c>Li</c><c>   1</c></rc>
    <rc><c>Li</c><c>   1</c></rc>
    <rc><c>Li</c><c>   1</c></rc>
    <rc><c>Li</c><c>   1</c></rc>
    <rc><c>Li</c><c>   1</c></rc>
    <rc><c>Li</c><c>   1</c></rc>
    <rc><c>Li</c><c>   1</c></rc>
    <rc><c>Li</c><c>   1</c></rc>
    <rc><c>Li</c><c>   1</c></rc>
    <rc><c>Li</c><c>   1</c></rc>
    <rc><c>Li</c><c>   1</c></rc>
    <rc><c>Li</c><c>   1</c></rc>
    <rc><c>Li</c><c>   1</c></rc>
    <rc><c>Li</c><c>   1</c></rc>
    <rc><c>Li</c><c>   1</c></rc>
    <rc><c>Li</c><c>   1</c></rc>
    <rc><c>Li</c><c>   1</c></rc>
    <rc><c>Li</c><c>   1</c></rc>
    <rc><c>Li</c><c>   1</c></rc>
    <rc><c>Li</c><c>   1</c></rc>
    <rc><c>Li</c><c>   1</c></rc>
    <rc><c>Li</c><c>   1</c></rc>
    <rc><c>Li</c><c>   1</c></rc>
    <rc><c>Li</c><c>   1</c></rc>
    <rc><c>Li</c><c>   1</c></rc>
    <rc><c>Li</c><c>   1</c></rc>
    <rc><c>Li</c><c>   1</c></rc>
    <rc><c>Li</c><c>   1</c></rc>
    <rc><c>Li</c><c>   1</c></rc>
    <rc><c>Li</c><c>   1</c></rc>
    <rc><c>Li</c><c>   1</c></rc>
    <rc><c>Li</c><c>   1</c></rc>
    <rc><c>Li</c><c>   1</c></rc>
    <rc><c>Li</c><c>   1</c></rc>
    <rc><c>Li</c><c>   1</c></rc>
    <rc><c>Li</c><c>   1</c></rc>
    <rc><c>Li</c><c>   1</c></rc>
    <rc><c>Li</c><c>   1</c></rc>
    <rc><c>Li</c><c>   1</c></rc>
    <rc><c>Li</c><c>   1</c></rc>
    <rc><c>Li</c><c>   1</c></rc>
    <rc><c>Li</c><c>   1</c></rc>
    <rc><c>Li</c><c>   1</c></rc>
    <rc><c>Li</c><c>   1</c></rc>
    <rc><c>Li</c><c>   1</c></rc>
    <rc><c>Li</c><c>   1</c></rc>
    <rc><c>Li</c><c>   1</c></rc>
    <rc><c>Li</c><c>   1</c></rc>
    <rc><c>Li</c><c>   1</c></rc>
    <rc><c>Li</c><c>   1</c></rc>
    <rc><c>Li</c><c>   1</c></rc>
    <rc><c>Li</c><c>   1</c></rc>
    <rc><c>Li</c><c>   1</c></rc>
    <rc><c>F </c><c>   2</c></rc>
    <rc><c>F </c><c>   2</c></rc>
    <rc><c>F </c><c>   2</c></rc>
    <rc><c>F </c><c>   2</c></rc>
    <rc><c>F </c><c>   2</c></rc>
    <rc><c>F </c><c>   2</c></rc>
    <rc><c>F </c><c>   2</c></rc>
    <rc><c>F </c><c>   2</c></rc>
    <rc><c>F </c><c>   2</c></rc>
    <rc><c>F </c><c>   2</c></rc>
    <rc><c>F </c><c>   2</c></rc>
    <rc><c>F </c><c>   2</c></rc>
    <rc><c>F </c><c>   2</c></rc>
    <rc><c>F </c><c>   2</c></rc>
    <rc><c>F </c><c>   2</c></rc>
    <rc><c>F </c><c>   2</c></rc>
    <rc><c>F </c><c>   2</c></rc>
    <rc><c>F </c><c>   2</c></rc>
    <rc><c>F </c><c>   2</c></rc>
    <rc><c>F </c><c>   2</c></rc>
    <rc><c>F </c><c>   2</c></rc>
    <rc><c>F </c><c>   2</c></rc>
    <rc><c>F </c><c>   2</c></rc>
    <rc><c>F </c><c>   2</c></rc>
    <rc><c>F </c><c>   2</c></rc>
    <rc><c>F </c><c>   2</c></rc>
    <rc><c>F </c><c>   2</c></rc>
    <rc><c>F </c><c>   2</c></rc>
    <rc><c>F </c><c>   2</c></rc>
    <rc><c>F </c><c>   2</c></rc>
    <rc><c>F </c><c>   2</c></rc>
    <rc><c>F </c><c>   2</c></rc>
    <rc><c>F </c><c>   2</c></rc>
    <rc><c>F </c><c>   2</c></rc>
    <rc><c>F </c><c>   2</c></rc>
    <rc><c>F </c><c>   2</c></rc>
    <rc><c>F </c><c>   2</c></rc>
    <rc><c>F </c><c>   2</c></rc>
    <rc><c>F </c><c>   2</c></rc>
    <rc><c>F </c><c>   2</c></rc>
    <rc><c>F </c><c>   2</c></rc>
    <rc><c>F </c><c>   2</c></rc>
    <rc><c>F </c><c>   2</c></rc>
    <rc><c>F </c><c>   2</c></rc>
    <rc><c>F </c><c>   2</c></rc>
    <rc><c>F </c><c>   2</c></rc>
    <rc><c>F </c><c>   2</c></rc>
    <rc><c>F </c><c>   2</c></rc>
    <rc><c>F </c><c>   2</c></rc>
    <rc><c>F </c><c>   2</c></rc>
    <rc><c>F </c><c>   2</c></rc>
    <rc><c>F </c><c>   2</c></rc>
    <rc><c>F </c><c>   2</c></rc>
    <rc><c>F </c><c>   2</c></rc>
    <rc><c>F </c><c>   2</c></rc>
    <rc><c>F </c><c>   2</c></rc>
    <rc><c>F </c><c>   2</c></rc>
    <rc><c>F </c><c>   2</c></rc>
    <rc><c>F </c><c>   2</c></rc>
    <rc><c>F </c><c>   2</c></rc>
    <rc><c>F </c><c>   2</c></rc>
    <rc><c>F </c><c>   2</c></rc>
    <rc><c>F </c><c>   2</c></rc>
    <rc><c>F </c><c>   2</c></rc>
    <rc><c>F </c><c>   2</c></rc>
    <rc><c>F </c><c>   2</c></rc>
    <rc><c>F </c><c>   2</c></rc>
    <rc><c>F </c><c>   2</c></rc>
    <rc><c>F </c><c>   2</c></rc>
    <rc><c>F </c><c>   2</c></rc>
    <rc><c>F </c><c>   2</c></rc>
    <rc><c>F </c><c>   2</c></rc>
    <rc><c>F </c><c>   2</c></rc>
    <rc><c>F </c><c>   2</c></rc>
    <rc><c>F </c><c>   2</c></rc>
    <rc><c>F </c><c>   2</c></rc>
    <rc><c>F </c><c>   2</c></rc>
    <rc><c>F </c><c>   2</c></rc>
    <rc><c>F </c><c>   2</c></rc>
    <rc><c>F </c><c>   2</c></rc>
    <rc><c>F </c><c>   2</c></rc>
    <rc><c>F </c><c>   2</c></rc>
    <rc><c>F </c><c>   2</c></rc>
    <rc><c>F </c><c>   2</c></rc>
    <rc><c>F </c><c>   2</c></rc>
    <rc><c>F </c><c>   2</c></rc>
    <rc><c>F </c><c>   2</c></rc>
    <rc><c>F </c><c>   2</c></rc>
    <rc><c>F </c><c>   2</c></rc>
    <rc><c>F </c><c>   2</c></rc>
    <rc><c>F </c><c>   2</c></rc>
    <rc><c>F </c><c>   2</c></rc>
    <rc><c>F </c><c>   2</c></rc>
    <rc><c>F </c><c>   2</c></rc>
    <rc><c>F </c><c>   2</c></rc>
    <rc><c>F </c><c>   2</c></rc>
    <rc><c>F </c><c>   2</c></rc>
    <rc><c>F </c><c>   2</c></rc>
    <rc><c>F </c><c>   2</c></rc>
    <rc><c>F </c><c>   2</c></rc>
    <rc><c>F </c><c>   2</c></rc>
    <rc><c>F </c><c>   2</c></rc>
    <rc><c>F </c><c>   2</c></rc>
    <rc><c>F </c><c>   2</c></rc>
    <rc><c>F </c><c>   2</c></rc>
    <rc><c>F </c><c>   2</c></rc>
    <rc><c>F </c><c>   2</c></rc>
   </set>
  </array>
  <array name="atomtypes" >
   <dimension dim="1">type</dimension>
   <field type="int">atomspertype</field>
   <field type="string">element</field>
   <field>mass</field>
   <field>valence</field>
   <field type="string">pseudopotential</field>
   <set>
    <rc><c> 108</c><c>Li</c><c>      7.01000000</c><c>      3.00000000</c><c>  PAW_PBE Li_sv 10Sep2004               </c></rc>
    <rc><c> 107</c><c>F </c><c>     18.99800000</c><c>      7.00000000</c><c>  PAW_PBE F 08Apr2002                   </c></rc>
   </set>
  </array>
 </atominfo>
 <structure name="initialpos" >
  <crystal>
   <varray name="basis" >
    <v>      12.07890034       0.00000000       0.00000000 </v>
    <v>       0.00000000      12.07890034       0.00000000 </v>
    <v>       0.00000000       0.00000000      12.07890034 </v>
   </varray>
   <i name="volume">   1762.30954632 </i>
   <varray name="rec_basis" >
    <v>       0.08278899       0.00000000       0.00000000 </v>
    <v>       0.00000000       0.08278899       0.00000000 </v>
    <v>       0.00000000       0.00000000       0.08278899 </v>
   </varray>
  </crystal>
  <varray name="positions" >
   <v>       0.99866757       0.00195463       0.00027272 </v>
   <v>       0.99969138       0.00022716       0.33348757 </v>
   <v>       0.99969072       0.00048781       0.66624169 </v>
   <v>       0.99865180       0.33142375       0.00027063 </v>
   <v>       0.99968105       0.33313711       0.33349679 </v>
   <v>       0.99968078       0.33288099       0.66623471 </v>
   <v>       0.98590757       0.66664396       0.00281969 </v>
   <v>       0.99863472       0.66664000       0.33493490 </v>
   <v>       0.99863172       0.66664196       0.66227116 </v>
   <v>       0.33472673       0.00167467       0.00006317 </v>
   <v>       0.33368955       0.00019058       0.33350098 </v>
   <v>       0.33369294       0.00019157       0.66643725 </v>
   <v>       0.33472013       0.33172821       0.00006320 </v>
   <v>       0.33369310       0.33318364       0.33350616 </v>
   <v>       0.33369681       0.33317944       0.66643178 </v>
   <v>       0.34764359       0.66665460       0.00027383 </v>
   <v>       0.33473251       0.66663723       0.33492898 </v>
   <v>       0.33498256       0.66663533       0.66480901 </v>
   <v>       0.66665149       0.00036543       0.00006287 </v>
   <v>       0.66663435       0.00016507       0.33347352 </v>
   <v>       0.66662996       0.00016913       0.66646402 </v>
   <v>       0.66663371       0.33299696       0.00006347 </v>
   <v>       0.66662347       0.33320210       0.33348326 </v>
   <v>       0.66661836       0.33319733       0.66645387 </v>
   <v>       0.66633967       0.66664908       0.00027415 </v>
   <v>       0.66658385       0.66664522       0.33367402 </v>
   <v>       0.66633302       0.66664331       0.66606278 </v>
   <v>       0.99982606       0.16665856       0.16689207 </v>
   <v>       0.99984753       0.16666805       0.49993331 </v>
   <v>       0.99982611       0.16665691       0.83317190 </v>
   <v>       0.99981793       0.49954637       0.16714765 </v>
   <v>       0.99981817       0.49954495       0.49967420 </v>
   <v>       0.99981648       0.49699700       0.83317435 </v>
   <v>       0.99983118       0.83379261       0.16713320 </v>
   <v>       0.99981756       0.83379325       0.49967190 </v>
   <v>       0.99983001       0.83631951       0.83318482 </v>
   <v>       0.33357292       0.16665283       0.16685064 </v>
   <v>       0.33352546       0.16665694       0.49997323 </v>
   <v>       0.33361098       0.16665103       0.83317432 </v>
   <v>       0.33355728       0.49975299       0.16684427 </v>
   <v>       0.33355472       0.49975357       0.49996846 </v>
   <v>       0.33384398       0.49954322       0.83318789 </v>
   <v>       0.33356774       0.83359123       0.16684267 </v>
   <v>       0.33356068       0.83359155       0.49996807 </v>
   <v>       0.33385143       0.83378973       0.83318936 </v>
   <v>       0.66662917       0.16664633       0.16681448 </v>
   <v>       0.66662974       0.16665365       0.49997247 </v>
   <v>       0.66659080       0.16664578       0.83321094 </v>
   <v>       0.66662945       0.49974975       0.16685757 </v>
   <v>       0.66663691       0.49978548       0.49996772 </v>
   <v>       0.66634160       0.49953935       0.83317420 </v>
   <v>       0.66662537       0.83360447       0.16685092 </v>
   <v>       0.66662577       0.83356090       0.49996775 </v>
   <v>       0.66634034       0.83380451       0.83318019 </v>
   <v>       0.16672724       0.00167289       0.16801579 </v>
   <v>       0.16672110       0.00036017       0.49996834 </v>
   <v>       0.16693115       0.00196683       0.83201520 </v>
   <v>       0.16672379       0.33171625       0.16801895 </v>
   <v>       0.16671476       0.33300041       0.49996787 </v>
   <v>       0.16693023       0.33142428       0.83200868 </v>
   <v>       0.16691180       0.66664113       0.18089975 </v>
   <v>       0.16691746       0.66664938       0.49967247 </v>
   <v>       0.16942755       0.66663649       0.81942382 </v>
   <v>       0.50016673       0.00018841       0.16699051 </v>
   <v>       0.50013994       0.00016223       0.49997322 </v>
   <v>       0.50016636       0.00022488       0.83303596 </v>
   <v>       0.50016667       0.33317280       0.16698487 </v>
   <v>       0.50013821       0.33318464       0.49997279 </v>
   <v>       0.50016621       0.33313426       0.83304020 </v>
   <v>       0.50164251       0.66665016       0.16804475 </v>
   <v>       0.50032742       0.66665852       0.49993457 </v>
   <v>       0.50164267       0.66664894       0.83201997 </v>
   <v>       0.83315314       0.00019513       0.16698496 </v>
   <v>       0.83315115       0.00016895       0.49996785 </v>
   <v>       0.83294862       0.00049045       0.83304548 </v>
   <v>       0.83314234       0.33316859       0.16698379 </v>
   <v>       0.83315787       0.33318876       0.49996726 </v>
   <v>       0.83293546       0.33287677       0.83304378 </v>
   <v>       0.83147991       0.66666409       0.16830906 </v>
   <v>       0.83276467       0.66665410       0.49967143 </v>
   <v>       0.82896083       0.66666000       0.83201473 </v>
   <v>       0.16669928       0.16665504       0.00003712 </v>
   <v>       0.16667579       0.16664980       0.33367659 </v>
   <v>       0.16668231       0.16664845       0.66628606 </v>
   <v>       0.16668181       0.48586647       0.00003644 </v>
   <v>       0.16667698       0.49859470       0.33493437 </v>
   <v>       0.16667260       0.49859540       0.66502966 </v>
   <v>       0.16671214       0.84735387       0.00003703 </v>
   <v>       0.16667761       0.83470456       0.33492996 </v>
   <v>       0.16667324       0.83470077       0.66503488 </v>
   <v>       0.50034090       0.16667118       0.00003005 </v>
   <v>       0.50014180       0.16665593       0.33347748 </v>
   <v>       0.50014087       0.16665447       0.66649227 </v>
   <v>       0.50163534       0.49860093       0.00003672 </v>
   <v>       0.50016096       0.49965546       0.33348828 </v>
   <v>       0.50016053       0.49964878       0.66647389 </v>
   <v>       0.50164668       0.83472158       0.00003723 </v>
   <v>       0.50016239       0.83368886       0.33349711 </v>
   <v>       0.50016240       0.83369362       0.66646636 </v>
   <v>       0.83301191       0.16665324       0.00003725 </v>
   <v>       0.83320097       0.16664691       0.33348168 </v>
   <v>       0.83319431       0.16664679       0.66648048 </v>
   <v>       0.83171189       0.49860931       0.00003674 </v>
   <v>       0.83316609       0.49964525       0.33349590 </v>
   <v>       0.83316773       0.49964506       0.66646712 </v>
   <v>       0.83173668       0.83472361       0.00003699 </v>
   <v>       0.83317625       0.83370378       0.33350294 </v>
   <v>       0.83317770       0.83370171       0.66646112 </v>
   <v>       0.99965414       0.16668093       0.00007254 </v>
   <v>       0.00020869       0.16667565       0.33303726 </v>
   <v>       0.00020869       0.16667471       0.66688779 </v>
   <v>       0.00355797       0.50426788       0.99928850 </v>
   <v>       0.00067753       0.50060404       0.33252780 </v>
   <v>       0.00067599       0.50138606       0.66818135 </v>
   <v>       0.00356986       0.82906066       0.99929025 </v>
   <v>       0.00068389       0.83271093       0.33252944 </v>
   <v>       0.00068219       0.83192766       0.66817880 </v>
   <v>       0.33365014       0.16667826       0.99995842 </v>
   <v>       0.33310747       0.16667259       0.33304501 </v>
   <v>       0.33307701       0.16667106       0.66699541 </v>
   <v>       0.32961769       0.50368417       0.99986448 </v>
   <v>       0.33257955       0.50071958       0.33252981 </v>
   <v>       0.33247716       0.50081433       0.66760843 </v>
   <v>       0.32963673       0.82964445       0.99986448 </v>
   <v>       0.33258707       0.83260135       0.33253595 </v>
   <v>       0.33248460       0.83250145       0.66760229 </v>
   <v>       0.66674376       0.16667295       0.99995883 </v>
   <v>       0.66670057       0.16666836       0.33319178 </v>
   <v>       0.66673004       0.16666796       0.66684816 </v>
   <v>       0.66684377       0.49977152       0.99986481 </v>
   <v>       0.66673365       0.50024739       0.33303699 </v>
  