 vasp.5.4.4.18Apr17-6-g9f103f2a35 (build Aug 09 2024 17:42:55) complex          
  
 executed on             LinuxIFC date 2025.12.05  14:46:29
 running on   64 total cores
 each image running on   16 cores
 distrk:  each k-point on   16 cores,    1 groups
 distr:  one band on NCORES_PER_BAND=   2 cores,    8 groups


--------------------------------------------------------------------------------------------------------


 INCAR:
 POTCAR:    PAW_PBE Pd 04Jan2005                  
 POTCAR:    PAW_PBE C 08Apr2002                   
 POTCAR:    PAW_PBE O 08Apr2002                   
 POTCAR:    PAW_PBE Pd 04Jan2005                  
  local pseudopotential read in
  partial core-charges read in
  partial kinetic energy density read in
  atomic valenz-charges read in
  non local Contribution for L=           2  read in
    real space projection operators read in
  non local Contribution for L=           2  read in
    real space projection operators read in
  non local Contribution for L=           0  read in
    real space projection operators read in
  non local Contribution for L=           0  read in
    real space projection operators read in
  non local Contribution for L=           1  read in
    real space projection operators read in
  non local Contribution for L=           1  read in
    real space projection operators read in
    PAW grid and wavefunctions read in
 
   number of l-projection  operators is LMAX  =           6
   number of lm-projection operators is LMMAX =          18
 
 POTCAR:    PAW_PBE C 08Apr2002                   
  local pseudopotential read in
  partial core-charges read in
  partial kinetic energy density read in
  atomic valenz-charges read in
  non local Contribution for L=           0  read in
    real space projection operators read in
  non local Contribution for L=           0  read in
    real space projection operators read in
  non local Contribution for L=           1  read in
    real space projection operators read in
  non local Contribution for L=           1  read in
    real space projection operators read in
    PAW grid and wavefunctions read in
 
   number of l-projection  operators is LMAX  =           4
   number of lm-projection operators is LMMAX =           8
 
 POTCAR:    PAW_PBE O 08Apr2002                   
  local pseudopotential read in
  partial core-charges read in
  partial kinetic energy density read in
  kinetic energy density of atom read in
  atomic valenz-charges read in
  non local Contribution for L=           0  read in
    real space projection operators read in
  non local Contribution for L=           0  read in
    real space projection operators read in
  non local Contribution for L=           1  read in
    real space projection operators read in
  non local Contribution for L=           1  read in
    real space projection operators read in
    PAW grid and wavefunctions read in
 
   number of l-projection  operators is LMAX  =           4
   number of lm-projection operators is LMMAX =           8
 
 Optimization of the real space projectors (new method)

 maximal supplied QI-value         = 14.36
 optimisation between [QCUT,QGAM] = [  9.77, 19.68] = [ 26.71,108.41] Ry 
 Optimized for a Real-space Cutoff    1.52 Angstroem

   l    n(q)    QCUT    max X(q) W(low)/X(q) W(high)/X(q)  e(spline) 
   2      8     9.766    59.108    0.18E-03    0.12E-03    0.98E-07
   2      8     9.766    58.101    0.18E-03    0.12E-03    0.10E-06
   0      9     9.766   102.235    0.37E-04    0.68E-04    0.73E-07
   0      9     9.766    58.388    0.33E-04    0.64E-04    0.69E-07
   1      8     9.766    22.191    0.23E-03    0.61E-04    0.11E-06
   1      8     9.766    15.590    0.19E-03    0.52E-04    0.93E-07
 Optimization of the real space projectors (new method)

 maximal supplied QI-value         = 25.13
 optimisation between [QCUT,QGAM] = [  9.80, 19.60] = [ 26.90,107.62] Ry 
 Optimized for a Real-space Cutoff    1.35 Angstroem

   l    n(q)    QCUT    max X(q) W(low)/X(q) W(high)/X(q)  e(spline) 
   0      8     9.802   115.676    0.45E-03    0.67E-03    0.24E-06
   0      8     9.802    87.132    0.44E-03    0.67E-03    0.24E-06
   1      7     9.802     4.429    0.38E-03    0.18E-03    0.24E-06
   1      7     9.802     2.733    0.25E-03    0.72E-04    0.26E-06
 Optimization of the real space projectors (new method)

 maximal supplied QI-value         = 24.76
 optimisation between [QCUT,QGAM] = [  9.65, 19.56] = [ 26.10,107.10] Ry 
 Optimized for a Real-space Cutoff    1.44 Angstroem

   l    n(q)    QCUT    max X(q) W(low)/X(q) W(high)/X(q)  e(spline) 
   0      8     9.655    20.381    0.19E-03    0.21E-03    0.36E-06
   0      8     9.655    15.268    0.21E-03    0.24E-03    0.37E-06
   1      8     9.655     5.964    0.43E-03    0.39E-03    0.31E-06
   1      8     9.655     5.382    0.36E-03    0.33E-03    0.28E-06
  PAW_PBE Pd 04Jan2005                  :
 energy of atom  1       EATOM= -809.7530
 kinetic energy error for atom=    0.0177 (will be added to EATOM!!)
  PAW_PBE C 08Apr2002                   :
 energy of atom  2       EATOM= -147.1560
 kinetic energy error for atom=    0.0545 (will be added to EATOM!!)
  PAW_PBE O 08Apr2002                   :
 energy of atom  3       EATOM= -432.3788
 kinetic energy error for atom=    0.2342 (will be added to EATOM!!)
 
 
 POSCAR: initial\(6)                             
  positions in direct lattice
  No initial velocities read in
 exchange correlation table for  LEXCH =        8
   RHO(1)=    0.500       N(1)  =     2000
   RHO(2)=  100.500       N(2)  =     4000

 VTST: version 3.2, (02/03/18)

 CHAIN: initializing optimizer
 
 OPT: Using Quick-Min optimizer
 OPT: QM, Init
 OPT: QM, MAXMOVE       0.200000
 OPT: QM, TIMESTEP      0.100000
 
 CHAIN: Read ICHAIN            0
 CHAIN: Running the NEB
 NEB:          SPRING     -5.000000
 NEB:          LCLIMB      T
 NEB:     LTANGENTOLD      F
 NEB:           LDNEB      F
 NEB:        LDNEBORG      F
 NEB:        LNEBCELL      F
 NEB:          EFIRST      0.000000
 NEB:           ELAST      0.000000
 
 POSCAR: initial\(7)                             
  positions in direct lattice
  velocities in cartesian coordinates
 
 POSCAR: final_re                                
  positions in direct lattice
  velocities in cartesian coordinates
 


--------------------------------------------------------------------------------------------------------


 ion  position               nearest neighbor table
   1  1.000  0.001  0.434-   9 2.77   3 2.77  27 2.77   7 2.77   4 2.77  10 2.77  13 2.77  25 2.77
                            19 2.77
   2  0.111  0.223  0.160-   3 2.77   9 2.77  31 2.77  32 2.77  12 2.77  28 2.77   5 2.77   8 2.77
                            26 2.77  20 2.77  14 2.77  11 2.77
   3  0.222  0.112  0.297-   1 2.77   4 2.77   2 2.77   5 2.77  13 2.77  20 2.77   9 2.77  21 2.77
                            27 2.77  12 2.77  15 2.77   6 2.77
   4  0.333  0.001  0.434-   3 2.77  21 2.77   6 2.77   1 2.77  13 2.77  19 2.77  22 2.77  16 2.77
                             7 2.77
   5  0.444  0.223  0.160-  32 2.77   3 2.77  29 2.77  15 2.77   6 2.77  33 2.77   2 2.77  20 2.77
                            23 2.77   8 2.77  17 2.77  14 2.77
   6  0.555  0.112  0.297-   7 2.77   8 2.77  16 2.77  23 2.77   4 2.77   5 2.77   9 2.77  24 2.77
                            15 2.77  18 2.77  21 2.77   3 2.77
   7  0.666  0.001  0.434-   6 2.77   9 2.77  24 2.77   1 2.77  16 2.77  10 2.77  25 2.77  22 2.77
                             4 2.77
   8  0.778  0.223  0.160-  33 2.77  31 2.77   6 2.77   9 2.77  18 2.77  30 2.77   2 2.77  26 2.77
                            23 2.77  11 2.77   5 2.77  17 2.77
   9  0.889  0.112  0.297-   1 2.77   7 2.77   2 2.77   8 2.77  10 2.77  26 2.77   3 2.77   6 2.77
                            27 2.77  24 2.77  12 2.77  18 2.77
  10  1.000  0.334  0.434-  12 2.77  18 2.77   9 2.77  16 2.77  13 2.77   7 2.77   1 2.77  22 2.77
                            19 2.77
  11  0.111  0.557  0.160-  34 2.77  35 2.77  21 2.77  18 2.77  12 2.77  31 2.77  14 2.77  17 2.77
                            23 2.77  20 2.77   8 2.77   2 2.77
  12  0.222  0.446  0.297-  10 2.77  13 2.77   2 2.77  14 2.77  11 2.77  22 2.77  18 2.77   9 2.77
                             3 2.77  15 2.77  21 2.77  24 2.77
  13  0.333  0.334  0.434-  12 2.77   3 2.77  15 2.77  10 2.77   4 2.77   1 2.77  16 2.77  22 2.77
                            25 2.77
  14  0.444  0.557  0.160-  35 2.77  12 2.77  24 2.77  36 2.77  32 2.77  11 2.77  23 2.77  15 2.77
                            26 2.77   2 2.77  17 2.77   5 2.77
  15  0.555  0.446  0.297-  16 2.77  17 2.77   5 2.77  13 2.77  25 2.77  18 2.77   6 2.77  14 2.77
                             3 2.77  27 2.77  12 2.77  24 2.77
  16  0.666  0.334  0.434-  18 2.77  15 2.77   6 2.77  10 2.77   7 2.77   4 2.77  19 2.77  13 2.77
                            25 2.77
  17  0.778  0.557  0.160-  36 2.77  34 2.77  27 2.77  15 2.77  18 2.77  33 2.77  11 2.77  26 2.77
                            20 2.77  14 2.77   5 2.77   8 2.77
  18  0.889  0.446  0.297-  10 2.77  16 2.77   8 2.77  11 2.77  17 2.77  19 2.77  12 2.77  15 2.77
                             9 2.77   6 2.77  21 2.77  27 2.77
  19  1.000  0.668  0.434-  21 2.77  27 2.77  18 2.77  25 2.77  22 2.77   4 2.77   1 2.77  16 2.77
                            10 2.77
  20  0.111  0.890  0.160-  21 2.77  27 2.77  29 2.77  28 2.77   3 2.77  34 2.77  23 2.77  26 2.77
                            11 2.77  17 2.77   5 2.77   2 2.77
  21  0.222  0.779  0.297-  19 2.77  22 2.77  20 2.77  23 2.77   4 2.77  11 2.77  27 2.77   3 2.77
                             6 2.77  18 2.77  24 2.77  12 2.77
  22  0.333  0.668  0.434-  21 2.77  24 2.77  12 2.77  19 2.77   4 2.77   7 2.77  10 2.77  25 2.77
                            13 2.77
  23  0.444  0.890  0.160-  21 2.77  29 2.77  35 2.77   6 2.77  24 2.77  30 2.77  20 2.77  11 2.77
                            14 2.77   5 2.77   8 2.77  26 2.77
  24  0.555  0.779  0.297-  25 2.77  26 2.77   7 2.77  14 2.77  22 2.77  23 2.77  27 2.77   6 2.77
                             9 2.77  21 2.77  12 2.77  15 2.77
  25  0.666  0.668  0.434-  27 2.77  24 2.77  15 2.77  19 2.77   1 2.77   7 2.77  22 2.77  13 2.77
                            16 2.77
  26  0.778  0.890  0.160-  24 2.77  27 2.77  28 2.77  30 2.77   9 2.77  36 2.77  20 2.77  17 2.77
                             2 2.77   8 2.77  14 2.77  23 2.77
  27  0.889  0.779  0.297-  19 2.77  25 2.77  20 2.77  26 2.77   1 2.77  17 2.77  21 2.77  24 2.77
                             9 2.77   3 2.77  15 2.77  18 2.77
  28  1.000  0.001  0.023-  26 2.77  20 2.77   2 2.77  30 2.77  29 2.77  31 2.77  32 2.77  36 2.77
                            34 2.77
  29  0.333  0.001  0.023-  20 2.77  23 2.77   5 2.77  28 2.77  32 2.77  34 2.77  35 2.77  33 2.77
                            30 2.77
  30  0.666  0.001  0.023-  26 2.77   8 2.77  23 2.77  28 2.77  31 2.77  33 2.77  36 2.77  35 2.77
                            29 2.77
  31  1.000  0.334  0.023-   2 2.77   8 2.77  11 2.77  33 2.77  32 2.77  28 2.77  30 2.77  35 2.77
                            34 2.77
  32  0.333  0.334  0.023-   5 2.77   2 2.77  14 2.77  31 2.77  29 2.77  28 2.77  33 2.77  35 2.77
                            36 2.77
  33  0.666  0.334  0.023-   8 2.77   5 2.77  17 2.77  31 2.77  30 2.77  29 2.77  34 2.77  32 2.77
                            36 2.77
  34  1.000  0.668  0.023-  11 2.77  17 2.77  20 2.77  36 2.77  35 2.77  28 2.77  29 2.77  33 2.77
                            31 2.77
  35  0.333  0.668  0.023-  14 2.77  11 2.77  23 2.77  34 2.77  29 2.77  30 2.77  31 2.77  36 2.77
                            32 2.77
  36  0.666  0.668  0.023-  17 2.77  26 2.77  14 2.77  34 2.77  28 2.77  30 2.77  35 2.77  32 2.77
                            33 2.77
  37  0.200  0.079  0.600-  39 1.71  38 1.94
  38  0.204  0.314  0.596-  37 1.94
  39  0.256  0.908  0.611-  37 1.71
 

IMPORTANT INFORMATION: All symmetrisations will be switched off!
NOSYMM: (Re-)initialisation of all symmetry stuff for point group C_1.

 
 
 KPOINTS: Automatic mesh                          

Automatic generation of k-mesh.
Space group operators:
 irot       det(A)        alpha          n_x          n_y          n_z        tau_x        tau_y        tau_z
    1     1.000000     0.000000     1.000000     0.000000     0.000000     0.000000     0.000000     0.000000
 
 Subroutine IBZKPT returns following result:
 ===========================================
 
 Found     24 irreducible k-points:
 
 Following reciprocal coordinates:
            Coordinates               Weight
  0.125000  0.125000  0.000000     16.000000
  0.250000 -0.125000  0.000000     16.000000
  0.125000 -0.250000  0.000000     16.000000
  0.375000  0.125000  0.000000     16.000000
  0.500000 -0.375000  0.000000     16.000000
  0.125000  0.500000  0.000000     16.000000
 -0.125000 -0.375000  0.000000     16.000000
  0.375000  0.500000  0.000000     16.000000
  0.500000 -0.125000  0.000000     16.000000
 -0.375000  0.125000  0.000000     16.000000
 -0.250000  0.375000  0.000000     16.000000
  0.125000  0.250000  0.000000     16.000000
 -0.125000  0.375000  0.000000     16.000000
 -0.375000  0.250000  0.000000     16.000000
 -0.250000 -0.125000  0.000000     16.000000
 -0.125000  0.125000  0.000000     16.000000
  0.000000  0.125000  0.000000     16.000000
  0.125000  0.000000  0.000000     16.000000
  0.375000  0.375000  0.000000     16.000000
 -0.250000 -0.375000  0.000000     16.000000
  0.375000  0.250000  0.000000     16.000000
 -0.375000  0.375000  0.000000     16.000000
  0.000000  0.375000  0.000000     16.000000
  0.375000  0.000000  0.000000     16.000000
 
 Following cartesian coordinates:
            Coordinates               Weight
  0.015042  0.026054  0.000000     16.000000
  0.030085  0.000000  0.000000     16.000000
  0.015042 -0.026054  0.000000     16.000000
  0.045127  0.043423  0.000000     16.000000
  0.060169 -0.017369  0.000000     16.000000
  0.015042  0.078162  0.000000     16.000000
 -0.015042 -0.060793  0.000000     16.000000
  0.045127  0.095531  0.000000     16.000000
  0.060169  0.017369  0.000000     16.000000
 -0.045127 -0.008685  0.000000     16.000000
 -0.030085  0.034739  0.000000     16.000000
  0.015042  0.043423  0.000000     16.000000
 -0.015042  0.043423  0.000000     16.000000
 -0.045127  0.008685  0.000000     16.000000
 -0.030085 -0.034739  0.000000     16.000000
 -0.015042  0.008685  0.000000     16.000000
  0.000000  0.017369  0.000000     16.000000
  0.015042  0.008685  0.000000     16.000000
  0.045127  0.078162  0.000000     16.000000
 -0.030085 -0.069477  0.000000     16.000000
  0.045127  0.060793  0.000000     16.000000
 -0.045127  0.026054  0.000000     16.000000
  0.000000  0.052108  0.000000     16.000000
  0.045127  0.026054  0.000000     16.000000
 


--------------------------------------------------------------------------------------------------------




 Dimension of arrays:
   k-points           NKPTS =     24   k-points in BZ     NKDIM =     24   number of bands    NBANDS=    232
   number of dos      NEDOS =    301   number of ions     NIONS =     39
   non local maximal  LDIM  =      6   non local SUM 2l+1 LMDIM =     18
   total plane-waves  NPLWV = 128000
   max r-space proj   IRMAX =   1966   max aug-charges    IRDMAX=   6482
   dimension x,y,z NGX =    40 NGY =   40 NGZ =   80
   dimension x,y,z NGXF=    80 NGYF=   80 NGZF=  160
   support grid    NGXF=    80 NGYF=   80 NGZF=  160
   ions per type =              36   1   2
   NGX,Y,Z   is equivalent  to a cutoff of   8.00,  8.00,  8.05 a.u.
   NGXF,Y,Z  is equivalent  to a cutoff of  16.00, 16.00, 16.10 a.u.

 SYSTEM =  PBE-grap                                
 POSCAR =  initial\(6)                             

 Startparameter for this run:
   NWRITE =      0    write-flag & timer
   PREC   = normal    normal or accurate (medium, high low for compatibility)
   ISTART =      0    job   : 0-new  1-cont  2-samecut
   ICHARG =      2    charge: 1-file 2-atom 10-const
   ISPIN  =      1    spin polarized calculation?
   LNONCOLLINEAR =      F non collinear calculations
   LSORBIT =      F    spin-orbit coupling
   INIWAV =      1    electr: 0-lowe 1-rand  2-diag
   LASPH  =      F    aspherical Exc in radial PAW
   METAGGA=      F    non-selfconsistent MetaGGA calc.

 Electronic Relaxation 1
   ENCUT  =  370.0 eV  27.19 Ry    5.21 a.u.  13.03 13.03 25.92*2*pi/ulx,y,z
   ENINI  =  370.0     initial cutoff
   ENAUG  =  644.9 eV  augmentation charge cutoff
   NELM   =    150;   NELMIN=  4; NELMDL= -5     # of ELM steps 
   EDIFF  = 0.1E-04   stopping-criterion for ELM
   LREAL  =      T    real-space projection
   NLSPLINE    = F    spline interpolate recip. space projectors
   LCOMPAT=      F    compatible to vasp.4.4
   GGA_COMPAT  = T    GGA compatible to vasp.4.4-vasp.4.6
   LMAXPAW     = -100 max onsite density
   LMAXMIX     =    2 max onsite mixed and CHGCAR
   VOSKOWN=      0    Vosko Wilk Nusair interpolation
   ROPT   =   -0.00050  -0.00050  -0.00050
 Ionic relaxation
   EDIFFG = -.3E-01   stopping-criterion for IOM
   NSW    =   1000    number of steps for IOM
   NBLOCK =      1;   KBLOCK =   1000    inner block; outer block 
   IBRION =      3    ionic relax: 0-MD 1-quasi-New 2-CG
   NFREE  =      0    steps in history (QN), initial steepest desc. (CG)
   ISIF   =      2    stress and relaxation
   IWAVPR =     11    prediction:  0-non 1-charg 2-wave 3-comb
   ISYM   =      0    0-nonsym 1-usesym 2-fastsym
   LCORR  =      T    Harris-Foulkes like correction to forces

   POTIM  = 0.0000    time-step for ionic-motion
   TEIN   =    0.0    initial temperature
   TEBEG  =    0.0;   TEEND  =   0.0 temperature during run
   SMASS  =  -3.00    Nose mass-parameter (am)
   estimated Nose-frequenzy (Omega)   =  0.10E-29 period in steps =  0.00 mass=  -0.158E-26a.u.
   SCALEE = 1.0000    scale energy and forces
   NPACO  =    256;   APACO  = 16.0  distance and # of slots for P.C.
   PSTRESS=    0.0 pullay stress

  Mass of Ions in am
   POMASS = 106.42 12.01 16.00
  Ionic Valenz
   ZVAL   =  10.00  4.00  6.00
  Atomic Wigner-Seitz radii
   RWIGS  =  -1.00 -1.00 -1.00
  virtual crystal weights 
   VCA    =   1.00  1.00  1.00
   NELECT =     376.0000    total number of electrons
   NUPDOWN=      -1.0000    fix difference up-down

 DOS related values:
   EMIN   =  10.00;   EMAX   =-10.00  energy-range for DOS
   EFERMI =   0.00
   ISMEAR =     0;   SIGMA  =   0.41  broadening in eV -4-tet -1-fermi 0-gaus

 Electronic relaxation 2 (details)
   IALGO  =     38    algorithm
   LDIAG  =      T    sub-space diagonalisation (order eigenvalues)
   LSUBROT=      F    optimize rotation matrix (better conditioning)
   TURBO    =      0    0=normal 1=particle mesh
   IRESTART =      0    0=no restart 2=restart with 2 vectors
   NREBOOT  =      0    no. of reboots
   NMIN     =      0    reboot dimension
   EREF     =   0.00    reference energy to select bands
   IMIX   =      4    mixing-type and parameters
     AMIX     =   0.40;   BMIX     =  1.00
     AMIX_MAG =   1.60;   BMIX_MAG =  1.00
     AMIN     =   0.10
     WC   =   100.;   INIMIX=   1;  MIXPRE=   1;  MAXMIX= -45

 Intra band minimization:
   WEIMIN = 0.0010     energy-eigenvalue tresh-hold
   EBREAK =  0.11E-07  absolut break condition
   DEPER  =   0.30     relativ break condition  

   TIME   =   0.40     timestep for ELM

  volume/ion in A,a.u.               =      25.34       170.98
  Fermi-wavevector in a.u.,A,eV,Ry     =   1.186304  2.241790 19.147714  1.407317
  Thomas-Fermi vector in A             =   2.322480
 
 Write flags
   LWAVE        =      F    write WAVECAR
   LDOWNSAMPLE  =      F    k-point downsampling of WAVECAR
   LCHARG       =      F    write CHGCAR
   LVTOT        =      F    write LOCPOT, total local potential
   LVHAR        =      F    write LOCPOT, Hartree potential only
   LELF         =      F    write electronic localiz. function (ELF)
   LORBIT       =      0    0 simple, 1 ext, 2 COOP (PROOUT), +10 PAW based schemes


 Dipole corrections
   LMONO  =      F    monopole corrections only (constant potential shift)
   LDIPOL =      F    correct potential (dipole corrections)
   IDIPOL =      0    1-x, 2-y, 3-z, 4-all directions 
   EPSILON=  1.0000000 bulk dielectric constant

 Exchange correlation treatment:
   GGA     =    PE    GGA type
   LEXCH   =     8    internal setting for exchange type
   VOSKOWN=      0    Vosko Wilk Nusair interpolation
   LHFCALC =     F    Hartree Fock is set to
   LHFONE  =     F    Hartree Fock one center treatment
   AEXX    =    0.0000 exact exchange contribution

 Linear response parameters
   LEPSILON=     F    determine dielectric tensor
   LRPA    =     F    only Hartree local field effects (RPA)
   LNABLA  =     F    use nabla operator in PAW spheres
   LVEL    =     F    velocity operator in full k-point grid
   LINTERFAST=   F  fast interpolation
   KINTER  =     0    interpolate to denser k-point grid
   CSHIFT  =0.1000    complex shift for real part using Kramers Kronig
   OMEGAMAX=  -1.0    maximum frequency
   DEG_THRESHOLD= 0.2000000E-02 threshold for treating states as degnerate
   RTIME   =   -0.100 relaxation time in fs
  (WPLASMAI=    0.000 imaginary part of plasma frequency in eV, 0.658/RTIME)
   DFIELD  = 0.0000000 0.0000000 0.0000000 field for delta impulse in time
 
 Orbital magnetization related:
   ORBITALMAG=     F  switch on orbital magnetization
   LCHIMAG   =     F  perturbation theory with respect to B field
   DQ        =  0.001000  dq finite difference perturbation B field
   LLRAUG    =     F  two centre corrections for induced B field



--------------------------------------------------------------------------------------------------------


 quickmin algorithm: (dynamic with friction)
   using selective dynamics as specified on POSCAR
 charge density and potential will be updated during run
 non-spin polarized calculation
 Variant of blocked Davidson
 Davidson routine will perform the subspace rotation
 perform sub-space diagonalisation
    after iterative eigenvector-optimisation
 modified Broyden-mixing scheme, WC =      100.0
 initial mixing is a Kerker type mixing with AMIX =  0.4000 and BMIX =      1.0000
 Hartree-type preconditioning will be used
 using additional bands           44
 real space projection scheme for non local part
 use partial core corrections
 calculate Harris-corrections to forces 
   (improved forces if not selfconsistent)
 use gradient corrections 
 use of overlap-Matrix (Vanderbilt PP)
 Gauss-broadening in eV      SIGMA  =   0.41


--------------------------------------------------------------------------------------------------------


  energy-cutoff  :      370.00
  volume of cell :      988.15
      direct lattice vectors                 reciprocal lattice vectors
     8.309900284  0.000000000  0.000000000     0.120338387  0.069477400  0.000000000
    -4.154950142  7.196584749  0.000000000     0.000000000  0.138954801  0.000000000
     0.000000000  0.000000000 16.523500443     0.000000000  0.000000000  0.060519864

  length of vectors
     8.309900284  8.309900284 16.523500443     0.138954801  0.138954801  0.060519864


 
 k-points in units of 2pi/SCALE and weight: Automatic mesh                          
   0.01504230  0.02605403  0.00000000       0.042
   0.03008460  0.00000000  0.00000000       0.042
   0.01504230 -0.02605403  0.00000000       0.042
   0.04512690  0.04342338  0.00000000       0.042
   0.06016919 -0.01736935  0.00000000       0.042
   0.01504230  0.07816208  0.00000000       0.042
  -0.01504230 -0.06079273  0.00000000       0.042
   0.04512690  0.09553143  0.00000000       0.042
   0.06016919  0.01736935  0.00000000       0.042
  -0.04512690 -0.00868468  0.00000000       0.042
  -0.03008460  0.03473870  0.00000000       0.042
   0.01504230  0.04342338  0.00000000       0.042
  -0.01504230  0.04342338  0.00000000       0.042
  -0.04512690  0.00868468  0.00000000       0.042
  -0.03008460 -0.03473870  0.00000000       0.042
  -0.01504230  0.00868468  0.00000000       0.042
   0.00000000  0.01736935  0.00000000       0.042
   0.01504230  0.00868468  0.00000000       0.042
   0.04512690  0.07816208  0.00000000       0.042
  -0.03008460 -0.06947740  0.00000000       0.042
   0.04512690  0.06079273  0.00000000       0.042
  -0.04512690  0.02605403  0.00000000       0.042
   0.00000000  0.05210805  0.00000000       0.042
   0.04512690  0.02605403  0.00000000       0.042
 
 k-points in reciprocal lattice and weights: Automatic mesh                          
   0.12500000  0.12500000  0.00000000       0.042
   0.25000000 -0.12500000  0.00000000       0.042
   0.12500000 -0.25000000  0.00000000       0.042
   0.37500000  0.12500000  0.00000000       0.042
   0.50000000 -0.37500000  0.00000000       0.042
   0.12500000  0.50000000  0.00000000       0.042
  -0.12500000 -0.37500000  0.00000000       0.042
   0.37500000  0.50000000  0.00000000       0.042
   0.50000000 -0.12500000  0.00000000       0.042
  -0.37500000  0.12500000  0.00000000       0.042
  -0.25000000  0.37500000  0.00000000       0.042
   0.12500000  0.25000000  0.00000000       0.042
  -0.12500000  0.37500000  0.00000000       0.042
  -0.37500000  0.25000000  0.00000000       0.042
  -0.25000000 -0.12500000  0.00000000       0.042
  -0.12500000  0.12500000  0.00000000       0.042
   0.00000000  0.12500000  0.00000000       0.042
   0.12500000  0.00000000  0.00000000       0.042
   0.37500000  0.37500000  0.00000000       0.042
  -0.25000000 -0.37500000  0.00000000       0.042
   0.37500000  0.25000000  0.00000000       0.042
  -0.37500000  0.37500000  0.00000000       0.042
   0.00000000  0.37500000  0.00000000       0.042
   0.37500000  0.00000000  0.00000000       0.042
 
 position of ions in fractional coordinates (direct lattice) 
   0.99982000  0.00108000  0.43398000
   0.11093000  0.22330000  0.16024000
   0.22204000  0.11219000  0.29711000
   0.33315000  0.00108000  0.43398000
   0.44426000  0.22330000  0.16024000
   0.55538000  0.11219000  0.29711000
   0.66649000  0.00108000  0.43398000
   0.77760000  0.22330000  0.16024000
   0.88871000  0.11219000  0.29711000
   0.99982000  0.33441000  0.43398000
   0.11093000  0.55664000  0.16024000
   0.22204000  0.44552000  0.29711000
   0.33315000  0.33441000  0.43398000
   0.44426000  0.55664000  0.16024000
   0.55538000  0.44552000  0.29711000
   0.66649000  0.33441000  0.43398000
   0.77760000  0.55664000  0.16024000
   0.88871000  0.44552000  0.29711000
   0.99982000  0.66775000  0.43398000
   0.11093000  0.88997000  0.16024000
   0.22204000  0.77886000  0.29711000
   0.33315000  0.66775000  0.43398000
   0.44426000  0.88997000  0.16024000
   0.55538000  0.77886000  0.29711000
   0.66649000  0.66775000  0.43398000
   0.77760000  0.88997000  0.16024000
   0.88871000  0.77886000  0.29711000
   0.99982000  0.00108000  0.02337000
   0.33315000  0.00108000  0.02337000
   0.66649000  0.00108000  0.02337000
   0.99982000  0.33441000  0.02337000
   0.33315000  0.33441000  0.02337000
   0.66649000  0.33441000  0.02337000
   0.99982000  0.66775000  0.02337000
   0.33315000  0.66775000  0.02337000
   0.66649000  0.66775000  0.02337000
   0.20035000  0.07907000  0.60016000
   0.20417000  0.31388000  0.59611000
   0.25570000  0.90828000  0.61120000
 
 position of ions in cartesian coordinates  (Angst):
   8.30391716  0.00777231  7.17086872
  -0.00598313  1.60699737  2.64772571
   1.37898640  0.80738484  4.90929722
   2.76395593  0.00777231  7.17086872
   2.76395593  1.60699737  2.64772571
   4.14900856  0.80738484  4.90929722
   5.53397809  0.00777231  7.17086872
   5.53397809  1.60699737  2.64772571
   6.91894762  0.80738484  4.90929722
   6.91894762  2.40660991  7.17086872
  -1.39099421  4.00590693  2.64772571
  -0.00598313  3.20622244  4.90929722
   1.37898640  2.40660991  7.17086872
   1.37894485  4.00590693  2.64772571
   2.76403903  3.20622244  4.90929722
   4.14900856  2.40660991  7.17086872
   4.14896701  4.00590693  2.64772571
   5.53397809  3.20622244  4.90929722
   5.53393654  4.80551947  7.17086872
  -2.77596374  6.40474453  2.64772571
  -1.39099421  5.60513200  4.90929722
  -0.00602468  4.80551947  7.17086872
  -0.00602468  6.40474453  2.64772571
   1.37902795  5.60513200  4.90929722
   2.76399748  4.80551947  7.17086872
   2.76399748  6.40474453  2.64772571
   4.14896701  5.60513200  4.90929722
   8.30391716  0.00777231  0.38615421
   2.76395593  0.00777231  0.38615421
   5.53397809  0.00777231  0.38615421
   6.91894762  2.40660991  0.38615421
   1.37898640  2.40660991  0.38615421
   4.14900856  2.40660991  0.38615421
   5.53393654  4.80551947  0.38615421
  -0.00602468  4.80551947  0.38615421
   2.76399748  4.80551947  0.38615421
   1.33635661  0.56903396  9.91674403
   0.39247659  2.25886402  9.84982385
  -1.64901661  6.53651400 10.09916347
 


--------------------------------------------------------------------------------------------------------


 k-point  1 :   0.1250 0.1250 0.0000  plane waves:   15951
 k-point  2 :   0.2500-0.1250 0.0000  plane waves:   15951
 k-point  3 :   0.1250-0.2500 0.0000  plane waves:   15951
 k-point  4 :   0.3750 0.1250 0.0000  plane waves:   15982
 k-point  5 :   0.5000-0.3750 0.0000  plane waves:   15982
 k-point  6 :   0.1250 0.5000 0.0000  plane waves:   15982
 k-point  7 :  -0.1250-0.3750 0.0000  plane waves:   15982
 k-point  8 :   0.3750 0.5000 0.0000  plane waves:   15982
 k-point  9 :   0.5000-0.1250 0.0000  plane waves:   15982
 k-point 10 :  -0.3750 0.1250 0.0000  plane waves:   15967
 k-point 11 :  -0.2500 0.3750 0.0000  plane waves:   15967
 k-point 12 :   0.1250 0.2500 0.0000  plane waves:   15967
 k-point 13 :  -0.1250 0.3750 0.0000  plane waves:   15967
 k-point 14 :  -0.3750 0.2500 0.0000  plane waves:   15967
 k-point 15 :  -0.2500-0.1250 0.0000  plane waves:   15967
 k-point 16 :  -0.1250 0.1250 0.0000  plane waves:   15947
 k-point 17 :   0.0000 0.1250 0.0000  plane waves:   15947
 k-point 18 :   0.1250 0.0000 0.0000  plane waves:   15947
 k-point 19 :   0.3750 0.3750 0.0000  plane waves:   16001
 k-point 20 :  -0.2500-0.3750 0.0000  plane waves:   16001
 k-point 21 :   0.3750 0.2500 0.0000  plane waves:   16001
 k-point 22 :  -0.3750 0.3750 0.0000  plane waves:   15956
 k-point 23 :   0.0000 0.3750 0.0000  plane waves:   15956
 k-point 24 :   0.3750 0.0000 0.0000  plane waves:   15956

 maximum and minimum number of plane-waves per node :      8054     7937

 maximum number of plane-waves:     16001
 maximum index in each direction: 
   IXMAX=   13   IYMAX=   13   IZMAX=   25
   IXMIN=  -13   IYMIN=  -13   IZMIN=  -25


 real space projection operators:
  total allocation   :       9686.77 KBytes
  max/ min on nodes  :       4845.19       4841.58


 parallel 3D FFT for wavefunctions:
    minimum data exchange during FFTs selected (reduces bandwidth)
 parallel 3D FFT for charge:
    minimum data exchange during FFTs selected (reduces bandwidth)


 total amount of memory used by VASP MPI-rank0   141689. kBytes
=======================================================================

   base      :      30000. kBytes
   nonlr-proj:       7232. kBytes
   fftplans  :       4164. kBytes
   grid      :       6707. kBytes
   one-center:        311. kBytes
   wavefun   :      93275. kBytes
 
     INWAV:  cpu time    0.0002: real time    0.0002
 Broyden mixing: mesh for mixing (old mesh)
   NGX = 27   NGY = 27   NGZ = 51
  (NGX  = 80   NGY  = 80   NGZ  =160)
  gives a total of  37179 points

 initial charge density was supplied:
 charge density of overlapping atoms calculated
 number of electron     376.0000000 magnetization 
 keeping initial charge density in first step


--------------------------------------------------------------------------------------------------------


 Maximum index for non-local projection operator          939
 Maximum index for augmentation-charges          431 (set IRDMAX)


--------------------------------------------------------------------------------------------------------


 First call to EWALD:  gamma=   0.178
 Maximum number of real-space cells 4x 4x 2
 Maximum number of reciprocal cells 2x 2x 4

    FEWALD:  cpu time    0.0105: real time    0.0105


--------------------------------------- Iteration      1(   1)  ---------------------------------------


    POTLOK:  cpu time    0.1820: real time    0.1880
    SETDIJ:  cpu time    0.0448: real time    0.0449
     EDDAV:  cpu time   49.8720: real time   49.8811
       DOS:  cpu time    0.0182: real time    0.0182
    --------------------------------------------
      LOOP:  cpu time   50.1171: real time   50.1323

 eigenvalue-minimisations  : 11144
 total energy-change (2. order) : 0.2080433E+04  (-0.1518124E+05)
 number of electron     376.0000000 magnetization 
 augmentation part      376.0000000 magnetization 

 Free energy of the ion-electron system (eV)
  ---------------------------------------------------
  alpha Z        PSCENC =       918.22725072
  Ewald energy   TEWEN  =     22997.49690179
  -Hartree energ DENC   =    -55676.82115976
  -exchange      EXHF   =         0.00000000
  -V(xc)+E(xc)   XCENC  =      -995.60732342
  PAW double counting   =     29844.20032359   -27608.36462881
  entropy T*S    EENTRO =        -1.37529220
  eigenvalues    EBANDS =      2440.81322865
  atomic energy  EATOM  =     30161.86332653
  Solvation  Ediel_sol  =         0.00000000
  ---------------------------------------------------
  free energy    TOTEN  =      2080.43262710 eV

  energy without entropy =     2081.80791930  energy(sigma->0) =     2081.12027320


--------------------------------------------------------------------------------------------------------




--------------------------------------- Iteration      1(   2)  ---------------------------------------


     EDDAV:  cpu time   53.2318: real time   53.2479
       DOS:  cpu time    0.0204: real time    0.0205
    --------------------------------------------
      LOOP:  cpu time   53.2523: real time   53.2684

 eigenvalue-minimisations  : 12064
 total energy-change (2. order) :-0.2170269E+04  (-0.2041456E+04)
 number of electron     376.0000000 magnetization 
 augmentation part      376.0000000 magnetization 

 Free energy of the ion-electron system (eV)
  ---------------------------------------------------
  alpha Z        PSCENC =       918.22725072
  Ewald energy   TEWEN  =     22997.49690179
  -Hartree energ DENC   =    -55676.82115976
  -exchange      EXHF   =         0.00000000
  -V(xc)+E(xc)   XCENC  =      -995.60732342
  PAW double counting   =     29844.20032359   -27608.36462881
  entropy T*S    EENTRO =        -3.76464686
  eigenvalues    EBANDS =       272.93328886
  atomic energy  EATOM  =     30161.86332653
  Solvation  Ediel_sol  =         0.00000000
  ---------------------------------------------------
  free energy    TOTEN  =       -89.83666735 eV

  energy without entropy =      -86.07202049  energy(sigma->0) =      -87.95434392


--------------------------------------------------------------------------------------------------------




--------------------------------------- Iteration      1(   3)  ---------------------------------------


     EDDAV:  cpu time   55.2766: real time   55.2921
       DOS:  cpu time    0.0215: real time    0.0215
    --------------------------------------------
      LOOP:  cpu time   55.2980: real time   55.3136

 eigenvalue-minimisations  : 12616
 total energy-change (2. order) :-0.1131486E+03  (-0.1015015E+03)
 number of electron     376.0000000 magnetization 
 augmentation part      376.0000000 magnetization 

 Free energy of the ion-electron system (eV)
  ---------------------------------------------------
  alpha Z        PSCENC =       918.22725072
  Ewald energy   TEWEN  =     22997.49690179
  -Hartree energ DENC   =    -55676.82115976
  -exchange      EXHF   =         0.00000000
  -V(xc)+E(xc)   XCENC  =      -995.60732342
  PAW double counting   =     29844.20032359   -27608.36462881
  entropy T*S    EENTRO =        -5.45347354
  eigenvalues    EBANDS =       161.47352596
  atomic energy  EATOM  =     30161.86332653
  Solvation  Ediel_sol  =         0.00000000
  ---------------------------------------------------
  free energy    TOTEN  =      -202.98525693 eV

  energy without entropy =     -197.53178339  energy(sigma->0) =     -200.25852016


--------------------------------------------------------------------------------------------------------




--------------------------------------- Iteration      1(   4)  ---------------------------------------


     EDDAV:  cpu time   53.7941: real time   53.8090
       DOS:  cpu time    0.0216: real time    0.0216
    --------------------------------------------
      LOOP:  cpu time   53.8157: real time   53.8307

 eigenvalue-minimisations  : 12184
 total energy-change (2. order) :-0.3579051E+01  (-0.3520030E+01)
 number of electron     376.0000000 magnetization 
 augmentation part      376.0000000 magnetization 

 Free energy of the ion-electron system (eV)
  ---------------------------------------------------
  alpha Z        PSCENC =       918.22725072
  Ewald energy   TEWEN  =     22997.49690179
  -Hartree energ DENC   =    -55676.82115976
  -exchange      EXHF   =         0.00000000
  -V(xc)+E(xc)   XCENC  =      -995.60732342
  PAW double counting   =     29844.20032359   -27608.36462881
  entropy T*S    EENTRO =        -5.49979202
  eigenvalues    EBANDS =       157.94079357
  atomic energy  EATOM  =     30161.86332653
  Solvation  Ediel_sol  =         0.00000000
  ---------------------------------------------------
  free energy    TOTEN  =      -206.56430779 eV

  energy without entropy =     -201.06451578  energy(sigma->0) =     -203.81441178


--------------------------------------------------------------------------------------------------------




--------------------------------------- Iteration      1(   5)  ---------------------------------------


     EDDAV:  cpu time   63.0285: real time   63.0445
       DOS:  cpu time    0.0217: real time    0.0218
    CHARGE:  cpu time    2.4323: real time    2.4326
    MIXING:  cpu time    0.0072: real time    0.0074
    --------------------------------------------
      LOOP:  cpu time   65.4898: real time   65.5063

 eigenvalue-minimisations  : 14848
 total energy-change (2. order) :-0.1299380E+00  (-0.1296460E+00)
 number of electron     376.0000429 magnetization 
 augmentation part      145.9005987 magnetization 

 Broyden mixing:
  rms(total) = 0.41582E+01    rms(broyden)= 0.41577E+01
  rms(prec ) = 0.43954E+01
  weight for this iteration     100.00

 Free energy of the ion-electron system (eV)
  ---------------------------------------------------
  alpha Z        PSCENC =       918.22725072
  Ewald energy   TEWEN  =     22997.49690179
  -Hartree energ DENC   =    -55676.82115976
  -exchange      EXHF   =         0.00000000
  -V(xc)+E(xc)   XCENC  =      -995.60732342
  PAW double counting   =     29844.20032359   -27608.36462881
  entropy T*S    EENTRO =        -5.50090514
  eigenvalues    EBANDS =       157.81196866
  atomic energy  EATOM  =     30161.86332653
  Solvation  Ediel_sol  =         0.00000000
  ---------------------------------------------------
  free energy    TOTEN  =      -206.69424583 eV

  energy without entropy =     -201.19334069  energy(sigma->0) =     -203.94379326


--------------------------------------------------------------------------------------------------------




--------------------------------------- Iteration      1(   6)  ---------------------------------------


    POTLOK:  cpu time    0.1506: real time    0.1611
    SETDIJ:  cpu time    0.0413: real time    0.0413
     EDDAV:  cpu time   61.2353: real time   61.2431
       DOS:  cpu time    0.0231: real time    0.0231
    CHARGE:  cpu time    2.3689: real time    2.3692
    MIXING:  cpu time    0.0074: real time    0.0074
    --------------------------------------------
      LOOP:  cpu time   63.8266: real time   63.8451

 eigenvalue-minimisations  : 14352
 total energy-change (2. order) :-0.6680360E+01  (-0.4792154E+01)
 number of electron     376.0000447 magnetization 
 augmentation part      154.6351864 magnetization 

 Broyden mixing:
  rms(total) = 0.41587E+01    rms(broyden)= 0.41569E+01
  rms(prec ) = 0.53481E+01
  weight for this iteration     100.00

 eigenvalues of (default mixing * dielectric matrix)
  average eigenvalue GAMMA=   0.5204
  0.5204

 Free energy of the ion-electron system (eV)
  ---------------------------------------------------
  alpha Z        PSCENC =       918.22725072
  Ewald energy   TEWEN  =     22997.49690179
  -Hartree energ DENC   =    -55411.68535119
  -exchange      EXHF   =         0.00000000
  -V(xc)+E(xc)   XCENC  =     -1000.57483435
  PAW double counting   =     31816.76570201   -29626.43091088
  entropy T*S    EENTRO =        -4.36571447
  eigenvalues    EBANDS =       -64.67097602
  atomic energy  EATOM  =     30161.86332653
  Solvation  Ediel_sol  =         0.00000000
  ---------------------------------------------------
  free energy    TOTEN  =      -213.37460586 eV

  energy without entropy =     -209.00889139  energy(sigma->0) =     -211.19174862


--------------------------------------------------------------------------------------------------------




--------------------------------------- Iteration      1(   7)  ---------------------------------------


    POTLOK:  cpu time    0.1530: real time    0.1617
    SETDIJ:  cpu time    0.0414: real time    0.0414
     EDDAV:  cpu time   63.4015: real time   63.4080
       DOS:  cpu time    0.0200: real time    0.0201
    CHARGE:  cpu time    2.4431: real time    2.4433
    MIXING:  cpu time    0.0064: real time    0.0064
    --------------------------------------------
      LOOP:  cpu time   66.0655: real time   66.0809

 eigenvalue-minimisations  : 14936
 total energy-change (2. order) : 0.6205846E+01  (-0.2430302E+01)
 number of electron     376.0000441 magnetization 
 augmentation part      149.6735567 magnetization 

 Broyden mixing:
  rms(total) = 0.31694E+01    rms(broyden)= 0.31668E+01
  rms(prec ) = 0.54053E+01
  weight for this iteration     100.00

 eigenvalues of (default mixing * dielectric matrix)
  average eigenvalue GAMMA=   0.6920
  1.1334  0.2505

 Free energy of the ion-electron system (eV)
  ---------------------------------------------------
  alpha Z        PSCENC =       918.22725072
  Ewald energy   TEWEN  =     22997.49690179
  -Hartree energ DENC   =    -55557.18387062
  -exchange      EXHF   =         0.00000000
  -V(xc)+E(xc)   XCENC  =     -1003.04665020
  PAW double counting   =     32385.26109053   -30198.84763194
  entropy T*S    EENTRO =        -5.07511084
  eigenvalues    EBANDS =        94.13593414
  atomic energy  EATOM  =     30161.86332653
  Solvation  Ediel_sol  =         0.00000000
  ---------------------------------------------------
  free energy    TOTEN  =      -207.16875990 eV

  energy without entropy =     -202.09364906  energy(sigma->0) =     -204.63120448


--------------------------------------------------------------------------------------------------------




--------------------------------------- Iteration      1(   8)  ---------------------------------------


    POTLOK:  cpu time    0.1539: real time    0.1640
    SETDIJ:  cpu time    0.0413: real time    0.0413
     EDDAV:  cpu time   59.3142: real time   59.3179
       DOS:  cpu time    0.0212: real time    0.0212
    CHARGE:  cpu time    2.4541: real time    2.4543
    MIXING:  cpu time    0.0066: real time    0.0066
    --------------------------------------------
      LOOP:  cpu time   61.9913: real time   62.0054

 eigenvalue-minimisations  : 13752
 total energy-change (2. order) :-0.1095158E+02  (-0.3495288E+01)
 number of electron     376.0000428 magnetization 
 augmentation part      150.8952483 magnetization 

 Broyden mixing:
  rms(total) = 0.37797E+01    rms(broyden)= 0.37791E+01
  rms(prec ) = 0.62457E+01
  weight for this iteration     100.00

 eigenvalues of (default mixing * dielectric matrix)
  average eigenvalue GAMMA=   0.7571
  1.8195  0.3121  0.1397

 Free energy of the ion-electron system (eV)
  ---------------------------------------------------
  alpha Z        PSCENC =       918.22725072
  Ewald energy   TEWEN  =     22997.49690179
  -Hartree energ DENC   =    -55502.72579855
  -exchange      EXHF   =         0.00000000
  -V(xc)+E(xc)   XCENC  =     -1003.52147092
  PAW double counting   =     33012.46519682   -30835.88665263
  entropy T*S    EENTRO =        -4.14379913
  eigenvalues    EBANDS =        38.10470234
  atomic energy  EATOM  =     30161.86332653
  Solvation  Ediel_sol  =         0.00000000
  ---------------------------------------------------
  free energy    TOTEN  =      -218.12034304 eV

  energy without entropy =     -213.97654391  energy(sigma->0) =     -216.04844347


--------------------------------------------------------------------------------------------------------




--------------------------------------- Iteration      1(   9)  ---------------------------------------


    POTLOK:  cpu time    0.1527: real time    0.1632
    SETDIJ:  cpu time    0.0415: real time    0.0415
     EDDAV:  cpu time   62.2340: real time   62.2401
       DOS:  cpu time    0.0222: real time    0.0223
    CHARGE:  cpu time    2.3796: real time    2.3800
    MIXING:  cpu time    0.0071: real time    0.0071
    --------------------------------------------
      LOOP:  cpu time   64.8372: real time   64.8542

 eigenvalue-minimisations  : 14632
 total energy-change (2. order) : 0.1941169E+02  (-0.1606162E+01)
 number of electron     376.0000452 magnetization 
 augmentation part      153.7892819 magnetization 

 Broyden mixing:
  rms(total) = 0.14723E+01    rms(broyden)= 0.14688E+01
  rms(prec ) = 0.18801E+01
  weight for this iteration     100.00

 eigenvalues of (default mixing * dielectric matrix)
  average eigenvalue GAMMA=   0.6856
  1.9209  0.3933  0.2875  0.1408

 Free energy of the ion-electron system (eV)
  ---------------------------------------------------
  alpha Z        PSCENC =       918.22725072
  Ewald energy   TEWEN  =     22997.49690179
  -Hartree energ DENC   =    -55423.28019500
  -exchange      EXHF   =         0.00000000
  -V(xc)+E(xc)   XCENC  =     -1003.54041012
  PAW double counting   =     34127.93096929   -31969.29913141
  entropy T*S    EENTRO =        -5.02693173
  eigenvalues    EBANDS =        -3.08043648
  atomic energy  EATOM  =     30161.86332653
  Solvation  Ediel_sol  =         0.00000000
  ---------------------------------------------------
  free energy    TOTEN  =      -198.70865641 eV

  energy without entropy =     -193.68172468  energy(sigma->0) =     -196.19519055


--------------------------------------------------------------------------------------------------------




--------------------------------------- Iteration      1(  10)  ---------------------------------------


    POTLOK:  cpu time    0.1530: real time    0.1632
    SETDIJ:  cpu time    0.0413: real time    0.0413
     EDDAV:  cpu time   55.2805: real time   55.2995
       DOS:  cpu time    0.0224: real time    0.0225
    CHARGE:  cpu time    2.3878: real time    2.3880
    MIXING:  cpu time    0.0076: real time    0.0076
    --------------------------------------------
      LOOP:  cpu time   57.8926: real time   57.9220

 eigenvalue-minimisations  : 12584
 total energy-change (2. order) : 0.3460819E+01  (-0.7253697E+00)
 number of electron     376.0000441 magnetization 
 augmentation part      153.2529416 magnetization 

 Broyden mixing:
  rms(total) = 0.94406E+00    rms(broyden)= 0.94341E+00
  rms(prec ) = 0.12292E+01
  weight for this iteration     100.00

 eigenvalues of (default mixing * dielectric matrix)
  average eigenvalue GAMMA=   0.6648
  2.0009  0.4270  0.4270  0.3315  0.1376

 Free energy of the ion-electron system (eV)
  ---------------------------------------------------
  alpha Z        PSCENC =       918.22725072
  Ewald energy   TEWEN  =     22997.49690179
  -Hartree energ DENC   =    -55470.48631677
  -exchange      EXHF   =         0.00000000
  -V(xc)+E(xc)   XCENC  =     -1003.28367076
  PAW double counting   =     34533.57036983   -32377.34597814
  entropy T*S    EENTRO =        -5.16144824
  eigenvalues    EBANDS =        49.87172805
  atomic energy  EATOM  =     30161.86332653
  Solvation  Ediel_sol  =         0.00000000
  ---------------------------------------------------
  free energy    TOTEN  =      -195.24783699 eV

  energy without entropy =     -190.08638874  energy(sigma->0) =     -192.66711286


--------------------------------------------------------------------------------------------------------




--------------------------------------- Iteration      1(  11)  ---------------------------------------


    POTLOK:  cpu time    0.1537: real time    0.1638
    SETDIJ:  cpu time    0.0410: real time    0.0410
     EDDAV:  cpu time   52.9512: real time   52.9565
       DOS:  cpu time    0.0221: real time    0.0221
    CHARGE:  cpu time    2.4101: real time    2.4104
    MIXING:  cpu time    0.0080: real time    0.0081
    --------------------------------------------
      LOOP:  cpu time   55.5862: real time   55.6020

 eigenvalue-minimisations  : 11856
 total energy-change (2. order) : 0.4927226E+00  (-0.3414419E+00)
 number of electron     376.0000447 magnetization 
 augmentation part      152.9222492 magnetization 

 Broyden mixing:
  rms(total) = 0.85927E+00    rms(broyden)= 0.85903E+00
  rms(prec ) = 0.10712E+01
  weight for this iteration     100.00

 eigenvalues of (default mixing * dielectric matrix)
  average eigenvalue GAMMA=   0.6948
  2.1515  0.6630  0.6630  0.1379  0.3215  0.2317

 Free energy of the ion-electron system (eV)
  ---------------------------------------------------
  alpha Z        PSCENC =       918.22725072
  Ewald energy   TEWEN  =     22997.49690179
  -Hartree energ DENC   =    -55472.48065695
  -exchange      EXHF   =         0.00000000
  -V(xc)+E(xc)   XCENC  =     -1003.20422682
  PAW double counting   =     34695.33902182   -32539.96206452
  entropy T*S    EENTRO =        -5.28922325
  eigenvalues    EBANDS =        53.25455626
  atomic energy  EATOM  =     30161.86332653
  Solvation  Ediel_sol  =         0.00000000
  ---------------------------------------------------
  free energy    TOTEN  =      -194.75511443 eV

  energy without entropy =     -189.46589118  energy(sigma->0) =     -192.11050280


--------------------------------------------------------------------------------------------------------




--------------------------------------- Iteration      1(  12)  ---------------------------------------


    POTLOK:  cpu time    0.1521: real time    0.1617
    SETDIJ:  cpu time    0.0407: real time    0.0407
     EDDAV:  cpu time   53.2059: real time   53.2114
       DOS:  cpu time    0.0221: real time    0.0221
    CHARGE:  cpu time    2.4132: real time    2.4134
    MIXING:  cpu time    0.0084: real time    0.0084
    --------------------------------------------
      LOOP:  cpu time   55.8422: real time   55.8576

 eigenvalue-minimisations  : 11952
 total energy-change (2. order) : 0.3395028E+00  (-0.1515243E+00)
 number of electron     376.0000439 magnetization 
 augmentation part      152.5716850 magnetization 

 Broyden mixing:
  rms(total) = 0.58505E+00    rms(broyden)= 0.58434E+00
  rms(prec ) = 0.84791E+00
  weight for this iteration     100.00

 eigenvalues of (default mixing * dielectric matrix)
  average eigenvalue GAMMA=   0.6855
  2.1971  0.8017  0.8017  0.1376  0.3066  0.3066  0.2472

 Free energy of the ion-electron system (eV)
  ---------------------------------------------------
  alpha Z        PSCENC =       918.22725072
  Ewald energy   TEWEN  =     22997.49690179
  -Hartree energ DENC   =    -55490.04237823
  -exchange      EXHF   =         0.00000000
  -V(xc)+E(xc)   XCENC  =     -1003.34421709
  PAW double counting   =     34876.53187809   -32722.92984112
  entropy T*S    EENTRO =        -5.40163178
  eigenvalues    EBANDS =        73.18309947
  atomic energy  EATOM  =     30161.86332653
  Solvation  Ediel_sol  =         0.00000000
  ---------------------------------------------------
  free energy    TOTEN  =      -194.41561162 eV

  energy without entropy =     -189.01397984  energy(sigma->0) =     -191.71479573


--------------------------------------------------------------------------------------------------------




--------------------------------------- Iteration      1(  13)  ---------------------------------------


    POTLOK:  cpu time    0.1541: real time    0.1635
    SETDIJ:  cpu time    0.0413: real time    0.0413
     EDDAV:  cpu time   52.6517: real time   52.6955
       DOS:  cpu time    0.0227: real time    0.0227
    CHARGE:  cpu time    2.4091: real time    2.4094
    MIXING:  cpu time    0.0086: real time    0.0087
    --------------------------------------------
      LOOP:  cpu time   55.2875: real time   55.3411

 eigenvalue-minimisations  : 11784
 total energy-change (2. order) : 0.1920810E+00  (-0.1394650E+00)
 number of electron     376.0000446 magnetization 
 augmentation part      152.5340732 magnetization 

 Broyden mixing:
  rms(total) = 0.45954E+00    rms(broyden)= 0.45918E+00
  rms(prec ) = 0.63662E+00
  weight for this iteration     100.00

 eigenvalues of (default mixing * dielectric matrix)
  average eigenvalue GAMMA=   0.6910
  2.2625  0.9434  0.9434  0.5076  0.3039  0.2605  0.1375  0.1692

 Free energy of the ion-electron system (eV)
  ---------------------------------------------------
  alpha Z        PSCENC =       918.22725072
  Ewald energy   TEWEN  =     22997.49690179
  -Hartree energ DENC   =    -55478.70938451
  -exchange      EXHF   =         0.00000000
  -V(xc)+E(xc)   XCENC  =     -1003.32218923
  PAW double counting   =     34922.75399844   -32769.23554589
  entropy T*S    EENTRO =        -5.50465127
  eigenvalues    EBANDS =        62.20676282
  atomic energy  EATOM  =     30161.86332653
  Solvation  Ediel_sol  =         0.00000000
  ---------------------------------------------------
  free energy    TOTEN  =      -194.22353061 eV

  energy without entropy =     -188.71887934  energy(sigma->0) =     -191.47120498


--------------------------------------------------------------------------------------------------------




--------------------------------------- Iteration      1(  14)  ---------------------------------------


    POTLOK:  cpu time    0.1536: real time    0.1637
    SETDIJ:  cpu time    0.0408: real time    0.0408
     EDDAV:  cpu time   53.7575: real time   53.7634
       DOS:  cpu time    0.0225: real time    0.0225
    CHARGE:  cpu time    2.4115: real time    2.4116
    MIXING:  cpu time    0.0096: real time    0.0096
    --------------------------------------------
      LOOP:  cpu time   56.3956: real time   56.4116

 eigenvalue-minimisations  : 12104
 total energy-change (2. order) : 0.1502822E+00  (-0.3008725E-01)
 number of electron     376.0000442 magnetization 
 augmentation part      152.5698336 magnetization 

 Broyden mixing:
  rms(total) = 0.21025E+00    rms(broyden)= 0.20991E+00
  rms(prec ) = 0.26671E+00
  weight for this iteration     100.00

 eigenvalues of (default mixing * dielectric matrix)
  average eigenvalue GAMMA=   0.6944
  2.2873  1.0515  1.0515  0.4912  0.4538  0.3389  0.2582  0.1375  0.1798

 Free energy of the ion-electron system (eV)
  ---------------------------------------------------
  alpha Z        PSCENC =       918.22725072
  Ewald energy   TEWEN  =     22997.49690179
  -Hartree energ DENC   =    -55487.77818118
  -exchange      EXHF   =         0.00000000
  -V(xc)+E(xc)   XCENC  =     -1003.25667766
  PAW double counting   =     34971.13487507   -32817.96197292
  entropy T*S    EENTRO =        -5.47779671
  eigenvalues    EBANDS =        71.67902595
  atomic energy  EATOM  =     30161.86332653
  Solvation  Ediel_sol  =         0.00000000
  ---------------------------------------------------
  free energy    TOTEN  =      -194.07324840 eV

  energy without entropy =     -188.59545169  energy(sigma->0) =     -191.33435004


--------------------------------------------------------------------------------------------------------




--------------------------------------- Iteration      1(  15)  ---------------------------------------


    POTLOK:  cpu time    0.1539: real time    0.1637
    SETDIJ:  cpu time    0.0411: real time    0.0411
     EDDAV:  cpu time   55.0319: real time   55.0375
       DOS:  cpu time    0.0223: real time    0.0223
    CHARGE:  cpu time    2.4103: real time    2.4106
    MIXING:  cpu time    0.0099: real time    0.0099
    --------------------------------------------
      LOOP:  cpu time   57.6694: real time   57.6851

 eigenvalue-minimisations  : 12456
 total energy-change (2. order) : 0.1328263E-01  (-0.9987771E-02)
 number of electron     376.0000442 magnetization 
 augmentation part      152.4860130 magnetization 

 Broyden mixing:
  rms(total) = 0.13646E+00    rms(broyden)= 0.13626E+00
  rms(prec ) = 0.17221E+00
  weight for this iteration     100.00

 eigenvalues of (default mixing * dielectric matrix)
  average eigenvalue GAMMA=   0.7194
  2.3227  1.2437  1.2437  0.6382  0.6163  0.1375  0.3001  0.2733  0.2385  0.1800

 Free energy of the ion-electron system (eV)
  ---------------------------------------------------
  alpha Z        PSCENC =       918.22725072
  Ewald energy   TEWEN  =     22997.49690179
  -Hartree energ DENC   =    -55490.64606852
  -exchange      EXHF   =         0.00000000
  -V(xc)+E(xc)   XCENC  =     -1003.27016720
  PAW double counting   =     34975.75881215   -32822.59688418
  entropy T*S    EENTRO =        -5.50694797
  eigenvalues    EBANDS =        74.61381092
  atomic energy  EATOM  =     30161.86332653
  Solvation  Ediel_sol  =         0.00000000
  ---------------------------------------------------
  free energy    TOTEN  =      -194.05996577 eV

  energy without entropy =     -188.55301780  energy(sigma->0) =     -191.30649178


--------------------------------------------------------------------------------------------------------




--------------------------------------- Iteration      1(  16)  ---------------------------------------


    POTLOK:  cpu time    0.1545: real time    0.1643
    SETDIJ:  cpu time    0.0411: real time    0.0411
     EDDAV:  cpu time   52.3944: real time   52.3994
       DOS:  cpu time    0.0224: real time    0.0224
    CHARGE:  cpu time    2.4075: real time    2.4077
    MIXING:  cpu time    0.0104: real time    0.0104
    --------------------------------------------
      LOOP:  cpu time   55.0302: real time   55.0453

 eigenvalue-minimisations  : 11720
 total energy-change (2. order) : 0.7350196E-02  (-0.5296454E-02)
 number of electron     376.0000441 magnetization 
 augmentation part      152.4364303 magnetization 

 Broyden mixing:
  rms(total) = 0.98260E-01    rms(broyden)= 0.98027E-01
  rms(prec ) = 0.12734E+00
  weight for this iteration     100.00

 eigenvalues of (default mixing * dielectric matrix)
  average eigenvalue GAMMA=   0.7037
  2.3038  1.3371  1.3371  0.6635  0.6635  0.3142  0.3142  0.1375  0.2665  0.1776
  0.2261

 Free energy of the ion-electron system (eV)
  ---------------------------------------------------
  alpha Z        PSCENC =       918.22725072
  Ewald energy   TEWEN  =     22997.49690179
  -Hartree energ DENC   =    -55495.07726880
  -exchange      EXHF   =         0.00000000
  -V(xc)+E(xc)   XCENC  =     -1003.27854053
  PAW double counting   =     34971.26365313   -32817.98147108
  entropy T*S    EENTRO =        -5.52549484
  eigenvalues    EBANDS =        78.95902751
  atomic energy  EATOM  =     30161.86332653
  Solvation  Ediel_sol  =         0.00000000
  ---------------------------------------------------
  free energy    TOTEN  =      -194.05261557 eV

  energy without entropy =     -188.52712073  energy(sigma->0) =     -191.28986815


--------------------------------------------------------------------------------------------------------




--------------------------------------- Iteration      1(  17)  ---------------------------------------


    POTLOK:  cpu time    0.1540: real time    0.1640
    SETDIJ:  cpu time    0.0410: real time    0.0410
     EDDAV:  cpu time   54.2450: real time   54.2510
       DOS:  cpu time    0.0221: real time    0.0221
    CHARGE:  cpu time    2.4069: real time    2.4072
    MIXING:  cpu time    0.0107: real time    0.0107
    --------------------------------------------
      LOOP:  cpu time   56.8797: real time   56.8961

 eigenvalue-minimisations  : 12248
 total energy-change (2. order) : 0.5829275E-02  (-0.1280807E-02)
 number of electron     376.0000442 magnetization 
 augmentation part      152.4534076 magnetization 

 Broyden mixing:
  rms(total) = 0.54800E-01    rms(broyden)= 0.54764E-01
  rms(prec ) = 0.71708E-01
  weight for this iteration     100.00

 eigenvalues of (default mixing * dielectric matrix)
  average eigenvalue GAMMA=   0.7206
  2.2434  1.8212  1.2504  0.7381  0.7381  0.4500  0.1375  0.3111  0.3111  0.1785
  0.2480  0.2194

 Free energy of the ion-electron system (eV)
  ---------------------------------------------------
  alpha Z        PSCENC =       918.22725072
  Ewald energy   TEWEN  =     22997.49690179
  -Hartree energ DENC   =    -55496.61266823
  -exchange      EXHF   =         0.00000000
  -V(xc)+E(xc)   XCENC  =     -1003.25625724
  PAW double counting   =     34962.80212254   -32809.38439477
  entropy T*S    EENTRO =        -5.52075903
  eigenvalues    EBANDS =        80.33769139
  atomic energy  EATOM  =     30161.86332653
  Solvation  Ediel_sol  =         0.00000000
  ---------------------------------------------------
  free energy    TOTEN  =      -194.04678630 eV

  energy without entropy =     -188.52602727  energy(sigma->0) =     -191.28640678


--------------------------------------------------------------------------------------------------------




--------------------------------------- Iteration      1(  18)  ---------------------------------------


    POTLOK:  cpu time    0.1541: real time    0.1636
    SETDIJ:  cpu time    0.0411: real time    0.0411
     EDDAV:  cpu time   53.4682: real time   53.4767
       DOS:  cpu time    0.0219: real time    0.0219
    CHARGE:  cpu time    2.4125: real time    2.4127
    MIXING:  cpu time    0.0117: real time    0.0117
    --------------------------------------------
      LOOP:  cpu time   56.1096: real time   56.1278

 eigenvalue-minimisations  : 12024
 total energy-change (2. order) : 0.1953999E-02  (-0.4036918E-03)
 number of electron     376.0000442 magnetization 
 augmentation part      152.4448105 magnetization 

 Broyden mixing:
  rms(total) = 0.24082E-01    rms(broyden)= 0.24054E-01
  rms(prec ) = 0.30803E-01
  weight for this iteration     100.00

 eigenvalues of (default mixing * dielectric matrix)
  average eigenvalue GAMMA=   0.7333
  2.1734  2.1734  1.2270  0.7735  0.7735  0.5070  0.5070  0.1375  0.3048  0.3048
  0.2538  0.1786  0.2179

 Free energy of the ion-electron system (eV)
  ---------------------------------------------------
  alpha Z        PSCENC =       918.22725072
  Ewald energy   TEWEN  =     22997.49690179
  -Hartree energ DENC   =    -55499.22403698
  -exchange      EXHF   =         0.00000000
  -V(xc)+E(xc)   XCENC  =     -1003.21865335
  PAW double counting   =     34949.38232233   -32795.78157675
  entropy T*S    EENTRO =        -5.52166008
  eigenvalues    EBANDS =        82.73129349
  atomic energy  EATOM  =     30161.86332653
  Solvation  Ediel_sol  =         0.00000000
  ---------------------------------------------------
  free energy    TOTEN  =      -194.04483230 eV

  energy without entropy =     -188.52317221  energy(sigma->0) =     -191.28400226


--------------------------------------------------------------------------------------------------------




--------------------------------------- Iteration      1(  19)  ---------------------------------------


    POTLOK:  cpu time    0.1541: real time    0.1640
    SETDIJ:  cpu time    0.0410: real time    0.0411
     EDDAV:  cpu time   51.8364: real time   51.8414
       DOS:  cpu time    0.0225: real time    0.0226
    CHARGE:  cpu time    2.4185: real time    2.4188
    MIXING:  cpu time    0.0122: real time    0.0122
    --------------------------------------------
      LOOP:  cpu time   54.4848: real time   54.5000

 eigenvalue-minimisations  : 11552
 total energy-change (2. order) :-0.2607814E-03  (-0.2471018E-03)
 number of electron     376.0000441 magnetization 
 augmentation part      152.4434894 magnetization 

 Broyden mixing:
  rms(total) = 0.20186E-01    rms(broyden)= 0.20168E-01
  rms(prec ) = 0.26930E-01
  weight for this iteration     100.00

 eigenvalues of (default mixing * dielectric matrix)
  average eigenvalue GAMMA=   0.7531
  2.3157  2.3157  1.2141  0.8923  0.8923  0.7524  0.4851  0.1375  0.3072  0.3072
  0.1785  0.2748  0.2540  0.2171

 Free energy of the ion-electron system (eV)
  ---------------------------------------------------
  alpha Z        PSCENC =       918.22725072
  Ewald energy   TEWEN  =     22997.49690179
  -Hartree energ DENC   =    -55500.90178258
  -exchange      EXHF   =         0.00000000
  -V(xc)+E(xc)   XCENC  =     -1003.20095987
  PAW double counting   =     34940.53844804   -32786.85412023
  entropy T*S    EENTRO =        -5.52025243
  eigenvalues    EBANDS =        84.30609494
  atomic energy  EATOM  =     30161.86332653
  Solvation  Ediel_sol  =         0.00000000
  ---------------------------------------------------
  free energy    TOTEN  =      -194.04509308 eV

  energy without entropy =     -188.52484065  energy(sigma->0) =     -191.28496687


--------------------------------------------------------------------------------------------------------




--------------------------------------- Iteration      1(  20)  ---------------------------------------


    POTLOK:  cpu time    0.1610: real time    0.1690
    SETDIJ:  cpu time    0.0427: real time    0.0427
     EDDAV:  cpu time   51.6333: real time   51.6439
       DOS:  cpu time    0.0216: real time    0.0216
    CHARGE:  cpu time    2.4065: real time    2.4073
    MIXING:  cpu time    0.0128: real time    0.0128
    --------------------------------------------
      LOOP:  cpu time   54.2780: real time   54.2974

 eigenvalue-minimisations  : 11504
 total energy-change (2. order) :-0.5654913E-04  (-0.1217689E-03)
 number of electron     376.0000441 magnetization 
 augmentation part      152.4372137 magnetization 

 Broyden mixing:
  rms(total) = 0.10821E-01    rms(broyden)= 0.10810E-01
  rms(prec ) = 0.14816E-01
  weight for this iteration     100.00

 eigenvalues of (default mixing * dielectric matrix)
  average eigenvalue GAMMA=   0.7565
  2.3796  2.3796  1.3068  0.8987  0.8987  0.8013  0.5640  0.4688  0.1375  0.3056
  0.3056  0.1785  0.2170  0.2622  0.2441

 Free energy of the ion-electron system (eV)
  ---------------------------------------------------
  alpha Z        PSCENC =       918.22725072
  Ewald energy   TEWEN  =     22997.49690179
  -Hartree energ DENC   =    -55502.58934156
  -exchange      EXHF   =         0.00000000
  -V(xc)+E(xc)   XCENC  =     -1003.19009974
  PAW double counting   =     34931.94442782   -32778.20993598
  entropy T*S    EENTRO =        -5.52239132
  eigenvalues    EBANDS =        85.93471211
  atomic energy  EATOM  =     30161.86332653
  Solvation  Ediel_sol  =         0.00000000
  ---------------------------------------------------
  free energy    TOTEN  =      -194.04514963 eV

  energy without entropy =     -188.52275831  energy(sigma->0) =     -191.28395397


--------------------------------------------------------------------------------------------------------




--------------------------------------- Iteration      1(  21)  ---------------------------------------


    POTLOK:  cpu time    0.1546: real time    0.1652
    SETDIJ:  cpu time    0.0412: real time    0.0412
     EDDAV:  cpu time   52.4655: real time   52.4707
       DOS:  cpu time    0.0225: real time    0.0225
    CHARGE:  cpu time    2.4092: real time    2.4097
    MIXING:  cpu time    0.0135: real time    0.0135
    --------------------------------------------
      LOOP:  cpu time   55.1065: real time   55.1228

 eigenvalue-minimisations  : 11744
 total energy-change (2. order) :-0.1139798E-03  (-0.4699917E-04)
 number of electron     376.0000441 magnetization 
 augmentation part      152.4352176 magnetization 

 Broyden mixing:
  rms(total) = 0.89060E-02    rms(broyden)= 0.89002E-02
  rms(prec ) = 0.11775E-01
  weight for this iteration     100.00

 eigenvalues of (default mixing * dielectric matrix)
  average eigenvalue GAMMA=   0.7828
  2.5112  2.5112  1.5847  1.1159  0.8402  0.8402  0.7070  0.4851  0.1375  0.3033
  0.3033  0.3025  0.1785  0.2524  0.2167  0.2350

 Free energy of the ion-electron system (eV)
  ---------------------------------------------------
  alpha Z        PSCENC =       918.22725072
  Ewald energy   TEWEN  =     22997.49690179
  -Hartree energ DENC   =    -55503.45314798
  -exchange      EXHF   =         0.00000000
  -V(xc)+E(xc)   XCENC  =     -1003.18426337
  PAW double counting   =     34927.73695457   -32773.99059818
  entropy T*S    EENTRO =        -5.52291340
  eigenvalues    EBANDS =        86.78122570
  atomic energy  EATOM  =     30161.86332653
  Solvation  Ediel_sol  =         0.00000000
  ---------------------------------------------------
  free energy    TOTEN  =      -194.04526361 eV

  energy without entropy =     -188.52235021  energy(sigma->0) =     -191.28380691


--------------------------------------------------------------------------------------------------------




--------------------------------------- Iteration      1(  22)  ---------------------------------------


    POTLOK:  cpu time    0.1543: real time    0.1650
    SETDIJ:  cpu time    0.0411: real time    0.0411
     EDDAV:  cpu time   51.2434: real time   51.2476
       DOS:  cpu time    0.0224: real time    0.0224
    CHARGE:  cpu time    2.4068: real time    2.4070
    MIXING:  cpu time    0.0144: real time    0.0144
    --------------------------------------------
      LOOP:  cpu time   53.8823: real time   53.8974

 eigenvalue-minimisations  : 11408
 total energy-change (2. order) :-0.9355092E-04  (-0.2359764E-04)
 number of electron     376.0000441 magnetization 
 augmentation part      152.4351589 magnetization 

 Broyden mixing:
  rms(total) = 0.50402E-02    rms(broyden)= 0.50379E-02
  rms(prec ) = 0.69960E-02
  weight for this iteration     100.00

 eigenvalues of (default mixing * dielectric matrix)
  average eigenvalue GAMMA=   0.7687
  2.6262  2.4459  1.6550  1.1616  0.8495  0.8495  0.6459  0.5271  0.4018  0.1375
  0.1785  0.2992  0.2992  0.2951  0.2502  0.2169  0.2290

 Free energy of the ion-electron system (eV)
  ---------------------------------------------------
  alpha Z        PSCENC =       918.22725072
  Ewald energy   TEWEN  =     22997.49690179
  -Hartree energ DENC   =    -55504.64686850
  -exchange      EXHF   =         0.00000000
  -V(xc)+E(xc)   XCENC  =     -1003.17404739
  PAW double counting   =     34922.22805205   -32768.46593401
  entropy T*S    EENTRO =        -5.52254238
  eigenvalues    EBANDS =        87.94850404
  atomic energy  EATOM  =     30161.86332653
  Solvation  Ediel_sol  =         0.00000000
  ---------------------------------------------------
  free energy    TOTEN  =      -194.04535716 eV

  energy without entropy =     -188.52281478  energy(sigma->0) =     -191.28408597


--------------------------------------------------------------------------------------------------------




--------------------------------------- Iteration      1(  23)  ---------------------------------------


    POTLOK:  cpu time    0.1539: real time    0.1639
    SETDIJ:  cpu time    0.0411: real time    0.0411
     EDDAV:  cpu time   50.3936: real time   50.3985
       DOS:  cpu time    0.0226: real time    0.0226
    CHARGE:  cpu time    2.4053: real time    2.4056
    MIXING:  cpu time    0.0150: real time    0.0150
    --------------------------------------------
      LOOP:  cpu time   53.0315: real time   53.0467

 eigenvalue-minimisations  : 11112
 total energy-change (2. order) :-0.4099942E-04  (-0.9051313E-05)
 number of electron     376.0000441 magnetization 
 augmentation part      152.4349429 magnetization 

 Broyden mixing:
  rms(total) = 0.41505E-02    rms(broyden)= 0.41492E-02
  rms(prec ) = 0.58656E-02
  weight for this iteration     100.00

 eigenvalues of (default mixing * dielectric matrix)
  average eigenvalue GAMMA=   0.8158
  2.7831  2.3183  2.1874  1.3096  0.9494  0.9494  0.7723  0.7723  0.4754  0.1375
  0.3119  0.3002  0.3002  0.1785  0.2516  0.2516  0.2155  0.2205

 Free energy of the ion-electron system (eV)
  ---------------------------------------------------
  alpha Z        PSCENC =       918.22725072
  Ewald energy   TEWEN  =     22997.49690179
  -Hartree energ DENC   =    -55505.07386734
  -exchange      EXHF   =         0.00000000
  -V(xc)+E(xc)   XCENC  =     -1003.17069002
  PAW double counting   =     34920.97498862   -32767.21326747
  entropy T*S    EENTRO =        -5.52234879
  eigenvalues    EBANDS =        88.37230780
  atomic energy  EATOM  =     30161.86332653
  Solvation  Ediel_sol  =         0.00000000
  ---------------------------------------------------
  free energy    TOTEN  =      -194.04539816 eV

  energy without entropy =     -188.52304937  energy(sigma->0) =     -191.28422376


--------------------------------------------------------------------------------------------------------




--------------------------------------- Iteration      1(  24)  ---------------------------------------


    POTLOK:  cpu time    0.1544: real time    0.1641
    SETDIJ:  cpu time    0.0412: real time    0.0411
     EDDAV:  cpu time   48.6780: real time   48.6827
       DOS:  cpu time    0.0222: real time    0.0222
    CHARGE:  cpu time    2.4093: real time    2.4095
    MIXING:  cpu time    0.0159: real time    0.0159
    --------------------------------------------
      LOOP:  cpu time   51.3209: real time   51.3356

 eigenvalue-minimisations  : 10592
 total energy-change (2. order) :-0.1232321E-03  (-0.7255067E-05)
 number of electron     376.0000441 magnetization 
 augmentation part      152.4351125 magnetization 

 Broyden mixing:
  rms(total) = 0.40905E-02    rms(broyden)= 0.40883E-02
  rms(prec ) = 0.64358E-02
  weight for this iteration     100.00

 eigenvalues of (default mixing * dielectric matrix)
  average eigenvalue GAMMA=   0.8257
  2.9616  2.4114  2.4114  1.3636  1.0428  0.8542  0.8542  0.7549  0.4805  0.1375
  0.3882  0.3200  0.3006  0.3006  0.1785  0.2514  0.2427  0.2172  0.2172

 Free energy of the ion-electron system (eV)
  ---------------------------------------------------
  alpha Z        PSCENC =       918.22725072
  Ewald energy   TEWEN  =     22997.49690179
  -Hartree energ DENC   =    -55506.09495994
  -exchange      EXHF   =         0.00000000
  -V(xc)+E(xc)   XCENC  =     -1003.16392467
  PAW double counting   =     34918.69714652   -32764.94842612
  entropy T*S    EENTRO =        -5.52200839
  eigenvalues    EBANDS =        89.39917217
  atomic energy  EATOM  =     30161.86332653
  Solvation  Ediel_sol  =         0.00000000
  ---------------------------------------------------
  free energy    TOTEN  =      -194.04552139 eV

  energy without entropy =     -188.52351300  energy(sigma->0) =     -191.28451719


--------------------------------------------------------------------------------------------------------




--------------------------------------- Iteration      1(  25)  ---------------------------------------


    POTLOK:  cpu time    0.1540: real time    0.1637
    SETDIJ:  cpu time    0.0411: real time    0.0411
     EDDAV:  cpu time   45.5222: real time   45.5269
       DOS:  cpu time    0.0224: real time    0.0224
    CHARGE:  cpu time    2.4007: real time    2.4008
    MIXING:  cpu time    0.0165: real time    0.0165
    --------------------------------------------
      LOOP:  cpu time   48.1568: real time   48.1715

 eigenvalue-minimisations  :  9632
 total energy-change (2. order) :-0.5254171E-04  (-0.4053444E-05)
 number of electron     376.0000441 magnetization 
 augmentation part      152.4347418 magnetization 

 Broyden mixing:
  rms(total) = 0.23818E-02    rms(broyden)= 0.23808E-02
  rms(prec ) = 0.35181E-02
  weight for this iteration     100.00

 eigenvalues of (default mixing * dielectric matrix)
  average eigenvalue GAMMA=   0.8547
  3.3761  2.5898  2.4483  1.4298  1.2306  0.8751  0.8751  0.6712  0.6712  0.4705
  0.1375  0.1785  0.3218  0.2997  0.2997  0.2883  0.2516  0.2444  0.2159  0.2180

 Free energy of the ion-electron system (eV)
  ---------------------------------------------------
  alpha Z        PSCENC =       918.22725072
  Ewald energy   TEWEN  =     22997.49690179
  -Hartree energ DENC   =    -55506.56766335
  -exchange      EXHF   =         0.00000000
  -V(xc)+E(xc)   XCENC  =     -1003.16209078
  PAW double counting   =     34917.90709542   -32764.16762178
  entropy T*S    EENTRO =        -5.52215809
  eigenvalues    EBANDS =        89.87938561
  atomic energy  EATOM  =     30161.86332653
  Solvation  Ediel_sol  =         0.00000000
  ---------------------------------------------------
  free energy    TOTEN  =      -194.04557393 eV

  energy without entropy =     -188.52341584  energy(sigma->0) =     -191.28449489


--------------------------------------------------------------------------------------------------------




--------------------------------------- Iteration      1(  26)  ---------------------------------------


    POTLOK:  cpu time    0.1549: real time    0.1620
    SETDIJ:  cpu time    0.0409: real time    0.0410
     EDDAV:  cpu time   36.8454: real time   36.8478
       DOS:  cpu time    0.0224: real time    0.0224
    CHARGE:  cpu time    2.4113: real time    2.4116
    MIXING:  cpu time    0.0175: real time    0.0175
    --------------------------------------------
      LOOP:  cpu time   39.4923: real time   39.5023

 eigenvalue-minimisations  :  7016
 total energy-change (2. order) :-0.5406499E-04  (-0.2252437E-05)
 number of electron     376.0000441 magnetization 
 augmentation part      152.4342401 magnetization 

 Broyden mixing:
  rms(total) = 0.18338E-02    rms(broyden)= 0.18279E-02
  rms(prec ) = 0.26962E-02
  weight for this iteration     100.00

 eigenvalues of (default mixing * dielectric matrix)
  average eigenvalue GAMMA=   0.8936
  3.8876  2.5958  2.2432  1.7742  1.0761  1.0761  0.9068  0.9068  0.6863  0.6863
  0.4774  0.1375  0.3172  0.3015  0.3015  0.1785  0.2839  0.2513  0.2431  0.2180
  0.2155

 Free energy of the ion-electron system (eV)
  ---------------------------------------------------
  alpha Z        PSCENC =       918.22725072
  Ewald energy   TEWEN  =     22997.49690179
  -Hartree energ DENC   =    -55506.93680012
  -exchange      EXHF   =         0.00000000
  -V(xc)+E(xc)   XCENC  =     -1003.16135710
  PAW double counting   =     34917.48820500   -32763.75789351
  entropy T*S    EENTRO =        -5.52251717
  eigenvalues    EBANDS =        90.25725586
  atomic energy  EATOM  =     30161.86332653
  Solvation  Ediel_sol  =         0.00000000
  ---------------------------------------------------
  free energy    TOTEN  =      -194.04562800 eV

  energy without entropy =     -188.52311083  energy(sigma->0) =     -191.28436941


--------------------------------------------------------------------------------------------------------




--------------------------------------- Iteration      1(  27)  ---------------------------------------


    POTLOK:  cpu time    0.1531: real time    0.1619
    SETDIJ:  cpu time    0.0406: real time    0.0406
[...]
      LOOP:  cpu time   54.9920: real time   55.0068

 eigenvalue-minimisations  : 11880
 total energy-change (2. order) :-0.5994985E-03  (-0.1399701E-04)
 number of electron     376.0000257 magnetization 
 augmentation part      152.6965699 magnetization 

 eigenvalues of (default mixing * dielectric matrix)
  average eigenvalue GAMMA=   0.9046
  2.8741  2.3585  1.7171  1.0475  0.8086  0.7455  0.0930  0.3153  0.1799  0.2222
  0.2465  0.2465

  free energy =  -0.202745232921E+03  energy without entropy=  -0.197516551467E+03


--------------------------------------------------------------------------------------------------------




--------------------------------------- Iteration    166(  14)  ---------------------------------------


    POTLOK:  cpu time    0.1443: real time    0.1443
    SETDIJ:  cpu time    0.0403: real time    0.0403
     EDDAV:  cpu time   51.2205: real time   51.2514
       DOS:  cpu time    0.0196: real time    0.0196
    CHARGE:  cpu time    2.2902: real time    2.2904
    MIXING:  cpu time    0.0114: real time    0.0114
    --------------------------------------------
      LOOP:  cpu time   53.7262: real time   53.7573

 eigenvalue-minimisations  : 11488
 total energy-change (2. order) :-0.7024680E-03  (-0.1797163E-04)
 number of electron     376.0000258 magnetization 
 augmentation part      152.6964643 magnetization 

 eigenvalues of (default mixing * dielectric matrix)
  average eigenvalue GAMMA=   0.8876
  3.0297  2.3772  1.7830  1.0482  0.7849  0.7709  0.4498  0.0930  0.3240  0.1800
  0.2551  0.2215  0.2215

  free energy =  -0.202745935389E+03  energy without entropy=  -0.197517273178E+03


--------------------------------------------------------------------------------------------------------




--------------------------------------- Iteration    166(  15)  ---------------------------------------


    POTLOK:  cpu time    0.1459: real time    0.1459
    SETDIJ:  cpu time    0.0404: real time    0.0404
     EDDAV:  cpu time   44.8525: real time   44.8684
       DOS:  cpu time    0.0192: real time    0.0192
    CHARGE:  cpu time    2.2939: real time    2.2941
    MIXING:  cpu time    0.0121: real time    0.0121
    --------------------------------------------
      LOOP:  cpu time   47.3639: real time   47.3800

 eigenvalue-minimisations  :  9536
 total energy-change (2. order) :-0.1649241E-03  (-0.3071000E-05)
 number of electron     376.0000258 magnetization 
 augmentation part      152.6964306 magnetization 

 eigenvalues of (default mixing * dielectric matrix)
  average eigenvalue GAMMA=   0.9060
  3.2229  2.3941  1.8608  1.0476  0.9956  0.8701  0.7134  0.0930  0.3180  0.1800
  0.2914  0.2552  0.2235  0.2179

  free energy =  -0.202746100313E+03  energy without entropy=  -0.197517430863E+03


--------------------------------------------------------------------------------------------------------




--------------------------------------- Iteration    166(  16)  ---------------------------------------


    POTLOK:  cpu time    0.1455: real time    0.1455
    SETDIJ:  cpu time    0.0404: real time    0.0404
     EDDAV:  cpu time   42.9591: real time   42.9640
       DOS:  cpu time    0.0195: real time    0.0195
    CHARGE:  cpu time    2.2938: real time    2.2940
    MIXING:  cpu time    0.0128: real time    0.0128
    --------------------------------------------
      LOOP:  cpu time   45.4709: real time   45.4762

 eigenvalue-minimisations  :  8976
 total energy-change (2. order) :-0.1692276E-03  (-0.2281725E-05)
 number of electron     376.0000258 magnetization 
 augmentation part      152.6964986 magnetization 

 eigenvalues of (default mixing * dielectric matrix)
  average eigenvalue GAMMA=   0.9248
  3.3783  2.4104  1.9167  1.2480  1.0668  0.7948  0.7420  0.7420  0.0930  0.3212
  0.2879  0.1800  0.2518  0.2217  0.2183

  free energy =  -0.202746269541E+03  energy without entropy=  -0.197517589029E+03


--------------------------------------------------------------------------------------------------------




--------------------------------------- Iteration    166(  17)  ---------------------------------------


    POTLOK:  cpu time    0.1453: real time    0.1453
    SETDIJ:  cpu time    0.0402: real time    0.0402
     EDDAV:  cpu time   40.5315: real time   40.5626
       DOS:  cpu time    0.0190: real time    0.0189
    CHARGE:  cpu time    2.2952: real time    2.2957
    MIXING:  cpu time    0.0134: real time    0.0134
    --------------------------------------------
      LOOP:  cpu time   43.0445: real time   43.0762

 eigenvalue-minimisations  :  8216
 total energy-change (2. order) :-0.7635503E-04  (-0.1075347E-05)
 number of electron     376.0000258 magnetization 
 augmentation part      152.6965464 magnetization 

 eigenvalues of (default mixing * dielectric matrix)
  average eigenvalue GAMMA=   0.9760
  3.8459  2.5237  2.1744  1.6807  1.0555  0.8758  0.8758  0.7216  0.0930  0.1800
  0.3209  0.2888  0.2888  0.2524  0.2217  0.2169

  free energy =  -0.202746345896E+03  energy without entropy=  -0.197517656512E+03


--------------------------------------------------------------------------------------------------------




--------------------------------------- Iteration    166(  18)  ---------------------------------------


    POTLOK:  cpu time    0.1458: real time    0.1460
    SETDIJ:  cpu time    0.0400: real time    0.0402
     EDDAV:  cpu time   39.7014: real time   39.7395
       DOS:  cpu time    0.0188: real time    0.0188
    CHARGE:  cpu time    2.2992: real time    2.2993
    MIXING:  cpu time    0.0140: real time    0.0140
    --------------------------------------------
      LOOP:  cpu time   42.2192: real time   42.2579

 eigenvalue-minimisations  :  7872
 total energy-change (2. order) :-0.3849561E-04  (-0.7737507E-06)
 number of electron     376.0000258 magnetization 
 augmentation part      152.6966076 magnetization 

 eigenvalues of (default mixing * dielectric matrix)
  average eigenvalue GAMMA=   0.9699
  4.0674  2.5988  2.2200  1.6452  1.0795  0.8725  0.8725  0.7204  0.5682  0.0930
  0.1800  0.3205  0.3058  0.2220  0.2179  0.2526  0.2526

  free energy =  -0.202746384391E+03  energy without entropy=  -0.197517695186E+03


--------------------------------------------------------------------------------------------------------




--------------------------------------- Iteration    166(  19)  ---------------------------------------


    POTLOK:  cpu time    0.1460: real time    0.1460
    SETDIJ:  cpu time    0.0402: real time    0.0402
     EDDAV:  cpu time   36.5867: real time   36.5914
       DOS:  cpu time    0.0188: real time    0.0188
    --------------------------------------------
      LOOP:  cpu time   36.7918: real time   36.7964

 eigenvalue-minimisations  :  7048
 total energy-change (2. order) :-0.4761911E-05  (-0.1338891E-06)
 number of electron     376.0000258 magnetization 
 augmentation part      152.6966076 magnetization 

  free energy =  -0.202746389153E+03  energy without entropy=  -0.197517700662E+03


--------------------------------------------------------------------------------------------------------




------------------------ aborting loop because EDIFF is reached ----------------------------------------


    CHARGE:  cpu time    2.2784: real time    2.2786
    FORLOC:  cpu time    0.0761: real time    0.0761
    FORNL :  cpu time   10.5273: real time   10.5337
    STRESS:  cpu time   31.8905: real time   31.8929
    FORCOR:  cpu time    0.2248: real time    0.2249
    FORHAR:  cpu time    0.0992: real time    0.0992
    MIXING:  cpu time    0.0146: real time    0.0146
    OFIELD:  cpu time    0.0001: real time    0.0001

  FORCE on cell =-STRESS in cart. coord.  units (eV):
  Direction    XX          YY          ZZ          XY          YZ          ZX
  --------------------------------------------------------------------------------------
  Alpha Z   918.22725   918.22725   918.22725
  Ewald   42372.80636 42649.71071-62668.83919  -359.37028   -34.53718    15.84776
  Hartree 51457.25635 51591.78015-48110.45792  -172.39558   -17.31577     7.21594
  E(xc)   -1955.35675 -1954.63991 -1965.95497    -0.94916    -0.09168     0.03608
  Local  ************************104034.40735   498.63174    48.98479   -21.37862
  n-local  -201.14505  -202.71439  -240.88967     1.99579     0.13755     0.12972
  augment  2666.81548  2665.64080  2719.37640     1.57379     0.13100    -0.14998
  Kinetic  5196.94938  5173.60524  5312.87463    31.04334     3.13469    -1.80420
  Fock        0.00000     0.00000     0.00000     0.00000     0.00000     0.00000
  -------------------------------------------------------------------------------------
  Total     -12.81040   -13.08194    -1.25611     0.52964     0.44340    -0.10331
  in kB     -20.77060   -21.21087    -2.03664     0.85875     0.71892    -0.16750
  external pressure =      -14.67 kB  Pullay stress =        0.00 kB



--------------------------------------------------------------------------------------------------------



  FREE ENERGIE OF THE ION-ELECTRON SYSTEM (eV)
  ---------------------------------------------------
  free  energy   TOTEN  =      -202.74638915 eV

  energy  without entropy=     -197.51770066  energy(sigma->0) =     -200.13204491
 
 d Force =-0.4888969E-01[-0.412E+01, 0.402E+01]  d Energy =-0.3625174E-01-0.126E-01
 d Force = 0.1776299E+01[-0.215E+02, 0.251E+02]  d Ewald  = 0.1796008E+01-0.197E-01


--------------------------------------------------------------------------------------------------------


    POTLOK:  cpu time    0.1896: real time    0.1896


--------------------------------------------------------------------------------------------------------


 NEB: the previous image is higher in energy: F
 NEB: the next image is higher in energy    : F
 NEB: image is at an extrema
 NEB: diff energy (min, max):     0.091829    0.693611

 NEB: Tangent
 ----------------------------------------------
      0.00051      0.00133      0.00817
      0.00000      0.00000      0.00000
      0.00003      0.00011      0.00624
     -0.00338     -0.00123      0.01017
      0.00000      0.00000      0.00000
     -0.00005     -0.00056      0.00226
     -0.00136     -0.00146      0.00281
      0.00000      0.00000      0.00000
      0.00091     -0.00049      0.00421
      0.00253     -0.00149      0.00730
      0.00000      0.00000      0.00000
      0.00082     -0.00064      0.00548
     -0.00009     -0.00765      0.01211
      0.00000      0.00000      0.00000
      0.00092     -0.00047      0.00137
     -0.00197     -0.00260      0.00363
      0.00000      0.00000      0.00000
      0.00048     -0.00068      0.00319
      0.00030      0.00054      0.00526
      0.00000      0.00000      0.00000
      0.00022      0.00018      0.00484
      0.00039     -0.00265      0.00723
      0.00000      0.00000      0.00000
     -0.00049     -0.00079      0.00199
     -0.00137     -0.00303      0.00248
      0.00000      0.00000      0.00000
      0.00021      0.00045      0.00402
      0.00000      0.00000      0.00000
      0.00000      0.00000      0.00000
      0.00000      0.00000      0.00000
      0.00000      0.00000      0.00000
      0.00000      0.00000      0.00000
      0.00000      0.00000      0.00000
      0.00000      0.00000      0.00000
      0.00000      0.00000      0.00000
      0.00000      0.00000      0.00000
      0.00485      0.00417      0.60173
     -0.03712     -0.02803      0.56328
      0.04295      0.00387      0.56199

 NEB: forces: par spring, perp REAL, dneb     0.103701   20.603971    0.000000
 NEB: distance to prev, next image, angle between     1.693877    1.714617  149.363070
 NEB: projections on to tangent (spring, REAL)     0.103701   -0.000720

 stress matrix after NEB project (eV)
    -12.81040      0.52964     -0.10331
      0.52964    -13.08194      0.44340
     -0.10331      0.44340     -1.25611
  FORCES: max atom, RMS    16.826245    3.299276
  FORCE total and by dimension   20.603971   13.811660
  Stress total and by dimension   18.379255   13.081940
 
 OPT: Flag T
 OPT: QM Step


--------------------------------------------------------------------------------------------------------


    WAVPRE:  cpu time    0.1199: real time    0.1228
    FEWALD:  cpu time    0.0045: real time    0.0045

 real space projection operators:
  total allocation   :       9689.58 KBytes
  max/ min on nodes  :       4845.36       4844.22

    ORTHCH:  cpu time    4.6927: real time    4.6935
     LOOP+:  cpu time 1029.0731: real time 1029.3732


--------------------------------------- Iteration    167(   1)  ---------------------------------------


    POTLOK:  cpu time    0.1594: real time    0.1606
    SETDIJ:  cpu time    0.0402: real time    0.0402
     EDDAV:  cpu time   50.4608: real time   50.4682
       DOS:  cpu time    0.0197: real time    0.0197
    CHARGE:  cpu time    2.3824: real time    2.3828
    MIXING:  cpu time    0.0186: real time    0.0186
    --------------------------------------------
      LOOP:  cpu time   53.0816: real time   53.0906

 eigenvalue-minimisations  : 11248
 total energy-change (2. order) :-0.6774803E-01  (-0.1749985E+02)
 number of electron     376.0000257 magnetization 
 augmentation part      152.7009676 magnetization 

  free energy =  -0.202814132418E+03  energy without entropy=  -0.197586205712E+03


--------------------------------------------------------------------------------------------------------




--------------------------------------- Iteration    167(   2)  ---------------------------------------


    POTLOK:  cpu time    0.1513: real time    0.1513
    SETDIJ:  cpu time    0.0403: real time    0.0403
     EDDAV:  cpu time   50.4082: real time   50.4152
       DOS:  cpu time    0.0189: real time    0.0189
    CHARGE:  cpu time    2.3778: real time    2.3779
    MIXING:  cpu time    0.0058: real time    0.0058
    --------------------------------------------
      LOOP:  cpu time   53.0021: real time   53.0092

 eigenvalue-minimisations  : 11224
 total energy-change (2. order) :-0.1704938E+00  (-0.4865906E+00)
 number of electron     376.0000256 magnetization 
 augmentation part      152.7027498 magnetization 

 eigenvalues of (default mixing * dielectric matrix)
  average eigenvalue GAMMA=   1.4079
  1.4079

  free energy =  -0.202984626238E+03  energy without entropy=  -0.197756027503E+03


--------------------------------------------------------------------------------------------------------




--------------------------------------- Iteration    167(   3)  ---------------------------------------


    POTLOK:  cpu time    0.1458: real time    0.1458
    SETDIJ:  cpu time    0.0407: real time    0.0407
     EDDAV:  cpu time   53.7689: real time   53.7784
       DOS:  cpu time    0.0195: real time    0.0195
    CHARGE:  cpu time    2.3789: real time    2.3791
    MIXING:  cpu time    0.0061: real time    0.0061
    --------------------------------------------
      LOOP:  cpu time   56.3600: real time   56.3697

 eigenvalue-minimisations  : 12184
 total energy-change (2. order) : 0.1655087E+00  (-0.3103845E-01)
 number of electron     376.0000257 magnetization 
 augmentation part      152.6989225 magnetization 

 eigenvalues of (default mixing * dielectric matrix)
  average eigenvalue GAMMA=   1.4444
  0.7235  2.1654

  free energy =  -0.202819117575E+03  energy without entropy=  -0.197590924729E+03


--------------------------------------------------------------------------------------------------------




--------------------------------------- Iteration    167(   4)  ---------------------------------------


    POTLOK:  cpu time    0.1445: real time    0.1445
    SETDIJ:  cpu time    0.0408: real time    0.0408
     EDDAV:  cpu time   53.1589: real time   53.1905
       DOS:  cpu time    0.0195: real time    0.0195
    CHARGE:  cpu time    2.3509: real time    2.3511
    MIXING:  cpu time    0.0066: real time    0.0066
    --------------------------------------------
      LOOP:  cpu time   55.7211: real time   55.7530

 eigenvalue-minimisations  : 12032
 total energy-change (2. order) :-0.1288060E+00  (-0.3184205E-01)
 number of electron     376.0000255 magnetization 
 augmentation part      152.6849171 magnetization 

 eigenvalues of (default mixing * dielectric matrix)
  average eigenvalue GAMMA=   1.0403
  2.2226  0.7497  0.1487

  free energy =  -0.202947923559E+03  energy without entropy=  -0.197758376314E+03


--------------------------------------------------------------------------------------------------------




--------------------------------------- Iteration    167(   5)  ---------------------------------------


    POTLOK:  cpu time    0.1454: real time    0.1454
    SETDIJ:  cpu time    0.0406: real time    0.0407
     EDDAV:  cpu time   54.6332: real time   54.6396
       DOS:  cpu time    0.0192: real time    0.0192
    CHARGE:  cpu time    2.3489: real time    2.3491
    MIXING:  cpu time    0.0070: real time    0.0070
    --------------------------------------------
      LOOP:  cpu time   57.1944: real time   57.2009

 eigenvalue-minimisations  : 12480
 total energy-change (2. order) : 0.1476373E+00  (-0.2740057E-01)
 number of electron     376.0000256 magnetization 
 augmentation part      152.6920815 magnetization 

 eigenvalues of (default mixing * dielectric matrix)
  average eigenvalue GAMMA=   0.8602
  2.2432  0.7670  0.3332  0.0972

  free energy =  -0.202800286290E+03  energy without entropy=  -0.197577974541E+03


--------------------------------------------------------------------------------------------------------




--------------------------------------- Iteration    167(   6)  ---------------------------------------


    POTLOK:  cpu time    0.1460: real time    0.1460
    SETDIJ:  cpu time    0.0405: real time    0.0405
     EDDAV:  cpu time   52.9638: real time   52.9700
       DOS:  cpu time    0.0195: real time    0.0196
    CHARGE:  cpu time    2.3505: real time    2.3508
    MIXING:  cpu time    0.0073: real time    0.0074
    --------------------------------------------
      LOOP:  cpu time   55.5276: real time   55.5342

 eigenvalue-minimisations  : 11992
 total energy-change (2. order) : 0.2111478E-01  (-0.6420250E-02)
 number of electron     376.0000257 magnetization 
 augmentation part      152.7008314 magnetization 

 eigenvalues of (default mixing * dielectric matrix)
  average eigenvalue GAMMA=   0.8152
  2.2495  0.7861  0.7217  0.2256  0.0932

  free energy =  -0.202779171508E+03  energy without entropy=  -0.197550510113E+03


--------------------------------------------------------------------------------------------------------




--------------------------------------- Iteration    167(   7)  ---------------------------------------


    POTLOK:  cpu time    0.1458: real time    0.1458
    SETDIJ:  cpu time    0.0409: real time    0.0409
     EDDAV:  cpu time   51.5929: real time   51.6003
       DOS:  cpu time    0.0188: real time    0.0188
    CHARGE:  cpu time    2.2948: real time    2.2950
    MIXING:  cpu time    0.0085: real time    0.0085
    --------------------------------------------
      LOOP:  cpu time   54.1017: real time   54.1094

 eigenvalue-minimisations  : 11584
 total energy-change (2. order) : 0.7559487E-03  (-0.1132317E-02)
 number of electron     376.0000256 magnetization 
 augmentation part      152.6913742 magnetization 

 eigenvalues of (default mixing * dielectric matrix)
  average eigenvalue GAMMA=   0.7473
  2.2511  0.7924  0.7924  0.3440  0.2105  0.0934

  free energy =  -0.202778415559E+03  energy without entropy=  -0.197550915453E+03


--------------------------------------------------------------------------------------------------------




--------------------------------------- Iteration    167(   8)  ---------------------------------------


    POTLOK:  cpu time    0.1435: real time    0.1435
    SETDIJ:  cpu time    0.0403: real time    0.0403
