 vasp.5.4.4.18Apr17-6-g9f103f2a35 (build Aug 09 2024 17:42:55) complex          
  
 POSCAR found type information on POSCAR  Pd C  O 
 03/POSCAR found :  3 types and      39 ions
 scaLAPACK will be used
 LDA part: xc-table for Pade appr. of Perdew
 POSCAR found type information on POSCAR  Pd C  O 
 00/POSCAR found :  3 types and      39 ions
 POSCAR found type information on POSCAR  Pd C  O 
 05/POSCAR found :  3 types and      39 ions
 Jacobian:    18.3422329801906     
 POSCAR, INCAR and KPOINTS ok, starting setup
 FFT: planning ...
 WAVECAR not read
 entering main loop
       N       E                     dE             d eps       ncg     rms          rms(c)
DAV:   1     0.208043262710E+04    0.20804E+04   -0.15181E+05 11144   0.114E+03
DAV:   2    -0.898366673523E+02   -0.21703E+04   -0.20415E+04 12064   0.288E+02
DAV:   3    -0.202985256928E+03   -0.11315E+03   -0.10150E+03 12616   0.597E+01
DAV:   4    -0.206564307793E+03   -0.35791E+01   -0.35200E+01 12184   0.107E+01
DAV:   5    -0.206694245830E+03   -0.12994E+00   -0.12965E+00 14848   0.196E+00    0.416E+01
DAV:   6    -0.213374605856E+03   -0.66804E+01   -0.47922E+01 14352   0.239E+01    0.416E+01
DAV:   7    -0.207168759896E+03    0.62058E+01   -0.24303E+01 14936   0.232E+01    0.317E+01
DAV:   8    -0.218120343036E+03   -0.10952E+02   -0.34953E+01 13752   0.402E+01    0.378E+01
DAV:   9    -0.198708656413E+03    0.19412E+02   -0.16062E+01 14632   0.253E+01    0.147E+01
DAV:  10    -0.195247836985E+03    0.34608E+01   -0.72537E+00 12584   0.106E+01    0.944E+00
DAV:  11    -0.194755114426E+03    0.49272E+00   -0.34144E+00 11856   0.883E+00    0.859E+00
DAV:  12    -0.194415611622E+03    0.33950E+00   -0.15152E+00 11952   0.631E+00    0.585E+00
DAV:  13    -0.194223530613E+03    0.19208E+00   -0.13947E+00 11784   0.634E+00    0.460E+00
DAV:  14    -0.194073248400E+03    0.15028E+00   -0.30087E-01 12104   0.257E+00    0.210E+00
DAV:  15    -0.194059965768E+03    0.13283E-01   -0.99878E-02 12456   0.157E+00    0.136E+00
DAV:  16    -0.194052615572E+03    0.73502E-02   -0.52965E-02 11720   0.112E+00    0.983E-01
DAV:  17    -0.194046786297E+03    0.58293E-02   -0.12808E-02 12248   0.515E-01    0.548E-01
DAV:  18    -0.194044832299E+03    0.19540E-02   -0.40369E-03 12024   0.274E-01    0.241E-01
DAV:  19    -0.194045093080E+03   -0.26078E-03   -0.24710E-03 11552   0.220E-01    0.202E-01
DAV:  20    -0.194045149629E+03   -0.56549E-04   -0.12177E-03 11504   0.172E-01    0.108E-01
DAV:  21    -0.194045263609E+03   -0.11398E-03   -0.46999E-04 11744   0.108E-01    0.891E-02
DAV:  22    -0.194045357160E+03   -0.93551E-04   -0.23598E-04 11408   0.731E-02    0.504E-02
DAV:  23    -0.194045398159E+03   -0.40999E-04   -0.90513E-05 11112   0.454E-02    0.415E-02
DAV:  24    -0.194045521391E+03   -0.12323E-03   -0.72551E-05 10592   0.342E-02    0.409E-02
DAV:  25    -0.194045573933E+03   -0.52542E-04   -0.40534E-05  9632   0.293E-02    0.238E-02
DAV:  26    -0.194045627998E+03   -0.54065E-04   -0.22524E-05  7016   0.208E-02    0.183E-02
DAV:  27    -0.194045662759E+03   -0.34761E-04   -0.92988E-06  6968   0.125E-02    0.991E-03
DAV:  28    -0.194045676040E+03   -0.13281E-04   -0.41043E-06  6712   0.905E-03    0.651E-03
DAV:  29    -0.194045692629E+03   -0.16590E-04   -0.26813E-06  6856   0.518E-03    0.444E-03
DAV:  30    -0.194045697289E+03   -0.46597E-05   -0.10168E-06  6560   0.397E-03
   1 F= -.19404570E+03 E0= -.19128440E+03  d E =-.194046E+03
quench:  g(F)=  0.000E+00 g(S)=  0.000E+00 dE (1.order)= 0.000E+00
 bond charge predicted
       N       E                     dE             d eps       ncg     rms          rms(c)
DAV:   1    -0.194996470869E+03   -0.95078E+00   -0.44476E+01 11136   0.121E+01    0.187E+00
DAV:   2    -0.195338645076E+03   -0.34217E+00   -0.22905E+00 13568   0.225E+00    0.585E+00
DAV:   3    -0.195097930373E+03    0.24071E+00   -0.43837E-01 14208   0.201E+00    0.245E+00
DAV:   4    -0.195092442981E+03    0.54874E-02   -0.15069E-01 11784   0.158E+00    0.165E+00
DAV:   5    -0.195073755019E+03    0.18688E-01   -0.57825E-02 12752   0.103E+00    0.711E-01
DAV:   6    -0.195077385263E+03   -0.36302E-02   -0.18371E-02 11584   0.713E-01    0.860E-01
DAV:   7    -0.195071971900E+03    0.54134E-02   -0.10681E-02 13096   0.638E-01    0.385E-01
DAV:   8    -0.195072267902E+03   -0.29600E-03   -0.55128E-03 12136   0.354E-01    0.355E-01
DAV:   9    -0.195071036728E+03    0.12312E-02   -0.23617E-03 11560   0.270E-01    0.944E-02
DAV:  10    -0.195071086845E+03   -0.50117E-04   -0.48425E-04 12048   0.947E-02    0.966E-02
DAV:  11    -0.195071061852E+03    0.24993E-04   -0.22092E-04 11480   0.709E-02    0.401E-02
DAV:  12    -0.195071084964E+03   -0.23112E-04   -0.75419E-05 11032   0.442E-02    0.337E-02
DAV:  13    -0.195071110209E+03   -0.25245E-04   -0.27808E-05  7608   0.279E-02    0.138E-02
DAV:  14    -0.195071128280E+03   -0.18071E-04   -0.11916E-05  6640   0.172E-02    0.144E-02
DAV:  15    -0.195071149014E+03   -0.20734E-04   -0.70441E-06  6800   0.126E-02    0.807E-03
DAV:  16    -0.195071161209E+03   -0.12194E-04   -0.34408E-06  6576   0.805E-03    0.921E-03
DAV:  17    -0.195071173765E+03   -0.12556E-04   -0.29368E-06  6664   0.718E-03    0.383E-03
DAV:  18    -0.195071180378E+03   -0.66135E-05   -0.11712E-06  6568   0.349E-03
   2 F= -.19507118E+03 E0= -.19232377E+03  d E =-.102548E+01
quench:  g(F)=  0.000E+00 g(S)=  0.000E+00 dE (1.order)= 0.000E+00
 bond charge predicted
       N       E                     dE             d eps       ncg     rms          rms(c)
DAV:   1    -0.197050929568E+03   -0.19798E+01   -0.19128E+02 11248   0.240E+01    0.375E+00
DAV:   2    -0.197763135838E+03   -0.71221E+00   -0.73246E+00 11440   0.319E+00    0.536E+00
DAV:   3    -0.197793085031E+03   -0.29949E-01   -0.10402E+00 16120   0.228E+00    0.573E+00
DAV:   4    -0.197596932241E+03    0.19615E+00   -0.56528E-01 13008   0.250E+00    0.278E+00
DAV:   5    -0.197580476549E+03    0.16456E-01   -0.27768E-01 11960   0.237E+00    0.228E+00
DAV:   6    -0.197550919116E+03    0.29557E-01   -0.96034E-02 11696   0.159E+00    0.147E+00
DAV:   7    -0.197538706848E+03    0.12212E-01   -0.57282E-02 11864   0.139E+00    0.105E+00
DAV:   8    -0.197534578527E+03    0.41283E-02   -0.28803E-02 11784   0.905E-01    0.856E-01
DAV:   9    -0.197527086314E+03    0.74922E-02   -0.11890E-02 11568   0.638E-01    0.239E-01
DAV:  10    -0.197527253719E+03   -0.16741E-03   -0.29115E-03 11568   0.241E-01    0.262E-01
DAV:  11    -0.197526886696E+03    0.36702E-03   -0.13755E-03 11552   0.187E-01    0.125E-01
DAV:  12    -0.197527076395E+03   -0.18970E-03   -0.58397E-04 11528   0.116E-01    0.110E-01
DAV:  13    -0.197527110191E+03   -0.33796E-04   -0.36636E-04 11800   0.996E-02    0.404E-02
DAV:  14    -0.197527214857E+03   -0.10467E-03   -0.92766E-05 10992   0.439E-02    0.377E-02
DAV:  15    -0.197527253569E+03   -0.38712E-04   -0.44662E-05  9208   0.357E-02    0.215E-02
DAV:  16    -0.197527356734E+03   -0.10316E-03   -0.32189E-05  8064   0.229E-02    0.249E-02
DAV:  17    -0.197527386643E+03   -0.29910E-04   -0.16371E-05  7064   0.208E-02    0.141E-02
DAV:  18    -0.197527443537E+03   -0.56893E-04   -0.11444E-05  7360   0.114E-02    0.105E-02
DAV:  19    -0.197527455372E+03   -0.11835E-04   -0.37664E-06  6640   0.900E-03    0.540E-03
DAV:  20    -0.197527478095E+03   -0.22723E-04   -0.31040E-06  6880   0.441E-03    0.361E-03
DAV:  21    -0.197527483859E+03   -0.57639E-05   -0.10274E-06  6632   0.367E-03
   3 F= -.19752748E+03 E0= -.19479905E+03  d E =-.245630E+01
quench:  g(F)=  0.000E+00 g(S)=  0.000E+00 dE (1.order)= 0.000E+00
 bond charge predicted
       N       E                     dE             d eps       ncg     rms          rms(c)
DAV:   1    -0.197815054057E+03   -0.28758E+00   -0.21088E+02 11136   0.190E+01    0.594E+00
DAV:   2    -0.199383401290E+03   -0.15683E+01   -0.91658E+00 14104   0.399E+00    0.143E+01
DAV:   3    -0.198382090772E+03    0.10013E+01   -0.49427E+00 13800   0.348E+00    0.545E+00
DAV:   4    -0.199175347689E+03   -0.79326E+00   -0.17787E+00 12272   0.683E+00    0.106E+01
DAV:   5    -0.198177379040E+03    0.99797E+00   -0.17363E+00 13128   0.547E+00    0.222E+00
DAV:   6    -0.198171706657E+03    0.56724E-02   -0.16988E-01 11704   0.198E+00    0.237E+00
DAV:   7    -0.198128346970E+03    0.43360E-01   -0.85735E-02 11800   0.179E+00    0.129E+00
DAV:   8    -0.198129749835E+03   -0.14029E-02   -0.47893E-02 11664   0.115E+00    0.128E+00
DAV:   9    -0.198113538059E+03    0.16212E-01   -0.37000E-02 11576   0.105E+00    0.559E-01
DAV:  10    -0.198112767321E+03    0.77074E-03   -0.88340E-03 11792   0.437E-01    0.425E-01
DAV:  11    -0.198112080877E+03    0.68644E-03   -0.32428E-03 11832   0.294E-01    0.219E-01
DAV:  12    -0.198112423999E+03   -0.34312E-03   -0.14849E-03 11568   0.193E-01    0.195E-01
DAV:  13    -0.198112238992E+03    0.18501E-03   -0.71981E-04 11480   0.147E-01    0.569E-02
DAV:  14    -0.198112364670E+03   -0.12568E-03   -0.17911E-04 11584   0.608E-02    0.548E-02
DAV:  15    -0.198112447847E+03   -0.83176E-04   -0.97764E-05 10656   0.509E-02    0.295E-02
DAV:  16    -0.198112592261E+03   -0.14441E-03   -0.69283E-05  9344   0.374E-02    0.405E-02
DAV:  17    -0.198112648169E+03   -0.55907E-04   -0.41218E-05  8640   0.330E-02    0.149E-02
DAV:  18    -0.198112695729E+03   -0.47560E-04   -0.15007E-05  7160   0.172E-02    0.173E-02
DAV:  19    -0.198112724741E+03   -0.29012E-04   -0.87050E-06  6984   0.140E-02    0.757E-03
DAV:  20    -0.198112754858E+03   -0.30117E-04   -0.53048E-06  7096   0.756E-03    0.698E-03
DAV:  21    -0.198112767054E+03   -0.12196E-04   -0.23682E-06  6856   0.637E-03    0.385E-03
DAV:  22    -0.198112773835E+03   -0.67815E-05   -0.12572E-06  6496   0.370E-03
   4 F= -.19811277E+03 E0= -.19538957E+03  d E =-.585290E+00
quench:  g(F)=  0.000E+00 g(S)=  0.000E+00 dE (1.order)= 0.000E+00
 bond charge predicted
       N       E                     dE             d eps       ncg     rms          rms(c)
DAV:   1    -0.198523702729E+03   -0.41094E+00   -0.13942E+02 11136   0.113E+01    0.544E+00
DAV:   2    -0.199248565198E+03   -0.72486E+00   -0.69222E+00 17048   0.386E+00    0.939E+00
DAV:   3    -0.198561772829E+03    0.68679E+00   -0.14202E+00 16008   0.533E+00    0.643E+00
DAV:   4    -0.198556942738E+03    0.48301E-02   -0.15637E+00 12760   0.538E+00    0.584E+00
DAV:   5    -0.198407863387E+03    0.14908E+00   -0.68215E-01 12832   0.408E+00    0.415E+00
DAV:   6    -0.198253717880E+03    0.15415E+00   -0.29764E-01 12000   0.295E+00    0.154E+00
DAV:   7    -0.198234165348E+03    0.19553E-01   -0.47997E-02 12632   0.959E-01    0.691E-01
DAV:   8    -0.198236582728E+03   -0.24174E-02   -0.37042E-02 11504   0.926E-01    0.686E-01
DAV:   9    -0.198233391288E+03    0.31914E-02   -0.10413E-02 11600   0.572E-01    0.331E-01
DAV:  10    -0.198233049146E+03    0.34214E-03   -0.34687E-03 11520   0.293E-01    0.189E-01
DAV:  11    -0.198233886722E+03   -0.83758E-03   -0.11904E-03 11608   0.163E-01    0.149E-01
DAV:  12    -0.198234058528E+03   -0.17181E-03   -0.54225E-04 11744   0.128E-01    0.461E-02
DAV:  13    -0.198234625919E+03   -0.56739E-03   -0.17274E-04 11568   0.514E-02    0.434E-02
DAV:  14    -0.198234862740E+03   -0.23682E-03   -0.69846E-05 10352   0.409E-02    0.196E-02
DAV:  15    -0.198235375904E+03   -0.51316E-03   -0.87234E-05 10032   0.193E-02    0.148E-02
DAV:  16    -0.198235585493E+03   -0.20959E-03   -0.30244E-05  8784   0.193E-02    0.171E-02
DAV:  17    -0.198235757461E+03   -0.17197E-03   -0.25551E-05  8632   0.141E-02    0.733E-03
DAV:  18    -0.198235855325E+03   -0.97864E-04   -0.13717E-05  7856   0.982E-03    0.902E-03
DAV:  19    -0.198235902260E+03   -0.46935E-04   -0.70158E-06  7344   0.819E-03    0.439E-03
DAV:  20    -0.198235928426E+03   -0.26165E-04   -0.39317E-06  7200   0.487E-03    0.396E-03
DAV:  21    -0.198235936340E+03   -0.79149E-05   -0.13485E-06  6704   0.380E-03
   5 F= -.19823594E+03 E0= -.19554031E+03  d E =-.123163E+00
quench:  g(F)=  0.000E+00 g(S)=  0.000E+00 dE (1.order)= 0.000E+00
 bond charge predicted
       N       E                     dE             d eps       ncg     rms          rms(c)
DAV:   1    -0.199024140568E+03   -0.78821E+00   -0.62432E+01 11136   0.107E+01    0.224E+00
DAV:   2    -0.199131670243E+03   -0.10753E+00   -0.14049E+00 11368   0.123E+00    0.141E+00
DAV:   3    -0.199157409513E+03   -0.25739E-01   -0.14599E-01 16072   0.119E+00    0.214E+00
DAV:   4    -0.199123038835E+03    0.34371E-01   -0.11781E-01 13352   0.150E+00    0.141E+00
DAV:   5    -0.199136989582E+03   -0.13951E-01   -0.11037E-01 12792   0.158E+00    0.181E+00
DAV:   6    -0.199116300194E+03    0.20689E-01   -0.60621E-02 12720   0.128E+00    0.101E+00
DAV:   7    -0.199106048757E+03    0.10251E-01   -0.12242E-02 14088   0.622E-01    0.194E-01
DAV:   8    -0.199106497745E+03   -0.44899E-03   -0.32470E-03 11456   0.239E-01    0.224E-01
DAV:   9    -0.199106055488E+03    0.44226E-03   -0.10466E-03 11560   0.178E-01    0.805E-02
DAV:  10    -0.199106196265E+03   -0.14078E-03   -0.43259E-04 11448   0.989E-02    0.106E-01
DAV:  11    -0.199106165349E+03    0.30917E-04   -0.28759E-04 11640   0.887E-02    0.370E-02
DAV:  12    -0.199106229083E+03   -0.63734E-04   -0.10892E-04 11496   0.506E-02    0.453E-02
DAV:  13    -0.199106258142E+03   -0.29059E-04   -0.49367E-05  8424   0.376E-02    0.149E-02
DAV:  14    -0.199106298490E+03   -0.40348E-04   -0.15567E-05  7136   0.186E-02    0.157E-02
DAV:  15    -0.199106334813E+03   -0.36323E-04   -0.99486E-06  7088   0.154E-02    0.759E-03
DAV:  16    -0.199106376128E+03   -0.41315E-04   -0.84500E-06  7064   0.101E-02    0.114E-02
DAV:  17    -0.199106387912E+03   -0.11784E-04   -0.37203E-06  6752   0.902E-03    0.440E-03
DAV:  18    -0.199106405258E+03   -0.17345E-04   -0.27711E-06  6752   0.424E-03    0.339E-03
DAV:  19    -0.199106409060E+03   -0.38020E-05   -0.87891E-07  6664   0.365E-03
   6 F= -.19910641E+03 E0= -.19642624E+03  d E =-.870473E+00
quench:  g(F)=  0.000E+00 g(S)=  0.000E+00 dE (1.order)= 0.000E+00
 bond charge predicted
       N       E                     dE             d eps       ncg     rms          rms(c)
DAV:   1    -0.199966732883E+03   -0.86033E+00   -0.78489E+01 11136   0.145E+01    0.245E+00
DAV:   2    -0.200102289837E+03   -0.13556E+00   -0.16857E+00 12288   0.206E+00    0.252E+00
DAV:   3    -0.200066116804E+03    0.36173E-01   -0.22073E-01 11784   0.165E+00    0.193E+00
DAV:   4    -0.200069591621E+03   -0.34748E-02   -0.15717E-01 11640   0.179E+00    0.197E+00
DAV:   5    -0.200084583891E+03   -0.14992E-01   -0.15197E-01 12448   0.187E+00    0.215E+00
DAV:   6    -0.200044899946E+03    0.39684E-01   -0.54558E-02 12224   0.142E+00    0.490E-01
DAV:   7    -0.200046823787E+03   -0.19238E-02   -0.12223E-02 11416   0.566E-01    0.470E-01
DAV:   8    -0.200044557010E+03    0.22668E-02   -0.55511E-03 11496   0.423E-01    0.145E-01
DAV:   9    -0.200044601518E+03   -0.44508E-04   -0.11043E-03 11384   0.161E-01    0.136E-01
DAV:  10    -0.200044498590E+03    0.10293E-03   -0.45277E-04 11536   0.114E-01    0.639E-02
DAV:  11    -0.200044611996E+03   -0.11341E-03   -0.29213E-04 11368   0.841E-02    0.838E-02
DAV:  12    -0.200044592427E+03    0.19569E-04   -0.15241E-04 11496   0.657E-02    0.216E-02
DAV:  13    -0.200044618523E+03   -0.26096E-04   -0.30164E-05  7432   0.257E-02    0.204E-02
DAV:  14    -0.200044660349E+03   -0.41826E-04   -0.17760E-05  7256   0.196E-02    0.111E-02
DAV:  15    -0.200044690897E+03   -0.30548E-04   -0.10375E-05  6920   0.141E-02    0.149E-02
DAV:  16    -0.200044711924E+03   -0.21027E-04   -0.68690E-06  6848   0.120E-02    0.613E-03
DAV:  17    -0.200044725735E+03   -0.13812E-04   -0.29959E-06  6568   0.704E-03    0.674E-03
DAV:  18    -0.200044739166E+03   -0.13431E-04   -0.24646E-06  6792   0.607E-03    0.334E-03
DAV:  19    -0.200044744569E+03   -0.54022E-05   -0.10359E-06  6648   0.389E-03
   7 F= -.20004474E+03 E0= -.19740585E+03  d E =-.938336E+00
quench:  g(F)=  0.000E+00 g(S)=  0.000E+00 dE (1.order)= 0.000E+00
 bond charge predicted
       N       E                     dE             d eps       ncg     rms          rms(c)
DAV:   1    -0.201727908666E+03   -0.16832E+01   -0.15619E+02 11136   0.196E+01    0.330E+00
DAV:   2    -0.202043385623E+03   -0.31548E+00   -0.41572E+00 11544   0.260E+00    0.272E+00
DAV:   3    -0.202089264933E+03   -0.45879E-01   -0.25043E-01 12720   0.238E+00    0.358E+00
DAV:   4    -0.202023502395E+03    0.65763E-01   -0.33738E-01 12512   0.278E+00    0.237E+00
DAV:   5    -0.202020122397E+03    0.33800E-02   -0.17786E-01 11768   0.207E+00    0.202E+00
DAV:   6    -0.201983040450E+03    0.37082E-01   -0.11031E-01 11792   0.185E+00    0.753E-01
DAV:   7    -0.201983239186E+03   -0.19874E-03   -0.25962E-02 11512   0.836E-01    0.671E-01
DAV:   8    -0.201978930417E+03    0.43088E-02   -0.80485E-03 11616   0.539E-01    0.243E-01
DAV:   9    -0.201978834955E+03    0.95462E-04   -0.15128E-03 11768   0.207E-01    0.160E-01
DAV:  10    -0.201979509184E+03   -0.67423E-03   -0.11397E-03 11920   0.164E-01    0.164E-01
DAV:  11    -0.201979639278E+03   -0.13009E-03   -0.68414E-04 11880   0.137E-01    0.697E-02
DAV:  12    -0.201979983926E+03   -0.34465E-03   -0.19608E-04 11752   0.619E-02    0.438E-02
DAV:  13    -0.201980100888E+03   -0.11696E-03   -0.72388E-05 11000   0.436E-02    0.241E-02
DAV:  14    -0.201980345320E+03   -0.24443E-03   -0.61555E-05  9784   0.266E-02    0.266E-02
DAV:  15    -0.201980388689E+03   -0.43369E-04   -0.19305E-05  7744   0.221E-02    0.999E-03
DAV:  16    -0.201980459424E+03   -0.70735E-04   -0.11512E-05  7712   0.115E-02    0.100E-02
DAV:  17    -0.201980482827E+03   -0.23403E-04   -0.44791E-06  7336   0.984E-03    0.639E-03
DAV:  18    -0.201980511554E+03   -0.28727E-04   -0.49524E-06  7136   0.689E-03    0.514E-03
DAV:  19    -0.201980516710E+03   -0.51560E-05   -0.15085E-06  7032   0.482E-03
   8 F= -.20198052E+03 E0= -.19936560E+03  d E =-.193577E+01
quench:  g(F)=  0.000E+00 g(S)=  0.000E+00 dE (1.order)= 0.000E+00
 bond charge predicted
       N       E                     dE             d eps       ncg     rms          rms(c)
DAV:   1    -0.203334725325E+03   -0.13542E+01   -0.20456E+02 11136   0.191E+01    0.383E+00
DAV:   2    -0.203685686755E+03   -0.35096E+00   -0.44649E+00 11560   0.224E+00    0.229E+00
DAV:   3    -0.203957362914E+03   -0.27168E+00   -0.63549E-01 13064   0.387E+00    0.588E+00
DAV:   4    -0.203645796136E+03    0.31157E+00   -0.59680E-01 13240   0.378E+00    0.181E+00
DAV:   5    -0.203670025448E+03   -0.24229E-01   -0.17497E-01 12056   0.228E+00    0.222E+00
DAV:   6    -0.203630033230E+03    0.39992E-01   -0.84436E-02 11872   0.172E+00    0.845E-01
DAV:   7    -0.203625407344E+03    0.46259E-02   -0.19328E-02 11664   0.808E-01    0.493E-01
DAV:   8    -0.203624332648E+03    0.10747E-02   -0.56076E-03 11760   0.416E-01    0.302E-01
DAV:   9    -0.203623907480E+03    0.42517E-03   -0.37928E-03 11832   0.316E-01    0.218E-01
DAV:  10    -0.203623743641E+03    0.16384E-03   -0.16956E-03 12544   0.206E-01    0.163E-01
DAV:  11    -0.203623495416E+03    0.24823E-03   -0.74783E-04 11560   0.133E-01    0.403E-02
DAV:  12    -0.203623523523E+03   -0.28107E-04   -0.10487E-04 11896   0.422E-02    0.329E-02
DAV:  13    -0.203623544201E+03   -0.20678E-04   -0.37867E-05  8560   0.318E-02    0.175E-02
DAV:  14    -0.203623620159E+03   -0.75959E-04   -0.29518E-05  8480   0.211E-02    0.214E-02
DAV:  15    -0.203623636360E+03   -0.16200E-04   -0.15735E-05  7880   0.185E-02    0.122E-02
DAV:  16    -0.203623669243E+03   -0.32883E-04   -0.74458E-06  7136   0.109E-02    0.810E-03
DAV:  17    -0.203623682147E+03   -0.12904E-04   -0.35321E-06  7048   0.833E-03    0.585E-03
DAV:  18    -0.203623704003E+03   -0.21856E-04   -0.34423E-06  6888   0.612E-03    0.446E-03
DAV:  19    -0.203623709536E+03   -0.55332E-05   -0.12357E-06  7024   0.445E-03
   9 F= -.20362371E+03 E0= -.20101296E+03  d E =-.164319E+01
quench:  g(F)=  0.000E+00 g(S)=  0.000E+00 dE (1.order)= 0.000E+00
 bond charge predicted
       N       E                     dE             d eps       ncg     rms          rms(c)
DAV:   1    -0.201405996450E+03    0.22177E+01   -0.19537E+02 11136   0.179E+01    0.513E+00
DAV:   2    -0.201887473313E+03   -0.48148E+00   -0.66924E+00 11192   0.284E+00    0.310E+00
DAV:   3    -0.201852711569E+03    0.34762E-01   -0.40228E-01 12584   0.241E+00    0.366E+00
DAV:   4    -0.201871737448E+03   -0.19026E-01   -0.52242E-01 12992   0.384E+00    0.396E+00
DAV:   5    -0.201757850436E+03    0.11389E+00   -0.32196E-01 12320   0.284E+00    0.218E+00
DAV:   6    -0.201709989835E+03    0.47861E-01   -0.93424E-02 12160   0.182E+00    0.758E-01
DAV:   7    -0.201709606488E+03    0.38335E-03   -0.23592E-02 11592   0.860E-01    0.729E-01
DAV:   8    -0.201704756261E+03    0.48502E-02   -0.89458E-03 11528   0.562E-01    0.268E-01
DAV:   9    -0.201704630865E+03    0.12540E-03   -0.33702E-03 11712   0.294E-01    0.213E-01
DAV:  10    -0.201705010703E+03   -0.37984E-03   -0.17816E-03 11680   0.204E-01    0.163E-01
DAV:  11    -0.201704983683E+03    0.27021E-04   -0.75478E-04 11768   0.142E-01    0.464E-02
DAV:  12    -0.201705423544E+03   -0.43986E-03   -0.17008E-04 11528   0.542E-02    0.476E-02
DAV:  13    -0.201705652757E+03   -0.22921E-03   -0.90661E-05 11328   0.469E-02    0.235E-02
DAV:  14    -0.201706035873E+03   -0.38312E-03   -0.81358E-05 10272   0.293E-02    0.295E-02
DAV:  15    -0.201706114648E+03   -0.78775E-04   -0.24159E-05  8224   0.236E-02    0.999E-03
DAV:  16    -0.201706209936E+03   -0.95288E-04   -0.13133E-05  8056   0.106E-02    0.872E-03
DAV:  17    -0.201706244107E+03   -0.34171E-04   -0.45884E-06  7352   0.892E-03    0.560E-03
DAV:  18    -0.201706278272E+03   -0.34165E-04   -0.50553E-06  7448   0.637E-03    0.513E-03
DAV:  19    -0.201706285469E+03   -0.71975E-05   -0.13276E-06  7000   0.450E-03
  10 F= -.20170629E+03 E0= -.19909607E+03  d E =0.191742E+01
quench:  g(F)=  0.000E+00 g(S)=  0.000E+00 dE (1.order)= 0.000E+00
 bond charge predicted
       N       E                     dE             d eps       ncg     rms          rms(c)
DAV:   1    -0.202991987257E+03   -0.12857E+01   -0.18697E+02 11136   0.151E+01    0.530E+00
DAV:   2    -0.203109108973E+03   -0.11712E+00   -0.48176E+00 11408   0.279E+00    0.338E+00
DAV:   3    -0.203236736020E+03   -0.12763E+00   -0.74092E-01 12240   0.382E+00    0.585E+00
DAV:   4    -0.203055094559E+03    0.18164E+00   -0.10109E+00 12496   0.477E+00    0.381E+00
DAV:   5    -0.203014897290E+03    0.40197E-01   -0.42671E-01 11832   0.355E+00    0.315E+00
DAV:   6    -0.202916895955E+03    0.98001E-01   -0.14973E-01 11768   0.228E+00    0.107E+00
DAV:   7    -0.202907928971E+03    0.89670E-02   -0.32249E-02 11552   0.100E+00    0.526E-01
DAV:   8    -0.202907719667E+03    0.20930E-03   -0.88998E-03 11440   0.505E-01    0.394E-01
DAV:   9    -0.202906973225E+03    0.74644E-03   -0.34710E-03 11680   0.316E-01    0.166E-01
DAV:  10    -0.202908544238E+03   -0.15710E-02   -0.20635E-03 11520   0.222E-01    0.233E-01
DAV:  11    -0.202908900020E+03   -0.35578E-03   -0.12753E-03 11720   0.187E-01    0.619E-02
DAV:  12    -0.202909441017E+03   -0.54100E-03   -0.33871E-04 11680   0.786E-02    0.652E-02
DAV:  13    -0.202909722955E+03   -0.28194E-03   -0.12656E-04 11704   0.568E-02    0.251E-02
DAV:  14    -0.202910173798E+03   -0.45084E-03   -0.99290E-05 11056   0.357E-02    0.392E-02
DAV:  15    -0.202910468994E+03   -0.29520E-03   -0.75674E-05 10424   0.338E-02    0.169E-02
DAV:  16    -0.202910613805E+03   -0.14481E-03   -0.25756E-05  9120   0.166E-02    0.144E-02
DAV:  17    -0.202910670592E+03   -0.56787E-04   -0.91176E-06  7456   0.125E-02    0.631E-03
DAV:  18    -0.202910720198E+03   -0.49606E-04   -0.72334E-06  7656   0.763E-03    0.652E-03
DAV:  19    -0.202910738295E+03   -0.18096E-04   -0.29533E-06  7288   0.631E-03    0.330E-03
DAV:  20    -0.202910747632E+03   -0.93378E-05   -0.18279E-06  7120   0.305E-03
  11 F= -.20291075E+03 E0= -.20029914E+03  d E =-.120446E+01
quench:  g(F)=  0.000E+00 g(S)=  0.000E+00 dE (1.order)= 0.000E+00
 bond charge predicted
       N       E                     dE             d eps       ncg     rms          rms(c)
DAV:   1    -0.202394269725E+03    0.51647E+00   -0.19232E+02 11160   0.139E+01    0.528E+00
DAV:   2    -0.202448249731E+03   -0.53980E-01   -0.41257E+00 11696   0.250E+00    0.330E+00
DAV:   3    -0.202363974413E+03    0.84275E-01   -0.52884E-01 12280   0.242E+00    0.318E+00
DAV:   4    -0.202510506417E+03   -0.14653E+00   -0.83625E-01 12280   0.430E+00    0.507E+00
DAV:   5    -0.202318890163E+03    0.19162E+00   -0.44781E-01 12384   0.343E+00    0.233E+00
DAV:   6    -0.202259931877E+03    0.58958E-01   -0.94727E-02 11904   0.168E+00    0.556E-01
DAV:   7    -0.202260206578E+03   -0.27470E-03   -0.20115E-02 11576   0.669E-01    0.475E-01
DAV:   8    -0.202259797683E+03    0.40889E-03   -0.58499E-03 11720   0.400E-01    0.236E-01
DAV:   9    -0.202260644199E+03   -0.84652E-03   -0.20782E-03 11808   0.262E-01    0.225E-01
DAV:  10    -0.202262278543E+03   -0.16343E-02   -0.14590E-03 11696   0.232E-01    0.225E-01
DAV:  11    -0.202262392524E+03   -0.11398E-03   -0.87216E-04 11968   0.170E-01    0.525E-02
DAV:  12    -0.202263200257E+03   -0.80773E-03   -0.28388E-04 11688   0.660E-02    0.581E-02
DAV:  13    -0.202263530898E+03   -0.33064E-03   -0.12096E-04 11712   0.542E-02    0.266E-02
DAV:  14    -0.202264271182E+03   -0.74028E-03   -0.15317E-04 11608   0.392E-02    0.417E-02
DAV:  15    -0.202264699202E+03   -0.42802E-03   -0.97887E-05 11240   0.349E-02    0.132E-02
DAV:  16    -0.202264959250E+03   -0.26005E-03   -0.41904E-05  9896   0.150E-02    0.116E-02
DAV:  17    -0.202265040815E+03   -0.81564E-04   -0.99225E-06  8104   0.115E-02    0.714E-03
DAV:  18    -0.202265136922E+03   -0.96107E-04   -0.17003E-05  8912   0.862E-03    0.703E-03
DAV:  19    -0.202265156510E+03   -0.19588E-04   -0.36043E-06  7528   0.646E-03    0.363E-03
DAV:  20    -0.202265165746E+03   -0.92355E-05   -0.21540E-06  7152   0.353E-03
  12 F= -.20226517E+03 E0= -.19965391E+03  d E =0.645582E+00
quench:  g(F)=  0.000E+00 g(S)=  0.000E+00 dE (1.order)= 0.000E+00
 bond charge predicted
       N       E                     dE             d eps       ncg     rms          rms(c)
DAV:   1    -0.203141391745E+03   -0.87624E+00   -0.17247E+02 11168   0.149E+01    0.470E+00
DAV:   2    -0.203461067754E+03   -0.31968E+00   -0.59155E+00 11280   0.281E+00    0.335E+00
DAV:   3    -0.203390685537E+03    0.70382E-01   -0.32332E-01 12176   0.222E+00    0.323E+00
DAV:   4    -0.203604297350E+03   -0.21361E+00   -0.95129E-01 12928   0.456E+00    0.571E+00
DAV:   5    -0.203401053027E+03    0.20324E+00   -0.65678E-01 12376   0.407E+00    0.344E+00
DAV:   6    -0.203275600873E+03    0.12545E+00   -0.17427E-01 12272   0.241E+00    0.879E-01
DAV:   7    -0.203272583749E+03    0.30171E-02   -0.34806E-02 11536   0.984E-01    0.623E-01
DAV:   8    -0.203270964178E+03    0.16196E-02   -0.98710E-03 11496   0.570E-01    0.380E-01
DAV:   9    -0.203270215655E+03    0.74852E-03   -0.32691E-03 11760   0.310E-01    0.168E-01
DAV:  10    -0.203271597338E+03   -0.13817E-02   -0.17791E-03 11568   0.201E-01    0.210E-01
DAV:  11    -0.203272006325E+03   -0.40899E-03   -0.11515E-03 11792   0.179E-01    0.625E-02
DAV:  12    -0.203272742014E+03   -0.73569E-03   -0.36191E-04 11688   0.804E-02    0.672E-02
DAV:  13    -0.203272972278E+03   -0.23026E-03   -0.13859E-04 11896   0.601E-02    0.288E-02
DAV:  14    -0.203273376684E+03   -0.40441E-03   -0.95753E-05 10944   0.369E-02    0.401E-02
DAV:  15    -0.203273706923E+03   -0.33024E-03   -0.87319E-05 10824   0.341E-02    0.149E-02
DAV:  16    -0.203273860545E+03   -0.15362E-03   -0.26447E-05  9224   0.158E-02    0.133E-02
DAV:  17    -0.203273913901E+03   -0.53356E-04   -0.82831E-06  7600   0.122E-02    0.675E-03
DAV:  18    -0.203273972669E+03   -0.58767E-04   -0.94173E-06  8024   0.783E-03    0.628E-03
DAV:  19    -0.203273985192E+03   -0.12523E-04   -0.25127E-06  7352   0.612E-03    0.334E-03
DAV:  20    -0.203273992769E+03   -0.75773E-05   -0.15295E-06  7016   0.331E-03
  13 F= -.20327399E+03 E0= -.20066169E+03  d E =-.100883E+01
quench:  g(F)=  0.000E+00 g(S)=  0.000E+00 dE (1.order)= 0.000E+00
 bond charge predicted
       N       E                     dE             d eps       ncg     rms          rms(c)
DAV:   1    -0.203168220671E+03    0.10576E+00   -0.86639E+01 11256   0.100E+01    0.352E+00
DAV:   2    -0.203295426352E+03   -0.12721E+00   -0.27188E+00 11296   0.200E+00    0.250E+00
DAV:   3    -0.203232643897E+03    0.62782E-01   -0.16897E-01 12696   0.134E+00    0.183E+00
DAV:   4    -0.203473302817E+03   -0.24066E+00   -0.54601E-01 12944   0.377E+00    0.543E+00
DAV:   5    -0.203213159929E+03    0.26014E+00   -0.41217E-01 12912   0.322E+00    0.161E+00
DAV:   6    -0.203186395226E+03    0.26765E-01   -0.48017E-02 12136   0.125E+00    0.507E-01
DAV:   7    -0.203186786141E+03   -0.39092E-03   -0.10934E-02 11560   0.571E-01    0.469E-01
DAV:   8    -0.203185375857E+03    0.14103E-02   -0.40362E-03 11712   0.386E-01    0.197E-01
DAV:   9    -0.203185613271E+03   -0.23741E-03   -0.12655E-03 11744   0.186E-01    0.143E-01
DAV:  10    -0.203186665913E+03   -0.10526E-02   -0.82852E-04 11568   0.136E-01    0.122E-01
DAV:  11    -0.203187084285E+03   -0.41837E-03   -0.49839E-04 11896   0.118E-01    0.466E-02
DAV:  12    -0.203187672476E+03   -0.58819E-03   -0.14806E-04 11616   0.446E-02    0.288E-02
DAV:  13    -0.203187868138E+03   -0.19566E-03   -0.49806E-05  9960   0.308E-02    0.235E-02
DAV:  14    -0.203188440177E+03   -0.57204E-03   -0.12076E-04 11008   0.270E-02    0.250E-02
DAV:  15    -0.203188591486E+03   -0.15131E-03   -0.32009E-05  9376   0.218E-02    0.112E-02
DAV:  16    -0.203188691760E+03   -0.10027E-03   -0.12249E-05  8008   0.895E-03    0.634E-03
DAV:  17    -0.203188736348E+03   -0.44587E-04   -0.50752E-06  7608   0.743E-03    0.580E-03
DAV:  18    -0.203188781100E+03   -0.44752E-04   -0.73827E-06  7880   0.616E-03    0.445E-03
DAV:  19    -0.203188787901E+03   -0.68012E-05   -0.14421E-06  7104   0.424E-03
  14 F= -.20318879E+03 E0= -.20057706E+03  d E =0.852049E-01
quench:  g(F)=  0.000E+00 g(S)=  0.000E+00 dE (1.order)= 0.000E+00
 bond charge predicted
       N       E                     dE             d eps       ncg     rms          rms(c)
DAV:   1    -0.203220354961E+03   -0.31574E-01   -0.94313E+01 11168   0.108E+01    0.372E+00
DAV:   2    -0.203401575867E+03   -0.18122E+00   -0.32621E+00 11240   0.215E+00    0.256E+00
DAV:   3    -0.203327036284E+03    0.74540E-01   -0.16125E-01 12480   0.127E+00    0.173E+00
DAV:   4    -0.203566342298E+03   -0.23931E+00   -0.55441E-01 12512   0.372E+00    0.527E+00
DAV:   5    -0.203342029640E+03    0.22431E+00   -0.44049E-01 12616   0.338E+00    0.234E+00
DAV:   6    -0.203283969155E+03    0.58060E-01   -0.83025E-02 12352   0.163E+00    0.535E-01
DAV:   7    -0.203284382660E+03   -0.41350E-03   -0.16641E-02 11464   0.667E-01    0.497E-01
DAV:   8    -0.203282924160E+03    0.14585E-02   -0.52640E-03 11408   0.436E-01    0.261E-01
DAV:   9    -0.203282630753E+03    0.29341E-03   -0.15841E-03 11808   0.215E-01    0.124E-01
DAV:  10    -0.203283580678E+03   -0.94993E-03   -0.10681E-03 11568   0.150E-01    0.160E-01
DAV:  11    -0.203283933174E+03   -0.35250E-03   -0.67762E-04 11768   0.135E-01    0.550E-02
DAV:  12    -0.203284354081E+03   -0.42091E-03   -0.19719E-04 11856   0.585E-02    0.442E-02
DAV:  13    -0.203284528757E+03   -0.17468E-03   -0.77116E-05 10872   0.418E-02    0.229E-02
DAV:  14    -0.203284885830E+03   -0.35707E-03   -0.80731E-05 10432   0.296E-02    0.321E-02
DAV:  15    -0.203285037091E+03   -0.15126E-03   -0.41385E-05  9552   0.268E-02    0.116E-02
DAV:  16    -0.203285120723E+03   -0.83633E-04   -0.12341E-05  7928   0.110E-02    0.823E-03
DAV:  17    -0.203285146704E+03   -0.25981E-04   -0.40699E-06  7328   0.853E-03    0.561E-03
DAV:  18    -0.203285184799E+03   -0.38095E-04   -0.60193E-06  7568   0.643E-03    0.500E-03
DAV:  19    -0.203285191867E+03   -0.70678E-05   -0.16385E-06  7048   0.477E-03
  15 F= -.20328519E+03 E0= -.20067279E+03  d E =-.964040E-01
quench:  g(F)=  0.000E+00 g(S)=  0.000E+00 dE (1.order)= 0.000E+00
 bond charge predicted
       N       E                     dE             d eps       ncg     rms          rms(c)
DAV:   1    -0.202869185508E+03    0.41600E+00   -0.11269E+02 11264   0.110E+01    0.412E+00
DAV:   2    -0.202989172167E+03   -0.11999E+00   -0.32006E+00 11312   0.215E+00    0.281E+00
DAV:   3    -0.202889155758E+03    0.10002E+00   -0.24805E-01 12216   0.134E+00    0.161E+00
DAV:   4    -0.203120802845E+03   -0.23165E+00   -0.48710E-01 12272   0.371E+00    0.538E+00
DAV:   5    -0.202881267081E+03    0.23954E+00   -0.44467E-01 12440   0.325E+00    0.183E+00
DAV:   6    -0.202848061520E+03    0.33206E-01   -0.61766E-02 12048   0.135E+00    0.525E-01
DAV:   7    -0.202848869455E+03   -0.80794E-03   -0.11938E-02 11488   0.598E-01    0.504E-01
DAV:   8    -0.202847329923E+03    0.15395E-02   -0.42918E-03 11728   0.410E-01    0.219E-01
DAV:   9    -0.202847636425E+03   -0.30650E-03   -0.15017E-03 11720   0.206E-01    0.156E-01
DAV:  10    -0.202849012969E+03   -0.13765E-02   -0.10374E-03 11624   0.151E-01    0.137E-01
DAV:  11    -0.202849463291E+03   -0.45032E-03   -0.61863E-04 11904   0.131E-01    0.525E-02
DAV:  12    -0.202850147586E+03   -0.68430E-03   -0.17029E-04 11608   0.485E-02    0.308E-02
DAV:  13    -0.202850384720E+03   -0.23713E-03   -0.55822E-05 10264   0.337E-02    0.273E-02
DAV:  14    -0.202851078809E+03   -0.69409E-03   -0.15753E-04 11392   0.311E-02    0.271E-02
DAV:  15    -0.202851243518E+03   -0.16471E-03   -0.35934E-05  9544   0.233E-02    0.109E-02
DAV:  16    -0.202851363105E+03   -0.11959E-03   -0.14426E-05  8352   0.949E-03    0.697E-03
DAV:  17    -0.202851426268E+03   -0.63163E-04   -0.74373E-06  7880   0.842E-03    0.641E-03
DAV:  18    -0.202851476287E+03   -0.50020E-04   -0.89804E-06  8088   0.685E-03    0.454E-03
DAV:  19    -0.202851481887E+03   -0.56004E-05   -0.13132E-06  7136   0.421E-03
  16 F= -.20285148E+03 E0= -.20023952E+03  d E =0.433710E+00
quench:  g(F)=  0.000E+00 g(S)=  0.000E+00 dE (1.order)= 0.000E+00
 bond charge predicted
       N       E                     dE             d eps       ncg     rms          rms(c)
DAV:   1    -0.202783776829E+03    0.67699E-01   -0.16784E+02 11184   0.146E+01    0.472E+00
DAV:   2    -0.203100830371E+03   -0.31705E+00   -0.56818E+00 11272   0.278E+00    0.333E+00
DAV:   3    -0.203080616652E+03    0.20214E-01   -0.39733E-01 12320   0.268E+00    0.403E+00
DAV:   4    -0.203146897796E+03   -0.66281E-01   -0.97262E-01 12952   0.444E+00    0.483E+00
DAV:   5    -0.203039108029E+03    0.10779E+00   -0.52951E-01 12280   0.384E+00    0.350E+00
DAV:   6    -0.202910067681E+03    0.12904E+00   -0.17790E-01 12216   0.246E+00    0.952E-01
DAV:   7    -0.202904459542E+03    0.56081E-02   -0.36020E-02 11632   0.100E+00    0.574E-01
DAV:   8    -0.202903517920E+03    0.94162E-03   -0.95444E-03 11488   0.541E-01    0.386E-01
DAV:   9    -0.202902711719E+03    0.80620E-03   -0.32707E-03 11784   0.307E-01    0.164E-01
DAV:  10    -0.202904166021E+03   -0.14543E-02   -0.19230E-03 11552   0.206E-01    0.220E-01
DAV:  11    -0.202904607578E+03   -0.44156E-03   -0.12666E-03 11792   0.184E-01    0.616E-02
DAV:  12    -0.202905298224E+03   -0.69065E-03   -0.37713E-04 11712   0.830E-02    0.681E-02
DAV:  13    -0.202905594003E+03   -0.29578E-03   -0.14817E-04 11840   0.614E-02    0.294E-02
DAV:  14    -0.202906094602E+03   -0.50060E-03   -0.12497E-04 11520   0.385E-02    0.418E-02
DAV:  15    -0.202906354262E+03   -0.25966E-03   -0.74933E-05 10672   0.349E-02    0.150E-02
DAV:  16    -0.202906489855E+03   -0.13559E-03   -0.22059E-05  8824   0.152E-02    0.129E-02
DAV:  17    -0.202906544857E+03   -0.55002E-04   -0.83836E-06  7576   0.121E-02    0.692E-03
DAV:  18    -0.202906612287E+03   -0.67430E-04   -0.10977E-05  8112   0.835E-03    0.677E-03
DAV:  19    -0.202906625384E+03   -0.13097E-04   -0.27541E-06  7360   0.650E-03    0.332E-03
DAV:  20    -0.202906632440E+03   -0.70564E-05   -0.14961E-06  6912   0.328E-03
  17 F= -.20290663E+03 E0= -.20029369E+03  d E =-.551506E-01
quench:  g(F)=  0.000E+00 g(S)=  0.000E+00 dE (1.order)= 0.000E+00
 bond charge predicted
       N       E                     dE             d eps       ncg     rms          rms(c)
DAV:   1    -0.202474140177E+03    0.43249E+00   -0.18125E+02 11256   0.137E+01    0.510E+00
DAV:   2    -0.202672219631E+03   -0.19808E+00   -0.52095E+00 11240   0.261E+00    0.348E+00
DAV:   3    -0.202516331417E+03    0.15589E+00   -0.37181E-01 12304   0.158E+00    0.191E+00
DAV:   4    -0.202839557804E+03   -0.32323E+00   -0.66944E-01 12288   0.441E+00    0.636E+00
DAV:   5    -0.202512741129E+03    0.32682E+00   -0.71010E-01 12408   0.387E+00    0.230E+00
DAV:   6    -0.202461073281E+03    0.51668E-01   -0.96404E-02 12064   0.169E+00    0.677E-01
DAV:   7    -0.202461706895E+03   -0.63361E-03   -0.18320E-02 11496   0.739E-01    0.616E-01
DAV:   8    -0.202459452116E+03    0.22548E-02   -0.65002E-03 11624   0.502E-01    0.272E-01
DAV:   9    -0.202460062605E+03   -0.61049E-03   -0.25180E-03 11744   0.267E-01    0.207E-01
DAV:  10    -0.202461802153E+03   -0.17395E-02   -0.15395E-03 11720   0.190E-01    0.155E-01
DAV:  11    -0.202462478653E+03   -0.67650E-03   -0.96105E-04 11872   0.161E-01    0.805E-02
DAV:  12    -0.202463417916E+03   -0.93926E-03   -0.28963E-04 11728   0.691E-02    0.370E-02
DAV:  13    -0.202463744485E+03   -0.32657E-03   -0.87759E-05 11160   0.424E-02    0.367E-02
DAV:  14    -0.202464638286E+03   -0.89380E-03   -0.21173E-04 11656   0.393E-02    0.315E-02
DAV:  15    -0.202464895981E+03   -0.25769E-03   -0.58359E-05 10536   0.289E-02    0.128E-02
DAV:  16    -0.202465113763E+03   -0.21778E-03   -0.30096E-05  9376   0.126E-02    0.879E-03
DAV:  17    -0.202465205858E+03   -0.92095E-04   -0.11581E-05  8376   0.108E-02    0.830E-03
DAV:  18    -0.202465279950E+03   -0.74092E-04   -0.14058E-05  8720   0.873E-03    0.525E-03
DAV:  19    -0.202465287516E+03   -0.75664E-05   -0.16352E-06  7184   0.488E-03
  18 F= -.20246529E+03 E0= -.19985286E+03  d E =0.441345E+00
quench:  g(F)=  0.000E+00 g(S)=  0.000E+00 dE (1.order)= 0.000E+00
 bond charge predicted
       N       E                     dE             d eps       ncg     rms          rms(c)
DAV:   1    -0.202985024946E+03   -0.51974E+00   -0.17556E+02 11208   0.145E+01    0.471E+00
DAV:   2    -0.203303340586E+03   -0.31832E+00   -0.59880E+00 11256   0.276E+00    0.341E+00
DAV:   3    -0.203292422546E+03    0.10918E-01   -0.38621E-01 12440   0.270E+00    0.413E+00
DAV:   4    -0.203345092075E+03   -0.52670E-01   -0.96984E-01 13016   0.442E+00    0.476E+00
DAV:   5    -0.203249403598E+03    0.95688E-01   -0.52463E-01 12296   0.384E+00    0.359E+00
DAV:   6    -0.203114144535E+03    0.13526E+00   -0.18819E-01 12160   0.253E+00    0.972E-01
DAV:   7    -0.203108904342E+03    0.52402E-02   -0.39709E-02 11648   0.106E+00    0.621E-01
DAV:   8    -0.203107555622E+03    0.13487E-02   -0.10803E-02 11480   0.577E-01    0.390E-01
DAV:   9    -0.203106800904E+03    0.75472E-03   -0.35684E-03 11768   0.319E-01    0.171E-01
DAV:  10    -0.203108339305E+03   -0.15384E-02   -0.18927E-03 11632   0.206E-01    0.216E-01
DAV:  11    -0.203108798671E+03   -0.45937E-03   -0.12384E-03 11832   0.185E-01    0.647E-02
DAV:  12    -0.203109607532E+03   -0.80886E-03   -0.37863E-04 11752   0.813E-02    0.670E-02
DAV:  13    -0.203109856273E+03   -0.24874E-03   -0.13916E-04 11864   0.606E-02    0.281E-02
DAV:  14    -0.203110413378E+03   -0.55710E-03   -0.12802E-04 11528   0.367E-02    0.403E-02
DAV:  15    -0.203110681883E+03   -0.26851E-03   -0.72429E-05 10592   0.342E-02    0.156E-02
DAV:  16    -0.203110858670E+03   -0.17679E-03   -0.29780E-05  9224   0.157E-02    0.129E-02
DAV:  17    -0.203110911434E+03   -0.52764E-04   -0.82077E-06  7656   0.120E-02    0.722E-03
DAV:  18    -0.203110974604E+03   -0.63171E-04   -0.10271E-05  8088   0.807E-03    0.634E-03
DAV:  19    -0.203110986867E+03   -0.12262E-04   -0.25248E-06  7368   0.619E-03    0.335E-03
DAV:  20    -0.203110994092E+03   -0.72258E-05   -0.15079E-06  7000   0.326E-03
  19 F= -.20311099E+03 E0= -.20049781E+03  d E =-.645707E+00
quench:  g(F)=  0.000E+00 g(S)=  0.000E+00 dE (1.order)= 0.000E+00
 bond charge predicted
       N       E                     dE             d eps       ncg     rms          rms(c)
DAV:   1    -0.203131304108E+03   -0.20317E-01   -0.10314E+02 11232   0.109E+01    0.388E+00
DAV:   2    -0.203301189495E+03   -0.16989E+00   -0.34460E+00 11272   0.212E+00    0.276E+00
DAV:   3    -0.203222952436E+03    0.78237E-01   -0.19077E-01 12424   0.136E+00    0.200E+00
DAV:   4    -0.203521169993E+03   -0.29822E+00   -0.66137E-01 13240   0.414E+00    0.602E+00
DAV:   5    -0.203188944473E+03    0.33223E+00   -0.51847E-01 13256   0.344E+00    0.151E+00
DAV:   6    -0.203167199042E+03    0.21745E-01   -0.51656E-02 12168   0.126E+00    0.570E-01
DAV:   7    -0.203167883126E+03   -0.68408E-03   -0.12203E-02 11664   0.618E-01    0.538E-01
DAV:   8    -0.203165623300E+03    0.22598E-02   -0.46310E-03 11800   0.425E-01    0.193E-01
DAV:   9    -0.203166098049E+03   -0.47475E-03   -0.15610E-03 11704   0.198E-01    0.166E-01
DAV:  10    -0.203167269805E+03   -0.11718E-02   -0.10321E-03 11632   0.147E-01    0.116E-01
DAV:  11    -0.203167724660E+03   -0.45485E-03   -0.53020E-04 11848   0.121E-01    0.618E-02
DAV:  12    -0.203168361224E+03   -0.63656E-03   -0.17063E-04 11616   0.535E-02    0.278E-02
DAV:  13    -0.203168662502E+03   -0.30128E-03   -0.70946E-05 10648   0.347E-02    0.319E-02
DAV:  14    -0.203169264244E+03   -0.60174E-03   -0.13478E-04 11080   0.314E-02    0.231E-02
DAV:  15    -0.203169393901E+03   -0.12966E-03   -0.27823E-05  9112   0.208E-02    0.134E-02
DAV:  16    -0.203169514032E+03   -0.12013E-03   -0.14408E-05  8384   0.998E-03    0.622E-03
DAV:  17    -0.203169587222E+03   -0.73190E-04   -0.90081E-06  8184   0.880E-03    0.787E-03
DAV:  18    -0.203169631244E+03   -0.44022E-04   -0.72711E-06  7944   0.743E-03    0.415E-03
DAV:  19    -0.203169639450E+03   -0.82059E-05   -0.15973E-06  7088   0.434E-03
  20 F= -.20316964E+03 E0= -.20055702E+03  d E =-.586454E-01
quench:  g(F)=  0.000E+00 g(S)=  0.000E+00 dE (1.order)= 0.000E+00
 bond charge predicted
       N       E                     dE             d eps       ncg     rms          rms(c)
DAV:   1    -0.203074226480E+03    0.95405E-01   -0.11281E+02 11160   0.111E+01    0.406E+00
DAV:   2    -0.203257858632E+03   -0.18363E+00   -0.36669E+00 11240   0.220E+00    0.281E+00
DAV:   3    -0.203170931038E+03    0.86928E-01   -0.20540E-01 12232   0.141E+00    0.198E+00
DAV:   4    -0.203466261870E+03   -0.29533E+00   -0.69541E-01 12904   0.414E+00    0.587E+00
DAV:   5    -0.203175720464E+03    0.29054E+00   -0.55312E-01 12792   0.363E+00    0.236E+00
DAV:   6    -0.203116263478E+03    0.59457E-01   -0.83039E-02 12400   0.166E+00    0.571E-01
DAV:   7    -0.203116768467E+03   -0.50499E-03   -0.18461E-02 11504   0.709E-01    0.528E-01
DAV:   8    -0.203115149928E+03    0.16185E-02   -0.60081E-03 11536   0.459E-01    0.264E-01
DAV:   9    -0.203114984617E+03    0.16531E-03   -0.17839E-03 11816   0.225E-01    0.139E-01
DAV:  10    -0.203116230515E+03   -0.12459E-02   -0.12394E-03 11560   0.161E-01    0.169E-01
DAV:  11    -0.203116629523E+03   -0.39901E-03   -0.76304E-04 11840   0.145E-01    0.549E-02
DAV:  12    -0.203117209320E+03   -0.57980E-03   -0.22436E-04 11720   0.606E-02    0.464E-02
DAV:  13    -0.203117414115E+03   -0.20479E-03   -0.81339E-05 11160   0.436E-02    0.244E-02
DAV:  14    -0.203117899947E+03   -0.48583E-03   -0.11195E-04 11008   0.306E-02    0.319E-02
DAV:  15    -0.203118051202E+03   -0.15126E-03   -0.39892E-05  9608   0.267E-02    0.127E-02
DAV:  16    -0.203118150058E+03   -0.98856E-04   -0.14072E-05  8104   0.112E-02    0.791E-03
DAV:  17    -0.203118183146E+03   -0.33087E-04   -0.46193E-06  7352   0.873E-03    0.631E-03
DAV:  18    -0.203118225665E+03   -0.42519E-04   -0.69732E-06  7760   0.689E-03    0.510E-03
DAV:  19    -0.203118232648E+03   -0.69831E-05   -0.16314E-06  7048   0.488E-03
  21 F= -.20311823E+03 E0= -.20050512E+03  d E =0.514068E-01
quench:  g(F)=  0.000E+00 g(S)=  0.000E+00 dE (1.order)= 0.000E+00
 bond charge predicted
       N       E                     dE             d eps       ncg     rms          rms(c)
DAV:   1    -0.202646544387E+03    0.47168E+00   -0.14733E+02 11224   0.123E+01    0.473E+00
DAV:   2    -0.202809714162E+03   -0.16317E+00   -0.42932E+00 11224   0.235E+00    0.322E+00
DAV:   3    -0.202667046549E+03    0.14267E+00   -0.30144E-01 12224   0.125E+00    0.158E+00
DAV:   4    -0.202890174043E+03   -0.22313E+00   -0.47038E-01 12192   0.366E+00    0.535E+00
DAV:   5    -0.202655306096E+03    0.23487E+00   -0.45738E-01 12424   0.325E+00    0.186E+00
DAV:   6    -0.202623003489E+03    0.32303E-01   -0.70752E-02 12000   0.140E+00    0.596E-01
DAV:   7    -0.202624006061E+03   -0.10026E-02   -0.13416E-02 11536   0.642E-01    0.560E-01
DAV:   8    -0.202621889630E+03    0.21164E-02   -0.50079E-03 11752   0.449E-01    0.228E-01
DAV:   9    -0.202622571178E+03   -0.68155E-03   -0.19699E-03 11720   0.230E-01    0.190E-01
DAV:  10    -0.202624164698E+03   -0.15935E-02   -0.12918E-03 11624   0.168E-01    0.128E-01
DAV:  11    -0.202624757598E+03   -0.59290E-03   -0.71149E-04 11864   0.138E-01    0.757E-02
DAV:  12    -0.202625579924E+03   -0.82233E-03   -0.23392E-04 11656   0.638E-02    0.304E-02
DAV:  13    -0.202626003631E+03   -0.42371E-03   -0.96394E-05 11352   0.396E-02    0.395E-02
DAV:  14    -0.202626758483E+03   -0.75485E-03   -0.18672E-04 11512   0.377E-02    0.236E-02
DAV:  15    -0.202626907851E+03   -0.14937E-03   -0.31808E-05  9416   0.219E-02    0.125E-02
DAV:  16    -0.202627058269E+03   -0.15042E-03   -0.18162E-05  8904   0.107E-02    0.739E-03
DAV:  17    -0.202627156636E+03   -0.98367E-04   -0.13575E-05  8536   0.997E-03    0.842E-03
DAV:  18    -0.202627202368E+03   -0.45733E-04   -0.85437E-06  8048   0.825E-03    0.416E-03
DAV:  19    -0.202627208024E+03   -0.56560E-05   -0.14071E-06  7088   0.414E-03
  22 F= -.20262721E+03 E0= -.20001450E+03  d E =0.491025E+00
quench:  g(F)=  0.000E+00 g(S)=  0.000E+00 dE (1.order)= 0.000E+00
 bond charge predicted
       N       E                     dE             d eps       ncg     rms          rms(c)
DAV:   1    -0.202868321967E+03   -0.24112E+00   -0.17874E+02 11208   0.135E+01    0.495E+00
DAV:   2    -0.203091062556E+03   -0.22274E+00   -0.53576E+00 11216   0.257E+00    0.344E+00
DAV:   3    -0.203027032948E+03    0.64030E-01   -0.39451E-01 12464   0.239E+00    0.354E+00
DAV:   4    -0.203223116669E+03   -0.19608E+00   -0.10615E+00 13136   0.476E+00    0.573E+00
DAV:   5    -0.202999036314E+03    0.22408E+00   -0.61894E-01 12648   0.394E+00    0.319E+00
DAV:   6    -0.202890259764E+03    0.10878E+00   -0.14395E-01 12328   0.222E+00    0.805E-01
DAV:   7    -0.202888315763E+03    0.19440E-02   -0.30706E-02 11648   0.921E-01    0.602E-01
DAV:   8    -0.202886799280E+03    0.15165E-02   -0.91248E-03 11560   0.538E-01    0.334E-01
DAV:   9    -0.202886605692E+03    0.19359E-03   -0.30014E-03 11816   0.291E-01    0.180E-01
DAV:  10    -0.202888356359E+03   -0.17507E-02   -0.18080E-03 11664   0.200E-01    0.201E-01
DAV:  11    -0.202888837674E+03   -0.48131E-03   -0.11406E-03 11848   0.179E-01    0.632E-02
DAV:  12    -0.202889701171E+03   -0.86350E-03   -0.32079E-04 11776   0.712E-02    0.569E-02
DAV:  13    -0.202889952646E+03   -0.25147E-03   -0.11017E-04 11856   0.536E-02    0.270E-02
DAV:  14    -0.202890682669E+03   -0.73002E-03   -0.16664E-04 11696   0.343E-02    0.356E-02
DAV:  15    -0.202890882810E+03   -0.20014E-03   -0.52026E-05 10000   0.305E-02    0.149E-02
DAV:  16    -0.202891065067E+03   -0.18226E-03   -0.29539E-05  9352   0.145E-02    0.108E-02
DAV:  17    -0.202891113316E+03   -0.48249E-04   -0.69832E-06  7600   0.109E-02    0.721E-03
DAV:  18    -0.202891167921E+03   -0.54605E-04   -0.90954E-06  8120   0.767E-03    0.590E-03
DAV:  19    -0.202891177881E+03   -0.99604E-05   -0.21091E-06  7232   0.573E-03
  23 F= -.20289118E+03 E0= -.20027785E+03  d E =-.263970E+00
quench:  g(F)=  0.000E+00 g(S)=  0.000E+00 dE (1.order)= 0.000E+00
 bond charge predicted
       N       E                     dE             d eps       ncg     rms          rms(c)
DAV:   1    -0.202835444341E+03    0.55724E-01   -0.14876E+02 11224   0.126E+01    0.460E+00
DAV:   2    -0.203029949082E+03   -0.19450E+00   -0.45668E+00 11224   0.234E+00    0.325E+00
DAV:   3    -0.202894514631E+03    0.13543E+00   -0.27086E-01 12208   0.121E+00    0.170E+00
DAV:   4    -0.203265809433E+03   -0.37129E+00   -0.66157E-01 12704   0.432E+00    0.667E+00
DAV:   5    -0.202868819315E+03    0.39699E+00   -0.68440E-01 12784   0.377E+00    0.160E+00
DAV:   6    -0.202846580597E+03    0.22239E-01   -0.64427E-02 12048   0.134E+00    0.670E-01
DAV:   7    -0.202846776174E+03   -0.19558E-03   -0.13936E-02 11656   0.667E-01    0.566E-01
DAV:   8    -0.202844479972E+03    0.22962E-02   -0.51977E-03 11840   0.452E-01    0.219E-01
DAV:   9    -0.202845389545E+03   -0.90957E-03   -0.20983E-03 11712   0.234E-01    0.203E-01
DAV:  10    -0.202846757976E+03   -0.13684E-02   -0.13089E-03 11736   0.175E-01    0.114E-01
DAV:  11    -0.202847484338E+03   -0.72636E-03   -0.72246E-04 11856   0.136E-01    0.904E-02
DAV:  12    -0.202848209734E+03   -0.72540E-03   -0.25854E-04 11680   0.747E-02    0.293E-02
DAV:  13    -0.202848802293E+03   -0.59256E-03   -0.13569E-04 11888   0.419E-02    0.435E-02
DAV:  14    -0.202849442398E+03   -0.64011E-03   -0.16115E-04 11536   0.400E-02    0.212E-02
DAV:  15    -0.202849585847E+03   -0.14345E-03   -0.28898E-05  9304   0.204E-02    0.151E-02
DAV:  16    -0.202849714759E+03   -0.12891E-03   -0.14875E-05  8408   0.118E-02    0.770E-03
DAV:  17    -0.202849845499E+03   -0.13074E-03   -0.21590E-05  9184   0.101E-02    0.879E-03
DAV:  18    -0.202849879794E+03   -0.34294E-04   -0.59164E-06  7712   0.844E-03    0.432E-03
DAV:  19    -0.202849889402E+03   -0.96077E-05   -0.20114E-06  7040   0.439E-03
  24 F= -.20284989E+03 E0= -.20023706E+03  d E =0.412885E-01
quench:  g(F)=  0.000E+00 g(S)=  0.000E+00 dE (1.order)= 0.000E+00
 bond charge predicted
       N       E                     dE             d eps       ncg     rms          rms(c)
DAV:   1    -0.202695958503E+03    0.15392E+00   -0.16750E+02 11208   0.128E+01    0.490E+00
DAV:   2    -0.202900812599E+03   -0.20485E+00   -0.50000E+00 11224   0.246E+00    0.340E+00
DAV:   3    -0.202742868618E+03    0.15794E+00   -0.30225E-01 12288   0.120E+00    0.157E+00
DAV:   4    -0.202814662025E+03   -0.71793E-01   -0.31678E-01 11568   0.289E+00    0.338E+00
DAV:   5    -0.202736928927E+03    0.77733E-01   -0.24030E-01 12248   0.268E+00    0.213E+00
DAV:   6    -0.202698496091E+03    0.38433E-01   -0.95660E-02 12168   0.149E+00    0.705E-01
DAV:   7    -0.202698859766E+03   -0.36368E-03   -0.18735E-02 11648   0.724E-01    0.602E-01
DAV:   8    -0.202696332043E+03    0.25277E-02   -0.61684E-03 11664   0.485E-01    0.254E-01
DAV:   9    -0.202696789942E+03   -0.45790E-03   -0.22791E-03 11840   0.254E-01    0.199E-01
DAV:  10    -0.202698339502E+03   -0.15496E-02   -0.15259E-03 11656   0.188E-01    0.158E-01
DAV:  11    -0.202698827619E+03   -0.48812E-03   -0.83665E-04 11856   0.153E-01    0.707E-02
DAV:  12    -0.202699704017E+03   -0.87640E-03   -0.25230E-04 11728   0.600E-02    0.361E-02
DAV:  13    -0.202699989712E+03   -0.28570E-03   -0.81355E-05 11112   0.422E-02    0.350E-02
DAV:  14    -0.202700685817E+03   -0.69610E-03   -0.17004E-04 11584   0.366E-02    0.308E-02
DAV:  15    -0.202700865409E+03   -0.17959E-03   -0.43885E-05  9872   0.273E-02    0.122E-02
DAV:  16    -0.202701009533E+03   -0.14412E-03   -0.20370E-05  8864   0.113E-02    0.776E-03
DAV:  17    -0.202701062370E+03   -0.52837E-04   -0.69286E-06  7648   0.953E-03    0.816E-03
DAV:  18    -0.202701105259E+03   -0.42889E-04   -0.82691E-06  8096   0.783E-03    0.484E-03
DAV:  19    -0.202701110059E+03   -0.47996E-05   -0.14110E-06  7088   0.463E-03
  25 F= -.20270111E+03 E0= -.20008783E+03  d E =0.148779E+00
quench:  g(F)=  0.000E+00 g(S)=  0.000E+00 dE (1.order)= 0.000E+00
 bond charge predicted
       N       E                     dE             d eps       ncg     rms          rms(c)
DAV:   1    -0.202740744681E+03   -0.39639E-01   -0.17543E+02 11232   0.133E+01    0.496E+00
DAV:   2    -0.202943545674E+03   -0.20280E+00   -0.52011E+00 11216   0.246E+00    0.348E+00
DAV:   3    -0.202780155623E+03    0.16339E+00   -0.31285E-01 12184   0.116E+00    0.158E+00
DAV:   4    -0.202903691746E+03   -0.12354E+00   -0.34776E-01 11896   0.312E+00    0.427E+00
DAV:   5    -0.202773999047E+03    0.12969E+00   -0.41041E-01 12464   0.288E+00    0.209E+00
DAV:   6    -0.202735638820E+03    0.38360E-01   -0.88656E-02 12104   0.151E+00    0.679E-01
DAV:   7    -0.202736173942E+03   -0.53512E-03   -0.14957E-02 11584   0.678E-01    0.583E-01
DAV:   8    -0.202733935943E+03    0.22380E-02   -0.55254E-03 11816   0.471E-01    0.240E-01
DAV:   9    -0.202735009441E+03   -0.10735E-02   -0.24499E-03 11696   0.257E-01    0.217E-01
DAV:  10    -0.202736511147E+03   -0.15017E-02   -0.14267E-03 11752   0.187E-01    0.114E-01
DAV:  11    -0.202737362621E+03   -0.85147E-03   -0.82001E-04 11848   0.144E-01    0.103E-01
DAV:  12    -0.202738174972E+03   -0.81235E-03   -0.32250E-04 11736   0.829E-02    0.288E-02
DAV:  13    -0.202738751378E+03   -0.57641E-03   -0.13429E-04 11864   0.433E-02    0.464E-02
DAV:  14    -0.202739467184E+03   -0.71581E-03   -0.17704E-04 11568   0.412E-02    0.206E-02
DAV:  15    -0.202739681063E+03   -0.21388E-03   -0.40610E-05  9848   0.226E-02    0.153E-02
DAV:  16    -0.202739859562E+03   -0.17850E-03   -0.23740E-05  9064   0.140E-02    0.787E-03
DAV:  17    -0.202739964931E+03   -0.10537E-03   -0.15476E-05  8576   0.103E-02    0.946E-03
DAV:  18    -0.202740008739E+03   -0.43808E-04   -0.84497E-06  8040   0.893E-03    0.409E-03
DAV:  19    -0.202740015626E+03   -0.68873E-05   -0.16540E-06  7040   0.435E-03
  26 F= -.20274002E+03 E0= -.20012719E+03  d E =-.389056E-01
quench:  g(F)=  0.000E+00 g(S)=  0.000E+00 dE (1.order)= 0.000E+00
 bond charge predicted
       N       E                     dE             d eps       ncg     rms          rms(c)
DAV:   1    -0.202732383334E+03    0.76254E-02   -0.17312E+02 11240   0.131E+01    0.493E+00
DAV:   2    -0.202922559604E+03   -0.19018E+00   -0.49879E+00 11232   0.246E+00    0.344E+00
DAV:   3    -0.202764495970E+03    0.15806E+00   -0.31522E-01 12144   0.125E+00    0.166E+00
DAV:   4    -0.203097122089E+03   -0.33263E+00   -0.63775E-01 12712   0.421E+00    0.622E+00
DAV:   5    -0.202743321535E+03    0.35380E+00   -0.61712E-01 12784   0.369E+00    0.168E+00
DAV:   6    -0.202717807080E+03    0.25514E-01   -0.68742E-02 12000   0.137E+00    0.618E-01
DAV:   7    -0.202718242360E+03   -0.43528E-03   -0.12893E-02 11528   0.622E-01    0.500E-01
DAV:   8    -0.202716756039E+03    0.14863E-02   -0.46914E-03 11744   0.425E-01    0.245E-01
DAV:   9    -0.202717527074E+03   -0.77104E-03   -0.20930E-03 11744   0.248E-01    0.213E-01
DAV:  10    -0.202718922015E+03   -0.13949E-02   -0.15113E-03 11696   0.191E-01    0.131E-01
DAV:  11    -0.202719482286E+03   -0.56027E-03   -0.77162E-04 11856   0.143E-01    0.840E-02
DAV:  12    -0.202720216004E+03   -0.73372E-03   -0.23732E-04 11712   0.679E-02    0.314E-02
DAV:  13    -0.202720723776E+03   -0.50777E-03   -0.12175E-04 11936   0.434E-02    0.443E-02
DAV:  14    -0.202721336511E+03   -0.61273E-03   -0.16689E-04 11632   0.408E-02    0.235E-02
DAV:  15    -0.202721454563E+03   -0.11805E-03   -0.27302E-05  9200   0.214E-02    0.153E-02
DAV:  16    -0.202721568133E+03   -0.11357E-03   -0.14597E-05  8392   0.118E-02    0.794E-03
DAV:  17    -0.202721656510E+03   -0.88377E-04   -0.13820E-05  8656   0.102E-02    0.910E-03
DAV:  18    -0.202721685918E+03   -0.29408E-04   -0.51977E-06  7344   0.846E-03    0.431E-03
DAV:  19    -0.202721693076E+03   -0.71581E-05   -0.17784E-06  6992   0.452E-03
  27 F= -.20272169E+03 E0= -.20010849E+03  d E =0.183225E-01
quench:  g(F)=  0.000E+00 g(S)=  0.000E+00 dE (1.order)= 0.000E+00
 bond charge predicted
       N       E                     dE             d eps       ncg     rms          rms(c)
DAV:   1    -0.202715422302E+03    0.62636E-02   -0.17432E+02 11240   0.134E+01    0.492E+00
DAV:   2    -0.202934547346E+03   -0.21913E+00   -0.53068E+00 11224   0.248E+00    0.349E+00
DAV:   3    -0.202772886405E+03    0.16166E+00   -0.30356E-01 12152   0.116E+00    0.162E+00
DAV:   4    -0.202965701673E+03   -0.19282E+00   -0.43620E-01 12144   0.349E+00    0.509E+00
DAV:   5    -0.202759872188E+03    0.20583E+00   -0.52078E-01 12432   0.319E+00    0.195E+00
DAV:   6    -0.202726517009E+03    0.33355E-01   -0.83092E-02 12072   0.149E+00    0.699E-01
DAV:   7    -0.202726875355E+03   -0.35835E-03   -0.15278E-02 11584   0.692E-01    0.593E-01
DAV:   8    -0.202724483688E+03    0.23917E-02   -0.56826E-03 11832   0.477E-01    0.239E-01
DAV:   9    -0.202725585874E+03   -0.11022E-02   -0.24897E-03 11704   0.258E-01    0.220E-01
DAV:  10    -0.202727019424E+03   -0.14336E-02   -0.14430E-03 11760   0.189E-01    0.115E-01
DAV:  11    -0.202727881269E+03   -0.86184E-03   -0.82528E-04 11856   0.144E-01    0.104E-01
DAV:  12    -0.202728676091E+03   -0.79482E-03   -0.32360E-04 11728   0.841E-02    0.292E-02
DAV:  13    -0.202729289425E+03   -0.61333E-03   -0.14330E-04 11896   0.439E-02    0.464E-02
DAV:  14    -0.202729983700E+03   -0.69427E-03   -0.17355E-04 11560   0.417E-02    0.210E-02
DAV:  15    -0.202730182626E+03   -0.19893E-03   -0.38484E-05  9760   0.225E-02    0.155E-02
DAV:  16    -0.202730353366E+03   -0.17074E-03   -0.21878E-05  8920   0.138E-02    0.798E-03
DAV:  17    -0.202730473888E+03   -0.12052E-03   -0.18970E-05  9024   0.104E-02    0.947E-03
DAV:  18    -0.202730513418E+03   -0.39530E-04   -0.73728E-06  7824   0.901E-03    0.420E-03
DAV:  19    -0.202730520747E+03   -0.73291E-05   -0.17577E-06  6976   0.436E-03
  28 F= -.20273052E+03 E0= -.20011777E+03  d E =-.882767E-02
quench:  g(F)=  0.000E+00 g(S)=  0.000E+00 dE (1.order)= 0.000E+00
 bond charge predicted
       N       E                     dE             d eps       ncg     rms          rms(c)
DAV:   1    -0.202739113498E+03   -0.86001E-02   -0.17412E+02 11240   0.131E+01    0.494E+00
DAV:   2    -0.202929250160E+03   -0.19014E+00   -0.50084E+00 11232   0.246E+00    0.345E+00
DAV:   3    -0.202770028167E+03    0.15922E+00   -0.31500E-01 12128   0.124E+00    0.164E+00
DAV:   4    -0.203087558496E+03   -0.31753E+00   -0.61511E-01 12656   0.414E+00    0.610E+00
DAV:   5    -0.202749710273E+03    0.33785E+00   -0.59031E-01 12760   0.365E+00    0.170E+00
DAV:   6    -0.202723614673E+03    0.26096E-01   -0.69507E-02 12000   0.138E+00    0.619E-01
DAV:   7    -0.202724048511E+03   -0.43384E-03   -0.12967E-02 11536   0.623E-01    0.500E-01
DAV:   8    -0.202722565637E+03    0.14829E-02   -0.47040E-03 11736   0.425E-01    0.246E-01
DAV:   9    -0.202723347808E+03   -0.78217E-03   -0.21062E-03 11704   0.249E-01    0.214E-01
DAV:  10    -0.202724730549E+03   -0.13827E-02   -0.15109E-03 11680   0.191E-01    0.131E-01
DAV:  11    -0.202725297583E+03   -0.56703E-03   -0.77667E-04 11856   0.143E-01    0.847E-02
DAV:  12    -0.202726036022E+03   -0.73844E-03   -0.24160E-04 11704   0.685E-02    0.314E-02
DAV:  13    -0.202726533175E+03   -0.49715E-03   -0.11911E-04 11920   0.432E-02    0.438E-02
DAV:  14    -0.202727159767E+03   -0.62659E-03   -0.17010E-04 11640   0.406E-02    0.236E-02
DAV:  15    -0.202727278491E+03   -0.11872E-03   -0.27698E-05  9184   0.216E-02    0.152E-02
DAV:  16    -0.202727392948E+03   -0.11446E-03   -0.14759E-05  8408   0.118E-02    0.793E-03
DAV:  17    -0.202727480140E+03   -0.87192E-04   -0.13553E-05  8648   0.102E-02    0.904E-03
DAV:  18    -0.202727509433E+03   -0.29293E-04   -0.52063E-06  7352   0.841E-03    0.426E-03
DAV:  19    -0.202727516420E+03   -0.69862E-05   -0.17485E-06  6992   0.448E-03
  29 F= -.20272752E+03 E0= -.20011437E+03  d E =0.300433E-02
quench:  g(F)=  0.000E+00 g(S)=  0.000E+00 dE (1.order)= 0.000E+00
 bond charge predicted
       N       E                     dE             d eps       ncg     rms          rms(c)
DAV:   1    -0.202716297861E+03    0.11212E-01   -0.17417E+02 11256   0.134E+01    0.491E+00
DAV:   2    -0.202936054243E+03   -0.21976E+00   -0.53091E+00 11224   0.248E+00    0.349E+00
DAV:   3    -0.202774315466E+03    0.16174E+00   -0.30197E-01 12144   0.115E+00    0.162E+00
DAV:   4    -0.202963448437E+03   -0.18913E+00   -0.43038E-01 12144   0.347E+00    0.505E+00
DAV:   5    -0.202760973780E+03    0.20247E+00   -0.51403E-01 12448   0.317E+00    0.194E+00
DAV:   6    -0.202728109209E+03    0.32865E-01   -0.82732E-02 12064   0.148E+00    0.701E-01
DAV:   7    -0.202728424882E+03   -0.31567E-03   -0.15233E-02 11584   0.692E-01    0.592E-01
DAV:   8    -0.202726042986E+03    0.23819E-02   -0.56546E-03 11824   0.477E-01    0.238E-01
DAV:   9    -0.202727148745E+03   -0.11058E-02   -0.24955E-03 11704   0.259E-01    0.220E-01
DAV:  10    -0.202728564710E+03   -0.14160E-02   -0.14380E-03 11744   0.189E-01    0.114E-01
DAV:  11    -0.202729430981E+03   -0.86627E-03   -0.82118E-04 11856   0.144E-01    0.104E-01
DAV:  12    -0.202730219535E+03   -0.78855E-03   -0.32386E-04 11720   0.844E-02    0.290E-02
DAV:  13    -0.202730839525E+03   -0.61999E-03   -0.14471E-04 11904   0.438E-02    0.463E-02
DAV:  14    -0.202731526474E+03   -0.68695E-03   -0.17141E-04 11560   0.416E-02    0.210E-02
DAV:  15    -0.202731724026E+03   -0.19755E-03   -0.38175E-05  9752   0.224E-02    0.156E-02
DAV:  16    -0.202731893410E+03   -0.16938E-03   -0.21709E-05  8912   0.138E-02    0.796E-03
DAV:  17    -0.202732013652E+03   -0.12024E-03   -0.19001E-05  9008   0.104E-02    0.944E-03
DAV:  18    -0.202732052485E+03   -0.38834E-04   -0.72547E-06  7840   0.898E-03    0.419E-03
DAV:  19    -0.202732059804E+03   -0.73190E-05   -0.17516E-06  6936   0.434E-03
  30 F= -.20273206E+03 E0= -.20011935E+03  d E =-.454338E-02
quench:  g(F)=  0.000E+00 g(S)=  0.000E+00 dE (1.order)= 0.000E+00
 bond charge predicted
       N       E                     dE             d eps       ncg     rms          rms(c)
DAV:   1    -0.202742384742E+03   -0.10332E-01   -0.17418E+02 11240   0.131E+01    0.493E+00
DAV:   2    -0.202933574914E+03   -0.19119E+00   -0.50191E+00 11232   0.246E+00    0.345E+00
DAV:   3    -0.202773774388E+03    0.15980E+00   -0.31340E-01 12160   0.123E+00    0.163E+00
DAV:   4    -0.203076648212E+03   -0.30287E+00   -0.59265E-01 12584   0.406E+00    0.598E+00
DAV:   5    -0.202753935530E+03    0.32271E+00   -0.56338E-01 12720   0.360E+00    0.171E+00
DAV:   6    -0.202727609922E+03    0.26326E-01   -0.69892E-02 12056   0.139E+00    0.619E-01
DAV:   7    -0.202728003818E+03   -0.39390E-03   -0.12955E-02 11536   0.621E-01    0.498E-01
DAV:   8    -0.202726547409E+03    0.14564E-02   -0.46696E-03 11720   0.424E-01    0.246E-01
DAV:   9    -0.202727331855E+03   -0.78445E-03   -0.21030E-03 11688   0.249E-01    0.215E-01
DAV:  10    -0.202728702525E+03   -0.13707E-02   -0.15043E-03 11688   0.192E-01    0.131E-01
DAV:  11    -0.202729273617E+03   -0.57109E-03   -0.77678E-04 11848   0.143E-01    0.852E-02
DAV:  12    -0.202730013817E+03   -0.74020E-03   -0.24395E-04 11688   0.689E-02    0.312E-02
DAV:  13    -0.202730510099E+03   -0.49628E-03   -0.11895E-04 11912   0.432E-02    0.436E-02
DAV:  14    -0.202731137144E+03   -0.62704E-03   -0.17003E-04 11632   0.405E-02    0.234E-02
DAV:  15    -0.202731256035E+03   -0.11889E-03   -0.27698E-05  9184   0.216E-02    0.151E-02
DAV:  16    -0.202731370798E+03   -0.11476E-03   -0.14822E-05  8416   0.117E-02    0.790E-03
DAV:  17    -0.202731457267E+03   -0.86469E-04   -0.13464E-05  8648   0.101E-02    0.901E-03
DAV:  18    -0.202731486132E+03   -0.28865E-04   -0.51506E-06  7352   0.837E-03    0.421E-03
DAV:  19    -0.202731493027E+03   -0.68954E-05   -0.17272E-06  6960   0.443E-03
  31 F= -.20273149E+03 E0= -.20011838E+03  d E =0.566777E-03
quench:  g(F)=  0.000E+00 g(S)=  0.000E+00 dE (1.order)= 0.000E+00
 bond charge predicted
       N       E                     dE             d eps       ncg     rms          rms(c)
DAV:   1    -0.202717711607E+03    0.13775E-01   -0.17419E+02 11264   0.134E+01    0.491E+00
DAV:   2    -0.202937409860E+03   -0.21970E+00   -0.53085E+00 11224   0.248E+00    0.349E+00
DAV:   3    -0.202775403685E+03    0.16201E+00   -0.30101E-01 12152   0.114E+00    0.161E+00
DAV:   4    -0.202955000678E+03   -0.17960E+00   -0.41763E-01 12104   0.341E+00    0.495E+00
DAV:   5    -0.202762192614E+03    0.19281E+00   -0.49844E-01 12432   0.313E+00    0.194E+00
DAV:   6    -0.202729380344E+03    0.32812E-01   -0.82865E-02 12064   0.148E+00    0.702E-01
DAV:   7    -0.202729680504E+03   -0.30016E-03   -0.15151E-02 11600   0.691E-01    0.590E-01
DAV:   8    -0.202727313058E+03    0.23674E-02   -0.56062E-03 11832   0.476E-01    0.238E-01
DAV:   9    -0.202728421857E+03   -0.11088E-02   -0.24946E-03 11696   0.259E-01    0.220E-01
DAV:  10    -0.202729827548E+03   -0.14057E-02   -0.14339E-03 11736   0.189E-01    0.114E-01
DAV:  11    -0.202730695124E+03   -0.86758E-03   -0.81802E-04 11848   0.143E-01    0.104E-01
DAV:  12    -0.202731482552E+03   -0.78743E-03   -0.32448E-04 11720   0.845E-02    0.289E-02
DAV:  13    -0.202732103818E+03   -0.62127E-03   -0.14505E-04 11896   0.438E-02    0.461E-02
DAV:  14    -0.202732786963E+03   -0.68315E-03   -0.17006E-04 11552   0.415E-02    0.209E-02
DAV:  15    -0.202732984265E+03   -0.19730E-03   -0.38042E-05  9744   0.223E-02    0.156E-02
DAV:  16    -0.202733153454E+03   -0.16919E-03   -0.21762E-05  8904   0.138E-02    0.794E-03
DAV:  17    -0.202733272202E+03   -0.11875E-03   -0.18725E-05  8992   0.104E-02    0.943E-03
DAV:  18    -0.202733310818E+03   -0.38617E-04   -0.72212E-06  7824   0.897E-03    0.418E-03
DAV:  19    -0.202733318050E+03   -0.72320E-05   -0.17406E-06  6928   0.434E-03
  32 F= -.20273332E+03 E0= -.20012062E+03  d E =-.182502E-02
quench:  g(F)=  0.000E+00 g(S)=  0.000E+00 dE (1.order)= 0.000E+00
 bond charge predicted
       N       E                     dE             d eps       ncg     rms          rms(c)
DAV:   1    -0.202745464150E+03   -0.12153E-01   -0.17422E+02 11256   0.131E+01    0.493E+00
DAV:   2    -0.202936882601E+03   -0.19142E+00   -0.50218E+00 11232   0.246E+00    0.345E+00
DAV:   3    -0.202776678831E+03    0.16020E+00   -0.31268E-01 12152   0.122E+00    0.162E+00
DAV:   4    -0.203067328308E+03   -0.29065E+00   -0.57388E-01 12560   0.400E+00    0.587E+00
DAV:   5    -0.202757198234E+03    0.31013E+00   -0.54083E-01 12680   0.355E+00    0.171E+00
DAV:   6    -0.202730796846E+03    0.26401E-01   -0.70072E-02 12048   0.139E+00    0.619E-01
DAV:   7    -0.202731145257E+03   -0.34841E-03   -0.12920E-02 11528   0.619E-01    0.495E-01
DAV:   8    -0.202729719470E+03    0.14258E-02   -0.46226E-03 11704   0.422E-01    0.246E-01
DAV:   9    -0.202730508764E+03   -0.78929E-03   -0.20954E-03 11688   0.249E-01    0.216E-01
DAV:  10    -0.202731868602E+03   -0.13598E-02   -0.14974E-03 11680   0.192E-01    0.130E-01
DAV:  11    -0.202732445062E+03   -0.57646E-03   -0.77691E-04 11856   0.143E-01    0.859E-02
DAV:  12    -0.202733185173E+03   -0.74011E-03   -0.24634E-04 11696   0.693E-02    0.311E-02
DAV:  13    -0.202733684078E+03   -0.49891E-03   -0.11959E-04 11912   0.431E-02    0.436E-02
DAV:  14    -0.202734308897E+03   -0.62482E-03   -0.16939E-04 11632   0.404E-02    0.233E-02
DAV:  15    -0.202734427773E+03   -0.11888E-03   -0.27626E-05  9176   0.216E-02    0.150E-02
DAV:  16    -0.202734542532E+03   -0.11476E-03   -0.14844E-05  8416   0.118E-02    0.788E-03
DAV:  17    -0.202734628443E+03   -0.85911E-04   -0.13403E-05  8640   0.101E-02    0.899E-03
DAV:  18    -0.202734656943E+03   -0.28500E-04   -0.51092E-06  7336   0.835E-03    0.417E-03
DAV:  19    -0.202734663731E+03   -0.67873E-05   -0.17027E-06  6976   0.439E-03
  33 F= -.20273466E+03 E0= -.20012156E+03  d E =-.134568E-02
quench:  g(F)=  0.000E+00 g(S)=  0.000E+00 dE (1.order)= 0.000E+00
 bond charge predicted
       N       E                     dE             d eps       ncg     rms          rms(c)
DAV:   1    -0.202719252454E+03    0.15404E-01   -0.17419E+02 11272   0.134E+01    0.491E+00
DAV:   2    -0.202938296774E+03   -0.21904E+00   -0.53026E+00 11224   0.248E+00    0.349E+00
DAV:   3    -0.202776013884E+03    0.16228E+00   -0.30076E-01 12160   0.113E+00    0.160E+00
DAV:   4    -0.202941838281E+03   -0.16582E+00   -0.39954E-01 12032   0.333E+00    0.480E+00
DAV:   5    -0.202763340336E+03    0.17850E+00   -0.47540E-01 12432   0.306E+00    0.195E+00
DAV:   6    -0.202730266603E+03    0.33074E-01   -0.83359E-02 12040   0.148E+00    0.701E-01
DAV:   7    -0.202730559301E+03   -0.29270E-03   -0.15054E-02 11600   0.688E-01    0.588E-01
DAV:   8    -0.202728212331E+03    0.23470E-02   -0.55431E-03 11832   0.474E-01    0.238E-01
DAV:   9    -0.202729321996E+03   -0.11097E-02   -0.24920E-03 11696   0.259E-01    0.220E-01
DAV:  10    -0.202730717679E+03   -0.13957E-02   -0.14290E-03 11712   0.189E-01    0.113E-01
DAV:  11    -0.202731588152E+03   -0.87047E-03   -0.81446E-04 11848   0.143E-01    0.105E-01
DAV:  12    -0.202732375921E+03   -0.78777E-03   -0.32521E-04 11720   0.846E-02    0.288E-02
DAV:  13    -0.202732995226E+03   -0.61930E-03   -0.14460E-04 11896   0.437E-02    0.460E-02
DAV:  14    -0.202733677221E+03   -0.68199E-03   -0.16943E-04 11536   0.414E-02    0.208E-02
DAV:  15    -0.202733874382E+03   -0.19716E-03   -0.37960E-05  9752   0.223E-02    0.155E-02
DAV:  16    -0.202734044605E+03   -0.17022E-03   -0.22024E-05  8896   0.138E-02    0.791E-03
DAV:  17    -0.202734161407E+03   -0.11680E-03   -0.18320E-05  8968   0.103E-02    0.941E-03
DAV:  18    -0.202734199869E+03   -0.38462E-04   -0.72243E-06  7784   0.894E-03    0.415E-03
DAV:  19    -0.202734206983E+03   -0.71137E-05   -0.17206E-06  6976   0.432E-03
  34 F= -.20273421E+03 E0= -.20012152E+03  d E =0.456748E-03
quench:  g(F)=  0.000E+00 g(S)=  0.000E+00 dE (1.order)= 0.000E+00
 bond charge predicted
       N       E                     dE             d eps       ncg     rms          rms(c)
DAV:   1    -0.202747292388E+03   -0.13093E-01   -0.17427E+02 11264   0.131E+01    0.493E+00
DAV:   2    -0.202939560474E+03   -0.19227E+00   -0.50295E+00 11232   0.246E+00    0.345E+00
DAV:   3    -0.202778842116E+03    0.16072E+00   -0.31154E-01 12160   0.121E+00    0.161E+00
DAV:   4    -0.203054209344E+03   -0.27537E+00   -0.55104E-01 12520   0.392E+00    0.574E+00
DAV:   5    -0.202759856042E+03    0.29435E+00   -0.51438E-01 12664   0.350E+00    0.172E+00
DAV:   6    -0.202733226616E+03    0.26629E-01   -0.70479E-02 12032   0.139E+00    0.620E-01
DAV:   7    -0.202733521758E+03   -0.29514E-03   -0.12907E-02 11528   0.617E-01    0.491E-01
DAV:   8    -0.202732134902E+03    0.13869E-02   -0.45591E-03 11704   0.420E-01    0.246E-01
DAV:   9    -0.202732929835E+03   -0.79493E-03   -0.20826E-03 11696   0.249E-01    0.216E-01
DAV:  10    -0.202734278816E+03   -0.13490E-02   -0.14901E-03 11664   0.192E-01    0.130E-01
DAV:  11    -0.202734860489E+03   -0.58167E-03   -0.77733E-04 11864   0.143E-01    0.865E-02
DAV:  12    -0.202735602609E+03   -0.74212E-03   -0.24892E-04 11688   0.697E-02    0.309E-02
DAV:  13    -0.202736102237E+03   -0.49963E-03   -0.11990E-04 11912   0.431E-02    0.437E-02
DAV:  14    -0.202736725738E+03   -0.62350E-03   -0.16892E-04 11632   0.404E-02    0.231E-02
DAV:  15    -0.202736845128E+03   -0.11939E-03   -0.27666E-05  9192   0.216E-02    0.149E-02
DAV:  16    -0.202736960076E+03   -0.11495E-03   -0.14863E-05  8416   0.117E-02    0.787E-03
DAV:  17    -0.202737045398E+03   -0.85323E-04   -0.13301E-05  8616   0.101E-02    0.898E-03
DAV:  18    -0.202737073558E+03   -0.28159E-04   -0.50966E-06  7320   0.832E-03    0.412E-03
DAV:  19    -0.202737080237E+03   -0.66793E-05   -0.16896E-06  6984   0.434E-03
  35 F= -.20273708E+03 E0= -.20012398E+03  d E =-.287325E-02
quench:  g(F)=  0.000E+00 g(S)=  0.000E+00 dE (1.order)= 0.000E+00
 bond charge predicted
       N       E                     dE             d eps       ncg     rms          rms(c)
DAV:   1    -0.202721121465E+03    0.15952E-01   -0.17421E+02 11272   0.134E+01    0.491E+00
DAV:   2    -0.202938903541E+03   -0.21778E+00   -0.52911E+00 11224   0.248E+00    0.349E+00
DAV:   3    -0.202776451207E+03    0.16245E+00   -0.30110E-01 12152   0.112E+00    0.159E+00
DAV:   4    -0.202932644873E+03   -0.15619E+00   -0.38625E-01 11992   0.327E+00    0.468E+00
DAV:   5    -0.202764059272E+03    0.16859E+00   -0.45809E-01 12416   0.302E+00    0.195E+00
DAV:   6    -0.202731000749E+03    0.33059E-01   -0.83468E-02 12032   0.148E+00    0.701E-01
DAV:   7    -0.202731264405E+03   -0.26366E-03   -0.14950E-02 11608   0.686E-01    0.586E-01
DAV:   8    -0.202728935205E+03    0.23292E-02   -0.54796E-03 11848   0.472E-01    0.238E-01
DAV:   9    -0.202730050266E+03   -0.11151E-02   -0.24865E-03 11680   0.259E-01    0.220E-01
DAV:  10    -0.202731440089E+03   -0.13898E-02   -0.14274E-03 11712   0.189E-01    0.112E-01
DAV:  11    -0.202732310836E+03   -0.87075E-03   -0.81137E-04 11848   0.143E-01    0.105E-01
DAV:  12    -0.202733098931E+03   -0.78810E-03   -0.32514E-04 11720   0.846E-02    0.287E-02
DAV:  13    -0.202733715870E+03   -0.61694E-03   -0.14403E-04 11912   0.436E-02    0.459E-02
DAV:  14    -0.202734398044E+03   -0.68217E-03   -0.16915E-04 11544   0.414E-02    0.208E-02
DAV:  15    -0.202734594315E+03   -0.19627E-03   -0.37819E-05  9744   0.223E-02    0.155E-02
DAV:  16    -0.202734765234E+03   -0.17092E-03   -0.22202E-05  8920   0.139E-02    0.788E-03
DAV:  17    -0.202734880425E+03   -0.11519E-03   -0.17976E-05  8888   0.103E-02    0.939E-03
DAV:  18    -0.202734918678E+03   -0.38253E-04   -0.72116E-06  7752   0.891E-03    0.413E-03
DAV:  19    -0.202734925711E+03   -0.70333E-05   -0.17274E-06  6976   0.432E-03
  36 F= -.20273493E+03 E0= -.20012222E+03  d E =0.215453E-02
quench:  g(F)=  0.000E+00 g(S)=  0.000E+00 dE (1.order)= 0.000E+00
 bond charge predicted
       N       E                     dE             d eps       ncg     rms          rms(c)
DAV:   1    -0.202749073718E+03   -0.14155E-01   -0.17430E+02 11256   0.131E+01    0.493E+00
DAV:   2    -0.202941846165E+03   -0.19277E+00   -0.50336E+00 11232   0.246E+00    0.346E+00
DAV:   3    -0.202780663005E+03    0.16118E+00   -0.31062E-01 12168   0.120E+00    0.160E+00
DAV:   4    -0.203040502624E+03   -0.25984E+00   -0.52813E-01 12472   0.384E+00    0.560E+00
DAV:   5    -0.202762181392E+03    0.27832E+00   -0.48833E-01 12656   0.344E+00    0.173E+00
DAV:   6    -0.202735333137E+03    0.26848E-01   -0.70853E-02 12016   0.139E+00    0.620E-01
DAV:   7    -0.202735585117E+03   -0.25198E-03   -0.12875E-02 11536   0.615E-01    0.487E-01
DAV:   8    -0.202734234533E+03    0.13506E-02   -0.44944E-03 11712   0.417E-01    0.245E-01
DAV:   9    -0.202735037470E+03   -0.80294E-03   -0.20698E-03 11696   0.249E-01    0.217E-01
DAV:  10    -0.202736376008E+03   -0.13385E-02   -0.14839E-03 11656   0.192E-01    0.129E-01
DAV:  11    -0.202736963470E+03   -0.58746E-03   -0.77676E-04 11864   0.143E-01    0.869E-02
DAV:  12    -0.202737707092E+03   -0.74362E-03   -0.25079E-04 11680   0.700E-02    0.308E-02
DAV:  13    -0.202738208126E+03   -0.50103E-03   -0.12034E-04 11912   0.431E-02    0.437E-02
DAV:  14    -0.202738830175E+03   -0.62205E-03   -0.16851E-04 11624   0.403E-02    0.229E-02
DAV:  15    -0.202738949769E+03   -0.11959E-03   -0.27621E-05  9192   0.215E-02    0.148E-02
DAV:  16    -0.202739065050E+03   -0.11528E-03   -0.14917E-05  8432   0.117E-02    0.785E-03
DAV:  17    -0.202739149742E+03   -0.84691E-04   -0.13227E-05  8608   0.101E-02    0.899E-03
DAV:  18    -0.202739177652E+03   -0.27910E-04   -0.50818E-06  7320   0.830E-03    0.408E-03
DAV:  19    -0.202739184194E+03   -0.65421E-05   -0.16664E-06  6984   0.430E-03
  37 F= -.20273918E+03 E0= -.20012607E+03  d E =-.425848E-02
quench:  g(F)=  0.000E+00 g(S)=  0.000E+00 dE (1.order)= 0.000E+00
 bond charge predicted
       N       E                     dE             d eps       ncg     rms          rms(c)
DAV:   1    -0.202722801816E+03    0.16376E-01   -0.17423E+02 11280   0.134E+01    0.491E+00
DAV:   2    -0.202939265487E+03   -0.21646E+00   -0.52796E+00 11224   0.247E+00    0.349E+00
DAV:   3    -0.202776633128E+03    0.16263E+00   -0.30172E-01 12152   0.112E+00    0.159E+00
DAV:   4    -0.202921807666E+03   -0.14517E+00   -0.37106E-01 11968   0.320E+00    0.455E+00
DAV:   5    -0.202764672281E+03    0.15714E+00   -0.43831E-01 12448   0.296E+00    0.196E+00
DAV:   6    -0.202731540479E+03    0.33132E-01   -0.83622E-02 12040   0.147E+00    0.700E-01
DAV:   7    -0.202731777732E+03   -0.23725E-03   -0.14819E-02 11608   0.683E-01    0.583E-01
DAV:   8    -0.202729475882E+03    0.23019E-02   -0.54030E-03 11848   0.469E-01    0.237E-01
DAV:   9    -0.202730596185E+03   -0.11203E-02   -0.24808E-03 11664   0.258E-01    0.220E-01
DAV:  10    -0.202731981185E+03   -0.13850E-02   -0.14253E-03 11728   0.189E-01    0.112E-01
DAV:  11    -0.202732852423E+03   -0.87124E-03   -0.80795E-04 11840   0.142E-01    0.105E-01
DAV:  12    -0.202733638838E+03   -0.78642E-03   -0.32453E-04 11720   0.846E-02    0.286E-02
DAV:  13    -0.202734254922E+03   -0.61608E-03   -0.14374E-04 11912   0.436E-02    0.457E-02
DAV:  14    -0.202734935745E+03   -0.68082E-03   -0.16849E-04 11536   0.413E-02    0.208E-02
DAV:  15    -0.202735131888E+03   -0.19614E-03   -0.37726E-05  9744   0.223E-02    0.155E-02
DAV:  16    -0.202735303584E+03   -0.17170E-03   -0.22397E-05  8912   0.139E-02    0.786E-03
DAV:  17    -0.202735417078E+03   -0.11349E-03   -0.17648E-05  8848   0.103E-02    0.937E-03
DAV:  18    -0.202735455205E+03   -0.38127E-04   -0.72041E-06  7744   0.889E-03    0.410E-03
DAV:  19    -0.202735462149E+03   -0.69440E-05   -0.17188E-06  6984   0.431E-03
  38 F= -.20273546E+03 E0= -.20012274E+03  d E =0.372205E-02
quench:  g(F)=  0.000E+00 g(S)=  0.000E+00 dE (1.order)= 0.000E+00
 bond charge predicted
       N       E                     dE             d eps       ncg     rms          rms(c)
DAV:   1    -0.202751616711E+03   -0.16162E-01   -0.17435E+02 11256   0.131E+01    0.493E+00
DAV:   2    -0.202943587961E+03   -0.19197E+00   -0.50264E+00 11232   0.245E+00    0.345E+00
DAV:   3    -0.202782043033E+03    0.16154E+00   -0.31021E-01 12168   0.119E+00    0.159E+00
DAV:   4    -0.203027303708E+03   -0.24526E+00   -0.50689E-01 12408   0.377E+00    0.546E+00
DAV:   5    -0.202764204176E+03    0.26310E+00   -0.46386E-01 12608   0.338E+00    0.174E+00
DAV:   6    -0.202737048901E+03    0.27155E-01   -0.71163E-02 12008   0.139E+00    0.618E-01
DAV:   7    -0.202737284706E+03   -0.23581E-03   -0.12821E-02 11520   0.612E-01    0.484E-01
DAV:   8    -0.202735964659E+03    0.13200E-02   -0.44439E-03 11720   0.415E-01    0.245E-01
DAV:   9    -0.202736774446E+03   -0.80979E-03   -0.20603E-03 11688   0.249E-01    0.218E-01
DAV:  10    -0.202738105811E+03   -0.13314E-02   -0.14777E-03 11664   0.192E-01    0.129E-01
DAV:  11    -0.202738698121E+03   -0.59231E-03   -0.77589E-04 11864   0.143E-01    0.872E-02
DAV:  12    -0.202739444879E+03   -0.74676E-03   -0.25260E-04 11680   0.702E-02    0.306E-02
DAV:  13    -0.202739945247E+03   -0.50037E-03   -0.12016E-04 11904   0.430E-02    0.437E-02
DAV:  14    -0.202740567497E+03   -0.62225E-03   -0.16835E-04 11624   0.402E-02    0.228E-02
DAV:  15    -0.202740687778E+03   -0.12028E-03   -0.27686E-05  9200   0.215E-02    0.146E-02
[...]
DAV:   8    -0.202776058889E+03    0.70879E-03   -0.34078E-03 11760   0.369E-01    0.235E-01
DAV:   9    -0.202777153242E+03   -0.10944E-02   -0.19193E-03 11720   0.248E-01    0.231E-01
DAV:  10    -0.202778364423E+03   -0.12112E-02   -0.14306E-03 11664   0.197E-01    0.114E-01
DAV:  11    -0.202779073124E+03   -0.70870E-03   -0.75212E-04 11872   0.137E-01    0.965E-02
DAV:  12    -0.202779756889E+03   -0.68377E-03   -0.27042E-04 11640   0.767E-02    0.283E-02
DAV:  13    -0.202780383063E+03   -0.62617E-03   -0.14964E-04 11912   0.427E-02    0.436E-02
DAV:  14    -0.202780927408E+03   -0.54435E-03   -0.14342E-04 11464   0.394E-02    0.199E-02
DAV:  15    -0.202781053077E+03   -0.12567E-03   -0.26486E-05  9216   0.203E-02    0.151E-02
DAV:  16    -0.202781165946E+03   -0.11287E-03   -0.15027E-05  8384   0.126E-02    0.767E-03
DAV:  17    -0.202781247409E+03   -0.81462E-04   -0.13195E-05  8640   0.955E-03    0.872E-03
DAV:  18    -0.202781270198E+03   -0.22790E-04   -0.43648E-06  7376   0.793E-03    0.371E-03
DAV:  19    -0.202781275966E+03   -0.57676E-05   -0.14814E-06  6920   0.391E-03
 157 F= -.20278128E+03 E0= -.20016670E+03  d E =-.353670E-01
quench:  g(F)=  0.000E+00 g(S)=  0.000E+00 dE (1.order)= 0.000E+00
 bond charge predicted
       N       E                     dE             d eps       ncg     rms          rms(c)
DAV:   1    -0.202759457616E+03    0.21813E-01   -0.17459E+02 11272   0.131E+01    0.493E+00
DAV:   2    -0.202948268688E+03   -0.18881E+00   -0.50405E+00 11232   0.238E+00    0.346E+00
DAV:   3    -0.202781633927E+03    0.16663E+00   -0.31083E-01 12184   0.100E+00    0.143E+00
DAV:   4    -0.202786715451E+03   -0.50815E-02   -0.17368E-01 11616   0.207E+00    0.218E+00
DAV:   5    -0.202756435958E+03    0.30279E-01   -0.13311E-01 11960   0.193E+00    0.145E+00
DAV:   6    -0.202745443849E+03    0.10992E-01   -0.64178E-02 11992   0.120E+00    0.911E-01
DAV:   7    -0.202741076006E+03    0.43678E-02   -0.16886E-02 11632   0.673E-01    0.452E-01
DAV:   8    -0.202740098749E+03    0.97726E-03   -0.32575E-03 11872   0.380E-01    0.236E-01
DAV:   9    -0.202741308604E+03   -0.12099E-02   -0.21185E-03 11640   0.257E-01    0.240E-01
DAV:  10    -0.202742608460E+03   -0.12999E-02   -0.14845E-03 11728   0.198E-01    0.113E-01
DAV:  11    -0.202743372469E+03   -0.76401E-03   -0.75294E-04 11848   0.138E-01    0.901E-02
DAV:  12    -0.202744248692E+03   -0.87622E-03   -0.27895E-04 11688   0.724E-02    0.284E-02
DAV:  13    -0.202744835167E+03   -0.58648E-03   -0.13724E-04 11872   0.440E-02    0.470E-02
DAV:  14    -0.202745550115E+03   -0.71495E-03   -0.18272E-04 11488   0.408E-02    0.195E-02
DAV:  15    -0.202745716183E+03   -0.16607E-03   -0.31010E-05  9544   0.207E-02    0.131E-02
DAV:  16    -0.202745888070E+03   -0.17189E-03   -0.23286E-05  9016   0.130E-02    0.782E-03
DAV:  17    -0.202745964006E+03   -0.75937E-04   -0.10630E-05  8216   0.987E-03    0.903E-03
DAV:  18    -0.202746003170E+03   -0.39164E-04   -0.78756E-06  7928   0.832E-03    0.391E-03
DAV:  19    -0.202746007968E+03   -0.47982E-05   -0.13237E-06  7048   0.413E-03
 158 F= -.20274601E+03 E0= -.20013170E+03  d E =0.352680E-01
quench:  g(F)=  0.000E+00 g(S)=  0.000E+00 dE (1.order)= 0.000E+00
 bond charge predicted
       N       E                     dE             d eps       ncg     rms          rms(c)
DAV:   1    -0.202812228547E+03   -0.66225E-01   -0.17498E+02 11248   0.128E+01    0.494E+00
DAV:   2    -0.202983303540E+03   -0.17107E+00   -0.48696E+00 11224   0.235E+00    0.345E+00
DAV:   3    -0.202817843291E+03    0.16546E+00   -0.31026E-01 12184   0.106E+00    0.146E+00
DAV:   4    -0.202945719873E+03   -0.12788E+00   -0.31829E-01 12024   0.300E+00    0.421E+00
DAV:   5    -0.202799401976E+03    0.14632E+00   -0.27398E-01 12480   0.276E+00    0.161E+00
DAV:   6    -0.202777818926E+03    0.21583E-01   -0.64731E-02 11992   0.130E+00    0.645E-01
DAV:   7    -0.202777110332E+03    0.70859E-03   -0.11358E-02 11576   0.577E-01    0.417E-01
DAV:   8    -0.202776407309E+03    0.70302E-03   -0.33989E-03 11760   0.369E-01    0.235E-01
DAV:   9    -0.202777504515E+03   -0.10972E-02   -0.19172E-03 11720   0.248E-01    0.231E-01
DAV:  10    -0.202778714210E+03   -0.12097E-02   -0.14304E-03 11664   0.197E-01    0.114E-01
DAV:  11    -0.202779424251E+03   -0.71004E-03   -0.75199E-04 11872   0.137E-01    0.966E-02
DAV:  12    -0.202780107456E+03   -0.68320E-03   -0.27057E-04 11640   0.768E-02    0.283E-02
DAV:  13    -0.202780734118E+03   -0.62666E-03   -0.14972E-04 11912   0.427E-02    0.436E-02
DAV:  14    -0.202781278660E+03   -0.54454E-03   -0.14340E-04 11464   0.394E-02    0.198E-02
DAV:  15    -0.202781404357E+03   -0.12570E-03   -0.26488E-05  9216   0.203E-02    0.151E-02
DAV:  16    -0.202781517204E+03   -0.11285E-03   -0.15032E-05  8376   0.127E-02    0.767E-03
DAV:  17    -0.202781598655E+03   -0.81451E-04   -0.13195E-05  8640   0.954E-03    0.871E-03
DAV:  18    -0.202781621412E+03   -0.22757E-04   -0.43588E-06  7376   0.792E-03    0.371E-03
DAV:  19    -0.202781627171E+03   -0.57593E-05   -0.14791E-06  6912   0.391E-03
 159 F= -.20278163E+03 E0= -.20016705E+03  d E =-.356192E-01
quench:  g(F)=  0.000E+00 g(S)=  0.000E+00 dE (1.order)= 0.000E+00
 bond charge predicted
       N       E                     dE             d eps       ncg     rms          rms(c)
DAV:   1    -0.202759732384E+03    0.21889E-01   -0.17459E+02 11272   0.130E+01    0.493E+00
DAV:   2    -0.202948375673E+03   -0.18864E+00   -0.50390E+00 11232   0.238E+00    0.346E+00
DAV:   3    -0.202781707103E+03    0.16667E+00   -0.31086E-01 12184   0.100E+00    0.143E+00
DAV:   4    -0.202786995312E+03   -0.52882E-02   -0.17379E-01 11624   0.207E+00    0.219E+00
DAV:   5    -0.202757136619E+03    0.29859E-01   -0.13466E-01 11976   0.194E+00    0.147E+00
DAV:   6    -0.202745322642E+03    0.11814E-01   -0.64578E-02 12000   0.121E+00    0.899E-01
DAV:   7    -0.202741170681E+03    0.41520E-02   -0.16610E-02 11600   0.668E-01    0.452E-01
DAV:   8    -0.202740195484E+03    0.97520E-03   -0.32591E-03 11872   0.381E-01    0.236E-01
DAV:   9    -0.202741407900E+03   -0.12124E-02   -0.21177E-03 11640   0.257E-01    0.241E-01
DAV:  10    -0.202742705899E+03   -0.12980E-02   -0.14837E-03 11728   0.198E-01    0.113E-01
DAV:  11    -0.202743469582E+03   -0.76368E-03   -0.75286E-04 11848   0.138E-01    0.900E-02
DAV:  12    -0.202744346456E+03   -0.87687E-03   -0.27887E-04 11688   0.723E-02    0.284E-02
DAV:  13    -0.202744936594E+03   -0.59014E-03   -0.13802E-04 11872   0.439E-02    0.470E-02
DAV:  14    -0.202745648223E+03   -0.71163E-03   -0.18194E-04 11480   0.408E-02    0.195E-02
DAV:  15    -0.202745813957E+03   -0.16573E-03   -0.30925E-05  9544   0.207E-02    0.131E-02
DAV:  16    -0.202745985157E+03   -0.17120E-03   -0.23161E-05  9000   0.130E-02    0.783E-03
DAV:  17    -0.202746061173E+03   -0.76016E-04   -0.10662E-05  8208   0.987E-03    0.904E-03
DAV:  18    -0.202746100166E+03   -0.38994E-04   -0.78470E-06  7920   0.832E-03    0.391E-03
DAV:  19    -0.202746104948E+03   -0.47819E-05   -0.13239E-06  7048   0.413E-03
 160 F= -.20274610E+03 E0= -.20013179E+03  d E =0.355222E-01
quench:  g(F)=  0.000E+00 g(S)=  0.000E+00 dE (1.order)= 0.000E+00
 bond charge predicted
       N       E                     dE             d eps       ncg     rms          rms(c)
DAV:   1    -0.202812710621E+03   -0.66610E-01   -0.17498E+02 11248   0.128E+01    0.494E+00
DAV:   2    -0.202983640326E+03   -0.17093E+00   -0.48687E+00 11224   0.235E+00    0.345E+00
DAV:   3    -0.202818178901E+03    0.16546E+00   -0.31030E-01 12184   0.106E+00    0.146E+00
DAV:   4    -0.202947099422E+03   -0.12892E+00   -0.31931E-01 12024   0.301E+00    0.422E+00
DAV:   5    -0.202799578320E+03    0.14752E+00   -0.27485E-01 12480   0.276E+00    0.161E+00
DAV:   6    -0.202778163673E+03    0.21415E-01   -0.64528E-02 11992   0.130E+00    0.645E-01
DAV:   7    -0.202777444408E+03    0.71926E-03   -0.11347E-02 11584   0.577E-01    0.417E-01
DAV:   8    -0.202776747538E+03    0.69687E-03   -0.33902E-03 11760   0.368E-01    0.235E-01
DAV:   9    -0.202777847157E+03   -0.10996E-02   -0.19152E-03 11712   0.248E-01    0.231E-01
DAV:  10    -0.202779055924E+03   -0.12088E-02   -0.14306E-03 11672   0.197E-01    0.114E-01
DAV:  11    -0.202779767557E+03   -0.71163E-03   -0.75198E-04 11872   0.137E-01    0.967E-02
DAV:  12    -0.202780449477E+03   -0.68192E-03   -0.27065E-04 11640   0.769E-02    0.283E-02
DAV:  13    -0.202781077947E+03   -0.62847E-03   -0.15017E-04 11904   0.427E-02    0.435E-02
DAV:  14    -0.202781621737E+03   -0.54379E-03   -0.14316E-04 11464   0.393E-02    0.198E-02
DAV:  15    -0.202781747344E+03   -0.12561E-03   -0.26451E-05  9216   0.202E-02    0.151E-02
DAV:  16    -0.202781859890E+03   -0.11255E-03   -0.14993E-05  8368   0.127E-02    0.768E-03
DAV:  17    -0.202781941512E+03   -0.81622E-04   -0.13238E-05  8640   0.954E-03    0.870E-03
DAV:  18    -0.202781964156E+03   -0.22643E-04   -0.43334E-06  7368   0.792E-03    0.372E-03
DAV:  19    -0.202781969957E+03   -0.58010E-05   -0.14882E-06  6920   0.390E-03
 161 F= -.20278197E+03 E0= -.20016738E+03  d E =-.358650E-01
quench:  g(F)=  0.000E+00 g(S)=  0.000E+00 dE (1.order)= 0.000E+00
 bond charge predicted
       N       E                     dE             d eps       ncg     rms          rms(c)
DAV:   1    -0.202759927377E+03    0.22037E-01   -0.17459E+02 11264   0.130E+01    0.493E+00
DAV:   2    -0.202948513891E+03   -0.18859E+00   -0.50385E+00 11232   0.238E+00    0.346E+00
DAV:   3    -0.202781808852E+03    0.16671E+00   -0.31079E-01 12184   0.999E-01    0.143E+00
DAV:   4    -0.202786969472E+03   -0.51606E-02   -0.17352E-01 11616   0.207E+00    0.219E+00
DAV:   5    -0.202757345924E+03    0.29624E-01   -0.13478E-01 11976   0.194E+00    0.147E+00
DAV:   6    -0.202745384136E+03    0.11962E-01   -0.64647E-02 12000   0.121E+00    0.897E-01
DAV:   7    -0.202741258473E+03    0.41257E-02   -0.16553E-02 11600   0.667E-01    0.451E-01
DAV:   8    -0.202740292005E+03    0.96647E-03   -0.32515E-03 11872   0.380E-01    0.236E-01
DAV:   9    -0.202741507325E+03   -0.12153E-02   -0.21145E-03 11656   0.257E-01    0.241E-01
DAV:  10    -0.202742803062E+03   -0.12957E-02   -0.14834E-03 11720   0.198E-01    0.113E-01
DAV:  11    -0.202743566562E+03   -0.76350E-03   -0.75243E-04 11848   0.138E-01    0.900E-02
DAV:  12    -0.202744443048E+03   -0.87649E-03   -0.27861E-04 11688   0.723E-02    0.283E-02
DAV:  13    -0.202745034422E+03   -0.59137E-03   -0.13831E-04 11872   0.439E-02    0.470E-02
DAV:  14    -0.202745744946E+03   -0.71052E-03   -0.18171E-04 11480   0.408E-02    0.195E-02
DAV:  15    -0.202745910229E+03   -0.16528E-03   -0.30854E-05  9552   0.207E-02    0.131E-02
DAV:  16    -0.202746081139E+03   -0.17091E-03   -0.23110E-05  8992   0.130E-02    0.783E-03
DAV:  17    -0.202746157227E+03   -0.76087E-04   -0.10685E-05  8208   0.987E-03    0.904E-03
DAV:  18    -0.202746196051E+03   -0.38825E-04   -0.78118E-06  7904   0.832E-03    0.391E-03
DAV:  19    -0.202746200817E+03   -0.47656E-05   -0.13271E-06  7048   0.413E-03
 162 F= -.20274620E+03 E0= -.20013188E+03  d E =0.357691E-01
quench:  g(F)=  0.000E+00 g(S)=  0.000E+00 dE (1.order)= 0.000E+00
 bond charge predicted
       N       E                     dE             d eps       ncg     rms          rms(c)
DAV:   1    -0.202813224535E+03   -0.67028E-01   -0.17499E+02 11248   0.128E+01    0.494E+00
DAV:   2    -0.202983971062E+03   -0.17075E+00   -0.48674E+00 11224   0.235E+00    0.345E+00
DAV:   3    -0.202818487311E+03    0.16548E+00   -0.31033E-01 12184   0.106E+00    0.146E+00
DAV:   4    -0.202946999013E+03   -0.12851E+00   -0.31851E-01 12024   0.300E+00    0.422E+00
DAV:   5    -0.202799824417E+03    0.14717E+00   -0.27412E-01 12480   0.276E+00    0.161E+00
DAV:   6    -0.202778505729E+03    0.21319E-01   -0.64428E-02 11992   0.130E+00    0.646E-01
DAV:   7    -0.202777773249E+03    0.73248E-03   -0.11338E-02 11584   0.577E-01    0.416E-01
DAV:   8    -0.202777083438E+03    0.68981E-03   -0.33798E-03 11760   0.368E-01    0.235E-01
DAV:   9    -0.202778186610E+03   -0.11032E-02   -0.19128E-03 11712   0.248E-01    0.231E-01
DAV:  10    -0.202779393530E+03   -0.12069E-02   -0.14303E-03 11672   0.197E-01    0.113E-01
DAV:  11    -0.202780106594E+03   -0.71306E-03   -0.75177E-04 11872   0.137E-01    0.968E-02
DAV:  12    -0.202780787822E+03   -0.68123E-03   -0.27081E-04 11640   0.770E-02    0.282E-02
DAV:  13    -0.202781417122E+03   -0.62930E-03   -0.15034E-04 11896   0.427E-02    0.435E-02
DAV:  14    -0.202781960716E+03   -0.54359E-03   -0.14305E-04 11464   0.393E-02    0.198E-02
DAV:  15    -0.202782086407E+03   -0.12569E-03   -0.26446E-05  9216   0.202E-02    0.151E-02
DAV:  16    -0.202782198858E+03   -0.11245E-03   -0.14993E-05  8368   0.127E-02    0.767E-03
DAV:  17    -0.202782280492E+03   -0.81634E-04   -0.13243E-05  8640   0.953E-03    0.869E-03
DAV:  18    -0.202782303053E+03   -0.22561E-04   -0.43170E-06  7368   0.791E-03    0.372E-03
DAV:  19    -0.202782308870E+03   -0.58170E-05   -0.14875E-06  6920   0.390E-03
 163 F= -.20278231E+03 E0= -.20016771E+03  d E =-.361081E-01
quench:  g(F)=  0.000E+00 g(S)=  0.000E+00 dE (1.order)= 0.000E+00
 bond charge predicted
       N       E                     dE             d eps       ncg     rms          rms(c)
DAV:   1    -0.202760147050E+03    0.22156E-01   -0.17460E+02 11264   0.130E+01    0.493E+00
DAV:   2    -0.202948623530E+03   -0.18848E+00   -0.50376E+00 11232   0.238E+00    0.346E+00
DAV:   3    -0.202781889892E+03    0.16673E+00   -0.31079E-01 12184   0.998E-01    0.143E+00
DAV:   4    -0.202787603444E+03   -0.57136E-02   -0.17420E-01 11624   0.207E+00    0.220E+00
DAV:   5    -0.202758488361E+03    0.29115E-01   -0.13779E-01 11976   0.195E+00    0.151E+00
DAV:   6    -0.202745128840E+03    0.13360E-01   -0.65407E-02 11976   0.122E+00    0.877E-01
DAV:   7    -0.202741356633E+03    0.37722E-02   -0.16132E-02 11592   0.660E-01    0.452E-01
DAV:   8    -0.202740385501E+03    0.97113E-03   -0.32636E-03 11888   0.381E-01    0.236E-01
DAV:   9    -0.202741603662E+03   -0.12182E-02   -0.21162E-03 11656   0.257E-01    0.241E-01
DAV:  10    -0.202742896894E+03   -0.12932E-02   -0.14829E-03 11720   0.198E-01    0.113E-01
DAV:  11    -0.202743660634E+03   -0.76374E-03   -0.75311E-04 11848   0.139E-01    0.900E-02
DAV:  12    -0.202744538846E+03   -0.87821E-03   -0.27883E-04 11688   0.722E-02    0.282E-02
DAV:  13    -0.202745136198E+03   -0.59735E-03   -0.13952E-04 11880   0.439E-02    0.470E-02
DAV:  14    -0.202745840864E+03   -0.70467E-03   -0.18025E-04 11488   0.408E-02    0.194E-02
DAV:  15    -0.202746006126E+03   -0.16526E-03   -0.30776E-05  9536   0.207E-02    0.131E-02
DAV:  16    -0.202746175800E+03   -0.16967E-03   -0.22890E-05  8976   0.130E-02    0.786E-03
DAV:  17    -0.202746252103E+03   -0.76303E-04   -0.10733E-05  8208   0.988E-03    0.907E-03
DAV:  18    -0.202746290750E+03   -0.38647E-04   -0.77862E-06  7896   0.833E-03    0.391E-03
DAV:  19    -0.202746295519E+03   -0.47692E-05   -0.13297E-06  7048   0.413E-03
 164 F= -.20274630E+03 E0= -.20013196E+03  d E =0.360134E-01
quench:  g(F)=  0.000E+00 g(S)=  0.000E+00 dE (1.order)= 0.000E+00
 bond charge predicted
       N       E                     dE             d eps       ncg     rms          rms(c)
DAV:   1    -0.202813669521E+03   -0.67379E-01   -0.17499E+02 11248   0.128E+01    0.494E+00
DAV:   2    -0.202984300557E+03   -0.17063E+00   -0.48668E+00 11224   0.235E+00    0.345E+00
DAV:   3    -0.202818806188E+03    0.16549E+00   -0.31035E-01 12184   0.106E+00    0.146E+00
DAV:   4    -0.202947412753E+03   -0.12861E+00   -0.31842E-01 12032   0.300E+00    0.422E+00
DAV:   5    -0.202800064230E+03    0.14735E+00   -0.27400E-01 12480   0.276E+00    0.160E+00
DAV:   6    -0.202778842110E+03    0.21222E-01   -0.64320E-02 11992   0.130E+00    0.646E-01
DAV:   7    -0.202778098639E+03    0.74347E-03   -0.11332E-02 11584   0.577E-01    0.415E-01
DAV:   8    -0.202777412084E+03    0.68656E-03   -0.33746E-03 11760   0.367E-01    0.235E-01
DAV:   9    -0.202778517243E+03   -0.11052E-02   -0.19124E-03 11712   0.248E-01    0.231E-01
DAV:  10    -0.202779723904E+03   -0.12067E-02   -0.14300E-03 11672   0.197E-01    0.113E-01
DAV:  11    -0.202780438656E+03   -0.71475E-03   -0.75169E-04 11872   0.137E-01    0.969E-02
DAV:  12    -0.202781119148E+03   -0.68049E-03   -0.27100E-04 11640   0.770E-02    0.283E-02
DAV:  13    -0.202781749167E+03   -0.63002E-03   -0.15050E-04 11888   0.427E-02    0.434E-02
DAV:  14    -0.202782292822E+03   -0.54366E-03   -0.14302E-04 11464   0.393E-02    0.198E-02
DAV:  15    -0.202782418570E+03   -0.12575E-03   -0.26440E-05  9216   0.202E-02    0.152E-02
DAV:  16    -0.202782530845E+03   -0.11228E-03   -0.14977E-05  8368   0.127E-02    0.768E-03
DAV:  17    -0.202782612560E+03   -0.81715E-04   -0.13259E-05  8640   0.952E-03    0.868E-03
DAV:  18    -0.202782635074E+03   -0.22514E-04   -0.43080E-06  7368   0.791E-03    0.372E-03
DAV:  19    -0.202782640897E+03   -0.58235E-05   -0.14872E-06  6920   0.390E-03
 165 F= -.20278264E+03 E0= -.20016804E+03  d E =-.363454E-01
quench:  g(F)=  0.000E+00 g(S)=  0.000E+00 dE (1.order)= 0.000E+00
 bond charge predicted
       N       E                     dE             d eps       ncg     rms          rms(c)
DAV:   1    -0.202760387639E+03    0.22247E-01   -0.17460E+02 11264   0.130E+01    0.493E+00
DAV:   2    -0.202948728699E+03   -0.18834E+00   -0.50364E+00 11232   0.238E+00    0.346E+00
DAV:   3    -0.202781963607E+03    0.16677E+00   -0.31082E-01 12184   0.998E-01    0.143E+00
DAV:   4    -0.202787712541E+03   -0.57489E-02   -0.17408E-01 11624   0.207E+00    0.220E+00
DAV:   5    -0.202758851415E+03    0.28861E-01   -0.13843E-01 11976   0.196E+00    0.152E+00
DAV:   6    -0.202745131879E+03    0.13720E-01   -0.65573E-02 11976   0.122E+00    0.871E-01
DAV:   7    -0.202741444064E+03    0.36878E-02   -0.16014E-02 11592   0.657E-01    0.451E-01
DAV:   8    -0.202740479898E+03    0.96417E-03   -0.32600E-03 11888   0.380E-01    0.236E-01
DAV:   9    -0.202741700380E+03   -0.12205E-02   -0.21137E-03 11656   0.257E-01    0.242E-01
DAV:  10    -0.202742991191E+03   -0.12908E-02   -0.14823E-03 11720   0.198E-01    0.113E-01
DAV:  11    -0.202743755059E+03   -0.76387E-03   -0.75301E-04 11848   0.139E-01    0.900E-02
DAV:  12    -0.202744633422E+03   -0.87836E-03   -0.27881E-04 11688   0.722E-02    0.281E-02
DAV:  13    -0.202745232921E+03   -0.59950E-03   -0.13997E-04 11880   0.439E-02    0.470E-02
DAV:  14    -0.202745935389E+03   -0.70247E-03   -0.17972E-04 11488   0.408E-02    0.194E-02
DAV:  15    -0.202746100313E+03   -0.16492E-03   -0.30710E-05  9536   0.206E-02    0.131E-02
DAV:  16    -0.202746269541E+03   -0.16923E-03   -0.22817E-05  8976   0.130E-02    0.786E-03
DAV:  17    -0.202746345896E+03   -0.76355E-04   -0.10753E-05  8216   0.988E-03    0.907E-03
DAV:  18    -0.202746384391E+03   -0.38496E-04   -0.77375E-06  7872   0.834E-03    0.390E-03
DAV:  19    -0.202746389153E+03   -0.47619E-05   -0.13389E-06  7048   0.412E-03
 166 F= -.20274639E+03 E0= -.20013204E+03  d E =0.362517E-01
quench:  g(F)=  0.000E+00 g(S)=  0.000E+00 dE (1.order)= 0.000E+00
 bond charge predicted
       N       E                     dE             d eps       ncg     rms          rms(c)
DAV:   1    -0.202814132418E+03   -0.67748E-01   -0.17500E+02 11248   0.128E+01    0.494E+00
DAV:   2    -0.202984626238E+03   -0.17049E+00   -0.48659E+00 11224   0.235E+00    0.345E+00
DAV:   3    -0.202819117575E+03    0.16551E+00   -0.31038E-01 12184   0.106E+00    0.146E+00
DAV:   4    -0.202947923559E+03   -0.12881E+00   -0.31842E-01 12032   0.300E+00    0.422E+00
DAV:   5    -0.202800286290E+03    0.14764E+00   -0.27401E-01 12480   0.276E+00    0.160E+00
DAV:   6    -0.202779171508E+03    0.21115E-01   -0.64203E-02 11992   0.129E+00    0.646E-01
DAV:   7    -0.202778415559E+03    0.75595E-03   -0.11323E-02 11584   0.576E-01    0.415E-01
