PBE-grap                                
           1
     8.309900    0.000000    0.000000
    -4.154950    7.196585    0.000000
     0.000000    0.000000   16.523500
   Pd   C    O 
  36   1   2
Direct configuration=     1
   0.99992335  0.00107489  0.43432802
   0.11093000  0.22330000  0.16024000
   0.22209102  0.11220814  0.29705947
   0.33306534  0.00101278  0.43434763
   0.44426000  0.22330000  0.16024000
   0.55533082  0.11215242  0.29709077
   0.66651716  0.00108322  0.43404357
   0.77760000  0.22330000  0.16024000
   0.88868538  0.11216338  0.29707007
   0.99984262  0.33441635  0.43418875
   0.11093000  0.55664000  0.16024000
   0.22205534  0.44553611  0.29706054
   0.33298999  0.33445551  0.43449115
   0.44426000  0.55664000  0.16024000
   0.55528889  0.44547779  0.29711360
   0.66656841  0.33445588  0.43403892
   0.77760000  0.55664000  0.16024000
   0.88873611  0.44550404  0.29710917
   0.99977700  0.66772180  0.43408380
   0.11093000  0.88997000  0.16024000
   0.22206831  0.77886993  0.29706762
   0.33316364  0.66775091  0.43408289
   0.44426000  0.88997000  0.16024000
   0.55537127  0.77886086  0.29707906
   0.66652767  0.66777502  0.43404706
   0.77760000  0.88997000  0.16024000
   0.88871389  0.77889285  0.29708859
   0.99982000  0.00108000  0.02337000
   0.33315000  0.00108000  0.02337000
   0.66649000  0.00108000  0.02337000
   0.99982000  0.33441000  0.02337000
   0.33315000  0.33441000  0.02337000
   0.66649000  0.33441000  0.02337000
   0.99982000  0.66775000  0.02337000
   0.33315000  0.66775000  0.02337000
   0.66649000  0.66775000  0.02337000
   0.20185692  0.07548666  0.60033222
   0.20471634  0.30922085  0.59613501
   0.25372204  0.91655425  0.61100212
Direct configuration=     2
   1.00007254  0.00105906  0.43487994
   0.11093000  0.22330000  0.16024000
   0.22215674  0.11224215  0.29701051
   0.33297229  0.00095536  0.43483540
   0.44426000  0.22330000  0.16024000
   0.55524847  0.11209306  0.29707332
   0.66655915  0.00108781  0.43414467
   0.77760000  0.22330000  0.16024000
   0.88865978  0.11212459  0.29702191
   0.99986695  0.33442491  0.43451068
   0.11093000  0.55664000  0.16024000
   0.22207605  0.44554363  0.29700403
   0.33273837  0.33451682  0.43533010
   0.44426000  0.55664000  0.16024000
   0.55512330  0.44540192  0.29714154
   0.66668351  0.33452193  0.43413507
   0.77760000  0.55664000  0.16024000
   0.88877868  0.44547120  0.29711263
   0.99969421  0.66765580  0.43422566
   0.11093000  0.88997000  0.16024000
   0.22211538  0.77889504  0.29701895
   0.33318877  0.66775360  0.43423154
   0.44426000  0.88997000  0.16024000
   0.55535732  0.77886135  0.29703702
   0.66659133  0.66781905  0.43415786
   0.77760000  0.88997000  0.16024000
   0.88873032  0.77896155  0.29706975
   0.99982000  0.00108000  0.02337000
   0.33315000  0.00108000  0.02337000
   0.66649000  0.00108000  0.02337000
   0.99982000  0.33441000  0.02337000
   0.33315000  0.33441000  0.02337000
   0.66649000  0.33441000  0.02337000
   0.99982000  0.66775000  0.02337000
   0.33315000  0.66775000  0.02337000
   0.66649000  0.66775000  0.02337000
   0.20527074  0.06644019  0.60062894
   0.20568094  0.30136143  0.59602011
   0.24945147  0.93348606  0.61047400
Direct configuration=     3
   1.00014392  0.00101896  0.43529626
   0.11093000  0.22330000  0.16024000
   0.22219058  0.11228203  0.29701479
   0.33298800  0.00097965  0.43501007
   0.44426000  0.22330000  0.16024000
   0.55518778  0.11204559  0.29707328
   0.66658455  0.00108772  0.43423089
   0.77760000  0.22330000  0.16024000
   0.88865701  0.11209841  0.29700373
   0.99988199  0.33443983  0.43478812
   0.11093000  0.55664000  0.16024000
   0.22208718  0.44552101  0.29698926
   0.33251182  0.33455346  0.43611967
   0.44426000  0.55664000  0.16024000
   0.55494946  0.44532039  0.29720336
   0.66675623  0.33455980  0.43422098
   0.77760000  0.55664000  0.16024000
   0.88881473  0.44542322  0.29712559
   0.99960448  0.66757557  0.43430689
   0.11093000  0.88997000  0.16024000
   0.22215364  0.77892231  0.29700413
   0.33320835  0.66777110  0.43434354
   0.44426000  0.88997000  0.16024000
   0.55534350  0.77886158  0.29701254
   0.66664892  0.66786150  0.43425699
   0.77760000  0.88997000  0.16024000
   0.88875978  0.77904586  0.29707975
   0.99982000  0.00108000  0.02337000
   0.33315000  0.00108000  0.02337000
   0.66649000  0.00108000  0.02337000
   0.99982000  0.33441000  0.02337000
   0.33315000  0.33441000  0.02337000
   0.66649000  0.33441000  0.02337000
   0.99982000  0.66775000  0.02337000
   0.33315000  0.66775000  0.02337000
   0.66649000  0.66775000  0.02337000
   0.20902351  0.05633672  0.60092387
   0.20652990  0.29485580  0.59560122
   0.24496681  0.95010252  0.60998795
Direct configuration=     4
   1.00013294  0.00098220  0.43546687
   0.11093000  0.22330000  0.16024000
   0.22219732  0.11231543  0.29703647
   0.33304890  0.00101435  0.43497874
   0.44426000  0.22330000  0.16024000
   0.55516699  0.11202698  0.29707690
   0.66659058  0.00108644  0.43427984
   0.77760000  0.22330000  0.16024000
   0.88866303  0.11208959  0.29700527
   0.99989783  0.33445104  0.43495415
   0.11093000  0.55664000  0.16024000
   0.22209084  0.44549671  0.29699918
   0.33236390  0.33455397  0.43661576
   0.44426000  0.55664000  0.16024000
   0.55484067  0.44526811  0.29725721
   0.66678091  0.33457188  0.43427177
   0.77760000  0.55664000  0.16024000
   0.88883053  0.44538664  0.29714002
   0.99956186  0.66753338  0.43434211
   0.11093000  0.88997000  0.16024000
   0.22217092  0.77893269  0.29700572
   0.33321618  0.66779575  0.43440533
   0.44426000  0.88997000  0.16024000
   0.55533532  0.77886185  0.29700581
   0.66668279  0.66788681  0.43431373
   0.77760000  0.88997000  0.16024000
   0.88877801  0.77909816  0.29709893
   0.99982000  0.00108000  0.02337000
   0.33315000  0.00108000  0.02337000
   0.66649000  0.00108000  0.02337000
   0.99982000  0.33441000  0.02337000
   0.33315000  0.33441000  0.02337000
   0.66649000  0.33441000  0.02337000
   0.99982000  0.66775000  0.02337000
   0.33315000  0.66775000  0.02337000
   0.66649000  0.66775000  0.02337000
   0.20486119  0.06959782  0.59921230
   0.20697987  0.29210665  0.59477968
   0.24885903  0.93965178  0.61102588
Direct configuration=     5
   1.00018684  0.00095227  0.43570484
   0.11093000  0.22330000  0.16024000
   0.22221119  0.11234781  0.29706516
   0.33305960  0.00103685  0.43506304
   0.44426000  0.22330000  0.16024000
   0.55514168  0.11200716  0.29708505
   0.66660724  0.00108834  0.43432595
   0.77760000  0.22330000  0.16024000
   0.88867393  0.11207820  0.29701866
   0.99987292  0.33445571  0.43505789
   0.11093000  0.55664000  0.16024000
   0.22210188  0.44547263  0.29702114
   0.33228638  0.33457107  0.43697174
   0.44426000  0.55664000  0.16024000
   0.55474036  0.44522277  0.29730963
   0.66681187  0.33458855  0.43431939
   0.77760000  0.55664000  0.16024000
   0.88884439  0.44536854  0.29715210
   0.99952188  0.66749094  0.43438500
   0.11093000  0.88997000  0.16024000
   0.22218207  0.77894103  0.29700586
   0.33322552  0.66781351  0.43445332
   0.44426000  0.88997000  0.16024000
   0.55533072  0.77885841  0.29700237
   0.66670608  0.66790769  0.43436655
   0.77760000  0.88997000  0.16024000
   0.88878991  0.77913547  0.29711404
   0.99982000  0.00108000  0.02337000
   0.33315000  0.00108000  0.02337000
   0.66649000  0.00108000  0.02337000
   0.99982000  0.33441000  0.02337000
   0.33315000  0.33441000  0.02337000
   0.66649000  0.33441000  0.02337000
   0.99982000  0.66775000  0.02337000
   0.33315000  0.66775000  0.02337000
   0.66649000  0.66775000  0.02337000
   0.20694039  0.06617503  0.59894617
   0.20749652  0.28655227  0.59439325
   0.24637687  0.94869026  0.61036935
Direct configuration=     6
   1.00023617  0.00086736  0.43612289
   0.11093000  0.22330000  0.16024000
   0.22222264  0.11241928  0.29713832
   0.33314567  0.00110666  0.43508336
   0.44426000  0.22330000  0.16024000
   0.55510860  0.11197680  0.29710035
   0.66663354  0.00108972  0.43442254
   0.77760000  0.22330000  0.16024000
   0.88870014  0.11205891  0.29705204
   0.99980702  0.33446701  0.43525298
   0.11093000  0.55664000  0.16024000
   0.22212401  0.44541686  0.29707990
   0.33212981  0.33457825  0.43769341
   0.44426000  0.55664000  0.16024000
   0.55452831  0.44512765  0.29742918
   0.66686150  0.33461171  0.43442109
   0.77760000  0.55664000  0.16024000
   0.88886781  0.44532483  0.29717532
   0.99944677  0.66740534  0.43446164
   0.11093000  0.88997000  0.16024000
   0.22219795  0.77895065  0.29701089
   0.33324267  0.66786965  0.43454641
   0.44426000  0.88997000  0.16024000
   0.55532325  0.77885218  0.29699792
   0.66675921  0.66795767  0.43447778
   0.77760000  0.88997000  0.16024000
   0.88881838  0.77921749  0.29715394
   0.99982000  0.00108000  0.02337000
   0.33315000  0.00108000  0.02337000
   0.66649000  0.00108000  0.02337000
   0.99982000  0.33441000  0.02337000
   0.33315000  0.33441000  0.02337000
   0.66649000  0.33441000  0.02337000
   0.99982000  0.66775000  0.02337000
   0.33315000  0.66775000  0.02337000
   0.66649000  0.66775000  0.02337000
   0.20768101  0.07157833  0.59774830
   0.20838557  0.27449931  0.59388938
   0.24494156  0.95542196  0.61055279
Direct configuration=     7
   1.00026901  0.00076257  0.43647128
   0.11093000  0.22330000  0.16024000
   0.22221575  0.11247849  0.29723326
   0.33323778  0.00116501  0.43505928
   0.44426000  0.22330000  0.16024000
   0.55510334  0.11196792  0.29711529
   0.66666527  0.00109356  0.43452150
   0.77760000  0.22330000  0.16024000
   0.88873751  0.11205377  0.29710410
   0.99968624  0.33446628  0.43533481
   0.11093000  0.55664000  0.16024000
   0.22214921  0.44535747  0.29716201
   0.33212653  0.33460668  0.43807596
   0.44426000  0.55664000  0.16024000
   0.55436102  0.44506032  0.29754325
   0.66688885  0.33461920  0.43452274
   0.77760000  0.55664000  0.16024000
   0.88887457  0.44530590  0.29718786
   0.99939759  0.66734416  0.43453717
   0.11093000  0.88997000  0.16024000
   0.22218921  0.77894222  0.29701663
   0.33325675  0.66793091  0.43461583
   0.44426000  0.88997000  0.16024000
   0.55532369  0.77884292  0.29700196
   0.66679371  0.66800138  0.43458453
   0.77760000  0.88997000  0.16024000
   0.88884006  0.77926952  0.29719309
   0.99982000  0.00108000  0.02337000
   0.33315000  0.00108000  0.02337000
   0.66649000  0.00108000  0.02337000
   0.99982000  0.33441000  0.02337000
   0.33315000  0.33441000  0.02337000
   0.66649000  0.33441000  0.02337000
   0.99982000  0.66775000  0.02337000
   0.33315000  0.66775000  0.02337000
   0.66649000  0.66775000  0.02337000
   0.20801347  0.08707767  0.59608154
   0.20882559  0.25674310  0.59388058
   0.24428730  0.95777090  0.61101433
Direct configuration=     8
   1.00028041  0.00061915  0.43675191
   0.11093000  0.22330000  0.16024000
   0.22221169  0.11252402  0.29731975
   0.33340700  0.00120154  0.43504669
   0.44426000  0.22330000  0.16024000
   0.55508098  0.11195931  0.29713992
   0.66674588  0.00109885  0.43460369
   0.77760000  0.22330000  0.16024000
   0.88877823  0.11204622  0.29716958
   0.99963343  0.33446964  0.43543046
   0.11093000  0.55664000  0.16024000
   0.22215564  0.44530889  0.29723071
   0.33236612  0.33489736  0.43808790
   0.44426000  0.55664000  0.16024000
   0.55425229  0.44501147  0.29764580
   0.66694935  0.33465634  0.43460571
   0.77760000  0.55664000  0.16024000
   0.88887095  0.44529904  0.29720469
   0.99931945  0.66725398  0.43459701
   0.11093000  0.88997000  0.16024000
   0.22216235  0.77892249  0.29701465
   0.33329416  0.66796360  0.43467189
   0.44426000  0.88997000  0.16024000
   0.55532293  0.77883043  0.29701471
   0.66683231  0.66805007  0.43467749
   0.77760000  0.88997000  0.16024000
   0.88885249  0.77928806  0.29722432
   0.99982000  0.00108000  0.02337000
   0.33315000  0.00108000  0.02337000
   0.66649000  0.00108000  0.02337000
   0.99982000  0.33441000  0.02337000
   0.33315000  0.33441000  0.02337000
   0.66649000  0.33441000  0.02337000
   0.99982000  0.66775000  0.02337000
   0.33315000  0.66775000  0.02337000
   0.66649000  0.66775000  0.02337000
   0.21176419  0.09302125  0.59427559
   0.20875078  0.23939420  0.59205060
   0.24053138  0.96932210  0.60805330
Direct configuration=     9
   0.99970203  0.00005813  0.43673835
   0.11093000  0.22330000  0.16024000
   0.22215098  0.11261128  0.29754646
   0.33404152  0.00114040  0.43465436
   0.44426000  0.22330000  0.16024000
   0.55506633  0.11197107  0.29718280
   0.66699344  0.00110587  0.43482183
   0.77760000  0.22330000  0.16024000
   0.88890180  0.11204750  0.29734395
   0.99956617  0.33448069  0.43565305
   0.11093000  0.55664000  0.16024000
   0.22212370  0.44519389  0.29738602
   0.33329784  0.33597253  0.43749503
   0.44426000  0.55664000  0.16024000
   0.55408052  0.44493386  0.29786371
   0.66706629  0.33472478  0.43483065
   0.77760000  0.55664000  0.16024000
   0.88884681  0.44527954  0.29722247
   0.99917443  0.66707247  0.43474288
   0.11093000  0.88997000  0.16024000
   0.22205341  0.77884136  0.29699871
   0.33339350  0.66806022  0.43481945
   0.44426000  0.88997000  0.16024000
   0.55531958  0.77879792  0.29704615
   0.66694920  0.66820320  0.43493077
   0.77760000  0.88997000  0.16024000
   0.88888585  0.77931354  0.29729758
   0.99982000  0.00108000  0.02337000
   0.33315000  0.00108000  0.02337000
   0.66649000  0.00108000  0.02337000
   0.99982000  0.33441000  0.02337000
   0.33315000  0.33441000  0.02337000
   0.66649000  0.33441000  0.02337000
   0.99982000  0.66775000  0.02337000
   0.33315000  0.66775000  0.02337000
   0.66649000  0.66775000  0.02337000
   0.21574429  0.10683493  0.59066087
   0.20691525  0.22441416  0.58746722
   0.23744610  0.97027850  0.60374035
Direct configuration=    10
   0.99927897  0.00001172  0.43622418
   0.11093000  0.22330000  0.16024000
   0.22213252  0.11257521  0.29760408
   0.33370602  0.00095040  0.43482442
   0.44426000  0.22330000  0.16024000
   0.55511661  0.11200347  0.29718327
   0.66690877  0.00109962  0.43489504
   0.77760000  0.22330000  0.16024000
   0.88889530  0.11210348  0.29731984
   0.99933406  0.33440572  0.43538736
   0.11093000  0.55664000  0.16024000
   0.22214000  0.44520192  0.29742142
   0.33330567  0.33577238  0.43705677
   0.44426000  0.55664000  0.16024000
   0.55416075  0.44498417  0.29780619
   0.66691692  0.33463183  0.43490058
   0.77760000  0.55664000  0.16024000
   0.88882349  0.44535262  0.29717526
   0.99932079  0.66725838  0.43483660
   0.11093000  0.88997000  0.16024000
   0.22204094  0.77885339  0.29702666
   0.33333823  0.66805319  0.43484469
   0.44426000  0.88997000  0.16024000
   0.55533833  0.77880147  0.29705789
   0.66685434  0.66815148  0.43499385
   0.77760000  0.88997000  0.16024000
   0.88887580  0.77925408  0.29729424
   0.99982000  0.00108000  0.02337000
   0.33315000  0.00108000  0.02337000
   0.66649000  0.00108000  0.02337000
   0.99982000  0.33441000  0.02337000
   0.33315000  0.33441000  0.02337000
   0.66649000  0.33441000  0.02337000
   0.99982000  0.66775000  0.02337000
   0.33315000  0.66775000  0.02337000
   0.66649000  0.66775000  0.02337000
   0.22027085  0.09302307  0.59542010
   0.20521229  0.23449691  0.59073661
   0.23569166  0.97470652  0.60591632
Direct configuration=    11
   0.99923824 -0.00003640  0.43621856
   0.11093000  0.22330000  0.16024000
   0.22211943  0.11257105  0.29760874
   0.33382796  0.00094836  0.43470945
   0.44426000  0.22330000  0.16024000
   0.55513227  0.11201139  0.29718478
   0.66692414  0.00110162  0.43491996
   0.77760000  0.22330000  0.16024000
   0.88889579  0.11210205  0.29733339
   0.99934501  0.33441600  0.43543729
   0.11093000  0.55664000  0.16024000
   0.22212372  0.44520514  0.29742434
   0.33336811  0.33585614  0.43705460
   0.44426000  0.55664000  0.16024000
   0.55416122  0.44498428  0.29782514
   0.66694360  0.33464142  0.43492747
   0.77760000  0.55664000  0.16024000
   0.88881866  0.44534126  0.29718503
   0.99930451  0.66722691  0.43484728
   0.11093000  0.88997000  0.16024000
   0.22202421  0.77883093  0.29702207
   0.33335035  0.66807745  0.43486459
   0.44426000  0.88997000  0.16024000
   0.55533864  0.77880315  0.29706622
   0.66687879  0.66817152  0.43502387
   0.77760000  0.88997000  0.16024000
   0.88887227  0.77925187  0.29730253
   0.99982000  0.00108000  0.02337000
   0.33315000  0.00108000  0.02337000
   0.66649000  0.00108000  0.02337000
   0.99982000  0.33441000  0.02337000
   0.33315000  0.33441000  0.02337000
   0.66649000  0.33441000  0.02337000
   0.99982000  0.66775000  0.02337000
   0.33315000  0.66775000  0.02337000
   0.66649000  0.66775000  0.02337000
   0.21772221  0.10959594  0.59367557
   0.20567283  0.23196529  0.59024491
   0.23766309  0.96055312  0.60676871
Direct configuration=    12
   0.99878089 -0.00004400  0.43561836
   0.11093000  0.22330000  0.16024000
   0.22211068  0.11250945  0.29763052
   0.33346546  0.00076578  0.43493718
   0.44426000  0.22330000  0.16024000
   0.55515544  0.11203306  0.29720238
   0.66680509  0.00108732  0.43498887
   0.77760000  0.22330000  0.16024000
   0.88885526  0.11215946  0.29727430
   0.99913175  0.33435048  0.43514582
   0.11093000  0.55664000  0.16024000
   0.22213625  0.44524062  0.29742019
   0.33342628  0.33566900  0.43646106
   0.44426000  0.55664000  0.16024000
   0.55429314  0.44505542  0.29773286
   0.66680831  0.33455789  0.43498800
   0.77760000  0.55664000  0.16024000
   0.88879538  0.44543480  0.29713814
   0.99943093  0.66740615  0.43494754
   0.11093000  0.88997000  0.16024000
   0.22201946  0.77885056  0.29705279
   0.33328944  0.66803994  0.43488596
   0.44426000  0.88997000  0.16024000
   0.55536132  0.77881275  0.29707940
   0.66677484  0.66810813  0.43507881
   0.77760000  0.88997000  0.16024000
   0.88884929  0.77916493  0.29727952
   0.99982000  0.00108000  0.02337000
   0.33315000  0.00108000  0.02337000
   0.66649000  0.00108000  0.02337000
   0.99982000  0.33441000  0.02337000
   0.33315000  0.33441000  0.02337000
   0.66649000  0.33441000  0.02337000
   0.99982000  0.66775000  0.02337000
   0.33315000  0.66775000  0.02337000
   0.66649000  0.66775000  0.02337000
   0.22240982  0.09510092  0.59802931
   0.20386395  0.23957969  0.59307647
   0.23536959  0.96847517  0.60813330
Direct configuration=    13
   0.99887388 -0.00009846  0.43578048
   0.11093000  0.22330000  0.16024000
   0.22209918  0.11251565  0.29763170
   0.33365933  0.00081312  0.43479821
   0.44426000  0.22330000  0.16024000
   0.55517201  0.11204043  0.29720142
   0.66685003  0.00109444  0.43501141
   0.77760000  0.22330000  0.16024000
   0.88886177  0.11214304  0.29730585
   0.99918070  0.33437318  0.43527106
   0.11093000  0.55664000  0.16024000
   0.22211240  0.44523940  0.29742926
   0.33347117  0.33579621  0.43661073
   0.44426000  0.55664000  0.16024000
   0.55427213  0.44504517  0.29777766
   0.66686012  0.33458681  0.43501704
   0.77760000  0.55664000  0.16024000
   0.88878994  0.44540371  0.29716212
   0.99938534  0.66732633  0.43494572
   0.11093000  0.88997000  0.16024000
   0.22199940  0.77881776  0.29704182
   0.33331304  0.66807498  0.43491145
   0.44426000  0.88997000  0.16024000
   0.55535701  0.77881359  0.29709079
   0.66681731  0.66813693  0.43511307
   0.77760000  0.88997000  0.16024000
   0.88884277  0.77917015  0.29729305
   0.99982000  0.00108000  0.02337000
   0.33315000  0.00108000  0.02337000
   0.66649000  0.00108000  0.02337000
   0.99982000  0.33441000  0.02337000
   0.33315000  0.33441000  0.02337000
   0.66649000  0.33441000  0.02337000
   0.99982000  0.66775000  0.02337000
   0.33315000  0.66775000  0.02337000
   0.66649000  0.66775000  0.02337000
   0.21972977  0.10669085  0.59625523
   0.20521507  0.23414883  0.59234503
   0.23665564  0.96186358  0.60803109
Direct configuration=    14
   0.99858223 -0.00010032  0.43538879
   0.11093000  0.22330000  0.16024000
   0.22209588  0.11246808  0.29762438
   0.33348889  0.00072122  0.43491641
   0.44426000  0.22330000  0.16024000
   0.55517651  0.11205271  0.29721958
   0.66677528  0.00108468  0.43505937
   0.77760000  0.22330000  0.16024000
   0.88881957  0.11217582  0.29726014
   0.99909340  0.33434717  0.43512857
   0.11093000  0.55664000  0.16024000
   0.22210807  0.44527426  0.29740652
   0.33354896  0.33573794  0.43618516
   0.44426000  0.55664000  0.16024000
   0.55437958  0.44509781  0.29771319
   0.66679679  0.33455098  0.43505859
   0.77760000  0.55664000  0.16024000
   0.88877336  0.44546063  0.29714123
   0.99943583  0.66740844  0.43500809
   0.11093000  0.88997000  0.16024000
   0.22199370  0.77882306  0.29705951
   0.33327915  0.66804093  0.43493293
   0.44426000  0.88997000  0.16024000
   0.55537047  0.77882088  0.29710382
   0.66676079  0.66809826  0.43515298
   0.77760000  0.88997000  0.16024000
   0.88881943  0.77910111  0.29727019
   0.99982000  0.00108000  0.02337000
   0.33315000  0.00108000  0.02337000
   0.66649000  0.00108000  0.02337000
   0.99982000  0.33441000  0.02337000
   0.33315000  0.33441000  0.02337000
   0.66649000  0.33441000  0.02337000
   0.99982000  0.66775000  0.02337000
   0.33315000  0.66775000  0.02337000
   0.66649000  0.66775000  0.02337000
   0.22244112  0.09529847  0.59893064
   0.20416616  0.23827289  0.59384627
   0.23505647  0.96975570  0.60843750
Direct configuration=    15
   0.99861524 -0.00013581  0.43545917
   0.11093000  0.22330000  0.16024000
   0.22208960  0.11246982  0.29762474
   0.33361021  0.00073553  0.43481024
   0.44426000  0.22330000  0.16024000
   0.55519482  0.11206133  0.29722153
   0.66679350  0.00108812  0.43508762
   0.77760000  0.22330000  0.16024000
   0.88881699  0.11217030  0.29727683
   0.99910810  0.33435925  0.43519950
   0.11093000  0.55664000  0.16024000
   0.22208991  0.44527846  0.29741262
   0.33356848  0.33579544  0.43626953
   0.44426000  0.55664000  0.16024000
   0.55437660  0.44509787  0.29774017
   0.66682085  0.33456372  0.43509011
   0.77760000  0.55664000  0.16024000
   0.88876527  0.44544444  0.29715690
   0.99941342  0.66736342  0.43501815
   0.11093000  0.88997000  0.16024000
   0.22197680  0.77879750  0.29705583
   0.33328912  0.66806701  0.43495782
   0.44426000  0.88997000  0.16024000
   0.55536930  0.77882271  0.29711668
   0.66678401  0.66811447  0.43518874
   0.77760000  0.88997000  0.16024000
   0.88880959  0.77909418  0.29727970
   0.99982000  0.00108000  0.02337000
   0.33315000  0.00108000  0.02337000
   0.66649000  0.00108000  0.02337000
   0.99982000  0.33441000  0.02337000
   0.33315000  0.33441000  0.02337000
   0.66649000  0.33441000  0.02337000
   0.99982000  0.66775000  0.02337000
   0.33315000  0.66775000  0.02337000
   0.66649000  0.66775000  0.02337000
   0.22013780  0.10905864  0.59753414
   0.20532613  0.23270059  0.59351330
   0.23629168  0.96135388  0.60870608
Direct configuration=    16
   0.99805966 -0.00006541  0.43466706
   0.11093000  0.22330000  0.16024000
   0.22209967  0.11238728  0.29758800
   0.33323945  0.00056331  0.43503781
   0.44426000  0.22330000  0.16024000
   0.55517809  0.11207202  0.29725980
   0.66661235  0.00106191  0.43515001
   0.77760000  0.22330000  0.16024000
   0.88872041  0.11223691  0.29715798
   0.99897441  0.33432478  0.43491372
   0.11093000  0.55664000  0.16024000
   0.22209499  0.44534607  0.29734297
   0.33365377  0.33559118  0.43548723
   0.44426000  0.55664000  0.16024000
   0.55457902  0.44519333  0.29759379
   0.66669761  0.33449050  0.43513496
   0.77760000  0.55664000  0.16024000
   0.88874741  0.44555321  0.29711330
   0.99950389  0.66753970  0.43511595
   0.11093000  0.88997000  0.16024000
   0.22198349  0.77882724  0.29709692
   0.33321897  0.66799186  0.43497847
   0.44426000  0.88997000  0.16024000
   0.55539214  0.77883601  0.29713306
   0.66667225  0.66803514  0.43522348
   0.77760000  0.88997000  0.16024000
   0.88877537  0.77897964  0.29722599
   0.99982000  0.00108000  0.02337000
   0.33315000  0.00108000  0.02337000
   0.66649000  0.00108000  0.02337000
   0.99982000  0.33441000  0.02337000
   0.33315000  0.33441000  0.02337000
   0.66649000  0.33441000  0.02337000
   0.99982000  0.66775000  0.02337000
   0.33315000  0.66775000  0.02337000
   0.66649000  0.66775000  0.02337000
   0.22458489  0.09501537  0.60161577
   0.20310070  0.23987551  0.59581398
   0.23388398  0.96983999  0.60975892
Direct configuration=    17
   0.99817995 -0.00010315  0.43485616
   0.11093000  0.22330000  0.16024000
   0.22209777  0.11239462  0.29758215
   0.33338480  0.00059569  0.43491534
   0.44426000  0.22330000  0.16024000
   0.55519914  0.11207868  0.29725738
   0.66664034  0.00106576  0.43517189
   0.77760000  0.22330000  0.16024000
   0.88872303  0.11222532  0.29718141
   0.99899474  0.33433886  0.43501015
   0.11093000  0.55664000  0.16024000
   0.22207814  0.44534759  0.29735454
   0.33363746  0.33564689  0.43568835
   0.44426000  0.55664000  0.16024000
   0.55455899  0.44518608  0.29763405
   0.66672938  0.33450965  0.43516190
   0.77760000  0.55664000  0.16024000
   0.88873984  0.44552752  0.29713397
   0.99947330  0.66747900  0.43511692
   0.11093000  0.88997000  0.16024000
   0.22196813  0.77879996  0.29709066
   0.33323147  0.66802334  0.43500149
   0.44426000  0.88997000  0.16024000
   0.55538885  0.77883690  0.29714607
   0.66670121  0.66805347  0.43525539
   0.77760000  0.88997000  0.16024000
   0.88876329  0.77897706  0.29723848
   0.99982000  0.00108000  0.02337000
   0.33315000  0.00108000  0.02337000
   0.66649000  0.00108000  0.02337000
   0.99982000  0.33441000  0.02337000
   0.33315000  0.33441000  0.02337000
   0.66649000  0.33441000  0.02337000
   0.99982000  0.66775000  0.02337000
   0.33315000  0.66775000  0.02337000
   0.66649000  0.66775000  0.02337000
   0.22159271  0.11238575  0.59987155
   0.20475387  0.23350068  0.59552486
   0.23538955  0.95844969  0.61017959
Direct configuration=    18
   0.99762325  0.00001391  0.43402329
   0.11093000  0.22330000  0.16024000
   0.22212062  0.11232202  0.29751775
   0.33302825  0.00044027  0.43513142
   0.44426000  0.22330000  0.16024000
   0.55515866  0.11208169  0.29729893
   0.66644489  0.00103979  0.43521951
   0.77760000  0.22330000  0.16024000
   0.88860632  0.11229288  0.29703790
   0.99892296  0.33432458  0.43477361
   0.11093000  0.55664000  0.16024000
   0.22207774  0.44542275  0.29725682
   0.33368908  0.33544421  0.43491020
   0.44426000  0.55664000  0.16024000
   0.55477415  0.44528267  0.29747373
   0.66661666  0.33444817  0.43519089
   0.77760000  0.55664000  0.16024000
   0.88872986  0.44563172  0.29709855
   0.99953559  0.66764375  0.43520106
   0.11093000  0.88997000  0.16024000
   0.22197894  0.77883084  0.29713210
   0.33316175  0.66793087  0.43501838
   0.44426000  0.88997000  0.16024000
   0.55540530  0.77884838  0.29716051
   0.66658466  0.66796130  0.43526852
   0.77760000  0.88997000  0.16024000
   0.88872821  0.77886248  0.29716836
   0.99982000  0.00108000  0.02337000
   0.33315000  0.00108000  0.02337000
   0.66649000  0.00108000  0.02337000
   0.99982000  0.33441000  0.02337000
   0.33315000  0.33441000  0.02337000
   0.66649000  0.33441000  0.02337000
   0.99982000  0.66775000  0.02337000
   0.33315000  0.66775000  0.02337000
   0.66649000  0.66775000  0.02337000
   0.22581095  0.09733550  0.60368721
   0.20221664  0.24209123  0.59741790
   0.23328087  0.96662003  0.61100363
Direct configuration=    19
   0.99771002 -0.00001136  0.43415753
   0.11093000  0.22330000  0.16024000
   0.22212251  0.11231792  0.29749813
   0.33312334  0.00046194  0.43504537
   0.44426000  0.22330000  0.16024000
   0.55517426  0.11208760  0.29730228
   0.66644565  0.00104065  0.43524450
   0.77760000  0.22330000  0.16024000
   0.88859299  0.11229073  0.29704329
   0.99892864  0.33433820  0.43483638
   0.11093000  0.55664000  0.16024000
   0.22206209  0.44543121  0.29725890
   0.33366676  0.33546533  0.43505064
   0.44426000  0.55664000  0.16024000
   0.55477349  0.44528625  0.29749460
   0.66663666  0.33446123  0.43521855
   0.77760000  0.55664000  0.16024000
   0.88872058  0.44561623  0.29711597
   0.99950532  0.66759824  0.43520808
   0.11093000  0.88997000  0.16024000
   0.22196986  0.77881011  0.29713059
   0.33316459  0.66795129  0.43504069
   0.44426000  0.88997000  0.16024000
   0.55540242  0.77884966  0.29717495
   0.66660015  0.66796847  0.43529868
   0.77760000  0.88997000  0.16024000
   0.88871179  0.77884515  0.29717121
   0.99982000  0.00108000  0.02337000
   0.33315000  0.00108000  0.02337000
   0.66649000  0.00108000  0.02337000
   0.99982000  0.33441000  0.02337000
   0.33315000  0.33441000  0.02337000
   0.66649000  0.33441000  0.02337000
   0.99982000  0.66775000  0.02337000
   0.33315000  0.66775000  0.02337000
   0.66649000  0.66775000  0.02337000
   0.22323607  0.11059303  0.60257459
   0.20406651  0.23432213  0.59751778
   0.23413116  0.96094766  0.61123234
Direct configuration=    20
   0.99744280  0.00005403  0.43374138
   0.11093000  0.22330000  0.16024000
   0.22213826  0.11227630  0.29744514
   0.33296142  0.00039264  0.43514548
   0.44426000  0.22330000  0.16024000
   0.55515134  0.11209019  0.29732805
   0.66633974  0.00102837  0.43527938
   0.77760000  0.22330000  0.16024000
   0.88851713  0.11232786  0.29696324
   0.99890855  0.33433639  0.43474395
   0.11093000  0.55664000  0.16024000
   0.22205145  0.44547857  0.29720116
   0.33367991  0.33537534  0.43465618
   0.44426000  0.55664000  0.16024000
   0.55490421  0.44534674  0.29740739
   0.66657899  0.33443745  0.43524481
   0.77760000  0.55664000  0.16024000
   0.88871187  0.44566906  0.29710702
   0.99951844  0.66766671  0.43525540
   0.11093000  0.88997000  0.16024000
   0.22197321  0.77881875  0.29715203
   0.33312413  0.66789393  0.43506053
   0.44426000  0.88997000  0.16024000
   0.55540820  0.77885469  0.29719035
   0.66653279  0.66790996  0.43531646
   0.77760000  0.88997000  0.16024000
   0.88868213  0.77876755  0.29712702
   0.99982000  0.00108000  0.02337000