  257  257 1200    2
  0.2398248E+02  0.2722960E-08  0.2336851E-08  0.1258323E-08  0.2000000E-15
  1.000000000000000E-004
  CAR 
 LiMox                                   
   1537      1   1052
