 vasp.6.2.0 18Jan21 (build Jan 15 2025 16:08:48) gamma-only                     
  
 executed on             LinuxIFC date 2025.03.07  10:53:52
 running on   96 total cores
 each image running on   24 cores
 distrk:  each k-point on   24 cores,    1 groups
 distr:  one band on NCORE=   6 cores,    4 groups


--------------------------------------------------------------------------------------------------------


 INCAR:
   SYSTEM = LiMox
   LWAVE = .FALSE.
   LCHARG = .FALSE.
   ISTART = 0
   ISMEAR = 0
   SIGMA = 0.05
   ICHARG = 2
   IBRION = 2
   POTIM = 0.2
   ISIF = 2
   NSW = 1200
   NELM = 800
   NELMIN = 2
   ISYM = 0
   ISPIN = 2
   IDIPOL = 3
   LMAXMIX = 4
   ADDGRID = .TRUE.
   ALGO = VeryFast
   NELMDL = 10
   AMIX = 0.2
   BMIX = 0.00001
   AMIX_MAG = 0.8
   BMIX_MAG = 0.00001
   LREAL = Auto
   PREC = Accurate
   EDIFF = 1E-06
   EDIFFG = -0.03
   ENCUT = 400.0
   GGA = PE
   NEDOS = 903
   NPAR = 4
   NNODE = 8
   NCORE = 8
   NWRITE = 0
   IMAGES = 4
   SPRING = -5
   ICHAIN = 0
   LCLIMB = TRUE
   IOPT = 0

 POTCAR:    PAW_PBE Mo 08Apr2002                  
 POTCAR:    PAW_PBE S 06Sep2000                   
 POTCAR:    PAW_PBE Li 17Jan2003                  
 -----------------------------------------------------------------------------
|                                                                             |
|           W    W    AA    RRRRR   N    N  II  N    N   GGGG   !!!           |
|           W    W   A  A   R    R  NN   N  II  NN   N  G    G  !!!           |
|           W    W  A    A  R    R  N N  N  II  N N  N  G       !!!           |
|           W WW W  AAAAAA  RRRRR   N  N N  II  N  N N  G  GGG   !            |
|           WW  WW  A    A  R   R   N   NN  II  N   NN  G    G                |
|           W    W  A    A  R    R  N    N  II  N    N   GGGG   !!!           |
|                                                                             |
|     You use a magnetic or noncollinear calculation, but did not specify     |
|     the initial magnetic moment with the MAGMOM tag. Note that a            |
|     default of 1 will be used for all atoms. This ferromagnetic setup       |
|     may break the symmetry of the crystal, in particular it may rule        |
|     out finding an antiferromagnetic solution. Thence, we recommend         |
|     setting the initial magnetic moment manually or verifying carefully     |
|     that this magnetic setup is desired.                                    |
|                                                                             |
 -----------------------------------------------------------------------------

 -----------------------------------------------------------------------------
|                                                                             |
|           W    W    AA    RRRRR   N    N  II  N    N   GGGG   !!!           |
|           W    W   A  A   R    R  NN   N  II  NN   N  G    G  !!!           |
|           W    W  A    A  R    R  N N  N  II  N N  N  G       !!!           |
|           W WW W  AAAAAA  RRRRR   N  N N  II  N  N N  G  GGG   !            |
|           WW  WW  A    A  R   R   N   NN  II  N   NN  G    G                |
|           W    W  A    A  R    R  N    N  II  N    N   GGGG   !!!           |
|                                                                             |
|     The value NCORE = 8 specified in the INCAR file was overwritten,        |
|     because it was not compatible with the 24 processes available:          |
|     NCORE = 6                                                               |
|     was used instead, please check that this makes sense for your           |
|     machine.                                                                |
|                                                                             |
 -----------------------------------------------------------------------------

 POTCAR:    PAW_PBE Mo 08Apr2002                  
  local pseudopotential read in
  partial core-charges read in
  partial kinetic energy density read in
  atomic valenz-charges read in
  non local Contribution for L=           2  read in
    real space projection operators read in
  non local Contribution for L=           2  read in
    real space projection operators read in
  non local Contribution for L=           0  read in
    real space projection operators read in
  non local Contribution for L=           0  read in
    real space projection operators read in
  non local Contribution for L=           1  read in
    real space projection operators read in
  non local Contribution for L=           1  read in
    real space projection operators read in
    PAW grid and wavefunctions read in
 
   number of l-projection  operators is LMAX  =           6
   number of lm-projection operators is LMMAX =          18
 
 POTCAR:    PAW_PBE S 06Sep2000                   
  local pseudopotential read in
  partial core-charges read in
  partial kinetic energy density read in
  atomic valenz-charges read in
  non local Contribution for L=           0  read in
    real space projection operators read in
  non local Contribution for L=           0  read in
    real space projection operators read in
  non local Contribution for L=           1  read in
    real space projection operators read in
  non local Contribution for L=           1  read in
    real space projection operators read in
    PAW grid and wavefunctions read in
 
   number of l-projection  operators is LMAX  =           4
   number of lm-projection operators is LMMAX =           8
 
 POTCAR:    PAW_PBE Li 17Jan2003                  
  local pseudopotential read in
  partial core-charges read in
  partial kinetic energy density read in
  atomic valenz-charges read in
  non local Contribution for L=           0  read in
    real space projection operators read in
  non local Contribution for L=           0  read in
    real space projection operators read in
  non local Contribution for L=           1  read in
    real space projection operators read in
    PAW grid and wavefunctions read in
 
   number of l-projection  operators is LMAX  =           3
   number of lm-projection operators is LMMAX =           5
 
 Optimization of the real space projectors (new method)

 maximal supplied QI-value         = 13.61
 optimisation between [QCUT,QGAM] = [ 10.20, 20.41] = [ 29.16,116.64] Ry 
 Optimized for a Real-space Cutoff    1.65 Angstroem

   l    n(q)    QCUT    max X(q) W(low)/X(q) W(high)/X(q)  e(spline) 
   2      9    10.205    80.908    0.21E-03    0.30E-03    0.60E-06
   2      9    10.205    79.000    0.21E-03    0.30E-03    0.60E-06
   0     10    10.205    52.066    0.39E-04    0.38E-04    0.19E-06
   0     10    10.205    24.514    0.33E-04    0.32E-04    0.16E-06
   1     10    10.205    16.033    0.64E-04    0.17E-03    0.19E-06
   1     10    10.205    11.179    0.49E-04    0.13E-03    0.15E-06
 Optimization of the real space projectors (new method)

 maximal supplied QI-value         = 19.84
 optimisation between [QCUT,QGAM] = [ 10.12, 20.44] = [ 28.68,116.96] Ry 
 Optimized for a Real-space Cutoff    1.42 Angstroem

   l    n(q)    QCUT    max X(q) W(low)/X(q) W(high)/X(q)  e(spline) 
   0      9    10.119   187.594    0.52E-04    0.93E-04    0.64E-07
   0      9    10.119   164.243    0.51E-04    0.92E-04    0.63E-07
   1      8    10.119    67.533    0.16E-03    0.17E-03    0.23E-06
   1      8    10.119    50.729    0.16E-03    0.16E-03    0.23E-06
 Optimization of the real space projectors (new method)

 maximal supplied QI-value         = 18.33
 optimisation between [QCUT,QGAM] = [ 10.08, 20.35] = [ 28.46,115.93] Ry 
 Optimized for a Real-space Cutoff    1.30 Angstroem

   l    n(q)    QCUT    max X(q) W(low)/X(q) W(high)/X(q)  e(spline) 
   0      8    10.082    33.825    0.15E-03    0.68E-04    0.45E-07
   0      8    10.082     8.944    0.11E-03    0.57E-04    0.35E-07
   1      7    10.082     4.214    0.54E-04    0.21E-03    0.44E-07
  PAW_PBE Mo 08Apr2002                  :
 energy of atom  1       EATOM= -217.5176
 kinetic energy error for atom=    0.0025 (will be added to EATOM!!)
  PAW_PBE S 06Sep2000                   :
 energy of atom  2       EATOM= -276.8230
 kinetic energy error for atom=    0.0046 (will be added to EATOM!!)
  PAW_PBE Li 17Jan2003                  :
 energy of atom  3       EATOM=   -5.3001
 kinetic energy error for atom=    0.0000 (will be added to EATOM!!)
 
 
 POSCAR: Mo  S Li
  positions in cartesian coordinates
  No initial velocities read in
 exchange correlation table for  LEXCH =        8
   RHO(1)=    0.500       N(1)  =     2000
   RHO(2)=  100.500       N(2)  =     4000

 VTST: version 4.0, (05/15/20)

 CHAIN: initializing optimizer
 
 OPT: Using VASP Conjugate-Gradient optimizer
 CHAIN: Read ICHAIN            0
 CHAIN: Running the NEB
 NEB:          SPRING     -5.000000
 NEB:          LCLIMB      T
 NEB:     LTANGENTOLD      F
 NEB:           LDNEB      F
 NEB:        LDNEBORG      F
 NEB:        LNEBCELL      F
 NEB:          EFIRST      0.000000
 NEB:           ELAST      0.000000
 
 POSCAR: Mo  S Li
  positions in cartesian coordinates
  No initial velocities read in
 
 POSCAR: Mo  S Li
  positions in cartesian coordinates
  No initial velocities read in
 
 POSCAR: Mo  S Li
  positions in cartesian coordinates
  No initial velocities read in
 
 POSCAR: Mo  S Li
  positions in cartesian coordinates
  No initial velocities read in
 


--------------------------------------------------------------------------------------------------------


 ion  position               nearest neighbor table
   1  0.536  0.088  0.673- 135 2.30  52 2.33  99 2.35 209 2.39 174 2.57 203 2.61  36 2.75  25 2.82

   2  0.864  0.423  0.657-  95 2.13 112 2.38 131 2.39  64 2.40 211 2.45 149 2.46 191 2.86  19 3.26

   3  0.761  0.562  0.012- 115 2.33 187 2.38 221 2.40  58 2.45 256 2.46 249 2.53  12 2.96  47 3.00

   4  0.898  0.797  0.840- 217 2.13 178 2.26 201 2.30 177 2.43 167 2.94  13 2.97  17 3.30  22 3.46

   5  0.279  0.462  0.163- 165 2.34 146 2.39  71 2.39 128 2.42 219 2.42 106 2.45 120 2.47  28 2.67

   6  0.535  0.532  0.376- 157 2.31 109 2.34  89 2.40 244 2.44 183 2.51 142 2.55  30 2.71  20 3.11

   7  0.645  0.913  0.740- 108 2.34 204 2.37 224 2.40 223 2.42 214 2.49 175 2.54  37 3.14  36 3.28

   8  0.061  0.977  0.738- 132 2.22 153 2.35 248 2.39 156 2.44 102 2.51 240 2.59 197 2.64  10 2.89

   9  0.762  0.246  0.136-  77 2.27  79 2.29  76 2.31  78 2.34 145 2.44  14 2.78
  10  0.973  0.908  0.735-  94 2.37 182 2.38 132 2.44 248 2.47 177 2.49 156 2.51  17 2.74   8 2.89
                            22 2.92
  11  0.365  0.964  0.084- 230 2.22  53 2.38  59 2.40  97 2.46 105 2.49 220 2.49  16 2.84
  12  0.704  0.507  0.117- 221 2.23 207 2.30  91 2.33 115 2.34  84 2.38   3 2.96
  13  0.908  0.683  0.738- 228 2.32 130 2.38 178 2.43  66 2.45 201 2.47 246 2.66  34 2.76   4 2.97

  14  0.877  0.264  0.190-  78 2.29 122 2.29  79 2.36 253 2.41 252 2.43 181 2.54   9 2.78
  15  0.185  0.541  0.554-  57 2.23 199 2.29 159 2.42  80 2.47 243 2.48 161 2.56  40 2.74
  16  0.417  0.920  0.961- 220 2.34 105 2.36 241 2.38 232 2.50 198 2.56 230 2.59  11 2.84  32 2.86
                            39 2.92
  17  0.884  0.933  0.766- 167 2.23 236 2.31  94 2.35 177 2.36 193 2.49  10 2.74  22 2.96   4 3.30

  18  0.627  0.071  0.230- 137 2.39 133 2.44 136 2.45 234 2.45  56 2.46 147 2.52  38 2.73  27 2.93
                            24 2.99  32 3.08
  19  0.728  0.385  0.567-  64 2.32 168 2.39  73 2.43 216 2.47 227 2.48 191 2.50 112 2.71  30 2.86
                             2 3.26
  20  0.587  0.490  0.225- 143 2.32 212 2.43 207 2.45  89 2.46 183 2.48 168 2.54 255 2.57  30 2.81
                             6 3.11
  21  0.350  0.087  0.316- 121 2.22  59 2.26  54 2.36 203 2.43 124 2.48  48 2.81  52 3.05
  22  0.848  0.854  0.536- 238 2.32 182 2.33  94 2.43 167 2.44 201 2.58  62 2.72  10 2.92  17 2.96
                             4 3.46
  23  0.210  0.684  0.494- 205 2.29 161 2.35  68 2.41 192 2.45  88 2.54  80 2.57  45 2.69  41 2.85
                           257 3.07
  24  0.490  0.104  0.073- 213 2.38 137 2.43 210 2.45 218 2.45 136 2.50 105 2.59  26 2.82  32 2.97
                            44 2.99  18 2.99
  25  0.602  0.081  0.568- 224 2.38  52 2.39  99 2.40 206 2.42 111 2.57 136 2.67   1 2.82  36 2.86
                            37 2.98
  26  0.481  0.194  0.920- 213 2.28 210 2.39 174 2.41 235 2.46 170 2.48 154 2.60  44 2.72  24 2.82
                            27 3.07
  27  0.626  0.174  0.107-  56 2.38 145 2.47  76 2.51 174 2.53 133 2.54 154 2.59 213 2.63  38 2.81
                            18 2.93  26 3.07
  28  0.257  0.352  0.075- 165 2.29 123 2.47 200 2.47 104 2.47 120 2.48  71 2.49 146 2.60   5 2.67
                            43 3.21
  29  0.835  0.968  0.036- 113 2.15 117 2.28 175 2.34 141 2.43 193 2.56  37 2.91
  30  0.606  0.436  0.444-  89 2.35 157 2.37 168 2.40  73 2.44 227 2.49 255 2.50   6 2.71  20 2.81
                            19 2.86
  31  0.339  0.777  0.254- 176 2.31 148 2.39 231 2.39 251 2.43  98 2.53  93 2.59 245 2.60  35 2.79

  32  0.527  0.986  0.174-  82 2.38 136 2.39 241 2.42 137 2.42 105 2.42  97 2.53  39 2.82  16 2.86
                            24 2.97  18 3.08
  33  0.018  0.193  0.948- 164 2.17  96 2.35 101 2.42 188 2.54 126 2.56  61 2.57 184 2.63  42 2.85

  34  0.870  0.677  0.476- 233 2.13 130 2.31 228 2.36 254 2.38  62 2.47  13 2.76
  35  0.211  0.750  0.045- 251 2.21 231 2.33 155 2.37 185 2.42 169 2.42  93 2.45  31 2.79
  36  0.520  0.992  0.519- 224 2.33 135 2.37  52 2.41 223 2.45  97 2.48 124 2.74   1 2.75  25 2.86
                             7 3.28
  37  0.720  0.028  0.813- 111 2.22 117 2.31 175 2.32  99 2.40 224 2.68  29 2.91  25 2.98   7 3.14

  38  0.738  0.124  0.336- 160 2.31  56 2.34 133 2.34 125 2.43 145 2.44 234 2.54  18 2.73  27 2.81

  39  0.516  0.874  0.232- 241 2.40  82 2.42 150 2.44  60 2.45 220 2.45  97 2.49 166 2.58  32 2.82
                            16 2.92
  40  0.190  0.466  0.722- 159 2.37  57 2.40 103 2.44  83 2.46 243 2.52 146 2.55  86 2.59  15 2.74

  41  0.345  0.669  0.682- 161 2.30 192 2.32  92 2.38 242 2.39 151 2.44  50 2.63  23 2.85  45 2.89
                           257 2.98
  42  0.104  0.177  0.892- 247 2.30 188 2.42 240 2.44 101 2.44 195 2.46  61 2.57  33 2.85  43 2.91
                            48 3.41
  43  0.218  0.223  0.953- 247 2.29  74 2.36 195 2.37 200 2.43 104 2.49 123 2.62  42 2.91  48 3.01
                            28 3.21
  44  0.377  0.181  0.901- 218 2.25 210 2.31 152 2.32 235 2.36 170 2.61  26 2.72  24 2.99
  45  0.280  0.765  0.696- 205 2.30 192 2.31 139 2.37 151 2.48 144 2.51 198 2.66  23 2.69  41 2.89

  46  0.209  0.247  0.312- 225 2.23 129 2.35  72 2.40 188 2.47 123 2.49 180 2.57  48 2.87
  47  0.866  0.580  0.000- 256 2.19 249 2.22  67 2.32 246 2.38  63 2.44   3 3.00
  48  0.253  0.169  0.205- 195 2.36  54 2.39 121 2.45 123 2.47 225 2.54 188 2.60  21 2.81  46 2.87
                            43 3.01  42 3.41
  49  0.225  0.884  0.253- 194 2.09  93 2.12
  50  0.414  0.584  0.696-  92 2.04 162 2.31  41 2.63
  51  0.049  0.779  0.331- 229 2.08 138 2.09
  52  0.490  0.088  0.441-   1 2.33  25 2.39  36 2.41  21 3.05
  53  0.311  0.929  0.158- 176 2.07  11 2.38
  54  0.365  0.186  0.364- 186 2.21  21 2.36  48 2.39
  55  0.037  0.469  0.645-  83 2.05 100 2.05
  56  0.670  0.084  0.111-  38 2.34  27 2.38  18 2.46
  57  0.098  0.503  0.506-  15 2.23  40 2.40
  58  0.691  0.634  0.842- 208 2.07   3 2.45
  59  0.345  0.057  0.135-  21 2.26  11 2.40
  60  0.603  0.806  0.309- 150 2.00  39 2.45
  61  0.081  0.275  0.952- 184 2.09  33 2.57  42 2.57
  62  0.836  0.770  0.363- 254 2.05  34 2.47  22 2.72
  63  0.960  0.543  0.036-  67 2.05  47 2.44
  64  0.774  0.473  0.608-  19 2.32   2 2.40
  65  0.178  0.056  0.415-  90 2.07 202 2.09
  66  0.986  0.607  0.820- 196 2.03  13 2.45
  67  0.949  0.524  0.177-  63 2.05  47 2.32
  68  0.139  0.737  0.286-  88 2.03  23 2.41
  69  0.675  0.224  0.682- 206 2.05 158 2.06
  70  0.015  0.061  0.404- 237 1.99 116 2.11
  71  0.223  0.400  0.200- 120 2.08   5 2.39  28 2.49
  72  0.156  0.224  0.401- 180 2.05  46 2.40
  73  0.694  0.428  0.690- 227 2.04  19 2.43  30 2.44
  74  0.249  0.161  0.848- 152 2.08  43 2.36
  75  0.555  0.736  0.913- 163 2.02  87 2.22
  76  0.665  0.200  0.981-   9 2.31  27 2.51
  77  0.738  0.339  0.076- 122 2.13   9 2.27
  78  0.866  0.240  0.348-  14 2.29   9 2.34
  79  0.789  0.208  0.009-   9 2.29  14 2.36
  80  0.115  0.617  0.392- 119 2.12  15 2.47  23 2.57
  81  0.403  0.624  0.305-  98 2.12 142 2.13
  82  0.609  0.936  0.376-  32 2.38  39 2.42 224 2.49
  83  0.126  0.503  0.788-  55 2.05  40 2.46
  84  0.602  0.463  0.954- 143 2.04  12 2.38
  85  0.273  0.471  0.457- 199 1.96
  86  0.259  0.393  0.709- 172 2.03  40 2.59 159 2.68
  87  0.562  0.644  0.876- 162 1.96  75 2.22
  88  0.167  0.662  0.247-  68 2.03 257 2.42  23 2.54
  89  0.643  0.528  0.463-  30 2.35   6 2.40  20 2.46
  90  0.222  0.024  0.609- 239 2.04  65 2.07
  91  0.805  0.468  0.271- 187 2.04  12 2.33
  92  0.402  0.657  0.598-  50 2.04  41 2.38 257 2.61
  93  0.248  0.796  0.264-  49 2.12  35 2.45  31 2.59
  94  0.875  0.955  0.573-  17 2.35  10 2.37  22 2.43
  95  0.897  0.492  0.612-   2 2.13
  96  0.015  0.259  0.090- 180 2.11  33 2.35
  97  0.480  0.961  0.285-  11 2.46  36 2.48  39 2.49  32 2.53
  98  0.434  0.711  0.352- 148 2.00  81 2.12  31 2.53
  99  0.648  0.092  0.805-   1 2.35  25 2.40  37 2.40
 100  0.054  0.383  0.646-  55 2.05 103 2.06
 101  0.989  0.188  0.721- 184 2.15  33 2.42  42 2.44
 102  0.988  0.062  0.631- 240 2.08 237 2.19   8 2.51
 103  0.129  0.377  0.642- 100 2.06  40 2.44
 104  0.316  0.279  0.049- 200 2.08  28 2.47  43 2.49
 105  0.418  0.018  0.014-  16 2.36  32 2.42  11 2.49  24 2.59
 106  0.257  0.560  0.082- 128 2.08   5 2.45
 107  0.431  0.856  0.621- 245 1.99 114 2.21
 108  0.635  0.914  0.910- 214 2.05   7 2.34 135 2.78
 109  0.567  0.616  0.510- 142 2.03   6 2.34
 110  0.482  0.331  0.726- 171 2.01 140 2.13
 111  0.720  0.084  0.675-  37 2.22  25 2.57
 112  0.780  0.377  0.442- 131 2.04   2 2.38  19 2.71
 113  0.816  0.920  0.148-  29 2.15
 114  0.359  0.872  0.646- 232 2.04 198 2.09 107 2.21
 115  0.690  0.486  0.916-   3 2.33  12 2.34
 116  0.053  0.145  0.451- 250 2.01  70 2.11
 117  0.799  0.057  0.039-  29 2.28  37 2.31
 118  0.595  0.779  0.553- 166 2.06 204 2.06
 119  0.054  0.647  0.433- 229 2.03  80 2.12
 120  0.170  0.422  0.995-  71 2.08   5 2.47  28 2.48
 121  0.256  0.068  0.254-  21 2.22  48 2.45
 122  0.829  0.352  0.128-  77 2.13  14 2.29 252 2.78
 123  0.237  0.273  0.167-  28 2.47  48 2.47  46 2.49  43 2.62
 124  0.400  0.997  0.441- 203 2.07  21 2.48  36 2.74
 125  0.842  0.137  0.562- 160 2.02  38 2.43
 126  0.904  0.207  0.857- 215 2.03  33 2.56
 127  0.100  0.531  0.064- 196 1.94
 128  0.266  0.548  0.256- 106 2.08 219 2.08   5 2.42 257 2.75
 129  0.258  0.326  0.465- 172 2.11  46 2.35
 130  0.830  0.621  0.552-  34 2.31  13 2.38
 131  0.866  0.336  0.551- 112 2.04   2 2.39
 132  0.985  0.921  0.562-   8 2.22  10 2.44
 133  0.662  0.165  0.348-  38 2.34  18 2.44  27 2.54 213 2.57
 134  0.495  0.270  0.492- 186 2.02 171 2.15
 135  0.544  0.995  0.736-   1 2.30  36 2.37 108 2.78
 136  0.567  0.071  0.316-  32 2.39  18 2.45  24 2.50  25 2.67
 137  0.535  0.030  0.015-  18 2.39  32 2.42  24 2.43
 138  0.024  0.834  0.425- 189 2.03  51 2.09
 139  0.223  0.850  0.587- 144 2.03  45 2.37
 140  0.578  0.305  0.885- 154 2.06 110 2.13
 141  0.945  0.939  0.203- 189 2.11  29 2.43 193 2.73
 142  0.489  0.586  0.475- 109 2.03  81 2.13   6 2.55
 143  0.546  0.453  0.009-  84 2.04  20 2.32
 144  0.242  0.844  0.770- 139 2.03  45 2.51 230 2.56
 145  0.731  0.222  0.272-   9 2.44  38 2.44  27 2.47
 146  0.273  0.435  0.970-   5 2.39  40 2.55  28 2.60
 147  0.685  0.977  0.297- 234 2.10 173 2.11  18 2.52
 148  0.393  0.745  0.168-  98 2.00  31 2.39
 149  0.966  0.397  0.880- 211 2.04   2 2.46
 150  0.516  0.771  0.191-  60 2.00  39 2.44
 151  0.348  0.694  0.876- 242 2.07  41 2.44  45 2.48
 152  0.270  0.202  0.739-  74 2.08  44 2.32
 153  0.159  0.939  0.815- 197 2.04   8 2.35
 154  0.568  0.272  0.019- 140 2.06  27 2.59  26 2.60
 155  0.106  0.782  0.946- 169 2.07  35 2.37
 156  0.040  0.989  0.900- 248 2.04   8 2.44  10 2.51
 157  0.530  0.454  0.475-   6 2.31  30 2.37
 158  0.747  0.225  0.669-  69 2.06 216 2.07
 159  0.281  0.506  0.767- 243 2.08  40 2.37  15 2.42  86 2.68
 160  0.837  0.093  0.412- 125 2.02  38 2.31
 161  0.269  0.598  0.571-  41 2.30  23 2.35  15 2.56 257 2.96
 162  0.515  0.596  0.907-  87 1.96  50 2.31 212 2.79
 163  0.575  0.764  0.796-  75 2.02 226 2.06
 164  0.014  0.104  0.980-  33 2.17
 165  0.355  0.389  0.254-  28 2.29   5 2.34
 166  0.516  0.828  0.415- 118 2.06 223 2.20  39 2.58
 167  0.798  0.877  0.638-  17 2.23  22 2.44   4 2.94
 168  0.642  0.395  0.326-  19 2.39  30 2.40  20 2.54 255 2.69
 169  0.115  0.745  0.806- 185 2.06 155 2.07  35 2.42
 170  0.381  0.245  0.743- 235 2.07  26 2.48  44 2.61
 171  0.485  0.348  0.575- 110 2.01 134 2.15
 172  0.203  0.349  0.524-  86 2.03 129 2.11
 173  0.743  0.960  0.241- 238 2.09 147 2.11
 174  0.539  0.141  0.859- 209 2.10  26 2.41  27 2.53   1 2.57
 175  0.753  0.936  0.809-  37 2.32  29 2.34   7 2.54
 176  0.371  0.872  0.311-  53 2.07  31 2.31
 177  0.973  0.874  0.919-  17 2.36   4 2.43  10 2.49
 178  0.977  0.733  0.963-   4 2.26  13 2.43
 179  0.757  0.654  0.690- 208 2.03 246 2.11
 180  0.107  0.287  0.261-  72 2.05  96 2.11  46 2.57
 181  0.925  0.180  0.148- 215 2.10 250 2.16  14 2.54
 182  0.947  0.817  0.616- 228 2.30  22 2.33  10 2.38
 183  0.509  0.568  0.160- 212 2.11  20 2.48   6 2.51 244 2.67
 184  0.985  0.275  0.776-  61 2.09 101 2.15  33 2.63
 185  0.156  0.667  0.893- 169 2.06  35 2.42
 186  0.414  0.238  0.314- 134 2.02  54 2.21
 187  0.846  0.511  0.209-  91 2.04   3 2.38
 188  0.138  0.176  0.122-  42 2.42  46 2.47  33 2.54  48 2.60
 189  0.935  0.863  0.270- 138 2.03 141 2.11
 190  0.424  0.429  0.109- 244 2.06 255 2.08
 191  0.832  0.349  0.779- 211 2.12  19 2.50   2 2.86
 192  0.293  0.745  0.535-  45 2.31  41 2.32  23 2.45 257 2.69
 193  0.902  0.987  0.963- 236 2.09  17 2.49  29 2.56 141 2.73
 194  0.133  0.882  0.190- 222 2.06  49 2.09
 195  0.205  0.127  0.985-  48 2.36  43 2.37  42 2.46
 196  0.048  0.598  0.028- 127 1.94  66 2.03
 197  0.117  0.973  0.629- 153 2.04 239 2.16   8 2.64
 198  0.385  0.826  0.815- 114 2.09  16 2.56  45 2.66
 199  0.190  0.480  0.416-  85 1.96  15 2.29
 200  0.231  0.306  0.865- 104 2.08  43 2.43  28 2.47
 201  0.830  0.762  0.615-   4 2.30  13 2.47  22 2.58
 202  0.097  0.005  0.277- 222 2.05  65 2.09
 203  0.418  0.070  0.561- 124 2.07  21 2.43   1 2.61
 204  0.667  0.838  0.642- 118 2.06   7 2.37
 205  0.196  0.714  0.648-  23 2.29  45 2.30
 206  0.596  0.181  0.517-  69 2.05  25 2.42
 207  0.688  0.507  0.277-  12 2.30  20 2.45
 208  0.728  0.691  0.789- 179 2.03  58 2.07
 209  0.523  0.187  0.701- 174 2.10   1 2.39
 210  0.412  0.113  0.823-  44 2.31  26 2.39  24 2.45
 211  0.895  0.419  0.887- 149 2.04 191 2.12   2 2.45
 212  0.592  0.591  0.193- 183 2.11  20 2.43 162 2.79
 213  0.546  0.193  0.155-  26 2.28  24 2.38 133 2.57  27 2.63
 214  0.702  0.856  0.951- 108 2.05 226 2.18   7 2.49
 215  0.888  0.151  0.950- 126 2.03 181 2.10
 216  0.734  0.281  0.529- 158 2.07  19 2.47
 217  0.853  0.799  0.931-   4 2.13
 218  0.425  0.156  0.117-  44 2.25  24 2.45
 219  0.356  0.512  0.382- 128 2.08   5 2.42
 220  0.400  0.864  0.085-  16 2.34  39 2.45  11 2.49
 221  0.718  0.601  0.117-  12 2.23   3 2.40
 222  0.123  0.921  0.325- 202 2.05 194 2.06
 223  0.533  0.890  0.573- 166 2.20   7 2.42  36 2.45
 224  0.619  0.981  0.573-  36 2.33  25 2.38   7 2.40  82 2.49  37 2.68
 225  0.284  0.181  0.442-  46 2.23  48 2.54
 226  0.673  0.767  0.917- 163 2.06 214 2.18
 227  0.651  0.351  0.594-  73 2.04  19 2.48  30 2.49
 228  0.962  0.723  0.674- 182 2.30  13 2.32  34 2.36
 229  0.999  0.704  0.280- 119 2.03  51 2.08
 230  0.301  0.940  0.860-  11 2.22 144 2.56  16 2.59
 231  0.287  0.689  0.221-  35 2.33 257 2.34  31 2.39
 232  0.388  0.951  0.739- 114 2.04  16 2.50
 233  0.914  0.620  0.424-  34 2.13
 234  0.728  0.043  0.449- 147 2.10  18 2.45  38 2.54
 235  0.426  0.270  0.945- 170 2.07  44 2.36  26 2.46
 236  0.865  0.029  0.782- 193 2.09  17 2.31
 237  0.946  0.073  0.416-  70 1.99 102 2.19
 238  0.769  0.876  0.306- 173 2.09  22 2.32
 239  0.174  0.047  0.680-  90 2.04 197 2.16
 240  0.083  0.086  0.764- 102 2.08  42 2.44   8 2.59
 241  0.525  0.898  0.061-  16 2.38  39 2.40  32 2.42
 242  0.434  0.697  0.914- 151 2.07  41 2.39
 243  0.233  0.567  0.797- 159 2.08  15 2.48  40 2.52
 244  0.426  0.514  0.167- 190 2.06   6 2.44 183 2.67
 245  0.412  0.780  0.522- 107 1.99  31 2.60
 246  0.856  0.637  0.837- 179 2.11  47 2.38  13 2.66
 247  0.114  0.237  0.766-  43 2.29  42 2.30
 248  0.090  0.917  0.920- 156 2.04   8 2.39  10 2.47
 249  0.845  0.638  0.112-  47 2.22   3 2.53
 250  0.026  0.170  0.270- 116 2.01 181 2.16
 251  0.264  0.810  0.020-  35 2.21  31 2.43
 252  0.950  0.331  0.216- 253 2.02  14 2.43 122 2.78
 253  0.986  0.285  0.384- 252 2.02  14 2.41
 254  0.767  0.709  0.284-  62 2.05  34 2.38
 255  0.517  0.408  0.196- 190 2.08  30 2.50  20 2.57 168 2.69
 256  0.784  0.523  0.863-  47 2.19   3 2.46
 257  0.281  0.653  0.382- 231 2.34  88 2.42  92 2.61 192 2.69 128 2.75 161 2.96  41 2.98  23 3.07

 

IMPORTANT INFORMATION: All symmetrisations will be switched off!
NOSYMM: (Re-)initialisation of all symmetry stuff for point group C_1.


----------------------------------------------------------------------------------------

                                     Primitive cell                                     

  volume of cell :    6163.4969

  direct lattice vectors                    reciprocal lattice vectors
    27.120398187  0.402360350 -2.402807027     0.039265674 -0.000001116  0.027010185
     0.301744657 23.362465222 -0.437691370    -0.000563784  0.042826122  0.000808004
    -7.129577944 -0.289405483 10.364511012     0.009079162  0.001808280  0.102778985

  length of vectors
    27.229604721 23.368513107 12.583231926     0.047658611  0.042837453  0.103195062

  position of ions in fractional coordinates (direct lattice)
     0.536453696  0.087711973  0.672769642
     0.864270321  0.422706366  0.656903990
     0.761419648  0.561830396  0.012468157
     0.897517517  0.796974525  0.839591788
     0.278899827  0.461579455  0.163221931
     0.535005719  0.531574677  0.376118616
     0.645299445  0.912950852  0.739590165
     0.060571939  0.977147858  0.738043476
     0.762394688  0.245755220  0.136437922
     0.973184632  0.907794669  0.734561198
     0.365403722  0.963934806  0.083622033
     0.703518799  0.507159022  0.117064777
     0.907626500  0.683491733  0.738387567
     0.876662933  0.263847808  0.189530759
     0.184507249  0.541394597  0.554425598
     0.417457455  0.919521054  0.960652694
     0.884153448  0.933207083  0.765559099
     0.626512850  0.070840163  0.229712728
     0.727870549  0.384666226  0.567090267
     0.586528261  0.490141358  0.225302956
     0.350350965  0.086879566  0.315747524
     0.848499164  0.853717831  0.535932336
     0.210236821  0.683947808  0.493532533
     0.489998319  0.103951795  0.073421447
     0.602244640  0.081174514  0.568042908
     0.481412121  0.193517760  0.919525861
     0.626207487  0.174428933  0.107037618
     0.256738469  0.352065684  0.075342049
     0.834740082  0.968158256  0.035650001
     0.606093911  0.435567046  0.443718641
     0.339202059  0.776921776  0.253833842
     0.527452772  0.985579363  0.173836999
     0.018441657  0.193204423  0.947745989
     0.870071018  0.677113841  0.476419920
     0.210687219  0.749838144  0.045399543
     0.519913867  0.991547765  0.519101500
     0.720179886  0.027539534  0.812564148
     0.738164886  0.123787525  0.335691970
     0.516343443  0.873765303  0.232327430
     0.189537760  0.466245989  0.721667485
     0.344860009  0.668917361  0.681582596
     0.104344245  0.176771810  0.891665040
     0.218305297  0.222569028  0.952690052
     0.377139323  0.180960726  0.900816417
     0.279566570  0.764726927  0.695914207
     0.208991408  0.246704267  0.311812371
     0.866292562  0.579856151  0.000388062
     0.252938815  0.168821418  0.205336595
     0.224907827  0.884189770  0.252804713
     0.414097485  0.583907641  0.695588422
     0.049107918  0.779241297  0.330590537
     0.489913093  0.088259824  0.440725741
     0.310711203  0.929172194  0.158166679
     0.364912753  0.186382164  0.363942685
     0.036857454  0.469445449  0.645368251
     0.670234379  0.084028610  0.111187682
     0.098314693  0.502606701  0.506087864
     0.690838070  0.633532886  0.841933359
     0.344554631  0.057226671  0.134540338
     0.602807975  0.806385908  0.308890000
     0.081028956  0.275023323  0.952365463
     0.836189452  0.770226810  0.362739281
     0.960139769  0.542606330  0.035723995
     0.774404226  0.473313202  0.607991002
     0.177776517  0.055610178  0.415468370
     0.986142703  0.606797854  0.820160885
     0.948944822  0.524422655  0.176847225
     0.139445869  0.736595937  0.286046967
     0.675322939  0.223872964  0.682418900
     0.015069624  0.061273029  0.404101825
     0.222896583  0.400028207  0.200064313
     0.156442597  0.223969736  0.401336245
     0.693883301  0.427663891  0.690349108
     0.248566918  0.161243090  0.848465551
     0.554695328  0.735704194  0.912852236
     0.665416437  0.200063962  0.980666055
     0.738393301  0.338810905  0.076477585
     0.865756468  0.240405032  0.347895774
     0.789325742  0.207615943  0.009124955
     0.115106031  0.617291509  0.391971320
     0.403203502  0.624194903  0.305327628
     0.608632601  0.935912963  0.375972685
     0.126431011  0.503262213  0.787645512
     0.601676676  0.463141885  0.953610508
     0.272592052  0.470892104  0.457001498
     0.258998789  0.392702804  0.709303179
     0.562495211  0.643534172  0.875871978
     0.166956322  0.662480131  0.247392242
     0.642884116  0.528290639  0.462694945
     0.221769815  0.023793019  0.608559025
     0.804821919  0.467804346  0.271098923
     0.402169926  0.656707186  0.597654244
     0.248098280  0.796182465  0.263664637
     0.874767157  0.954931446  0.572635782
     0.896702636  0.492039766  0.612370962
     0.015313221  0.259093868  0.090075225
     0.479805990  0.961177505  0.284907388
     0.433695588  0.710962871  0.351538370
     0.647621190  0.091858221  0.805140446
     0.054070121  0.383395624  0.645790453
     0.988687634  0.187679948  0.720935768
     0.987600293  0.061787531  0.630596191
     0.128641689  0.377291256  0.642001935
     0.315948500  0.278965230  0.049162559
     0.417916487  0.017862941  0.014462048
     0.257234000  0.559513031  0.081948223
     0.431183605  0.855901790  0.620763337
     0.634638754  0.914259772  0.910046467
     0.567235062  0.616494371  0.510011709
     0.482273142  0.330576777  0.726408747
     0.719866605  0.084057092  0.674674920
     0.780039654  0.377040757  0.442260112
     0.816373227  0.919619854  0.148475090
     0.358634828  0.871864885  0.646409187
     0.689771994  0.485867178  0.915974643
     0.053294559  0.144745299  0.451039189
     0.798867407  0.057062649  0.039386458
     0.594575981  0.779033256  0.553449537
     0.053990559  0.647478815  0.432545682
     0.170121977  0.422017975  0.995027024
     0.255732524  0.067746973  0.254263342
     0.828590937  0.351723233  0.128017931
     0.237112176  0.272700909  0.166705026
     0.400228597  0.997036506  0.440674275
     0.842193833  0.136701809  0.561843318
     0.903894339  0.207100930  0.856712742
     0.100375774  0.531027110  0.064476152
     0.265840918  0.548105555  0.255893679
     0.258395773  0.326424446  0.464747176
     0.830495860  0.620588125  0.552433773
     0.866302282  0.336464695  0.550785625
     0.985376070  0.921406053  0.561507431
     0.662342745  0.164792304  0.347979203
     0.495013919  0.269983036  0.491562562
     0.543588772  0.995258450  0.735855173
     0.567365694  0.071418821  0.315729074
     0.535053437  0.030293282  0.015217794
     0.024303898  0.834282346  0.424872295
     0.223182714  0.850031633  0.586616263
     0.578049259  0.304672313  0.884580047
     0.945376495  0.938922956  0.202824970
     0.488874879  0.585534846  0.475248053
     0.546471346  0.453429059  0.008844782
     0.242130873  0.844276105  0.769823540
     0.730609203  0.222450948  0.271732215
     0.272704891  0.435082052  0.969599611
     0.685383339  0.976884806  0.296735682
     0.392699235  0.744554022  0.168355048
     0.965589121  0.396509619  0.879565235
     0.516366380  0.770808039  0.191454568
     0.348009919  0.693842319  0.876147034
     0.269741827  0.202232062  0.738839495
     0.158756137  0.938720597  0.815171553
     0.567873780  0.271786030  0.018846423
     0.106306244  0.781715727  0.945986534
     0.040106334  0.989263317  0.900042070
     0.530032344  0.453731388  0.475051942
     0.746766873  0.225408014  0.668671675
     0.280784126  0.505602220  0.766913064
     0.837197536  0.093496245  0.412181843
     0.268647837  0.597972300  0.571239607
     0.514926513  0.596069336  0.906717873
     0.575212546  0.764341303  0.795584867
     0.013754644  0.103958210  0.980335158
     0.355370067  0.388512188  0.254201609
     0.515938024  0.828261065  0.414879624
     0.798165713  0.877122065  0.637879245
     0.642412865  0.394996108  0.326188628
     0.115262222  0.744900476  0.806389604
     0.381155428  0.245224662  0.742606222
     0.485130228  0.347711531  0.575309400
     0.203038678  0.349406634  0.524147374
     0.742650430  0.960006202  0.240508291
     0.538710999  0.140773125  0.859440896
     0.753415901  0.935559924  0.809125421
     0.370633927  0.871686041  0.311002255
     0.972909942  0.874136771  0.919217412
     0.977138895  0.732640306  0.962507138
     0.757275642  0.653618366  0.689562691
     0.107395668  0.287359680  0.260811040
     0.924564622  0.179595217  0.148168536
     0.947128521  0.817240411  0.616276553
     0.508633989  0.567599088  0.159803988
     0.985161420  0.275085887  0.776046260
     0.155583780  0.667169454  0.892619476
     0.414363194  0.237816126  0.313897703
     0.846161550  0.511320732  0.208837850
     0.137728080  0.176103020  0.121774230
     0.934888122  0.862723426  0.270254896
     0.423938923  0.429400570  0.109296532
     0.831816087  0.348802603  0.779024270
     0.293027963  0.744685797  0.534713207
     0.901765370  0.987101657  0.962917894
     0.133185195  0.881911855  0.189844104
     0.204763160  0.126844815  0.985118010
     0.048411062  0.598048341  0.027647580
     0.117201363  0.972586996  0.628637251
     0.384535473  0.826318583  0.814754582
     0.190356839  0.479736105  0.415687319
     0.231163969  0.306077383  0.864890333
     0.830376451  0.762424033  0.615105470
     0.096677487  0.004877709  0.276542206
     0.417995671  0.069800882  0.560854773
     0.667118248  0.837955839  0.641664124
     0.195968422  0.713808212  0.647872927
     0.596418525  0.180829259  0.517415542
     0.688311347  0.507475932  0.276744264
     0.728051441  0.691296852  0.789405277
     0.522559007  0.187124771  0.700784071
     0.411690308  0.112798988  0.823065230
     0.894965951  0.419499312  0.886955792
     0.592046979  0.590634367  0.192843919
     0.545723430  0.192630990  0.154607272
     0.702189416  0.855887841  0.950997577
     0.888420483  0.150715177  0.950183424
     0.733573253  0.280931446  0.528837266
     0.853107772  0.799250181  0.931011823
     0.424602639  0.155578796  0.117401330
     0.356424010  0.512095545  0.381519602
     0.400279003  0.863902492  0.084648798
     0.717959441  0.600813532  0.117172470
     0.122966051  0.920899934  0.324830332
     0.532931655  0.889793439  0.572525520
     0.618912345  0.980518329  0.572598425
     0.283650988  0.181327219  0.442360299
     0.673055524  0.766784701  0.917408328
     0.650826120  0.351121496  0.593972409
     0.962265984  0.722661742  0.673866423
     0.998930394  0.703648270  0.279584328
     0.301044951  0.940349600  0.859708184
     0.286911059  0.689359038  0.220605249
     0.388078591  0.951297443  0.739244921
     0.914199069  0.619553004  0.423874450
     0.727839146  0.043193246  0.448864449
     0.425861844  0.270488521  0.945244993
     0.864832397  0.028679072  0.781971648
     0.945880745  0.072673564  0.416018758
     0.769451046  0.875843141  0.306001727
     0.174327880  0.047285869  0.680180313
     0.083063441  0.086080301  0.764411295
     0.524811826  0.897900620  0.060845183
     0.433823133  0.696602742  0.913511256
     0.233452532  0.566794980  0.797182071
     0.425535280  0.513818176  0.166712519
     0.411837688  0.780374597  0.521708109
     0.856182080  0.637428458  0.836516078
     0.113530436  0.237333221  0.765879480
     0.089669876  0.917427926  0.919679732
     0.845478798  0.638222403  0.111522379
     0.026179306  0.170070740  0.269952202
     0.263674990  0.809549503  0.019610256
     0.950463832  0.331098528  0.216047450
     0.986442070  0.285219141  0.383863248
     0.767087403  0.709359478  0.284345444
     0.517373275  0.408156098  0.195990880
     0.784196272  0.522537453  0.863054715
     0.280999767  0.652976107  0.382355513

  ion indices of the primitive-cell ions
   primitive index   ion index
                 1           1
                 2           2
                 3           3
                 4           4
                 5           5
                 6           6
                 7           7
                 8           8
                 9           9
                10          10
                11          11
                12          12
                13          13
                14          14
                15          15
                16          16
                17          17
                18          18
                19          19
                20          20
                21          21
                22          22
                23          23
                24          24
                25          25
                26          26
                27          27
                28          28
                29          29
                30          30
                31          31
                32          32
                33          33
                34          34
                35          35
                36          36
                37          37
                38          38
                39          39
                40          40
                41          41
                42          42
                43          43
                44          44
                45          45
                46          46
                47          47
                48          48
                49          49
                50          50
                51          51
                52          52
                53          53
                54          54
                55          55
                56          56
                57          57
                58          58
                59          59
                60          60
                61          61
                62          62
                63          63
                64          64
                65          65
                66          66
                67          67
                68          68
                69          69
                70          70
                71          71
                72          72
                73          73
                74          74
                75          75
                76          76
                77          77
                78          78
                79          79
                80          80
                81          81
                82          82
                83          83
                84          84
                85          85
                86          86
                87          87
                88          88
                89          89
                90          90
                91          91
                92          92
                93          93
                94          94
                95          95
                96          96
                97          97
                98          98
                99          99
               100         100
               101         101
               102         102
               103         103
               104         104
               105         105
               106         106
               107         107
               108         108
               109         109
               110         110
               111         111
               112         112
               113         113
               114         114
               115         115
               116         116
               117         117
               118         118
               119         119
               120         120
               121         121
               122         122
               123         123
               124         124
               125         125
               126         126
               127         127
               128         128
               129         129
               130         130
               131         131
               132         132
               133         133
               134         134
               135         135
               136         136
               137         137
               138         138
               139         139
               140         140
               141         141
               142         142
               143         143
               144         144
               145         145
               146         146
               147         147
               148         148
               149         149
               150         150
               151         151
               152         152
               153         153
               154         154
               155         155
               156         156
               157         157
               158         158
               159         159
               160         160
               161         161
               162         162
               163         163
               164         164
               165         165
               166         166
               167         167
               168         168
               169         169
               170         170
               171         171
               172         172
               173         173
               174         174
               175         175
               176         176
               177         177
               178         178
               179         179
               180         180
               181         181
               182         182
               183         183
               184         184
               185         185
               186         186
               187         187
               188         188
               189         189
               190         190
               191         191
               192         192
               193         193
               194         194
               195         195
               196         196
               197         197
               198         198
               199         199
               200         200
               201         201
               202         202
               203         203
               204         204
               205         205
               206         206
               207         207
               208         208
               209         209
               210         210
               211         211
               212         212
               213         213
               214         214
               215         215
               216         216
               217         217
               218         218
               219         219
               220         220
               221         221
               222         222
               223         223
               224         224
               225         225
               226         226
               227         227
               228         228
               229         229
               230         230
               231         231
               232         232
               233         233
               234         234
               235         235
               236         236
               237         237
               238         238
               239         239
               240         240
               241         241
               242         242
               243         243
               244         244
               245         245
               246         246
               247         247
               248         248
               249         249
               250         250
               251         251
               252         252
               253         253
               254         254
               255         255
               256         256
               257         257

----------------------------------------------------------------------------------------

 
 
 KPOINTS: Automatic_mesh                          

Automatic generation of k-mesh.
 Grid dimensions read from file:
 generate k-points for:    1    1    1

 Generating k-lattice:

  Cartesian coordinates                     Fractional coordinates (reciprocal lattice)
     0.039265674 -0.000001116  0.027010185     1.000000000 -0.000000000  0.000000000
    -0.000563784  0.042826122  0.000808004     0.000000000  1.000000000 -0.000000000
     0.009079162  0.001808280  0.102778985    -0.000000000  0.000000000  1.000000000

  Length of vectors
     0.047658611  0.042837453  0.103195062

  Shift w.r.t. Gamma in fractional coordinates (k-lattice)
     0.000000000  0.000000000  0.000000000

 
 Subroutine IBZKPT returns following result:
 ===========================================
 
 Found      1 irreducible k-points:
 
 Following reciprocal coordinates:
            Coordinates               Weight
  0.000000  0.000000  0.000000      1.000000
 
 Following cartesian coordinates:
            Coordinates               Weight
  0.000000  0.000000  0.000000      1.000000
 


--------------------------------------------------------------------------------------------------------




 Dimension of arrays:
   k-points           NKPTS =      1   k-points in BZ     NKDIM =      1   number of bands    NBANDS=   1052
   number of dos      NEDOS =    903   number of ions     NIONS =    257
   non local maximal  LDIM  =      6   non local SUM 2l+1 LMDIM =     18
   total plane-waves  NPLWV = ******
   max r-space proj   IRMAX =   7414   max aug-charges    IRDMAX= 201780
   dimension x,y,z NGX =   180 NGY =  160 NGZ =   84
   dimension x,y,z NGXF=   360 NGYF=  320 NGZF=  168
   support grid    NGXF=   720 NGYF=  640 NGZF=  336
   ions per type =              48 208   1
   NGX,Y,Z   is equivalent  to a cutoff of  10.99, 11.38, 11.10 a.u.
   NGXF,Y,Z  is equivalent  to a cutoff of  21.98, 22.77, 22.20 a.u.

 SYSTEM =  LiMox                                   
 POSCAR =  Mo  S Li                                

 Startparameter for this run:
   NWRITE =      0    write-flag & timer
   PREC   = accura    normal or accurate (medium, high low for compatibility)
   ISTART =      0    job   : 0-new  1-cont  2-samecut
   ICHARG =      2    charge: 1-file 2-atom 10-const
   ISPIN  =      2    spin polarized calculation?
   LNONCOLLINEAR =      F non collinear calculations
   LSORBIT =      F    spin-orbit coupling
   INIWAV =      1    electr: 0-lowe 1-rand  2-diag
   LASPH  =      F    aspherical Exc in radial PAW
   METAGGA=      F    non-selfconsistent MetaGGA calc.

 Electronic Relaxation 1
   ENCUT  =  400.0 eV  29.40 Ry    5.42 a.u.  44.40 38.11 20.52*2*pi/ulx,y,z
   ENINI  =  400.0     initial cutoff
   ENAUG  =  345.3 eV  augmentation charge cutoff
   NELM   =    800;   NELMIN=  2; NELMDL= 10     # of ELM steps 
   EDIFF  = 0.1E-05   stopping-criterion for ELM
   LREAL  =      T    real-space projection
   NLSPLINE    = F    spline interpolate recip. space projectors
   LCOMPAT=      F    compatible to vasp.4.4
   GGA_COMPAT  = T    GGA compatible to vasp.4.4-vasp.4.6
   LMAXPAW     = -100 max onsite density
   LMAXMIX     =    4 max onsite mixed and CHGCAR
   VOSKOWN=      0    Vosko Wilk Nusair interpolation
   ROPT   =   -0.00025  -0.00025  -0.00025
 Ionic relaxation
   EDIFFG = -.3E-01   stopping-criterion for IOM
   NSW    =   1200    number of steps for IOM
   NBLOCK =      1;   KBLOCK =   1200    inner block; outer block 
   IBRION =      2    ionic relax: 0-MD 1-quasi-New 2-CG
   NFREE  =      1    steps in history (QN), initial steepest desc. (CG)
   ISIF   =      2    stress and relaxation
   IWAVPR =     11    prediction:  0-non 1-charg 2-wave 3-comb
   ISYM   =      0    0-nonsym 1-usesym 2-fastsym
   LCORR  =      T    Harris-Foulkes like correction to forces

   POTIM  = 0.2000    time-step for ionic-motion
   TEIN   =    0.0    initial temperature
   TEBEG  =    0.0;   TEEND  =   0.0 temperature during run
   SMASS  =  -3.00    Nose mass-parameter (am)
   estimated Nose-frequenzy (Omega)   =  0.10E-29 period in steps = 0.31E+47 mass=  -0.169E-25a.u.
   SCALEE = 1.0000    scale energy and forces
   NPACO  =    256;   APACO  = 16.0  distance and # of slots for P.C.
   PSTRESS=    0.0 pullay stress

  Mass of Ions in am
   POMASS =  95.94 32.07  7.01
  Ionic Valenz
   ZVAL   =   6.00  6.00  1.00
  Atomic Wigner-Seitz radii
   RWIGS  =  -1.00 -1.00 -1.00
  virtual crystal weights 
   VCA    =   1.00  1.00  1.00
   NELECT =    1537.0000    total number of electrons
   NUPDOWN=      -1.0000    fix difference up-down

 DOS related values:
   EMIN   =  10.00;   EMAX   =-10.00  energy-range for DOS
   EFERMI =   0.00
   ISMEAR =     0;   SIGMA  =   0.05  broadening in eV -4-tet -1-fermi 0-gaus

 Electronic relaxation 2 (details)
   IALGO  =     48    algorithm
   LDIAG  =      T    sub-space diagonalisation (order eigenvalues)
   LSUBROT=      F    optimize rotation matrix (better conditioning)
   TURBO    =      0    0=normal 1=particle mesh
   IRESTART =      0    0=no restart 2=restart with 2 vectors
   NREBOOT  =      0    no. of reboots
   NMIN     =      0    reboot dimension
   EREF     =   0.00    reference energy to select bands
   IMIX   =      4    mixing-type and parameters
     AMIX     =   0.20;   BMIX     =  0.00
     AMIX_MAG =   0.80;   BMIX_MAG =  0.00
     AMIN     =   0.10
     WC   =   100.;   INIMIX=   1;  MIXPRE=   1;  MAXMIX= -45

 Intra band minimization:
   WEIMIN = 0.0010     energy-eigenvalue tresh-hold
   EBREAK =  0.24E-09  absolut break condition
   DEPER  =   0.30     relativ break condition  

   TIME   =   0.40     timestep for ELM

  volume/ion in A,a.u.               =      23.98       161.84
  Fermi-wavevector in a.u.,A,eV,Ry     =   1.030442  1.947254 14.446823  1.061812
  Thomas-Fermi vector in A             =   2.164541
 
 Write flags
   LWAVE        =      F    write WAVECAR
   LDOWNSAMPLE  =      F    k-point downsampling of WAVECAR
   LCHARG       =      F    write CHGCAR
   LVTOT        =      F    write LOCPOT, total local potential
   LVHAR        =      F    write LOCPOT, Hartree potential only
   LELF         =      F    write electronic localiz. function (ELF)
   LORBIT       =      0    0 simple, 1 ext, 2 COOP (PROOUT), +10 PAW based schemes


 Dipole corrections
   LMONO  =      F    monopole corrections only (constant potential shift)
   LDIPOL =      F    correct potential (dipole corrections)
   IDIPOL =      3    1-x, 2-y, 3-z, 4-all directions 
   EPSILON=  1.0000000 bulk dielectric constant

 Exchange correlation treatment:
   GGA     =    PE    GGA type
   LEXCH   =     8    internal setting for exchange type
   VOSKOWN=      0    Vosko Wilk Nusair interpolation
   LHFCALC =     F    Hartree Fock is set to
   LHFONE  =     F    Hartree Fock one center treatment
   AEXX    =    0.0000 exact exchange contribution

 Linear response parameters
   LEPSILON=     F    determine dielectric tensor
   LRPA    =     F    only Hartree local field effects (RPA)
   LNABLA  =     F    use nabla operator in PAW spheres
   LVEL    =     F    velocity operator in full k-point grid
   LINTERFAST=   F  fast interpolation
   KINTER  =     0    interpolate to denser k-point grid
   CSHIFT  =0.1000    complex shift for real part using Kramers Kronig
   OMEGAMAX=  -1.0    maximum frequency
   DEG_THRESHOLD= 0.2000000E-02 threshold for treating states as degnerate
   RTIME   =   -0.100 relaxation time in fs
  (WPLASMAI=    0.000 imaginary part of plasma frequency in eV, 0.658/RTIME)
   DFIELD  = 0.0000000 0.0000000 0.0000000 field for delta impulse in time
 
 Orbital magnetization related:
   ORBITALMAG=     F  switch on orbital magnetization
   LCHIMAG   =     F  perturbation theory with respect to B field
   DQ        =  0.001000  dq finite difference perturbation B field
   LLRAUG    =     F  two centre corrections for induced B field



--------------------------------------------------------------------------------------------------------


 conjugate gradient relaxation of ions
 charge density and potential will be updated during run
 spin polarized calculation
 RMM-DIIS sequential band-by-band
 perform sub-space diagonalisation
    before iterative eigenvector-optimisation
 modified Broyden-mixing scheme, WC =      100.0
 initial mixing is a Kerker type mixing with AMIX =  0.2000 and BMIX =      0.0000
 Hartree-type preconditioning will be used
 using additional bands          283
 real space projection scheme for non local part
 use partial core corrections
 calculate Harris-corrections to forces 
   (improved forces if not selfconsistent)
 use gradient corrections 
 use of overlap-Matrix (Vanderbilt PP)
 Gauss-broadening in eV      SIGMA  =   0.05


--------------------------------------------------------------------------------------------------------


  energy-cutoff  :      400.00
  volume of cell :     6163.50
      direct lattice vectors                 reciprocal lattice vectors
    27.120398187  0.402360350 -2.402807027     0.039265674 -0.000001116  0.027010185
     0.301744657 23.362465222 -0.437691370    -0.000563784  0.042826122  0.000808004
    -7.129577944 -0.289405483 10.364511012     0.009079162  0.001808280  0.102778985

  length of vectors
    27.229604721 23.368513107 12.583231926     0.047658611  0.042837453  0.103195062


 
 k-points in units of 2pi/SCALE and weight: Automatic_mesh                          
   0.00000000  0.00000000  0.00000000       1.000
 
 k-points in reciprocal lattice and weights: Automatic_mesh                          
   0.00000000  0.00000000  0.00000000       1.000
 
 position of ions in fractional coordinates (direct lattice) 
   0.53645370  0.08771197  0.67276964
   0.86427032  0.42270637  0.65690399
   0.76141965  0.56183040  0.01246816
   0.89751752  0.79697452  0.83959179
   0.27889983  0.46157946  0.16322193
   0.53500572  0.53157468  0.37611862
   0.64529945  0.91295085  0.73959016
   0.06057194  0.97714786  0.73804348
   0.76239469  0.24575522  0.13643792
   0.97318463  0.90779467  0.73456120
   0.36540372  0.96393481  0.08362203
   0.70351880  0.50715902  0.11706478
   0.90762650  0.68349173  0.73838757
   0.87666293  0.26384781  0.18953076
   0.18450725  0.54139460  0.55442560
   0.41745745  0.91952105  0.96065269
   0.88415345  0.93320708  0.76555910
   0.62651285  0.07084016  0.22971273
   0.72787055  0.38466623  0.56709027
   0.58652826  0.49014136  0.22530296
   0.35035096  0.08687957  0.31574752
   0.84849916  0.85371783  0.53593234
   0.21023682  0.68394781  0.49353253
   0.48999832  0.10395179  0.07342145
   0.60224464  0.08117451  0.56804291
   0.48141212  0.19351776  0.91952586
   0.62620749  0.17442893  0.10703762
   0.25673847  0.35206568  0.07534205
   0.83474008  0.96815826  0.03565000
   0.60609391  0.43556705  0.44371864
   0.33920206  0.77692178  0.25383384
   0.52745277  0.98557936  0.17383700
   0.01844166  0.19320442  0.94774599
   0.87007102  0.67711384  0.47641992
   0.21068722  0.74983814  0.04539954
   0.51991387  0.99154777  0.51910150
   0.72017989  0.02753953  0.81256415
   0.73816489  0.12378752  0.33569197
   0.51634344  0.87376530  0.23232743
   0.18953776  0.46624599  0.72166748
   0.34486001  0.66891736  0.68158260
   0.10434424  0.17677181  0.89166504
   0.21830530  0.22256903  0.95269005
   0.37713932  0.18096073  0.90081642
   0.27956657  0.76472693  0.69591421
   0.20899141  0.24670427  0.31181237
   0.86629256  0.57985615  0.00038806
   0.25293882  0.16882142  0.20533659
   0.22490783  0.88418977  0.25280471
   0.41409748  0.58390764  0.69558842
   0.04910792  0.77924130  0.33059054
   0.48991309  0.08825982  0.44072574
   0.31071120  0.92917219  0.15816668
   0.36491275  0.18638216  0.36394268
   0.03685745  0.46944545  0.64536825
   0.67023438  0.08402861  0.11118768
   0.09831469  0.50260670  0.50608786
   0.69083807  0.63353289  0.84193336
   0.34455463  0.05722667  0.13454034
   0.60280797  0.80638591  0.30889000
   0.08102896  0.27502332  0.95236546
   0.83618945  0.77022681  0.36273928
   0.96013977  0.54260633  0.03572399
   0.77440423  0.47331320  0.60799100
   0.17777652  0.05561018  0.41546837
   0.98614270  0.60679785  0.82016088
   0.94894482  0.52442266  0.17684722
   0.13944587  0.73659594  0.28604697
   0.67532294  0.22387296  0.68241890
   0.01506962  0.06127303  0.40410183
   0.22289658  0.40002821  0.20006431
   0.15644260  0.22396974  0.40133625
   0.69388330  0.42766389  0.69034911
   0.24856692  0.16124309  0.84846555
   0.55469533  0.73570419  0.91285224
   0.66541644  0.20006396  0.98066605
   0.73839330  0.33881091  0.07647759
   0.86575647  0.24040503  0.34789577
   0.78932574  0.20761594  0.00912496
   0.11510603  0.61729151  0.39197132
   0.40320350  0.62419490  0.30532763
   0.60863260  0.93591296  0.37597268
   0.12643101  0.50326221  0.78764551
   0.60167668  0.46314189  0.95361051
   0.27259205  0.47089210  0.45700150
   0.25899879  0.39270280  0.70930318
   0.56249521  0.64353417  0.87587198
   0.16695632  0.66248013  0.24739224
   0.64288412  0.52829064  0.46269494
   0.22176982  0.02379302  0.60855903
   0.80482192  0.46780435  0.27109892
   0.40216993  0.65670719  0.59765424
   0.24809828  0.79618246  0.26366464
   0.87476716  0.95493145  0.57263578
   0.89670264  0.49203977  0.61237096
   0.01531322  0.25909387  0.09007522
   0.47980599  0.96117751  0.28490739
   0.43369559  0.71096287  0.35153837
   0.64762119  0.09185822  0.80514045
   0.05407012  0.38339562  0.64579045
   0.98868763  0.18767995  0.72093577
   0.98760029  0.06178753  0.63059619
   0.12864169  0.37729126  0.64200193
   0.31594850  0.27896523  0.04916256
   0.41791649  0.01786294  0.01446205
   0.25723400  0.55951303  0.08194822
   0.43118361  0.85590179  0.62076334
   0.63463875  0.91425977  0.91004647
   0.56723506  0.61649437  0.51001171
   0.48227314  0.33057678  0.72640875
   0.71986661  0.08405709  0.67467492
   0.78003965  0.37704076  0.44226011
   0.81637323  0.91961985  0.14847509
   0.35863483  0.87186488  0.64640919
   0.68977199  0.48586718  0.91597464
   0.05329456  0.14474530  0.45103919
   0.79886741  0.05706265  0.03938646
   0.59457598  0.77903326  0.55344954
   0.05399056  0.64747882  0.43254568
   0.17012198  0.42201797  0.99502702
   0.25573252  0.06774697  0.25426334
   0.82859094  0.35172323  0.12801793
   0.23711218  0.27270091  0.16670503
   0.40022860  0.99703651  0.44067428
   0.84219383  0.13670181  0.56184332
   0.90389434  0.20710093  0.85671274
   0.10037577  0.53102711  0.06447615
   0.26584092  0.54810555  0.25589368
   0.25839577  0.32642445  0.46474718
   0.83049586  0.62058812  0.55243377
   0.86630228  0.33646469  0.55078563
   0.98537607  0.92140605  0.56150743
   0.66234275  0.16479230  0.34797920
   0.49501392  0.26998304  0.49156256
   0.54358877  0.99525845  0.73585517
   0.56736569  0.07141882  0.31572907
   0.53505344  0.03029328  0.01521779
   0.02430390  0.83428235  0.42487230
   0.22318271  0.85003163  0.58661626
   0.57804926  0.30467231  0.88458005
   0.94537650  0.93892296  0.20282497
   0.48887488  0.58553485  0.47524805
   0.54647135  0.45342906  0.00884478
   0.24213087  0.84427611  0.76982354
   0.73060920  0.22245095  0.27173222
   0.27270489  0.43508205  0.96959961
   0.68538334  0.97688481  0.29673568
   0.39269924  0.74455402  0.16835505
   0.96558912  0.39650962  0.87956523
   0.51636638  0.77080804  0.19145457
   0.34800992  0.69384232  0.87614703
   0.26974183  0.20223206  0.73883949
   0.15875614  0.93872060  0.81517155
   0.56787378  0.27178603  0.01884642
   0.10630624  0.78171573  0.94598653
   0.04010633  0.98926332  0.90004207
   0.53003234  0.45373139  0.47505194
   0.74676687  0.22540801  0.66867168
   0.28078413  0.50560222  0.76691306
   0.83719754  0.09349625  0.41218184
   0.26864784  0.59797230  0.57123961
   0.51492651  0.59606934  0.90671787
   0.57521255  0.76434130  0.79558487
   0.01375464  0.10395821  0.98033516
   0.35537007  0.38851219  0.25420161
   0.51593802  0.82826106  0.41487962
   0.79816571  0.87712207  0.63787925
   0.64241287  0.39499611  0.32618863
   0.11526222  0.74490048  0.80638960
   0.38115543  0.24522466  0.74260622
   0.48513023  0.34771153  0.57530940
   0.20303868  0.34940663  0.52414737
   0.74265043  0.96000620  0.24050829
   0.53871100  0.14077313  0.85944090
   0.75341590  0.93555992  0.80912542
   0.37063393  0.87168604  0.31100225
   0.97290994  0.87413677  0.91921741
   0.97713890  0.73264031  0.96250714
   0.75727564  0.65361837  0.68956269
   0.10739567  0.28735968  0.26081104
   0.92456462  0.17959522  0.14816854
   0.94712852  0.81724041  0.61627655
   0.50863399  0.56759909  0.15980399
   0.98516142  0.27508589  0.77604626
   0.15558378  0.66716945  0.89261948
   0.41436319  0.23781613  0.31389770
   0.84616155  0.51132073  0.20883785
   0.13772808  0.17610302  0.12177423
   0.93488812  0.86272343  0.27025490
   0.42393892  0.42940057  0.10929653
   0.83181609  0.34880260  0.77902427
   0.29302796  0.74468580  0.53471321
   0.90176537  0.98710166  0.96291789
   0.13318519  0.88191186  0.18984410
   0.20476316  0.12684482  0.98511801
   0.04841106  0.59804834  0.02764758
   0.11720136  0.97258700  0.62863725
   0.38453547  0.82631858  0.81475458
   0.19035684  0.47973610  0.41568732
   0.23116397  0.30607738  0.86489033
   0.83037645  0.76242403  0.61510547
   0.09667749  0.00487771  0.27654221
   0.41799567  0.06980088  0.56085477
   0.66711825  0.83795584  0.64166412
   0.19596842  0.71380821  0.64787293
   0.59641853  0.18082926  0.51741554
   0.68831135  0.50747593  0.27674426
   0.72805144  0.69129685  0.78940528
   0.52255901  0.18712477  0.70078407
   0.41169031  0.11279899  0.82306523
   0.89496595  0.41949931  0.88695579
   0.59204698  0.59063437  0.19284392
   0.54572343  0.19263099  0.15460727
   0.70218942  0.85588784  0.95099758
   0.88842048  0.15071518  0.95018342
   0.73357325  0.28093145  0.52883727
   0.85310777  0.79925018  0.93101182
   0.42460264  0.15557880  0.11740133
   0.35642401  0.51209555  0.38151960
   0.40027900  0.86390249  0.08464880
   0.71795944  0.60081353  0.11717247
   0.12296605  0.92089993  0.32483033
   0.53293165  0.88979344  0.57252552
   0.61891234  0.98051833  0.57259843
   0.28365099  0.18132722  0.44236030
   0.67305552  0.76678470  0.91740833
   0.65082612  0.35112150  0.59397241
   0.96226598  0.72266174  0.67386642
   0.99893039  0.70364827  0.27958433
   0.30104495  0.94034960  0.85970818
   0.28691106  0.68935904  0.22060525
   0.38807859  0.95129744  0.73924492
   0.91419907  0.61955300  0.42387445
   0.72783915  0.04319325  0.44886445
   0.42586184  0.27048852  0.94524499
   0.86483240  0.02867907  0.78197165
   0.94588075  0.07267356  0.41601876
   0.76945105  0.87584314  0.30600173
   0.17432788  0.04728587  0.68018031
   0.08306344  0.08608030  0.76441130
   0.52481183  0.89790062  0.06084518
   0.43382313  0.69660274  0.91351126
   0.23345253  0.56679498  0.79718207
   0.42553528  0.51381818  0.16671252
   0.41183769  0.78037460  0.52170811
   0.85618208  0.63742846  0.83651608
   0.11353044  0.23733322  0.76587948
   0.08966988  0.91742793  0.91967973
   0.84547880  0.63822240  0.11152238
   0.02617931  0.17007074  0.26995220
   0.26367499  0.80954950  0.01961026
   0.95046383  0.33109853  0.21604745
   0.98644207  0.28521914  0.38386325
   0.76708740  0.70935948  0.28434544
   0.51737328  0.40815610  0.19599088
   0.78419627  0.52253745  0.86305472
   0.28099977  0.65297611  0.38235551
 
 position of ions in cartesian coordinates  (Angst):
   9.77874087  2.07031240  5.64554288
  18.88345644 10.03309926  4.54679891
  20.73064067 13.42849981 -1.94622645
  18.59558015 18.73743261  6.19656806
   6.53945003 10.84861488  0.81954369
  11.98840095 12.52530920  2.38010439
  12.50329022 21.37438399  5.71536965
  -3.32435423 22.63936076  7.07622786
  19.77785805  6.00871929 -0.52533991
  21.42996561 21.38730625  4.87765886
   9.60456682 22.64271669 -0.43319910
  18.39812003 12.09767390 -0.69907987
  19.55704036 16.11955135  5.17301630
  22.50378817  6.46201839 -0.25754213
   1.21445247 12.56209704  5.06605116
   4.75002470 21.37222882  8.55115929
  18.80207055 21.93620932  5.40173891
  15.37489880  1.84060466  0.84446449
  15.81309583  9.11549855  3.96031576
  14.44846253 11.62170223  0.71131010
   7.27672654  2.07930911  2.39271649
  19.44826863 20.13125380  3.14223191
   2.38940523 15.92046682  4.31070681
  12.79685249  2.60447752 -0.46189281
  12.30770223  1.97436140  4.40487994
   6.55865007  4.44863726  8.28899443
  16.27249635  4.29607368 -0.47160922
   6.53192643  8.30661927  0.00989439
  22.67645053 22.94411259 -2.05997902
  13.40541158 10.29137353  2.95195610
   7.62399874 18.21382852  1.47577460
  13.36273808 23.18748029  0.10298868
  -6.19858541  4.24686893  9.69404809
  20.40431500 16.03125209  2.55087986
   5.61650135 17.58970086 -0.36389435
  10.69849072 23.22396209  3.69698862
  13.74663574  0.69800273  6.67932296
  17.66333580  3.09183892  1.65143462
  12.61069727 20.55383080  0.78484702
   0.13584219 10.76006366  6.82023609
   4.69518676 15.56906283  5.94285891
  -3.47399799  3.91375649  8.91358155
  -0.80459240  5.01188486  9.25220449
   3.86033169  4.11873336  8.35112371
   2.85113438 17.77699135  6.20635156
   3.51928128  5.75746950  2.62163641
  23.66640100 13.89531863 -2.33130981
   5.44677908  3.98643153  1.44655856
   4.56399847 20.67418368  1.69278489
   6.44742782 13.60683127  5.95886618
  -0.79001280 18.12908208  2.96734522
  10.17108157  2.13154023  3.35210961
   7.57932263 21.78699664  0.48605057
   7.35806124  4.39584625  2.81369517
  -3.45996176 10.79545985  6.39489277
  17.40965716  2.20061289 -0.49481652
  -0.79020035 11.63522489  4.78913539
  12.92433920 14.83519574  6.78898512
   8.40251082  1.43665452  0.54149891
  14.38945961 18.99231430  1.40011442
  -4.50943942  6.18220588  9.55573005
  20.32402474 18.22586780  1.41329176
  25.94840441 13.05260497 -2.17426295
  16.81025146 11.19339684  4.23362041
   1.87603587  1.25048224  3.85462373
  21.08027982 14.33571944  5.86546572
  24.63315709 12.58244326 -0.67673155
   1.96469722 17.18202089  2.30727374
  13.51722073  5.30445173  5.35228024
  -2.45389246  1.32060315  4.12528974
   4.73937634  9.37743011  1.36290240
   1.44900915  5.17928255  3.68572294
  14.02553894 10.07068308  5.30067846
   0.74068676  3.62149897  8.12609750
   8.75730180 17.14686662  7.80642985
  11.11499189  4.65791441  8.47769056
  19.58250181  8.19042514 -1.12985845
  21.07185103  5.86411733  1.42030065
  21.40441835  5.16537281 -1.89289344
   0.51339574 14.35432686  3.51583031
   8.94652986 14.65660132  1.92254664
  14.10823868 22.00131511  2.02470531
  -2.03486403 11.58036785  7.63949773
   9.65862117 10.78624692  8.23528046
   4.27666638 10.97862191  3.87550555
   2.08561396  9.07344021  6.55737388
   9.20467957 15.00738833  7.44474796
   2.96401949 15.47274896  1.87297396
  14.29586242 12.46693630  3.01965213
   1.68289611  0.46897465  5.76413265
  20.03542747 11.17443369  0.67122208
   6.84414391 15.33115160  4.94062220
   5.08895037 18.62430407  1.78814055
  19.92952763 22.49580037  3.41522794
  20.10145642 11.67883600  3.97696062
  -0.14871750  6.03316466  0.78338779
  11.27129024 22.56607718  1.37934546
   9.47020608 16.68261013  2.29025419
  11.85115070  2.17359953  6.74857273
  -3.02212257  8.79192731  6.39557324
  21.73026600  4.57383221  5.01437522
  22.30687256  1.65838224  4.13576437
  -0.97454338  8.68041528  6.17979784
   8.30231709  6.63021272 -0.37171807
  11.23634327  0.58128998 -0.86209907
   6.56086234 13.15138822 -0.01362443
   7.52635426 19.98981468  5.02323662
  10.99928149 21.35134316  7.50710856
  11.93349640 14.48346101  3.65323131
   8.00020163  7.70690938  6.22537156
  14.73828532  2.05817205  5.22618404
  18.11562811  8.99446611  2.54449755
  21.35929264 21.77009357 -0.82522529
   5.38077523 20.32613912  5.45637711
  12.32298635 11.36350386  7.62358040
  -1.72667327  3.27251743  4.48339033
  21.40201170  1.64315807 -1.53627867
  12.41434488 18.27919981  3.96660634
  -1.42424941 15.02324387  4.06999970
  -2.35300528  9.63986432  9.71948463
   5.14321985  1.61204773  1.99118704
  21.66513292  8.51346484 -0.81804709
   5.32432619  6.41812470  1.03872245
   8.01338777 23.32673327  3.16930702
  18.87617542  3.36995612  3.73976879
  18.46846572  4.95414216  6.61687869
   2.42277781 12.42782986  0.19465419
   5.55068555 12.83800378  1.77354736
   3.79284187  7.59554761  4.05312888
  18.77201794 14.67274972  3.45855857
  19.66912021  8.04981004  3.47979877
  22.99850973 21.76028979  3.04878993
  15.53177933  4.01574784  1.94302431
  10.00180694  6.36438235  3.78721342
   9.79632104 23.25744898  5.88502409
  13.15771873  1.80543145  1.87784779
  14.41150664  0.91860593 -1.14116427
  -2.11828851 19.37771084  3.98003782
   2.12697020 19.77886437  5.17167421
   9.46217693  7.09447810  7.64594637
  24.47624554 22.25723826 -0.58033412
  10.04684536 13.73870195  3.49475813
  14.89428073 10.81053930 -1.41985533
   1.33292457 19.59900386  7.02751843
  17.94419989  5.41232992  0.96349375
   0.61431293  9.99370750  9.20373696
  16.76703865 23.01233144  1.00110229
   9.67452439 17.50390117  0.47545239
  20.03587722  9.39740596  6.62259040
  12.87165877 18.16033336  0.40622819
   3.40097222 16.09633069  7.94094611
   2.10891444  4.61934874  6.92105729
  -1.22304554 21.75878936  7.65652427
  15.34860597  6.57262731 -1.28811555
  -3.62553852 18.03180621  9.20710423
  -5.03071543 22.86728992  8.79913615
  11.12467940 10.67606514  3.45152133
  15.55328377  5.37303901  5.03745911
   2.29977361 11.70314184  7.05271110
  19.79465995  2.40187018  2.21951663
   3.39357397 13.91288043  5.01338297
   7.68035706 13.87042602  7.89952393
  10.15844487 17.85809321  6.52917777
  -6.58497566  2.15054002 10.08214317
   7.94265902  9.14602196  1.61074125
  11.28445139 19.43774489  2.69780220
  17.36342906 20.62827823  4.30955952
  15.21609343  9.39216352  1.66430509
  -2.39849044 17.21571484  7.75484455
   5.11661327  5.66750016  6.67357470
   9.16013185  8.15209803  4.64493596
   1.87497183  8.09300393  4.79173619
  18.71592951 22.65732017  0.28811872
   8.52508348  3.25683628  7.55165088
  14.94651669 21.92596554  6.16638981
   8.09745148 20.42385746  1.95129503
  20.09583893 20.54742373  6.80692203
  19.85919657 17.23089078  7.30736928
  15.81855183 15.37527082  5.04130976
   1.13984989  6.68116214  2.31935298
  24.07237347  4.52491437 -0.76446322
  21.53930882 19.29548383  3.75393898
  12.82629131 13.41891994  0.18570765
  21.26809339  6.59848231  5.55578450
  -1.94319124 15.39099494  8.58571228
   9.07149641  5.63185059  2.15367134
  21.61360073 12.22573587 -0.09246139
   2.92017967  4.13437487  0.85411757
  23.68805695 20.45329469  0.17709750
  10.84772358 10.17080107 -0.07378324
  17.11031856  8.25812460  5.92284419
   4.35946052 17.36084992  4.51200872
  17.88889037 23.14528904  7.38135907
   2.52463937 20.60228157  1.26161778
  -1.43194245  2.76069760  9.66274122
   1.29626961 13.98336090 -0.09152939
  -1.00989771 22.58725599  5.80821252
   4.86923607 19.22376654  7.15889578
   2.34363594 11.16410791  3.64102869
   0.19531305  6.99342943  8.27475554
  18.36475498 17.96820063  4.04632663
   0.65177455  0.07282166  2.63179246
   7.35861327  1.63659112  4.77807129
  13.77056684 19.65943496  4.68081243
   0.91106892 16.56767147  5.93158409
  12.54071772  4.31484956  3.85053305
  16.84733615 12.05274669  0.99232180
  14.32551365 16.21487948  6.12985791
   9.23217759  4.37914222  5.92577287
   5.33113387  2.56271069  7.49208513
  18.07479419  9.90394704  6.85882136
  14.85987482 13.98108101  0.31764272
  13.75607749  4.67516809  0.20684776
  12.52170479 20.00295919  7.79478447
  17.36538797  3.60355497  7.64751685
  16.20918178  6.70536353  3.59554343
  16.74007058 18.74627136  7.24980404
  10.72531579  3.77157089  0.12847367
   7.10080944 11.99681140  2.87370620
  10.51289370 20.31945050 -0.46257246
  18.81724795 14.29145330 -0.77365353
   1.29686173 21.46996167  2.66817391
  10.63994377 20.83650681  4.26396022
  12.99863029 22.99063803  4.01841134
   4.59360004  4.22235926  3.82392424
  11.94417281 17.91928877  7.55565113
  13.52183997  8.29303149  4.43874115
  21.51071278 17.07531685  4.35585369
  25.31039390 16.75997499  0.18953710
   2.31884791 21.84120912  7.77551912
   6.41633024 16.15672381  1.29534712
   5.54139054 22.16685933  6.31305948
  21.95834366 14.71945138  1.92543446
  16.55210670  1.17205049  2.88449820
   4.89196340  6.21706950  8.65534781
  17.88812492  0.79168120  6.01417582
  22.70855315  1.95802042  2.00725350
  18.95043659 20.68289293  0.93936690
  -0.10728877  0.97800919  6.61016347
  -3.17124204  1.82324465  7.68548726
  14.07024193 21.17072656 -1.02339432
   5.46270256 16.18453539  8.12080719
   0.81878127 13.10495119  7.45337970
  10.50713822 12.12703026  0.48052080
   7.68511733 18.24619636  4.07611972
  17.44833297 14.99430157  6.33384285
  -2.30979279  5.36871956  7.56129587
  -3.84821661 21.20329726  8.91502102
  22.32719436 15.21836065 -1.15499191
  -1.16333412  3.90567961  2.66058026
   7.25543511 19.01348915 -0.78464223
  24.33653767  8.05518148 -0.18947396
  24.10198213  6.94923531  1.48348697
  18.99049823 16.79874055  0.79345796
  12.75719591  9.68698231  0.60955509
  15.27217217 12.27351979  6.83215766
   5.09182418 15.25753897  3.00193770
 


--------------------------------------------------------------------------------------------------------


 use parallel FFT for orbitals z direction half grid
 k-point   1 :   0.0000 0.0000 0.0000  plane waves:   56003

 maximum and minimum number of plane-waves per node :      9339     9328

 maximum number of plane-waves:     56003
 maximum index in each direction: 
   IXMAX=   34   IYMAX=   38   IZMAX=   20
   IXMIN=  -44   IYMIN=  -38   IZMIN=    0


 real space projection operators:
  total allocation   :     107995.40 KBytes
  max/ min on nodes  :      18042.69      17966.51


 parallel 3D FFT for wavefunctions:
    minimum data exchange during FFTs selected (reduces bandwidth)
 parallel 3D FFT for charge:
    minimum data exchange during FFTs selected (reduces bandwidth)


 total amount of memory used by VASP MPI-rank0   363850. kBytes
=======================================================================

   base      :      30000. kBytes
   nonlr-proj:      22105. kBytes
   fftplans  :     126658. kBytes
   grid      :     104064. kBytes
   one-center:        668. kBytes
   wavefun   :      80355. kBytes
 
     INWAV:  cpu time    0.0001: real time    0.0001
 Broyden mixing: mesh for mixing (old mesh)
   NGX = 89   NGY = 77   NGZ = 41
  (NGX  =360   NGY  =320   NGZ  =168)
  gives a total of 280973 points

 initial charge density was supplied:
 charge density of overlapping atoms calculated
 number of electron    1537.0000000 magnetization     257.0000000
 keeping initial charge density in first step


--------------------------------------------------------------------------------------------------------


 Maximum index for non-local projection operator         1217
 Maximum index for augmentation-charges         8293 (set IRDMAX)


--------------------------------------------------------------------------------------------------------


 First call to EWALD:  gamma=   0.097
 Maximum number of real-space cells 2x 2x 5
 Maximum number of reciprocal cells 4x 3x 2

    FEWALD:  cpu time    0.0569: real time    0.0581


--------------------------------------- Iteration      1(   1)  ---------------------------------------


    POTLOK:  cpu time    2.2427: real time    2.2658
    SETDIJ:  cpu time    2.2969: real time    2.3226
    EDDIAG:  cpu time   22.0077: real time   22.2520
  RMM-DIIS:  cpu time   52.0380: real time   52.6045
    ORTHCH:  cpu time    1.9680: real time    1.9859
       DOS:  cpu time    0.0187: real time    0.0188
    --------------------------------------------
      LOOP:  cpu time   80.5721: real time   81.4497

 eigenvalue-minimisations  :  2104
 total energy-change (2. order) : 0.1918698E+05  (-0.4746766E+05)
 number of electron    1537.0000000 magnetization     257.0000000
 augmentation part     1537.0000000 magnetization     257.0000000

 Free energy of the ion-electron system (eV)
  ---------------------------------------------------
  alpha Z        PSCENC =      2674.94624358
  Ewald energy   TEWEN  =    -49802.93041951
  -Hartree energ DENC   =    -20970.82052505
  -exchange      EXHF   =         0.00000000
  -V(xc)+E(xc)   XCENC  =      -373.75188187
  PAW double counting   =     57971.91619422   -53884.73619297
  entropy T*S    EENTRO =        -0.05886977
  eigenvalues    EBANDS =     15548.16566091
  atomic energy  EATOM  =     68024.25456431
  Solvation  Ediel_sol  =         0.00000000
  ---------------------------------------------------
  free energy    TOTEN  =     19186.98477385 eV

  energy without entropy =    19187.04364362  energy(sigma->0) =    19187.01420874


--------------------------------------------------------------------------------------------------------




--------------------------------------- Iteration      1(   2)  ---------------------------------------


    EDDIAG:  cpu time   22.0422: real time   22.2840
  RMM-DIIS:  cpu time   52.1861: real time   52.7627
    ORTHCH:  cpu time    2.1452: real time    2.1630
       DOS:  cpu time    0.0096: real time    0.0096
    --------------------------------------------
      LOOP:  cpu time   76.3830: real time   77.2192

 eigenvalue-minimisations  :  2104
 total energy-change (2. order) :-0.1365360E+05  (-0.1387060E+05)
 number of electron    1537.0000000 magnetization     257.0000000
 augmentation part     1537.0000000 magnetization     257.0000000

 Free energy of the ion-electron system (eV)
  ---------------------------------------------------
  alpha Z        PSCENC =      2674.94624358
  Ewald energy   TEWEN  =    -49802.93041951
  -Hartree energ DENC   =    -20970.82052505
  -exchange      EXHF   =         0.00000000
  -V(xc)+E(xc)   XCENC  =      -373.75188187
  PAW double counting   =     57971.91619422   -53884.73619297
  entropy T*S    EENTRO =        -0.13489950
  eigenvalues    EBANDS =      1894.64278134
  atomic energy  EATOM  =     68024.25456431
  Solvation  Ediel_sol  =         0.00000000
  ---------------------------------------------------
  free energy    TOTEN  =      5533.38586455 eV

  energy without entropy =     5533.52076405  energy(sigma->0) =     5533.45331430


--------------------------------------------------------------------------------------------------------




[...]
      0.20892      0.19251      0.20003
      0.02477     -0.00125      0.00479
     -0.06938      0.12289      0.00551
     -0.02287     -0.00010     -0.02994
     -0.00777      0.00761     -0.05117
      0.00552      0.00213     -0.01748
      0.00127     -0.00392     -0.01716
     -0.01498      0.01912      0.01376
      0.00535     -0.00602     -0.00328
     -0.03800      0.00121     -0.04493
      0.00383     -0.02207     -0.01386
     -0.01034      0.00402     -0.00305
     -0.00793     -0.00508     -0.00319
     -0.00828      0.00513     -0.01439
     -0.01359     -0.03209     -0.04221
      0.00205     -0.00096     -0.00181
     -0.00833     -0.00693     -0.00554
      0.00265     -0.00744     -0.02139
     -0.01784      0.00045     -0.01605
      0.01770     -0.01966     -0.00001
      0.01265     -0.01446      0.00392
     -0.03549     -0.01653     -0.01768
     -0.05703      0.17352     -0.13844
     -0.00045      0.00069      0.02330
      0.02562      0.04073      0.02267
     -0.03805      0.00415      0.00582
     -0.05160     -0.04756     -0.04340
      0.00166      0.05327      0.02547
     -0.01508      0.03196     -0.00193
     -0.01428      0.03855      0.10847
      0.01844      0.02156     -0.01359
     -0.00713     -0.00645     -0.01473
      0.00323     -0.00459     -0.00987
     -0.00022     -0.00974     -0.01934
     -0.00127     -0.01701     -0.00575
      0.00562      0.01688     -0.01470
      0.00692      0.03009     -0.02745
      0.00254     -0.02394     -0.00040
      0.00166      0.00370     -0.00201
     -0.00139     -0.01663     -0.01520
      0.01478      0.01876     -0.02019
     -0.01735     -0.00640     -0.00567
     -0.00177      0.02256     -0.01763
      0.00544     -0.00713      0.00607
      0.00351     -0.01110     -0.00523
      0.00970     -0.00914     -0.03054
      0.01246      0.03568      0.01093
     -0.05424      0.06308      0.00039
     -0.01675     -0.01025     -0.02252
     -0.00552      0.03179      0.07420
      0.01268     -0.00245     -0.02783
      0.01250      0.03702     -0.02499
      0.01267     -0.01192     -0.01094
     -0.01645     -0.04016     -0.04201
      0.00009     -0.00173     -0.01313
      0.00798     -0.00550     -0.02799
     -0.00816      0.01912     -0.01334
      0.00787      0.00708     -0.00472
     -0.00472     -0.01534     -0.01506
     -0.01695     -0.02180     -0.00250
      0.00093      0.02664     -0.01401
     -0.09076      0.00912      0.19773
      0.02742      0.01783     -0.01973
      0.01664     -0.01370     -0.00621
     -0.00653      0.01510      0.16432
      0.00370      0.02777      0.00579
     -0.02548      0.03789     -0.02837
     -0.00821     -0.02238     -0.01592
      0.00793     -0.00537     -0.01430
     -0.00080     -0.00748     -0.01493
     -0.00178     -0.01705     -0.01718
      0.00017     -0.01504     -0.01918
     -0.11906     -0.03806      0.01893
     -0.04586     -0.00177     -0.00900
      0.00676     -0.02730     -0.00884
     -0.03926     -0.03557     -0.00003
      0.00712      0.00013      0.00733
      0.02479     -0.02412      0.02647
     -0.02158     -0.02656      0.00020
     -0.00470     -0.01489     -0.00757
      0.00719      0.00321     -0.01409
     -0.00399     -0.02311     -0.00554
     -0.01829     -0.00652     -0.01522
     -0.03767     -0.02738      0.05273
     -0.00211     -0.01396     -0.03630
     -0.05598     -0.02340     -0.03782
      0.00405     -0.00317     -0.00961
     -0.00099      0.00675     -0.03933
      0.00900     -0.01123     -0.00044
     -0.02644      0.02091      0.03558
      0.03004      0.04011     -0.00925
     -0.01137      0.00065      0.01221
     -0.01845      0.00804     -0.02616
      0.01540      0.00928     -0.02194
     -0.00856     -0.02005      0.00416
     -0.02896      0.00574     -0.10256
     -0.02952     -0.00795      0.00287
     -0.00628     -0.01099     -0.01115
     -0.00244      0.00849     -0.00664
     -0.00036      0.00596     -0.01420
      0.00305     -0.00416      0.00058
     -0.01123      0.07832     -0.00469
     -0.00810      0.00676      0.03674
     -0.04039     -0.01658      0.04826
      0.01358     -0.00592     -0.00364
      0.00398     -0.00707     -0.00367
      0.01352      0.00435     -0.00221
     -0.00211     -0.00435     -0.01175
      0.00444     -0.00807     -0.01732
     -0.01224      0.00769     -0.00306
      0.02889     -0.00855     -0.00294
     -0.00066      0.06054      0.01619
      0.00135      0.06668      0.07068
     -0.00181      0.06056      0.08444
      0.01155      0.00505     -0.00353
     -0.00878      0.01258     -0.02381
      0.01851      0.04372      0.00339
     -0.00311      0.03451     -0.01494
      0.01688      0.01452     -0.01373
     -0.06044     -0.01850      0.05662
      0.00103     -0.01319     -0.01142
      0.03361     -0.08200      0.05617
      0.01033      0.00218     -0.01589
     -0.08936     -0.01802      0.00024
     -0.00269     -0.01767      0.01096
     -0.02803     -0.04194      0.00301
     -0.01838      0.00123     -0.03425
      0.00727      0.02567      0.02009
      0.03334      0.08206     -0.01565
      0.00773     -0.00188     -0.01769
     -0.16063     -0.03219      0.23885
      0.01146      0.01612     -0.03256
     -0.02487     -0.01364     -0.02228
      0.01802     -0.03404     -0.02846
      0.00159      0.00267     -0.00299
      0.03726      0.07708      0.08489
      0.02731      0.06014      0.01501
     -0.00715     -0.01617     -0.01666
      0.00966     -0.00405     -0.00892
     -0.03281     -0.01626     -0.06015
     -0.01597     -0.01482     -0.02992
      0.02998     -0.13572      0.03650
      0.00914      0.06202      0.05638
      0.00881     -0.01491     -0.01937
      0.00014     -0.01070     -0.01655
     -0.04598     -0.04822      0.02287
     -0.02611      0.01821     -0.01727
      0.00761     -0.01601     -0.00575
     -0.01051      0.00262     -0.00983
     -0.01328      0.03033     -0.02586
     -0.03802     -0.01169     -0.05474
     -0.04204      0.06623      0.05170
      0.00244     -0.01105     -0.00769
      0.01370      0.01519     -0.01836
     -0.00783     -0.01073     -0.01115
     -0.01380     -0.00443      0.09376
      0.01693      0.04867     -0.00470
     -0.00489     -0.01504     -0.01965
      0.00580     -0.01410     -0.02732
      0.01234     -0.00716     -0.00311
     -0.01631     -0.00540      0.01600
     -0.02243      0.02224      0.01342
      0.00736      0.03902      0.03001
     -0.03859     -0.02025     -0.01342
     -0.01340     -0.01556     -0.01007
     -0.03744      0.01607      0.06390
     -0.02835     -0.00728     -0.02561
     -0.03008     -0.02364      0.04979
     -0.01929     -0.02735     -0.01159
      0.00626     -0.00968     -0.00771
     -0.01035      0.03953      0.02517
     -0.00412      0.01932     -0.03466
      0.00477     -0.00475      0.00731
      0.00740      0.02241     -0.00700
      0.00785      0.02058     -0.01741
     -0.01154     -0.00651     -0.02280
     -0.05969     -0.02094     -0.03211
      0.01557      0.01136     -0.04457
     -0.02728     -0.00896      0.00575
      0.00022     -0.01349      0.01009
      0.04570      0.06987      0.09402
      0.01739      0.00398     -0.00997
      0.01606      0.02772     -0.03040
     -0.01239      0.01753      0.07915
      0.00174      0.01746     -0.02599
     -0.01902     -0.02818     -0.00377
     -0.00564      0.00960      0.00129
     -0.00522      0.00642     -0.00357
     -0.06627     -0.03558      0.10615
      0.00238      0.00536     -0.00412
      0.04441     -0.05641      0.04501
     -0.08699     -0.08491     -0.03759

 NEB: forces: par spring, perp REAL, dneb     0.093512    0.711863    0.000000
 NEB: distance to prev, next image, angle between     0.100459    0.119161  157.889527
 NEB: projections on to tangent (spring, REAL)     0.093512   -0.077301

 stress matrix after NEB project (eV)
     50.25207      2.19466      0.12476
      2.19466     51.40576      3.18739
      0.12477      3.18739     55.66218
  FORCES: max atom, RMS     0.235952    0.044786
  FORCE total and by dimension    0.717978    0.229311
  Stress total and by dimension   91.082841   55.662177


--------------------------------------------------------------------------------------------------------


    WAVPRE:  cpu time    1.5368: real time    1.5604
    FEWALD:  cpu time    0.0198: real time    0.0199

 real space projection operators:
  total allocation   :     107999.09 KBytes
  max/ min on nodes  :      18042.30      17971.38

    ORTHCH:  cpu time   15.2646: real time   15.4423
     LOOP+:  cpu time 3600.8214: real time 3640.5204


--------------------------------------- Iteration      8(   1)  ---------------------------------------


    POTLOK:  cpu time    2.3016: real time    2.3229
    SETDIJ:  cpu time    2.4127: real time    2.4383
    EDDIAG:  cpu time   22.1501: real time   22.3843
  RMM-DIIS:  cpu time   52.3019: real time   52.8572
    ORTHCH:  cpu time    2.1351: real time    2.1500
       DOS:  cpu time    0.0088: real time    0.0089
    --------------------------------------------
      LOOP:  cpu time   81.3102: real time   82.1616

 eigenvalue-minimisations  :  2104
 total energy-change (2. order) : 0.2336300E-02  (-0.1221449E+00)
 number of electron    1536.9999993 magnetization      -1.7453563
 augmentation part     -120.0552663 magnetization      -0.2820113

  free energy =  -0.143694756477E+04  energy without entropy=  -0.143689325473E+04


--------------------------------------------------------------------------------------------------------




--------------------------------------- Iteration      8(   2)  ---------------------------------------


    EDDIAG:  cpu time   21.8438: real time   22.0825
  RMM-DIIS:  cpu time   52.2458: real time   52.8086
    ORTHCH:  cpu time    2.4605: real time    2.4761
       DOS:  cpu time    0.0074: real time    0.0074
    --------------------------------------------
      LOOP:  cpu time   76.5574: real time   77.3746

 eigenvalue-minimisations  :  2104
 total energy-change (2. order) :-0.1067794E-01  (-0.1161301E-01)
 number of electron    1536.9999993 magnetization      -1.7453563
 augmentation part     -120.0552663 magnetization      -0.2820113

  free energy =  -0.143695824271E+04  energy without entropy=  -0.143690393700E+04


--------------------------------------------------------------------------------------------------------




--------------------------------------- Iteration      8(   3)  ---------------------------------------


    EDDIAG:  cpu time   21.7917: real time   22.0238
  RMM-DIIS:  cpu time   52.1805: real time   52.7386
    ORTHCH:  cpu time    2.3070: real time    2.3216
       DOS:  cpu time    0.0212: real time    0.0213
    --------------------------------------------
      LOOP:  cpu time   76.3003: real time   77.1053

 eigenvalue-minimisations  :  2104
 total energy-change (2. order) :-0.2423813E-02  (-0.2421371E-02)
 number of electron    1536.9999993 magnetization      -1.7453563
 augmentation part     -120.0552663 magnetization      -0.2820113

  free energy =  -0.143696066653E+04  energy without entropy=  -0.143690636197E+04


--------------------------------------------------------------------------------------------------------




--------------------------------------- Iteration      8(   4)  ---------------------------------------


    EDDIAG:  cpu time   21.8898: real time   22.1272
  RMM-DIIS:  cpu time   52.1339: real time   52.6847
    ORTHCH:  cpu time    2.0522: real time    2.0663
       DOS:  cpu time    0.0078: real time    0.0078
    --------------------------------------------
      LOOP:  cpu time   76.0837: real time   76.8860

 eigenvalue-minimisations  :  2104
 total energy-change (2. order) :-0.6493607E-03  (-0.6546109E-03)
 number of electron    1536.9999993 magnetization      -1.7453563
 augmentation part     -120.0552663 magnetization      -0.2820113

  free energy =  -0.143696131589E+04  energy without entropy=  -0.143690701168E+04


--------------------------------------------------------------------------------------------------------




--------------------------------------- Iteration      8(   5)  ---------------------------------------


    EDDIAG:  cpu time   21.8626: real time   22.0967
  RMM-DIIS:  cpu time   52.2117: real time   52.7708
    ORTHCH:  cpu time    2.1738: real time    2.1884
       DOS:  cpu time    0.0115: real time    0.0115
    --------------------------------------------
      LOOP:  cpu time   76.2596: real time   77.0675

 eigenvalue-minimisations  :  2104
 total energy-change (2. order) :-0.1999968E-03  (-0.2001213E-03)
 number of electron    1536.9999993 magnetization      -1.7453563
 augmentation part     -120.0552663 magnetization      -0.2820113

  free energy =  -0.143696151588E+04  energy without entropy=  -0.143690721181E+04


--------------------------------------------------------------------------------------------------------




--------------------------------------- Iteration      8(   6)  ---------------------------------------


    EDDIAG:  cpu time   21.8994: real time   22.1349
  RMM-DIIS:  cpu time   52.1185: real time   52.6713
    ORTHCH:  cpu time    2.0831: real time    2.0972
       DOS:  cpu time    0.0200: real time    0.0201
    --------------------------------------------
      LOOP:  cpu time   76.1210: real time   76.9235

 eigenvalue-minimisations  :  2104
 total energy-change (2. order) :-0.6645003E-04  (-0.6672326E-04)
 number of electron    1536.9999993 magnetization      -1.7453563
 augmentation part     -120.0552663 magnetization      -0.2820113

  free energy =  -0.143696158233E+04  energy without entropy=  -0.143690727831E+04


--------------------------------------------------------------------------------------------------------




--------------------------------------- Iteration      8(   7)  ---------------------------------------


    EDDIAG:  cpu time   21.8371: real time   22.0709
  RMM-DIIS:  cpu time   52.2848: real time   52.8483
    ORTHCH:  cpu time    2.0082: real time    2.0224
       DOS:  cpu time    0.0079: real time    0.0080
    --------------------------------------------
      LOOP:  cpu time   76.1380: real time   76.9496

 eigenvalue-minimisations  :  2104
 total energy-change (2. order) :-0.2391447E-04  (-0.2394665E-04)
 number of electron    1536.9999993 magnetization      -1.7453563
 augmentation part     -120.0552663 magnetization      -0.2820113

  free energy =  -0.143696160625E+04  energy without entropy=  -0.143690730224E+04


--------------------------------------------------------------------------------------------------------




--------------------------------------- Iteration      8(   8)  ---------------------------------------


    EDDIAG:  cpu time   21.8963: real time   22.1313
  RMM-DIIS:  cpu time   92.1960: real time   93.1868
    ORTHCH:  cpu time    2.2664: real time    2.2814
       DOS:  cpu time    0.0127: real time    0.0128
    --------------------------------------------
      LOOP:  cpu time  116.3714: real time  117.6122

 eigenvalue-minimisations  :  4394
 total energy-change (2. order) :-0.1196117E-04  (-0.1199264E-04)
 number of electron    1536.9999993 magnetization      -1.7453563
 augmentation part     -120.0552663 magnetization      -0.2820113

  free energy =  -0.143696161821E+04  energy without entropy=  -0.143690731422E+04


--------------------------------------------------------------------------------------------------------




--------------------------------------- Iteration      8(   9)  ---------------------------------------


    EDDIAG:  cpu time   21.8478: real time   22.0825
  RMM-DIIS:  cpu time   89.6534: real time   90.6328
    ORTHCH:  cpu time    2.0911: real time    2.1056
       DOS:  cpu time    0.0049: real time    0.0049
    --------------------------------------------
      LOOP:  cpu time  113.5972: real time  114.8257

 eigenvalue-minimisations  :  4338
 total energy-change (2. order) :-0.3729743E-05  (-0.3801653E-05)
 number of electron    1536.9999993 magnetization      -1.7453563
 augmentation part     -120.0552663 magnetization      -0.2820113

  free energy =  -0.143696162194E+04  energy without entropy=  -0.143690731795E+04


--------------------------------------------------------------------------------------------------------




--------------------------------------- Iteration      8(  10)  ---------------------------------------


    EDDIAG:  cpu time   21.8520: real time   22.0881
  RMM-DIIS:  cpu time   66.9076: real time   67.6223
    ORTHCH:  cpu time    2.0178: real time    2.0319
       DOS:  cpu time    0.0054: real time    0.0054
    CHARGE:  cpu time   13.0835: real time   13.2458
    MIXING:  cpu time    0.0518: real time    0.0523
    --------------------------------------------
      LOOP:  cpu time  103.9182: real time  105.0459

 eigenvalue-minimisations  :  3015
 total energy-change (2. order) :-0.2516899E-06  (-0.2821933E-06)
 number of electron    1536.9999993 magnetization      -1.7508308
 augmentation part     -120.0559593 magnetization      -0.2816261

  free energy =  -0.143696162219E+04  energy without entropy=  -0.143690731821E+04


--------------------------------------------------------------------------------------------------------




--------------------------------------- Iteration      8(  11)  ---------------------------------------


    POTLOK:  cpu time    2.1994: real time    2.2214
    SETDIJ:  cpu time    2.2059: real time    2.2307
    EDDIAG:  cpu time   21.8057: real time   22.0399
  RMM-DIIS:  cpu time  142.5046: real time  144.0569
    ORTHCH:  cpu time    2.0079: real time    2.0223
       DOS:  cpu time    0.0063: real time    0.0064
    CHARGE:  cpu time   13.0559: real time   13.2181
    MIXING:  cpu time    0.0499: real time    0.0504
    --------------------------------------------
      LOOP:  cpu time  183.8356: real time  185.8460

 eigenvalue-minimisations  :  6676
 total energy-change (2. order) :-0.2796137E-03  (-0.1122262E-03)
 number of electron    1536.9999993 magnetization      -1.7562864
 augmentation part     -120.0573629 magnetization      -0.2688258

 eigenvalues of (default mixing * dielectric matrix)
  average eigenvalue GAMMA=   0.4224
  0.4224

  free energy =  -0.143696190181E+04  energy without entropy=  -0.143690763234E+04


--------------------------------------------------------------------------------------------------------




--------------------------------------- Iteration      8(  12)  ---------------------------------------


    POTLOK:  cpu time    2.1894: real time    2.2105
    SETDIJ:  cpu time    2.2110: real time    2.2360
    EDDIAG:  cpu time   21.7326: real time   21.9698
  RMM-DIIS:  cpu time  139.4101: real time  140.9263
    ORTHCH:  cpu time    2.0985: real time    2.1130
       DOS:  cpu time    0.0073: real time    0.0073
    CHARGE:  cpu time   12.9585: real time   13.1198
    MIXING:  cpu time    0.0534: real time    0.0539
    --------------------------------------------
      LOOP:  cpu time  180.6610: real time  182.6366

 eigenvalue-minimisations  :  6531
 total energy-change (2. order) :-0.9205004E-03  (-0.1353450E-03)
 number of electron    1536.9999993 magnetization      -1.7510356
 augmentation part     -120.0538196 magnetization      -0.3178274

 eigenvalues of (default mixing * dielectric matrix)
  average eigenvalue GAMMA=   0.6254
  1.1365  0.1142

  free energy =  -0.143696282231E+04  energy without entropy=  -0.143690797821E+04


--------------------------------------------------------------------------------------------------------




--------------------------------------- Iteration      8(  13)  ---------------------------------------


    POTLOK:  cpu time    2.2078: real time    2.2295
    SETDIJ:  cpu time    2.1889: real time    2.2138
    EDDIAG:  cpu time   21.7267: real time   21.9599
