 vasp.6.2.0 18Jan21 (build Jan 15 2025 16:08:48) gamma-only                     
  
 03/POSCAR found :  3 types and     257 ions
 -----------------------------------------------------------------------------
|                                                                             |
|           W    W    AA    RRRRR   N    N  II  N    N   GGGG   !!!           |
|           W    W   A  A   R    R  NN   N  II  NN   N  G    G  !!!           |
|           W    W  A    A  R    R  N N  N  II  N N  N  G       !!!           |
|           W WW W  AAAAAA  RRRRR   N  N N  II  N  N N  G  GGG   !            |
|           WW  WW  A    A  R   R   N   NN  II  N   NN  G    G                |
|           W    W  A    A  R    R  N    N  II  N    N   GGGG   !!!           |
|                                                                             |
|     You use a magnetic or noncollinear calculation, but did not specify     |
|     the initial magnetic moment with the MAGMOM tag. Note that a            |
|     default of 1 will be used for all atoms. This ferromagnetic setup       |
|     may break the symmetry of the crystal, in particular it may rule        |
|     out finding an antiferromagnetic solution. Thence, we recommend         |
|     setting the initial magnetic moment manually or verifying carefully     |
|     that this magnetic setup is desired.                                    |
|                                                                             |
 -----------------------------------------------------------------------------

 scaLAPACK will be used
 -----------------------------------------------------------------------------
|                                                                             |
|           W    W    AA    RRRRR   N    N  II  N    N   GGGG   !!!           |
|           W    W   A  A   R    R  NN   N  II  NN   N  G    G  !!!           |
|           W    W  A    A  R    R  N N  N  II  N N  N  G       !!!           |
|           W WW W  AAAAAA  RRRRR   N  N N  II  N  N N  G  GGG   !            |
|           WW  WW  A    A  R   R   N   NN  II  N   NN  G    G                |
|           W    W  A    A  R    R  N    N  II  N    N   GGGG   !!!           |
|                                                                             |
|     The value NCORE = 8 specified in the INCAR file was overwritten,        |
|     because it was not compatible with the 24 processes available:          |
|     NCORE = 6                                                               |
|     was used instead, please check that this makes sense for your           |
|     machine.                                                                |
|                                                                             |
 -----------------------------------------------------------------------------

 LDA part: xc-table for Pade appr. of Perdew
 WARNING: it is not advised to use IBRION=2 with the NEB.
 00/POSCAR found :  3 types and     257 ions
 05/POSCAR found :  3 types and     257 ions
 Jacobian:    46.2307827691976     
 00/POSCAR found :  3 types and     257 ions
 05/POSCAR found :  3 types and     257 ions
 POSCAR, INCAR and KPOINTS ok, starting setup
 FFT: planning ...
 WAVECAR not read
 entering main loop
       N       E                     dE             d eps       ncg     rms          rms(c)
RMM:   1     0.191869847739E+05    0.19187E+05   -0.47468E+05  2104   0.923E+02
RMM:   2     0.553338586455E+04   -0.13654E+05   -0.13871E+05  2104   0.234E+02
RMM:   3     0.132485170997E+04   -0.42085E+04   -0.46295E+04  2104   0.127E+02
RMM:   4    -0.231139121656E+03   -0.15560E+04   -0.14266E+04  2104   0.846E+01
RMM:   5    -0.900139045705E+03   -0.66900E+03   -0.57419E+03  2104   0.508E+01
RMM:   6    -0.119957812961E+04   -0.29944E+03   -0.25663E+03  2104   0.350E+01
RMM:   7    -0.133724754143E+04   -0.13767E+03   -0.12247E+03  2104   0.229E+01
RMM:   8    -0.143848734862E+04   -0.10124E+03   -0.94506E+02  4617   0.160E+01
RMM:   9    -0.146471795657E+04   -0.26231E+02   -0.24997E+02  5081   0.751E+00
RMM:  10    -0.146819220828E+04   -0.34743E+01   -0.26254E+01  5564   0.255E+00    0.205E+02
RMM:  11    -0.146778642376E+04    0.40578E+00   -0.20208E+02  4994   0.799E+00    0.135E+02
RMM:  12    -0.273438816795E+04   -0.12666E+04   -0.16940E+03  6391   0.161E+01    0.206E+02
RMM:  13    -0.153264332790E+04    0.12017E+04   -0.35267E+02  5398   0.879E+00    0.961E+01
RMM:  14    -0.204189730136E+04   -0.50925E+03   -0.93197E+02  6289   0.123E+01    0.153E+02
RMM:  15    -0.150939492380E+04    0.53250E+03   -0.24046E+02  5227   0.684E+00    0.546E+01
RMM:  16    -0.153414898817E+04   -0.24754E+02   -0.20923E+02  5186   0.625E+00    0.563E+01
RMM:  17    -0.147879494264E+04    0.55354E+02   -0.90896E+01  4694   0.456E+00    0.338E+01
RMM:  18    -0.147664146838E+04    0.21535E+01   -0.54453E+01  4474   0.344E+00    0.348E+01
RMM:  19    -0.144434819856E+04    0.32293E+02   -0.18211E+01  4234   0.237E+00    0.171E+01
RMM:  20    -0.143955748954E+04    0.47907E+01   -0.47281E+00  4212   0.139E+00    0.136E+01
RMM:  21    -0.143907263076E+04    0.48486E+00   -0.21057E+00  4344   0.837E-01    0.121E+01
RMM:  22    -0.143975968122E+04   -0.68705E+00   -0.16034E+00  4235   0.677E-01    0.117E+01
RMM:  23    -0.143908354206E+04    0.67614E+00   -0.10437E+00  4230   0.605E-01    0.102E+01
RMM:  24    -0.143865120716E+04    0.43233E+00   -0.13007E+00  4396   0.622E-01    0.878E+00
RMM:  25    -0.143772574551E+04    0.92546E+00   -0.71198E-01  4238   0.512E-01    0.639E+00
RMM:  26    -0.143752494542E+04    0.20080E+00   -0.35914E-01  4230   0.383E-01    0.539E+00
RMM:  27    -0.143743990990E+04    0.85036E-01   -0.21786E-01  4230   0.292E-01    0.469E+00
RMM:  28    -0.143729304709E+04    0.14686E+00   -0.11532E-01  4280   0.209E-01    0.385E+00
RMM:  29    -0.143719335259E+04    0.99694E-01   -0.87701E-02  4261   0.172E-01    0.336E+00
RMM:  30    -0.143710474333E+04    0.88609E-01   -0.55862E-02  4250   0.142E-01    0.293E+00
RMM:  31    -0.143703143046E+04    0.73313E-01   -0.38304E-02  4261   0.118E-01    0.229E+00
RMM:  32    -0.143697834506E+04    0.53085E-01   -0.33788E-02  4373   0.106E-01    0.194E+00
RMM:  33    -0.143694449080E+04    0.33854E-01   -0.20287E-02  4267   0.888E-02    0.163E+00
RMM:  34    -0.143692786772E+04    0.16623E-01   -0.11748E-02  4465   0.673E-02    0.142E+00
RMM:  35    -0.143692786369E+04    0.40357E-05   -0.36778E-03  4826   0.381E-02    0.140E+00
RMM:  36    -0.143692404757E+04    0.38161E-02   -0.19107E-03  4219   0.326E-02    0.141E+00
RMM:  37    -0.143691498006E+04    0.90675E-02   -0.25643E-03  4299   0.345E-02    0.130E+00
RMM:  38    -0.143690213438E+04    0.12846E-01   -0.49468E-03  4974   0.415E-02    0.111E+00
RMM:  39    -0.143689630364E+04    0.58307E-02   -0.82234E-03  5368   0.567E-02    0.941E-01
RMM:  40    -0.143688978184E+04    0.65218E-02   -0.10527E-02  5630   0.633E-02    0.716E-01
RMM:  41    -0.143688402647E+04    0.57554E-02   -0.87371E-03  5472   0.554E-02    0.533E-01
RMM:  42    -0.143688003865E+04    0.39878E-02   -0.34509E-03  4799   0.351E-02    0.403E-01
RMM:  43    -0.143687935475E+04    0.68390E-03   -0.11115E-03  4247   0.237E-02    0.346E-01
RMM:  44    -0.143687916221E+04    0.19254E-03   -0.85603E-04  4253   0.219E-02    0.284E-01
RMM:  45    -0.143687837606E+04    0.78615E-03   -0.16220E-03  4673   0.257E-02    0.225E-01
RMM:  46    -0.143687765463E+04    0.72143E-03   -0.62332E-04  4265   0.170E-02    0.147E-01
RMM:  47    -0.143687735735E+04    0.29728E-03   -0.48227E-04  4275   0.143E-02    0.101E-01
RMM:  48    -0.143687729852E+04    0.58834E-04   -0.16836E-04  4334   0.861E-03    0.787E-02
RMM:  49    -0.143687729519E+04    0.33240E-05   -0.87925E-05  4247   0.625E-03    0.650E-02
RMM:  50    -0.143687726207E+04    0.33125E-04   -0.69906E-05  4248   0.541E-03    0.447E-02
RMM:  51    -0.143687725736E+04    0.47037E-05   -0.63936E-05  4328   0.502E-03    0.303E-02
RMM:  52    -0.143687726017E+04   -0.28012E-05   -0.26130E-05  4247   0.352E-03    0.235E-02
RMM:  53    -0.143687726793E+04   -0.77681E-05   -0.20798E-05  4140   0.313E-03    0.203E-02
RMM:  54    -0.143687727654E+04   -0.86029E-05   -0.16949E-05  4091   0.271E-03    0.165E-02
RMM:  55    -0.143687728604E+04   -0.94985E-05   -0.12621E-05  4002   0.232E-03    0.149E-02
RMM:  56    -0.143687730057E+04   -0.14536E-04   -0.21985E-05  4497   0.279E-03    0.150E-02
RMM:  57    -0.143687730382E+04   -0.32485E-05   -0.25308E-06  2948   0.116E-03    0.143E-02
RMM:  58    -0.143687730973E+04   -0.59122E-05   -0.35146E-06  2999   0.123E-03    0.142E-02
RMM:  59    -0.143687732025E+04   -0.10515E-04   -0.91315E-06  3785   0.185E-03    0.141E-02
RMM:  60    -0.143687732714E+04   -0.68980E-05   -0.44410E-06  3194   0.134E-03    0.141E-02
RMM:  61    -0.143687733261E+04   -0.54672E-05   -0.30314E-06  2899   0.112E-03    0.141E-02
RMM:  62    -0.143687733344E+04   -0.82812E-06   -0.50095E-07  2516   0.536E-04
   1 F= -.13210204E+04 E0= -.13209898E+04  d E =-.132102E+04  mag=    -1.5480
 curvature:   0.00 expect dE= 0.000E+00 dE for cont linesearch  0.000E+00
 trial: gam= 0.00000 g(F)=  0.529E-01 g(S)=  0.000E+00 ort = 0.000E+00 (trialstep = 0.100E+01)
 search vector abs. value=  0.529E-01
 bond charge predicted
       N       E                     dE             d eps       ncg     rms          rms(c)
RMM:   1    -0.143688481936E+04   -0.74867E-02   -0.47619E-01  2104   0.490E-01
RMM:   2    -0.143688794846E+04   -0.31291E-02   -0.32645E-02  2104   0.168E-01
RMM:   3    -0.143688856200E+04   -0.61354E-03   -0.61361E-03  2104   0.646E-02
RMM:   4    -0.143688871977E+04   -0.15777E-03   -0.15854E-03  2104   0.350E-02
RMM:   5    -0.143688876709E+04   -0.47326E-04   -0.47378E-04  2104   0.181E-02
RMM:   6    -0.143688878266E+04   -0.15565E-04   -0.15610E-04  2104   0.104E-02
RMM:   7    -0.143688878823E+04   -0.55733E-05   -0.55822E-05  2104   0.592E-03
RMM:   8    -0.143688879118E+04   -0.29477E-05   -0.29538E-05  4136   0.359E-03
RMM:   9    -0.143688879195E+04   -0.76411E-06   -0.78630E-06  3890   0.176E-03
RMM:  10    -0.143688879201E+04   -0.68598E-07   -0.73193E-07  2663   0.681E-04    0.252E-01
RMM:  11    -0.143688905160E+04   -0.25959E-03   -0.89587E-04  6938   0.139E-02    0.243E-01
RMM:  12    -0.143688933502E+04   -0.28342E-03   -0.12402E-03  6753   0.144E-02    0.254E-01
RMM:  13    -0.143689019768E+04   -0.86266E-03   -0.12701E-03  6850   0.147E-02    0.334E-01
RMM:  14    -0.143688931659E+04    0.88108E-03   -0.12644E-03  6841   0.149E-02    0.223E-01
RMM:  15    -0.143688902116E+04    0.29543E-03   -0.12273E-03  7017   0.157E-02    0.142E-01
RMM:  16    -0.143688863043E+04    0.39073E-03   -0.43687E-04  6530   0.911E-03    0.812E-02
RMM:  17    -0.143688861547E+04    0.14963E-04   -0.71095E-05  5642   0.401E-03    0.838E-02
RMM:  18    -0.143688861129E+04    0.41781E-05   -0.51503E-06  3665   0.146E-03    0.809E-02
RMM:  19    -0.143688852539E+04    0.85894E-04   -0.87251E-05  5909   0.509E-03    0.483E-02
RMM:  20    -0.143688850516E+04    0.20229E-04   -0.66865E-05  5709   0.389E-03    0.351E-02
RMM:  21    -0.143688849947E+04    0.56956E-05   -0.33616E-05  5029   0.273E-03    0.278E-02
RMM:  22    -0.143688849674E+04    0.27254E-05   -0.19577E-05  4467   0.237E-03    0.194E-02
RMM:  23    -0.143688850232E+04   -0.55716E-05   -0.13974E-05  4163   0.218E-03    0.170E-02
RMM:  24    -0.143688850771E+04   -0.53994E-05   -0.84951E-06  3900   0.182E-03    0.145E-02
RMM:  25    -0.143688851253E+04   -0.48189E-05   -0.47128E-06  3483   0.145E-03    0.133E-02
RMM:  26    -0.143688851880E+04   -0.62691E-05   -0.48961E-06  3385   0.144E-03    0.129E-02
RMM:  27    -0.143688852622E+04   -0.74173E-05   -0.62924E-06  3533   0.155E-03    0.126E-02
RMM:  28    -0.143688853501E+04   -0.87946E-05   -0.84139E-06  3710   0.178E-03    0.126E-02
RMM:  29    -0.143688854538E+04   -0.10361E-04   -0.11674E-05  3892   0.208E-03    0.121E-02
RMM:  30    -0.143688857494E+04   -0.29565E-04   -0.91478E-05  5561   0.577E-03    0.118E-02
RMM:  31    -0.143688861722E+04   -0.42281E-04   -0.27913E-04  6453   0.101E-02    0.101E-02
RMM:  32    -0.143688863676E+04   -0.19534E-04   -0.15820E-04  6077   0.749E-03    0.833E-03
RMM:  33    -0.143688863825E+04   -0.14908E-05   -0.43885E-06  3147   0.142E-03    0.591E-03
RMM:  34    -0.143688864090E+04   -0.26529E-05   -0.14702E-05  4034   0.234E-03    0.464E-03
RMM:  35    -0.143688864229E+04   -0.13927E-05   -0.21952E-05  4292   0.286E-03    0.324E-03
RMM:  36    -0.143688864228E+04    0.92259E-08   -0.97790E-07  2649   0.747E-04
   2 F= -.13213982E+04 E0= -.13213682E+04  d E =-.377827E+00  mag=    -1.5659
 trial-energy change:   -0.377827  1 .order   -0.044983   -0.052871   -0.037095
 step:   3.3515(harm=  3.3515)  dis= 0.01271  next Energy= -5292.989733 (dE=-0.397E+04)
 bond charge predicted
       N       E                     dE             d eps       ncg     rms          rms(c)
RMM:   1    -0.143688040207E+04    0.82402E-02   -0.26322E+00  2104   0.115E+00
RMM:   2    -0.143689776125E+04   -0.17359E-01   -0.18055E-01  2104   0.396E-01
RMM:   3    -0.143690115433E+04   -0.33931E-02   -0.33932E-02  2104   0.152E-01
RMM:   4    -0.143690202734E+04   -0.87301E-03   -0.87727E-03  2104   0.822E-02
RMM:   5    -0.143690228939E+04   -0.26206E-03   -0.26235E-03  2104   0.425E-02
RMM:   6    -0.143690237565E+04   -0.86260E-04   -0.86512E-04  2104   0.245E-02
RMM:   7    -0.143690240657E+04   -0.30917E-04   -0.30968E-04  2104   0.139E-02
RMM:   8    -0.143690242304E+04   -0.16466E-04   -0.16498E-04  4493   0.844E-03
RMM:   9    -0.143690242744E+04   -0.44013E-05   -0.45272E-05  4497   0.407E-03
RMM:  10    -0.143690242777E+04   -0.32784E-06   -0.35829E-06  3219   0.136E-03    0.589E-01
RMM:  11    -0.143690332095E+04   -0.89319E-03   -0.44799E-03  7068   0.313E-02    0.553E-01
RMM:  12    -0.143690562391E+04   -0.23030E-02   -0.65219E-03  6972   0.330E-02    0.592E-01
RMM:  13    -0.143690941461E+04   -0.37907E-02   -0.68674E-03  7009   0.341E-02    0.753E-01
RMM:  14    -0.143690576415E+04    0.36505E-02   -0.75458E-03  7015   0.361E-02    0.523E-01
RMM:  15    -0.143690343862E+04    0.23255E-02   -0.70337E-03  7097   0.366E-02    0.326E-01
RMM:  16    -0.143690104641E+04    0.23922E-02   -0.24784E-03  6746   0.214E-02    0.162E-01
RMM:  17    -0.143690094448E+04    0.10194E-03   -0.49970E-04  6131   0.103E-02    0.162E-01
RMM:  18    -0.143690094343E+04    0.10459E-05   -0.64334E-06  3878   0.236E-03    0.164E-01
RMM:  19    -0.143690061147E+04    0.33196E-03   -0.25697E-04  6323   0.887E-03    0.104E-01
RMM:  20    -0.143690050716E+04    0.10431E-03   -0.27887E-04  6337   0.802E-03    0.718E-02
RMM:  21    -0.143690048200E+04    0.25160E-04   -0.17146E-04  6037   0.592E-03    0.580E-02
RMM:  22    -0.143690043080E+04    0.51204E-04   -0.10265E-04  5670   0.473E-03    0.378E-02
RMM:  23    -0.143690041676E+04    0.14036E-04   -0.54154E-05  5215   0.372E-03    0.265E-02
RMM:  24    -0.143690040811E+04    0.86495E-05   -0.29323E-05  4786   0.288E-03    0.187E-02
RMM:  25    -0.143690040150E+04    0.66118E-05   -0.92174E-06  3907   0.188E-03    0.103E-02
RMM:  26    -0.143690039999E+04    0.15099E-05   -0.25646E-06  2975   0.121E-03    0.597E-03
RMM:  27    -0.143690039977E+04    0.21845E-06   -0.10927E-06  2675   0.781E-04
   3 F= -.13222108E+04 E0= -.13221817E+04  d E =-.119043E+01  mag=    -1.6291
 curvature:  -1.68 expect dE=-0.768E-01 dE for cont linesearch -0.847E-04
 trial: gam= 0.83605 g(F)=  0.458E-01 g(S)=  0.000E+00 ort = 0.164E-02 (trialstep = 0.909E+00)
 search vector abs. value=  0.855E-01
 bond charge predicted
       N       E                     dE             d eps       ncg     rms          rms(c)
RMM:   1    -0.143690537138E+04   -0.49714E-02   -0.47052E-01  2104   0.474E-01
RMM:   2    -0.143690922950E+04   -0.38581E-02   -0.41614E-02  2104   0.190E-01
RMM:   3    -0.143691007630E+04   -0.84681E-03   -0.84623E-03  2104   0.754E-02
RMM:   4    -0.143691029955E+04   -0.22325E-03   -0.22484E-03  2104   0.412E-02
RMM:   5    -0.143691036728E+04   -0.67727E-04   -0.67772E-04  2104   0.213E-02
RMM:   6    -0.143691038947E+04   -0.22186E-04   -0.22266E-04  2104   0.124E-02
RMM:   7    -0.143691039733E+04   -0.78621E-05   -0.78723E-05  2104   0.700E-03
RMM:   8    -0.143691040115E+04   -0.38196E-05   -0.38281E-05  4158   0.424E-03
RMM:   9    -0.143691040230E+04   -0.11566E-05   -0.11789E-05  3996   0.211E-03
RMM:  10    -0.143691040240E+04   -0.96421E-07   -0.10350E-06  2672   0.791E-04    0.215E-01
RMM:  11    -0.143691057056E+04   -0.16816E-03   -0.11184E-03  6791   0.147E-02    0.219E-01
RMM:  12    -0.143691052951E+04    0.41047E-04   -0.91085E-04  6612   0.124E-02    0.218E-01
RMM:  13    -0.143691067494E+04   -0.14542E-03   -0.53703E-04  6515   0.968E-03    0.219E-01
RMM:  14    -0.143691089062E+04   -0.21568E-03   -0.97225E-04  6724   0.127E-02    0.199E-01
RMM:  15    -0.143691022841E+04    0.66222E-03   -0.77654E-04  6866   0.127E-02    0.824E-02
RMM:  16    -0.143691009286E+04    0.13555E-03   -0.24210E-04  6377   0.698E-03    0.542E-02
RMM:  17    -0.143691009946E+04   -0.66047E-05   -0.34039E-05  4780   0.307E-03    0.603E-02
RMM:  18    -0.143691009571E+04    0.37518E-05   -0.56659E-06  3827   0.152E-03    0.575E-02
RMM:  19    -0.143691006897E+04    0.26742E-04   -0.43234E-05  5183   0.336E-03    0.434E-02
RMM:  20    -0.143691004097E+04    0.27999E-04   -0.32558E-05  4915   0.276E-03    0.238E-02
RMM:  21    -0.143691004687E+04   -0.58959E-05   -0.23318E-05  4610   0.227E-03    0.229E-02
RMM:  22    -0.143691003699E+04    0.98764E-05   -0.17021E-05  4354   0.193E-03    0.147E-02
RMM:  23    -0.143691003200E+04    0.49891E-05   -0.70228E-06  3769   0.141E-03    0.807E-03
RMM:  24    -0.143691003098E+04    0.10230E-05   -0.18922E-06  2744   0.912E-04    0.536E-03
RMM:  25    -0.143691003092E+04    0.53813E-07   -0.74029E-07  2567   0.629E-04
   4 F= -.13225307E+04 E0= -.13225019E+04  d E =-.319885E+00  mag=    -1.6492
 trial-energy change:   -0.319885  1 .order   -0.037224   -0.042904   -0.031544
 step:   3.4327(harm=  3.4327)  dis= 0.01643  next Energy= -5297.715681 (dE=-0.398E+04)
 bond charge predicted
       N       E                     dE             d eps       ncg     rms          rms(c)
RMM:   1    -0.143688836142E+04    0.21670E-01   -0.36308E+00  2104   0.132E+00
RMM:   2    -0.143691815144E+04   -0.29790E-01   -0.32096E-01  2104   0.527E-01
RMM:   3    -0.143692467773E+04   -0.65263E-02   -0.65208E-02  2104   0.209E-01
RMM:   4    -0.143692639871E+04   -0.17210E-02   -0.17331E-02  2104   0.114E-01
RMM:   5    -0.143692692098E+04   -0.52227E-03   -0.52261E-03  2104   0.592E-02
RMM:   6    -0.143692709217E+04   -0.17120E-03   -0.17181E-03  2104   0.344E-02
RMM:   7    -0.143692715289E+04   -0.60714E-04   -0.60792E-04  2104   0.194E-02
RMM:   8    -0.143692718248E+04   -0.29588E-04   -0.29656E-04  4453   0.118E-02
RMM:   9    -0.143692719169E+04   -0.92173E-05   -0.93899E-05  4599   0.583E-03
RMM:  10    -0.143692719247E+04   -0.77276E-06   -0.83468E-06  3764   0.197E-03    0.595E-01
RMM:  11    -0.143692756903E+04   -0.37657E-03   -0.78344E-03  6916   0.393E-02    0.583E-01
RMM:  12    -0.143692764498E+04   -0.75943E-04   -0.59733E-03  6740   0.322E-02    0.565E-01
RMM:  13    -0.143692988084E+04   -0.22359E-02   -0.44697E-03  6643   0.276E-02    0.634E-01
RMM:  14    -0.143693222413E+04   -0.23433E-02   -0.85256E-03  6927   0.376E-02    0.573E-01
RMM:  15    -0.143692561276E+04    0.66114E-02   -0.64623E-03  6935   0.359E-02    0.216E-01
RMM:  16    -0.143692474309E+04    0.86967E-03   -0.17967E-03  6504   0.189E-02    0.154E-01
RMM:  17    -0.143692478240E+04   -0.39310E-04   -0.24619E-04  5219   0.814E-03    0.170E-01
RMM:  18    -0.143692477561E+04    0.67905E-05   -0.66941E-05  4466   0.476E-03    0.161E-01
RMM:  19    -0.143692445837E+04    0.31723E-03   -0.35170E-04  5641   0.960E-03    0.105E-01
RMM:  20    -0.143692429339E+04    0.16498E-03   -0.25731E-04  5456   0.785E-03    0.636E-02
RMM:  21    -0.143692434087E+04   -0.47480E-04   -0.16607E-04  5169   0.609E-03    0.683E-02
RMM:  22    -0.143692425351E+04    0.87360E-04   -0.12009E-04  4999   0.526E-03    0.400E-02
RMM:  23    -0.143692422576E+04    0.27754E-04   -0.48453E-05  4459   0.389E-03    0.226E-02
RMM:  24    -0.143692421804E+04    0.77156E-05   -0.15291E-05  4009   0.263E-03    0.137E-02
RMM:  25    -0.143692421721E+04    0.83480E-06   -0.53765E-06  3753   0.173E-03
   5 F= -.13234022E+04 E0= -.13233740E+04  d E =-.119132E+01  mag=    -1.6980
 curvature:  -3.11 expect dE=-0.132E+00 dE for cont linesearch -0.602E-03
 trial: gam= 0.87832 g(F)=  0.425E-01 g(S)=  0.000E+00 ort = 0.407E-02 (trialstep = 0.105E+01)
 search vector abs. value=  0.116E+00
 bond charge predicted
       N       E                     dE             d eps       ncg     rms          rms(c)
RMM:   1    -0.143692648004E+04   -0.22620E-02   -0.85580E-01  2104   0.639E-01
RMM:   2    -0.143693355985E+04   -0.70798E-02   -0.76303E-02  2104   0.256E-01
RMM:   3    -0.143693513255E+04   -0.15727E-02   -0.15717E-02  2104   0.102E-01
RMM:   4    -0.143693555136E+04   -0.41880E-03   -0.42203E-03  2104   0.560E-02
RMM:   5    -0.143693567983E+04   -0.12848E-03   -0.12858E-03  2104   0.291E-02
RMM:   6    -0.143693572244E+04   -0.42609E-04   -0.42780E-04  2104   0.170E-02
RMM:   7    -0.143693573776E+04   -0.15321E-04   -0.15344E-04  2104   0.961E-03
RMM:   8    -0.143693574562E+04   -0.78592E-05   -0.78789E-05  4324   0.584E-03
RMM:   9    -0.143693574783E+04   -0.22031E-05   -0.22565E-05  4182   0.284E-03
RMM:  10    -0.143693574800E+04   -0.16928E-06   -0.18597E-06  2816   0.101E-03    0.235E-01
RMM:  11    -0.143693594627E+04   -0.19828E-03   -0.86636E-04  6768   0.138E-02    0.231E-01
RMM:  12    -0.143693663738E+04   -0.69111E-03   -0.12210E-03  6623   0.142E-02    0.314E-01
RMM:  13    -0.143693654860E+04    0.88785E-04   -0.11984E-03  6762   0.144E-02    0.245E-01
RMM:  14    -0.143693604734E+04    0.50126E-03   -0.16992E-03  6912   0.175E-02    0.162E-01
RMM:  15    -0.143693557459E+04    0.47275E-03   -0.88291E-04  6798   0.133E-02    0.109E-01
RMM:  16    -0.143693535085E+04    0.22374E-03   -0.31898E-04  6243   0.770E-03    0.650E-02
RMM:  17    -0.143693531723E+04    0.33615E-04   -0.89398E-05  5283   0.451E-03    0.573E-02
RMM:  18    -0.143693532351E+04   -0.62802E-05   -0.11437E-05  3900   0.219E-03    0.624E-02
RMM:  19    -0.143693530208E+04    0.21434E-04   -0.22024E-05  4497   0.257E-03    0.507E-02
RMM:  20    -0.143693528634E+04    0.15744E-04   -0.47734E-05  4994   0.338E-03    0.385E-02
RMM:  21    -0.143693526578E+04    0.20556E-04   -0.38691E-05  4849   0.295E-03    0.240E-02
RMM:  22    -0.143693526042E+04    0.53562E-05   -0.20892E-05  4475   0.234E-03    0.161E-02
RMM:  23    -0.143693525604E+04    0.43867E-05   -0.91793E-06  3975   0.167E-03    0.106E-02
RMM:  24    -0.143693525421E+04    0.18234E-05   -0.27419E-06  3083   0.112E-03    0.572E-03
RMM:  25    -0.143693525405E+04    0.16335E-06   -0.89736E-07  2609   0.714E-04
   6 F= -.13238178E+04 E0= -.13237900E+04  d E =-.415653E+00  mag=    -1.7142
 trial-energy change:   -0.415653  1 .order   -0.041265   -0.048179   -0.034351
 step:   3.6430(harm=  3.6430)  dis= 0.02293  next Energy= -5302.641277 (dE=-0.398E+04)
 bond charge predicted
       N       E                     dE             d eps       ncg     rms          rms(c)
RMM:   1    -0.143689557208E+04    0.39682E-01   -0.52736E+00  2104   0.159E+00
RMM:   2    -0.143693939256E+04   -0.43820E-01   -0.47061E-01  2104   0.636E-01
RMM:   3    -0.143694908284E+04   -0.96903E-02   -0.96798E-02  2104   0.253E-01
RMM:   4    -0.143695166370E+04   -0.25809E-02   -0.26003E-02  2104   0.139E-01
RMM:   5    -0.143695245575E+04   -0.79205E-03   -0.79266E-03  2104   0.723E-02
RMM:   6    -0.143695271865E+04   -0.26290E-03   -0.26394E-03  2104   0.422E-02
RMM:   7    -0.143695281328E+04   -0.94626E-04   -0.94763E-04  2104   0.239E-02
RMM:   8    -0.143695286191E+04   -0.48634E-04   -0.48755E-04  4465   0.145E-02
RMM:   9    -0.143695287586E+04   -0.13947E-04   -0.14290E-04  4617   0.709E-03
RMM:  10    -0.143695287698E+04   -0.11236E-05   -0.12298E-05  4000   0.237E-03    0.579E-01
RMM:  11    -0.143695345943E+04   -0.58245E-03   -0.44435E-03  6758   0.316E-02    0.545E-01
RMM:  12    -0.143695995990E+04   -0.65005E-02   -0.71575E-03  6671   0.342E-02    0.827E-01
RMM:  13    -0.143695614014E+04    0.38198E-02   -0.73573E-03  6826   0.361E-02    0.546E-01
RMM:  14    -0.143695586004E+04    0.28010E-03   -0.10511E-02  6926   0.436E-02    0.428E-01
RMM:  15    -0.143695148843E+04    0.43716E-02   -0.54243E-03  6811   0.325E-02    0.236E-01
RMM:  16    -0.143695055190E+04    0.93653E-03   -0.18979E-03  6249   0.187E-02    0.165E-01
RMM:  17    -0.143695024916E+04    0.30274E-03   -0.46724E-04  5277   0.105E-02    0.139E-01
RMM:  18    -0.143695031453E+04   -0.65374E-04   -0.28891E-05  4094   0.412E-03    0.152E-01
RMM:  19    -0.143695010492E+04    0.20961E-03   -0.16093E-04  5089   0.724E-03    0.109E-01
RMM:  20    -0.143694999313E+04    0.11179E-03   -0.22995E-04  5425   0.767E-03    0.719E-02
RMM:  21    -0.143695002542E+04   -0.32290E-04   -0.20399E-04  5413   0.674E-03    0.699E-02
RMM:  22    -0.143694993665E+04    0.88762E-04   -0.13484E-04  5108   0.555E-03    0.375E-02
RMM:  23    -0.143694991823E+04    0.18422E-04   -0.57359E-05  4581   0.393E-03    0.273E-02
RMM:  24    -0.143694990301E+04    0.15227E-04   -0.17704E-05  3954   0.264E-03    0.141E-02
RMM:  25    -0.143694990107E+04    0.19316E-05   -0.47809E-06  3624   0.163E-03    0.913E-03
RMM:  26    -0.143694990013E+04    0.94534E-06   -0.19101E-06  2747   0.994E-04
   7 F= -.13248270E+04 E0= -.13247997E+04  d E =-.142482E+01  mag=    -1.7454
 curvature:  -4.57 expect dE=-0.197E+00 dE for cont linesearch -0.922E-03
 trial: gam= 1.00175 g(F)=  0.431E-01 g(S)=  0.000E+00 ort = 0.483E-02 (trialstep = 0.107E+01)
 search vector abs. value=  0.169E+00
 bond charge predicted
       N       E                     dE             d eps       ncg     rms          rms(c)
RMM:   1    -0.143694756477E+04    0.23363E-02   -0.12214E+00  2104   0.755E-01
RMM:   2    -0.143695824271E+04   -0.10678E-01   -0.11613E-01  2104   0.315E-01
RMM:   3    -0.143696066653E+04   -0.24238E-02   -0.24214E-02  2104   0.125E-01
RMM:   4    -0.143696131589E+04   -0.64936E-03   -0.65461E-03  2104   0.692E-02
RMM:   5    -0.143696151588E+04   -0.20000E-03   -0.20012E-03  2104   0.359E-02
RMM:   6    -0.143696158233E+04   -0.66450E-04   -0.66723E-04  2104   0.210E-02
RMM:   7    -0.143696160625E+04   -0.23914E-04   -0.23947E-04  2104   0.119E-02
RMM:   8    -0.143696161821E+04   -0.11961E-04   -0.11993E-04  4394   0.723E-03
RMM:   9    -0.143696162194E+04   -0.37297E-05   -0.38017E-05  4338   0.356E-03
RMM:  10    -0.143696162219E+04   -0.25169E-06   -0.28219E-06  3015   0.120E-03    0.255E-01
RMM:  11    -0.143696190181E+04   -0.27961E-03   -0.11223E-03  6676   0.153E-02    0.273E-01
RMM:  12    -0.143696282231E+04   -0.92050E-03   -0.13534E-03  6531   0.146E-02    0.354E-01
