LiMox                                   
           1
    27.120398    0.402360   -2.402807
     0.301745   23.362465   -0.437691
    -7.129578   -0.289405   10.364511
   Mo   S    Li
    48   208     1
Direct configuration=     1
   0.53645370  0.08771197  0.67276964
   0.86427032  0.42270637  0.65690399
   0.76141965  0.56183040  0.01246816
   0.89751752  0.79697452  0.83959179
   0.27889983  0.46157946  0.16322193
   0.53500572  0.53157468  0.37611862
   0.64529945  0.91295085  0.73959016
   0.06057194  0.97714786  0.73804348
   0.76239469  0.24575522  0.13643792
   0.97318463  0.90779467  0.73456120
   0.36540372  0.96393481  0.08362203
   0.70351880  0.50715902  0.11706478
   0.90762650  0.68349173  0.73838757
   0.87666293  0.26384781  0.18953076
   0.18450725  0.54139460  0.55442560
   0.41745745  0.91952105  0.96065269
   0.88415345  0.93320708  0.76555910
   0.62651285  0.07084016  0.22971273
   0.72787055  0.38466623  0.56709027
   0.58652826  0.49014136  0.22530296
   0.35035096  0.08687957  0.31574752
   0.84849916  0.85371783  0.53593234
   0.21023682  0.68394781  0.49353253
   0.48999832  0.10395179  0.07342145
   0.60224464  0.08117451  0.56804291
   0.48141212  0.19351776  0.91952586
   0.62620749  0.17442893  0.10703762
   0.25673847  0.35206568  0.07534205
   0.83474008  0.96815826  0.03565000
   0.60609391  0.43556705  0.44371864
   0.33920206  0.77692178  0.25383384
   0.52745277  0.98557936  0.17383700
   0.01844166  0.19320442  0.94774599
   0.87007102  0.67711384  0.47641992
   0.21068722  0.74983814  0.04539954
   0.51991387  0.99154777  0.51910150
   0.72017989  0.02753953  0.81256415
   0.73816489  0.12378752  0.33569197
   0.51634344  0.87376530  0.23232743
   0.18953776  0.46624599  0.72166748
   0.34486001  0.66891736  0.68158260
   0.10434424  0.17677181  0.89166504
   0.21830530  0.22256903  0.95269005
   0.37713932  0.18096073  0.90081642
   0.27956657  0.76472693  0.69591421
   0.20899141  0.24670427  0.31181237
   0.86629256  0.57985615  0.00038806
   0.25293882  0.16882142  0.20533659
   0.22490783  0.88418977  0.25280471
   0.41409748  0.58390764  0.69558842
   0.04910792  0.77924130  0.33059054
   0.48991309  0.08825982  0.44072574
   0.31071120  0.92917219  0.15816668
   0.36491275  0.18638216  0.36394268
   0.03685745  0.46944545  0.64536825
   0.67023438  0.08402861  0.11118768
   0.09831469  0.50260670  0.50608786
   0.69083807  0.63353289  0.84193336
   0.34455463  0.05722667  0.13454034
   0.60280797  0.80638591  0.30889000
   0.08102896  0.27502332  0.95236546
   0.83618945  0.77022681  0.36273928
   0.96013977  0.54260633  0.03572399
   0.77440423  0.47331320  0.60799100
   0.17777652  0.05561018  0.41546837
   0.98614270  0.60679785  0.82016088
   0.94894482  0.52442266  0.17684722
   0.13944587  0.73659594  0.28604697
   0.67532294  0.22387296  0.68241890
   0.01506962  0.06127303  0.40410183
   0.22289658  0.40002821  0.20006431
   0.15644260  0.22396974  0.40133625
   0.69388330  0.42766389  0.69034911
   0.24856692  0.16124309  0.84846555
   0.55469533  0.73570419  0.91285224
   0.66541644  0.20006396  0.98066605
   0.73839330  0.33881091  0.07647759
   0.86575647  0.24040503  0.34789577
   0.78932574  0.20761594  0.00912496
   0.11510603  0.61729151  0.39197132
   0.40320350  0.62419490  0.30532763
   0.60863260  0.93591296  0.37597268
   0.12643101  0.50326221  0.78764551
   0.60167668  0.46314189  0.95361051
   0.27259205  0.47089210  0.45700150
   0.25899879  0.39270280  0.70930318
   0.56249521  0.64353417  0.87587198
   0.16695632  0.66248013  0.24739224
   0.64288412  0.52829064  0.46269494
   0.22176982  0.02379302  0.60855903
   0.80482192  0.46780435  0.27109892
   0.40216993  0.65670719  0.59765424
   0.24809828  0.79618246  0.26366464
   0.87476716  0.95493145  0.57263578
   0.89670264  0.49203977  0.61237096
   0.01531322  0.25909387  0.09007522
   0.47980599  0.96117751  0.28490739
   0.43369559  0.71096287  0.35153837
   0.64762119  0.09185822  0.80514045
   0.05407012  0.38339562  0.64579045
   0.98868763  0.18767995  0.72093577
   0.98760029  0.06178753  0.63059619
   0.12864169  0.37729126  0.64200193
   0.31594850  0.27896523  0.04916256
   0.41791649  0.01786294  0.01446205
   0.25723400  0.55951303  0.08194822
   0.43118361  0.85590179  0.62076334
   0.63463875  0.91425977  0.91004647
   0.56723506  0.61649437  0.51001171
   0.48227314  0.33057678  0.72640875
   0.71986661  0.08405709  0.67467492
   0.78003965  0.37704076  0.44226011
   0.81637323  0.91961985  0.14847509
   0.35863483  0.87186488  0.64640919
   0.68977199  0.48586718  0.91597464
   0.05329456  0.14474530  0.45103919
   0.79886741  0.05706265  0.03938646
   0.59457598  0.77903326  0.55344954
   0.05399056  0.64747882  0.43254568
   0.17012198  0.42201797  0.99502702
   0.25573252  0.06774697  0.25426334
   0.82859094  0.35172323  0.12801793
   0.23711218  0.27270091  0.16670503
   0.40022860  0.99703651  0.44067428
   0.84219383  0.13670181  0.56184332
   0.90389434  0.20710093  0.85671274
   0.10037577  0.53102711  0.06447615
   0.26584092  0.54810555  0.25589368
   0.25839577  0.32642445  0.46474718
   0.83049586  0.62058812  0.55243377
   0.86630228  0.33646469  0.55078563
   0.98537607  0.92140605  0.56150743
   0.66234275  0.16479230  0.34797920
   0.49501392  0.26998304  0.49156256
   0.54358877  0.99525845  0.73585517
   0.56736569  0.07141882  0.31572907
   0.53505344  0.03029328  0.01521779
   0.02430390  0.83428235  0.42487230
   0.22318271  0.85003163  0.58661626
   0.57804926  0.30467231  0.88458005
   0.94537650  0.93892296  0.20282497
   0.48887488  0.58553485  0.47524805
   0.54647135  0.45342906  0.00884478
   0.24213087  0.84427611  0.76982354
   0.73060920  0.22245095  0.27173222
   0.27270489  0.43508205  0.96959961
   0.68538334  0.97688481  0.29673568
   0.39269924  0.74455402  0.16835505
   0.96558912  0.39650962  0.87956523
   0.51636638  0.77080804  0.19145457
   0.34800992  0.69384232  0.87614703
   0.26974183  0.20223206  0.73883949
   0.15875614  0.93872060  0.81517155
   0.56787378  0.27178603  0.01884642
   0.10630624  0.78171573  0.94598653
   0.04010633  0.98926332  0.90004207
   0.53003234  0.45373139  0.47505194
   0.74676687  0.22540801  0.66867168
   0.28078413  0.50560222  0.76691306
   0.83719754  0.09349625  0.41218184
   0.26864784  0.59797230  0.57123961
   0.51492651  0.59606934  0.90671787
   0.57521255  0.76434130  0.79558487
   0.01375464  0.10395821  0.98033516
   0.35537007  0.38851219  0.25420161
   0.51593802  0.82826106  0.41487962
   0.79816571  0.87712207  0.63787925
   0.64241287  0.39499611  0.32618863
   0.11526222  0.74490048  0.80638960
   0.38115543  0.24522466  0.74260622
   0.48513023  0.34771153  0.57530940
   0.20303868  0.34940663  0.52414737
   0.74265043  0.96000620  0.24050829
   0.53871100  0.14077313  0.85944090
   0.75341590  0.93555992  0.80912542
   0.37063393  0.87168604  0.31100225
   0.97290994  0.87413677  0.91921741
   0.97713890  0.73264031  0.96250714
   0.75727564  0.65361837  0.68956269
   0.10739567  0.28735968  0.26081104
   0.92456462  0.17959522  0.14816854
   0.94712852  0.81724041  0.61627655
   0.50863399  0.56759909  0.15980399
   0.98516142  0.27508589  0.77604626
   0.15558378  0.66716945  0.89261948
   0.41436319  0.23781613  0.31389770
   0.84616155  0.51132073  0.20883785
   0.13772808  0.17610302  0.12177423
   0.93488812  0.86272343  0.27025490
   0.42393892  0.42940057  0.10929653
   0.83181609  0.34880260  0.77902427
   0.29302796  0.74468580  0.53471321
   0.90176537  0.98710166  0.96291789
   0.13318519  0.88191186  0.18984410
   0.20476316  0.12684482  0.98511801
   0.04841106  0.59804834  0.02764758
   0.11720136  0.97258700  0.62863725
   0.38453547  0.82631858  0.81475458
   0.19035684  0.47973610  0.41568732
   0.23116397  0.30607738  0.86489033
   0.83037645  0.76242403  0.61510547
   0.09667749  0.00487771  0.27654221
   0.41799567  0.06980088  0.56085477
   0.66711825  0.83795584  0.64166412
   0.19596842  0.71380821  0.64787293
   0.59641853  0.18082926  0.51741554
   0.68831135  0.50747593  0.27674426
   0.72805144  0.69129685  0.78940528
   0.52255901  0.18712477  0.70078407
   0.41169031  0.11279899  0.82306523
   0.89496595  0.41949931  0.88695579
   0.59204698  0.59063437  0.19284392
   0.54572343  0.19263099  0.15460727
   0.70218942  0.85588784  0.95099758
   0.88842048  0.15071518  0.95018342
   0.73357325  0.28093145  0.52883727
   0.85310777  0.79925018  0.93101182
   0.42460264  0.15557880  0.11740133
   0.35642401  0.51209555  0.38151960
   0.40027900  0.86390249  0.08464880
   0.71795944  0.60081353  0.11717247
   0.12296605  0.92089993  0.32483033
   0.53293165  0.88979344  0.57252552
   0.61891234  0.98051833  0.57259843
   0.28365099  0.18132722  0.44236030
   0.67305552  0.76678470  0.91740833
   0.65082612  0.35112150  0.59397241
   0.96226598  0.72266174  0.67386642
   0.99893039  0.70364827  0.27958433
   0.30104495  0.94034960  0.85970818
   0.28691106  0.68935904  0.22060525
   0.38807859  0.95129744  0.73924492
   0.91419907  0.61955300  0.42387445
   0.72783915  0.04319325  0.44886445
   0.42586184  0.27048852  0.94524499
   0.86483240  0.02867907  0.78197165
   0.94588075  0.07267356  0.41601876
   0.76945105  0.87584314  0.30600173
   0.17432788  0.04728587  0.68018031
   0.08306344  0.08608030  0.76441130
   0.52481183  0.89790062  0.06084518
   0.43382313  0.69660274  0.91351126
   0.23345253  0.56679498  0.79718207
   0.42553528  0.51381818  0.16671252
   0.41183769  0.78037460  0.52170811
   0.85618208  0.63742846  0.83651608
   0.11353044  0.23733322  0.76587948
   0.08966988  0.91742793  0.91967973
   0.84547880  0.63822240  0.11152238
   0.02617931  0.17007074  0.26995220
   0.26367499  0.80954950  0.01961026
   0.95046383  0.33109853  0.21604745
   0.98644207  0.28521914  0.38386325
   0.76708740  0.70935948  0.28434544
   0.51737328  0.40815610  0.19599088
   0.78419627  0.52253745  0.86305472
   0.28099977  0.65297611  0.38235551
Direct configuration=     2
   0.53641131  0.08769223  0.67267247
   0.86428733  0.42268286  0.65693778
   0.76140669  0.56183548  0.01248296
   0.89740217  0.79713165  0.83900877
   0.27889556  0.46158776  0.16331003
   0.53494498  0.53155626  0.37595659
   0.64529757  0.91292161  0.73960172
   0.06058118  0.97714009  0.73804826
   0.76241897  0.24581205  0.13645231
   0.97316688  0.90779716  0.73454604
   0.36544984  0.96390461  0.08369925
   0.70350843  0.50714953  0.11696976
   0.90767068  0.68364040  0.73862943
   0.87662528  0.26388486  0.18950979
   0.18451704  0.54139513  0.55439046
   0.41746906  0.91952579  0.96062840
   0.88420059  0.93309574  0.76564913
   0.62650527  0.07084826  0.22968962
   0.72789548  0.38466313  0.56712234
   0.58650796  0.49014785  0.22524732
   0.35033631  0.08685487  0.31577937
   0.84856726  0.85369779  0.53619826
   0.21023738  0.68392538  0.49358691
   0.49000943  0.10400488  0.07335454
   0.60228942  0.08120080  0.56817878
   0.48138190  0.19355460  0.91950417
   0.62621462  0.17445799  0.10703660
   0.25676719  0.35208283  0.07541362
   0.83476246  0.96813303  0.03569141
   0.60609624  0.43555907  0.44372418
   0.33917354  0.77692651  0.25379711
   0.52745886  0.98554958  0.17380225
   0.01842326  0.19322881  0.94774573
   0.87004993  0.67717287  0.47649127
   0.21067006  0.74983538  0.04536316
   0.51992258  0.99158207  0.51922764
   0.72018141  0.02753248  0.81255840
   0.73817904  0.12377159  0.33570383
   0.51634627  0.87375254  0.23227446
   0.18944855  0.46624276  0.72152666
   0.34488072  0.66891723  0.68165199
   0.10431421  0.17680728  0.89169325
   0.21828591  0.22259247  0.95261591
   0.37715559  0.18099176  0.90082466
   0.27958802  0.76472188  0.69591689
   0.20893506  0.24673251  0.31186870
   0.86626049  0.57986091  0.00042524
   0.25293096  0.16880915  0.20537162
   0.22488872  0.88420147  0.25275192
   0.41411684  0.58391036  0.69562579
   0.04908132  0.77923186  0.33059590
   0.48988825  0.08826331  0.44075711
   0.31069240  0.92916271  0.15813257
   0.36492527  0.18637461  0.36400427
   0.03689584  0.46942862  0.64539568
   0.67025762  0.08403349  0.11129013
   0.09832971  0.50260621  0.50613405
   0.69086501  0.63353999  0.84195890
   0.34454197  0.05722104  0.13457236
   0.60279474  0.80638357  0.30892294
   0.08102250  0.27499432  0.95240845
   0.83618558  0.77021781  0.36278060
   0.96014458  0.54260576  0.03567847
   0.77439958  0.47326691  0.60799733
   0.17776708  0.05557917  0.41547800
   0.98612517  0.60676701  0.82012160
   0.94893209  0.52441268  0.17686528
   0.13943329  0.73661511  0.28606888
   0.67533234  0.22387321  0.68240073
   0.01509771  0.06126813  0.40413611
   0.22292938  0.40005574  0.20015727
   0.15647376  0.22398056  0.40133070
   0.69388066  0.42766862  0.69032910
   0.24858061  0.16127534  0.84844072
   0.55471447  0.73567917  0.91288495
   0.66540434  0.20009352  0.98067439
   0.73841575  0.33876980  0.07649242
   0.86573130  0.24044023  0.34780243
   0.78934608  0.20764700  0.00916420
   0.11511826  0.61730196  0.39198342
   0.40322239  0.62418221  0.30532427
   0.60862184  0.93588267  0.37588442
   0.12643922  0.50324516  0.78761055
   0.60167706  0.46314802  0.95363375
   0.27259125  0.47089231  0.45697837
   0.25899122  0.39272225  0.70928507
   0.56247731  0.64355287  0.87584435
   0.16696089  0.66245841  0.24741120
   0.64286023  0.52827430  0.46261646
   0.22172310  0.02377973  0.60847433
   0.80479122  0.46780903  0.27101034
   0.40219438  0.65670288  0.59772992
   0.24808544  0.79618229  0.26360453
   0.87475443  0.95491053  0.57262170
   0.89670630  0.49200706  0.61239259
   0.01530176  0.25908463  0.09008053
   0.47980912  0.96115519  0.28486827
   0.43371360  0.71095259  0.35157488
   0.64760440  0.09186429  0.80508429
   0.05408277  0.38342895  0.64574924
   0.98870074  0.18766156  0.72098444
   0.98760421  0.06177545  0.63057654
   0.12863853  0.37732121  0.64198665
   0.31595416  0.27896903  0.04916608
   0.41790880  0.01786767  0.01442112
   0.25722630  0.55950208  0.08192317
   0.43118419  0.85590805  0.62078332
   0.63464801  0.91421828  0.91006784
   0.56721746  0.61649511  0.50999304
   0.48227691  0.33057440  0.72639212
   0.71985488  0.08408549  0.67469548
   0.78005737  0.37706183  0.44237184
   0.81637177  0.91961968  0.14845615
   0.35861885  0.87184989  0.64642275
   0.68980790  0.48587752  0.91607458
   0.05327863  0.14474280  0.45099284
   0.79887343  0.05704164  0.03935585
   0.59460147  0.77903837  0.55349390
   0.05400632  0.64748109  0.43256353
   0.17011053  0.42205983  0.99498659
   0.25576797  0.06776882  0.25432511
   0.82858779  0.35163843  0.12809453
   0.23710333  0.27268034  0.16666137
   0.40023002  0.99706420  0.44065341
   0.84219083  0.13670016  0.56184669
   0.90392133  0.20709941  0.85672620
   0.10037256  0.53102827  0.06446420
   0.26582199  0.54809116  0.25588159
   0.25838366  0.32644792  0.46477535
   0.83049923  0.62058523  0.55236242
   0.86633164  0.33647738  0.55086277
   0.98540998  0.92141258  0.56155919
   0.66237185  0.16479524  0.34803589
   0.49501272  0.26999299  0.49160319
   0.54358497  0.99524742  0.73580213
   0.56737264  0.07142208  0.31573937
   0.53504506  0.03029110  0.01524232
   0.02428554  0.83428172  0.42482025
   0.22319564  0.85002254  0.58662406
   0.57803850  0.30467937  0.88451924
   0.94537083  0.93891951  0.20286207
   0.48886990  0.58552201  0.47520855
   0.54649344  0.45345768  0.00890475
   0.24211692  0.84426698  0.76980537
   0.73061559  0.22243963  0.27172230
   0.27270050  0.43508212  0.96955602
   0.68536022  0.97689553  0.29664320
   0.39270971  0.74453837  0.16838686
   0.96555828  0.39650069  0.87949174
   0.51638041  0.77080545  0.19149247
   0.34798690  0.69384541  0.87607255
   0.26974286  0.20225658  0.73884977
   0.15876010  0.93872591  0.81513548
   0.56784344  0.27177180  0.01876057
   0.10634108  0.78170722  0.94602136
   0.04008231  0.98925659  0.89999640
   0.53003133  0.45372622  0.47501717
   0.74677166  0.22541757  0.66869705
   0.28075985  0.50558250  0.76683433
   0.83720137  0.09348751  0.41220322
   0.26863905  0.59795589  0.57118462
   0.51491058  0.59608366  0.90671433
   0.57522045  0.76434452  0.79560912
   0.01373940  0.10399419  0.98032070
   0.35536930  0.38851662  0.25420552
   0.51593701  0.82822953  0.41482581
   0.79827195  0.87701573  0.63808340
   0.64242205  0.39501492  0.32623996
   0.11526579  0.74488714  0.80640523
   0.38113864  0.24522805  0.74259589
   0.48512770  0.34771944  0.57529919
   0.20301092  0.34938643  0.52405188
   0.74265490  0.96000047  0.24052432
   0.53871257  0.14076182  0.85946825
   0.75343378  0.93555253  0.80919923
   0.37063088  0.87166527  0.31100777
   0.97290467  0.87413630  0.91917353
   0.97713140  0.73263612  0.96248657
   0.75729780  0.65361090  0.68963371
   0.10740856  0.28735353  0.26079858
   0.92460110  0.17963560  0.14823267
   0.94709280  0.81721268  0.61625567
   0.50864870  0.56758476  0.15981995
   0.98517885  0.27507968  0.77611789
   0.15559478  0.66718119  0.89265950
   0.41438720  0.23784959  0.31392695
   0.84613161  0.51136753  0.20872540
   0.13772749  0.17609910  0.12181089
   0.93487823  0.86273362  0.27021007
   0.42395775  0.42941461  0.10935199
   0.83180421  0.34882181  0.77891383
   0.29302484  0.74468526  0.53472751
   0.90175203  0.98708988  0.96295774
   0.13317881  0.88192361  0.18982664
   0.20477761  0.12684314  0.98517503
   0.04838717  0.59805662  0.02763075
   0.11717893  0.97260818  0.62859816
   0.38451031  0.82631306  0.81470882
   0.19036201  0.47973410  0.41577414
   0.23116149  0.30606887  0.86484058
   0.83037626  0.76235602  0.61503092
   0.09670729  0.00486310  0.27659905
   0.41802238  0.06980899  0.56085150
   0.66709281  0.83795181  0.64163802
   0.19596085  0.71381746  0.64781862
   0.59643384  0.18083434  0.51744299
   0.68829003  0.50747361  0.27668911
   0.72806593  0.69129606  0.78945648
   0.52255721  0.18715315  0.70080388
   0.41169473  0.11281851  0.82309503
   0.89496655  0.41951909  0.88694629
   0.59204291  0.59062386  0.19284388
   0.54568240  0.19261949  0.15452478
   0.70217909  0.85587121  0.95098937
   0.88845804  0.15071987  0.95020100
   0.73356018  0.28095192  0.52885067
   0.85311916  0.79924010  0.93102110
   0.42460505  0.15558829  0.11735231
   0.35641919  0.51208192  0.38151075
   0.40027105  0.86389687  0.08465673
   0.71796094  0.60079287  0.11714294
   0.12300340  0.92092724  0.32487634
   0.53295022  0.88978253  0.57258805
   0.61892160  0.98052950  0.57265863
   0.28363267  0.18132342  0.44229696
   0.67303163  0.76676728  0.91735619
   0.65082331  0.35110358  0.59392238
   0.96226334  0.72263581  0.67387934
   0.99894088  0.70365457  0.27962247
   0.30102270  0.94035390  0.85965085
   0.28691873  0.68935200  0.22056121
   0.38808199  0.95127011  0.73926665
   0.91421017  0.61955668  0.42388962
   0.72787490  0.04321852  0.44885455
   0.42587271  0.27047009  0.94524435
   0.86482947  0.02871062  0.78194156
   0.94590627  0.07268354  0.41605794
   0.76945089  0.87583982  0.30598098
   0.17429867  0.04728094  0.68010696
   0.08305105  0.08606101  0.76431214
   0.52480839  0.89787688  0.06087597
   0.43382931  0.69660225  0.91346244
   0.23341923  0.56676594  0.79716023
   0.42557025  0.51381755  0.16678439
   0.41181843  0.78038113  0.52166824
   0.85619281  0.63744053  0.83653584
   0.11351697  0.23731951  0.76587231
   0.08968140  0.91741964  0.91970761
   0.84546334  0.63818691  0.11146164
   0.02617040  0.17008604  0.26993951
   0.26367964  0.80953898  0.01968208
   0.95045841  0.33109321  0.21602907
   0.98643084  0.28519972  0.38383916
   0.76708899  0.70935254  0.28437414
   0.51736525  0.40821315  0.19600907
   0.78421601  0.52256682  0.86313015
   0.28098911  0.65297437  0.38240466
Direct configuration=     3
   0.53631165  0.08764580  0.67244396
   0.86432733  0.42262760  0.65701723
   0.76137621  0.56184744  0.01251776
   0.89713094  0.79750114  0.83763782
   0.27888553  0.46160730  0.16351718
   0.53480215  0.53151295  0.37557560
   0.64529315  0.91285286  0.73962889
   0.06060292  0.97712181  0.73805950
   0.76247607  0.24594569  0.13648616
   0.97312515  0.90780300  0.73451041
   0.36555830  0.96383359  0.08388081
   0.70348404  0.50712720  0.11674632
   0.90777457  0.68398999  0.73919817
   0.87653674  0.26397199  0.18946049
   0.18454008  0.54139639  0.55430782
   0.41749636  0.91953692  0.96057126
   0.88431145  0.93283391  0.76586084
   0.62648744  0.07086729  0.22963530
   0.72795411  0.38465583  0.56719774
   0.58646022  0.49016313  0.22511648
   0.35030186  0.08679680  0.31585425
   0.84872740  0.85365067  0.53682358
   0.21023871  0.68387264  0.49371478
   0.49003556  0.10412972  0.07319722
   0.60239470  0.08126260  0.56849827
   0.48131084  0.19364124  0.91945316
   0.62623140  0.17452631  0.10703422
   0.25683471  0.35212313  0.07558193
   0.83481507  0.96807371  0.03578877
   0.60610172  0.43554031  0.44373719
   0.33910649  0.77693763  0.25371073
   0.52747318  0.98547956  0.17372055
   0.01838001  0.19328615  0.94774513
   0.87000033  0.67731166  0.47665905
   0.21062972  0.74982888  0.04527762
   0.51994308  0.99166272  0.51952425
   0.72018498  0.02751591  0.81254488
   0.73821231  0.12373413  0.33573173
   0.51635292  0.87372254  0.23214991
   0.18923878  0.46623516  0.72119553
   0.34492941  0.66891693  0.68181516
   0.10424358  0.17689070  0.89175958
   0.21824034  0.22264758  0.95244157
   0.37719385  0.18106474  0.90084404
   0.27963846  0.76471002  0.69592321
   0.20880256  0.24679893  0.31200117
   0.86618506  0.57987211  0.00051265
   0.25291249  0.16878031  0.20545397
   0.22484380  0.88422897  0.25262777
   0.41416234  0.58391675  0.69571364
   0.04901878  0.77920967  0.33060850
   0.48982983  0.08827151  0.44083088
   0.31064817  0.92914041  0.15805235
   0.36495469  0.18635683  0.36414907
   0.03698609  0.46938903  0.64546019
   0.67031226  0.08404498  0.11153102
   0.09836502  0.50260507  0.50624266
   0.69092835  0.63355668  0.84201895
   0.34451218  0.05720780  0.13464767
   0.60276363  0.80637807  0.30900040
   0.08100733  0.27492613  0.95250953
   0.83617648  0.77019666  0.36287775
   0.96015589  0.54260443  0.03557143
   0.77438867  0.47315804  0.60801221
   0.17774489  0.05550625  0.41550063
   0.98608395  0.60669447  0.82002923
   0.94890216  0.52438921  0.17690774
   0.13940372  0.73666021  0.28612042
   0.67535445  0.22387379  0.68235799
   0.01516377  0.06125661  0.40421672
   0.22300649  0.40012049  0.20037585
   0.15654705  0.22400600  0.40131767
   0.69387446  0.42767975  0.69028205
   0.24861280  0.16135117  0.84838233
   0.55475948  0.73562033  0.91296188
   0.66537589  0.20016302  0.98069399
   0.73846854  0.33867313  0.07652732
   0.86567210  0.24052299  0.34758292
   0.78939389  0.20772002  0.00925647
   0.11514703  0.61732652  0.39201186
   0.40326681  0.62415236  0.30531637
   0.60859653  0.93581142  0.37567687
   0.12645853  0.50320506  0.78752832
   0.60167796  0.46316244  0.95368839
   0.27258937  0.47089281  0.45692399
   0.25897341  0.39276797  0.70924248
   0.56243521  0.64359682  0.87577939
   0.16697162  0.66240732  0.24745578
   0.64280406  0.52823586  0.46243191
   0.22161325  0.02374846  0.60827516
   0.80471905  0.46782004  0.27080203
   0.40225189  0.65669275  0.59790788
   0.24805524  0.79618189  0.26346320
   0.87472450  0.95486135  0.57258857
   0.89671492  0.49193016  0.61244345
   0.01527482  0.25906290  0.09009302
   0.47981650  0.96110272  0.28477628
   0.43375596  0.71092840  0.35166074
   0.64756493  0.09187857  0.80495225
   0.05411250  0.38350731  0.64565234
   0.98873154  0.18761831  0.72109890
   0.98761343  0.06174704  0.63053032
   0.12863111  0.37739164  0.64195070
   0.31596747  0.27897795  0.04917436
   0.41789072  0.01787880  0.01432490
   0.25720819  0.55947634  0.08186426
   0.43118558  0.85592277  0.62083032
   0.63466978  0.91412072  0.91011811
   0.56717607  0.61649685  0.50994914
   0.48228576  0.33056881  0.72635302
   0.71982731  0.08415225  0.67474383
   0.78009902  0.37711138  0.44263458
   0.81636834  0.91961927  0.14841162
   0.35858128  0.87181462  0.64645465
   0.68989234  0.48590184  0.91630959
   0.05324118  0.14473691  0.45088386
   0.79888760  0.05699224  0.03928388
   0.59466142  0.77905040  0.55359823
   0.05404338  0.64748643  0.43260550
   0.17008362  0.42215827  0.99489150
   0.25585132  0.06782018  0.25447037
   0.82858040  0.35143902  0.12827464
   0.23708252  0.27263196  0.16655870
   0.40023336  0.99712933  0.44060435
   0.84218376  0.13669629  0.56185461
   0.90398481  0.20709584  0.85675785
   0.10036501  0.53103101  0.06443610
   0.26577747  0.54805733  0.25585315
   0.25835518  0.32650311  0.46484161
   0.83050714  0.62057841  0.55219465
   0.86640067  0.33650720  0.55104417
   0.98548971  0.92142793  0.56168089
   0.66244028  0.16480213  0.34816919
   0.49500991  0.27001639  0.49169873
   0.54357604  0.99522150  0.73567739
   0.56738897  0.07142974  0.31576359
   0.53502536  0.03028598  0.01530000
   0.02424237  0.83428025  0.42469789
   0.22322604  0.85000116  0.58664240
   0.57801319  0.30469597  0.88437627
   0.94535750  0.93891141  0.20294932
   0.48885818  0.58549183  0.47511565
   0.54654541  0.45352498  0.00904578
   0.24208411  0.84424552  0.76976263
   0.73063062  0.22241302  0.27169899
   0.27269016  0.43508227  0.96945351
   0.68530587  0.97692075  0.29642573
   0.39273433  0.74450157  0.16846165
   0.96548577  0.39647970  0.87931891
   0.51641341  0.77079937  0.19158158
   0.34793276  0.69385269  0.87589741
   0.26974528  0.20231423  0.73887392
   0.15876941  0.93873842  0.81505066
   0.56777211  0.27173833  0.01855869
   0.10642301  0.78168720  0.94610325
   0.04002583  0.98924078  0.89988901
   0.53002896  0.45371408  0.47493541
   0.74678292  0.22544003  0.66875671
   0.28070276  0.50553612  0.76664920
   0.83721038  0.09346696  0.41225347
   0.26861837  0.59791730  0.57105532
   0.51487313  0.59611735  0.90670602
   0.57523904  0.76435210  0.79566615
   0.01370356  0.10407881  0.98028672
   0.35536749  0.38852703  0.25421471
   0.51593464  0.82815538  0.41469926
   0.79852177  0.87676570  0.63856344
   0.64244366  0.39505915  0.32636068
   0.11527419  0.74485578  0.80644198
   0.38109918  0.24523602  0.74257161
   0.48512177  0.34773803  0.57527518
   0.20294565  0.34933893  0.52382732
   0.74266540  0.95998699  0.24056202
   0.53871627  0.14073525  0.85953259
   0.75347583  0.93553515  0.80937277
   0.37062371  0.87161641  0.31102075
   0.97289227  0.87413521  0.91907036
   0.97711377  0.73262628  0.96243822
   0.75734989  0.65359335  0.68980071
   0.10743886  0.28733906  0.26076928
   0.92468689  0.17973055  0.14838348
   0.94700880  0.81714748  0.61620657
   0.50868328  0.56755108  0.15985749
   0.98521984  0.27506509  0.77628633
   0.15562065  0.66720879  0.89275362
   0.41444364  0.23792827  0.31399573
   0.84606119  0.51147759  0.20846098
   0.13772609  0.17608989  0.12189710
   0.93485497  0.86275760  0.27010465
   0.42400202  0.42944761  0.10948240
   0.83177627  0.34886697  0.77865413
   0.29301750  0.74468399  0.53476114
   0.90172066  0.98706219  0.96305144
   0.13316379  0.88195124  0.18978557
   0.20481160  0.12683920  0.98530910
   0.04833100  0.59807610  0.02759116
   0.11712619  0.97265799  0.62850624
   0.38445116  0.82630008  0.81460122
   0.19037418  0.47972940  0.41597828
   0.23115565  0.30604886  0.86472360
   0.83037581  0.76219610  0.61485562
   0.09677737  0.00482876  0.27673272
   0.41808518  0.06982807  0.56084379
   0.66703299  0.83794234  0.64157663
   0.19594303  0.71383922  0.64769094
   0.59646987  0.18084629  0.51750753
   0.68823992  0.50746814  0.27655941
   0.72810001  0.69129419  0.78957689
   0.52255297  0.18721989  0.70085045
   0.41170511  0.11286440  0.82316510
   0.89496796  0.41956559  0.88692396
   0.59203334  0.59059914  0.19284378
   0.54558591  0.19259246  0.15433080
   0.70215483  0.85583210  0.95097008
   0.88854636  0.15073091  0.95024233
   0.73352945  0.28100007  0.52888220
   0.85314593  0.79921640  0.93104291
   0.42461071  0.15561062  0.11723705
   0.35640784  0.51204989  0.38148993
   0.40025236  0.86388365  0.08467539
   0.71796445  0.60074430  0.11707350
   0.12309124  0.92099145  0.32498452
   0.53299387  0.88975687  0.57273510
   0.61894336  0.98055576  0.57280021
   0.28358959  0.18131448  0.44214802
   0.67297545  0.76672633  0.91723359
   0.65081671  0.35106144  0.59380475
   0.96225712  0.72257482  0.67390971
   0.99896552  0.70366939  0.27971217
   0.30097039  0.94036402  0.85951603
   0.28693675  0.68933547  0.22045766
   0.38809000  0.95120583  0.73931775
   0.91423627  0.61956533  0.42392531
   0.72795899  0.04327796  0.44883126
   0.42589826  0.27042674  0.94524284
   0.86482260  0.02878480  0.78187079
   0.94596629  0.07270700  0.41615008
   0.76945051  0.87583201  0.30593218
   0.17422997  0.04726936  0.67993449
   0.08302192  0.08601565  0.76407899
   0.52480031  0.89782105  0.06094838
   0.43384385  0.69660110  0.91334765
   0.23334094  0.56669765  0.79710888
   0.42565249  0.51381608  0.16695338
   0.41177316  0.78039650  0.52157450
   0.85621803  0.63746891  0.83658229
   0.11348530  0.23728728  0.76585545
   0.08970850  0.91740015  0.91977315
   0.84542698  0.63810345  0.11131881
   0.02614947  0.17012202  0.26990966
   0.26369057  0.80951425  0.01985097
   0.95044568  0.33108071  0.21598584
   0.98640443  0.28515404  0.38378251
   0.76709272  0.70933623  0.28444161
   0.51734636  0.40834730  0.19605185
   0.78426241  0.52263588  0.86330754
   0.28096405  0.65297027  0.38252021
Direct configuration=     4
   0.53628242  0.08767286  0.67245293
   0.86434608  0.42261546  0.65708109
   0.76135552  0.56186742  0.01252299
   0.89697157  0.79768164  0.83732292
   0.27889799  0.46161047  0.16352645
   0.53477981  0.53150232  0.37550749
   0.64528738  0.91282686  0.73963358
   0.06062636  0.97712182  0.73810223
   0.76245525  0.24593959  0.13647253
   0.97313594  0.90779360  0.73449227