<?xml version="1.0" encoding="ISO-8859-1"?>
<modeling>
 <generator>
  <i name="program" type="string">vasp </i>
  <i name="version" type="string">5.4.4.18Apr17-6-g9f103f2a35  </i>
  <i name="subversion" type="string">(build Aug 09 2024 17:42:55) complex            parallel </i>
  <i name="platform" type="string">LinuxIFC </i>
  <i name="date" type="string">2025 12 26 </i>
  <i name="time" type="string">00:41:42 </i>
 </generator>
 <incar>
  <i type="string" name="SYSTEM"> PBE-grap</i>
  <i type="int" name="ISTART">     0</i>
  <i type="string" name="PREC">normal   low | medium | high</i>
  <i type="int" name="IALGO">    38</i>
  <i type="int" name="ICHARG">     2</i>
  <i type="int" name="INIWAV">     1</i>
  <i type="int" name="NELM">   150</i>
  <i type="int" name="NELMDL">    -5</i>
  <i type="int" name="NELMIN">     4</i>
  <i type="int" name="IBRION">     3</i>
  <i name="EDIFF">      0.00001000</i>
  <i name="EDIFFG">     -0.01000000</i>
  <i type="int" name="NSW">    50</i>
  <i type="int" name="ISIF">     2</i>
  <i type="int" name="ISYM">     0</i>
  <i name="ENCUT">    520.00000000</i>
  <i name="POTIM">      0.00000000</i>
  <i type="string" name="LREAL">  AUTO   real-space projection (.FALSE.,</i>
  <i type="logical" name="LPLANE"> T  </i>
  <i type="int" name="ISMEAR">     0</i>
  <i name="SIGMA">      0.05000000</i>
  <i type="int" name="NWRITE">     0</i>
  <i type="logical" name="LWAVE"> F  </i>
  <i type="logical" name="LCHARG"> F  </i>
  <i type="logical" name="LVTOT"> F  </i>
  <v type="int" name="KPOINT_BSE">    -1     0     0     0</v>
  <i type="int" name="NELM">   150</i>
  <i type="string" name="GGA"> PE</i>
 </incar>
 <structure name="primitive_cell" >
  <crystal>
   <varray name="basis" >
    <v>       9.29479980       0.00000000       0.00000000 </v>
    <v>       0.00000000       9.29479980       0.00000000 </v>
    <v>       0.00000000       0.00000000      21.97109985 </v>
   </varray>
   <i name="volume">   1898.15589588 </i>
   <varray name="rec_basis" >
    <v>       0.10758704       0.00000000       0.00000000 </v>
    <v>       0.00000000       0.10758704       0.00000000 </v>
    <v>       0.00000000       0.00000000       0.04551434 </v>
   </varray>
  </crystal>
  <varray name="positions" >
   <v>       0.00136000      -0.00087000       0.31262000 </v>
   <v>       0.00017000      -0.00045000       0.21137000 </v>
   <v>       0.24954000       0.00059000       0.31645000 </v>
   <v>      -0.00060000      -0.24933000       0.31666000 </v>
   <v>       0.00062000       0.24952000       0.31653000 </v>
   <v>      -0.24948000      -0.00138000       0.31701000 </v>
   <v>       0.00030000      -0.24993000       0.21006000 </v>
   <v>       0.24992000       0.00029000       0.20961000 </v>
   <v>      -0.24900000       0.24176000       0.31226000 </v>
   <v>       0.00048000       0.24969000       0.21001000 </v>
   <v>      -0.24991000      -0.00134000       0.20967000 </v>
   <v>       0.25031000      -0.24877000       0.31222000 </v>
   <v>      -0.24988000      -0.24853000       0.31453000 </v>
   <v>       0.25099000       0.24891000       0.31260000 </v>
   <v>       0.24969000      -0.25001000       0.21093000 </v>
   <v>      -0.24942000      -0.24961000       0.21117000 </v>
   <v>       0.25059000       0.24994000       0.21136000 </v>
   <v>      -0.24958000       0.25019000       0.21206000 </v>
   <v>       0.00000000       0.00000000       0.10576000 </v>
   <v>       0.49883000      -0.00020000       0.31222000 </v>
   <v>       0.00826000       0.49921000       0.31225000 </v>
   <v>       0.25000000       0.00000000       0.10576000 </v>
   <v>       0.49354000      -0.24353000       0.31398000 </v>
   <v>       0.00000000      -0.25000000       0.10576000 </v>
   <v>       0.00000000       0.25000000       0.10576000 </v>
   <v>      -0.25000000       0.00000000       0.10576000 </v>
   <v>      -0.00005000       0.49977000       0.21206000 </v>
   <v>      -0.49987000       0.00038000       0.21091000 </v>
   <v>       0.49948000       0.25078000       0.31665000 </v>
   <v>       0.25151000       0.49967000       0.31697000 </v>
   <v>      -0.24715000       0.49789000       0.34046000 </v>
   <v>      -0.31503000      -0.43421000       0.39143000 </v>
   <v>       0.25000000      -0.25000000       0.10576000 </v>
   <v>       0.25000000       0.25000000       0.10576000 </v>
   <v>      -0.25000000      -0.25000000       0.10576000 </v>
   <v>      -0.25000000       0.25000000       0.10576000 </v>
   <v>      -0.25150000      -0.49835000       0.21118000 </v>
   <v>      -0.49944000      -0.25041000       0.21046000 </v>
   <v>      -0.49985000       0.24987000       0.21005000 </v>
   <v>       0.25154000      -0.50000000       0.20965000 </v>
   <v>      -0.50000000       0.00000000       0.10576000 </v>
   <v>       0.00000000      -0.50000000       0.10576000 </v>
   <v>       0.49852000      -0.49995000       0.31445000 </v>
   <v>       0.00000000       0.00000000       0.00000000 </v>
   <v>      -0.50000000      -0.25000000       0.10576000 </v>
   <v>       0.25000000      -0.50000000       0.10576000 </v>
   <v>      -0.50000000       0.25000000       0.10576000 </v>
   <v>      -0.25000000      -0.50000000       0.10576000 </v>
   <v>       0.49977000       0.49959000       0.21109000 </v>
   <v>       0.25000000       0.00000000       0.00000000 </v>
   <v>       0.00000000      -0.25000000       0.00000000 </v>
   <v>       0.00000000       0.25000000       0.00000000 </v>
   <v>      -0.25000000       0.00000000       0.00000000 </v>
   <v>       0.25000000      -0.25000000       0.00000000 </v>
   <v>       0.25000000       0.25000000       0.00000000 </v>
   <v>      -0.25000000      -0.25000000       0.00000000 </v>
   <v>      -0.25000000       0.25000000       0.00000000 </v>
   <v>      -0.50000000      -0.50000000       0.10576000 </v>
   <v>      -0.50000000       0.00000000       0.00000000 </v>
   <v>       0.00000000      -0.50000000       0.00000000 </v>
   <v>      -0.50000000      -0.25000000       0.00000000 </v>
   <v>       0.25000000      -0.50000000       0.00000000 </v>
   <v>      -0.50000000       0.25000000       0.00000000 </v>
   <v>      -0.25000000      -0.50000000       0.00000000 </v>
   <v>      -0.50000000      -0.50000000       0.00000000 </v>
  </varray>
 </structure>
 <varray name="primitive_index" >
  <v type="int" >        1 </v>
  <v type="int" >       38 </v>
  <v type="int" >       35 </v>
  <v type="int" >       52 </v>
  <v type="int" >       36 </v>
  <v type="int" >       43 </v>
  <v type="int" >       23 </v>
  <v type="int" >        8 </v>
  <v type="int" >       10 </v>
  <v type="int" >        7 </v>
  <v type="int" >       16 </v>
  <v type="int" >       18 </v>
  <v type="int" >       26 </v>
  <v type="int" >        2 </v>
  <v type="int" >       53 </v>
  <v type="int" >       61 </v>
  <v type="int" >       37 </v>
  <v type="int" >       45 </v>
  <v type="int" >        5 </v>
  <v type="int" >        9 </v>
  <v type="int" >       17 </v>
  <v type="int" >       39 </v>
  <v type="int" >       60 </v>
  <v type="int" >       56 </v>
  <v type="int" >       40 </v>
  <v type="int" >       47 </v>
  <v type="int" >       54 </v>
  <v type="int" >       46 </v>
  <v type="int" >       44 </v>
  <v type="int" >       51 </v>
  <v type="int" >       59 </v>
  <v type="int" >       65 </v>
  <v type="int" >       22 </v>
  <v type="int" >        6 </v>
  <v type="int" >       30 </v>
  <v type="int" >       14 </v>
  <v type="int" >       32 </v>
  <v type="int" >       31 </v>
  <v type="int" >       15 </v>
  <v type="int" >       24 </v>
  <v type="int" >       13 </v>
  <v type="int" >       21 </v>
  <v type="int" >       25 </v>
  <v type="int" >       34 </v>
  <v type="int" >       64 </v>
  <v type="int" >       55 </v>
  <v type="int" >       48 </v>
  <v type="int" >       63 </v>
  <v type="int" >       62 </v>
  <v type="int" >        4 </v>
  <v type="int" >       19 </v>
  <v type="int" >        3 </v>
  <v type="int" >       12 </v>
  <v type="int" >       49 </v>
  <v type="int" >       33 </v>
  <v type="int" >       57 </v>
  <v type="int" >       41 </v>
  <v type="int" >       29 </v>
  <v type="int" >       42 </v>
  <v type="int" >       50 </v>
  <v type="int" >       27 </v>
  <v type="int" >       20 </v>
  <v type="int" >       11 </v>
  <v type="int" >       28 </v>
  <v type="int" >       58 </v>
 </varray>
 <kpoints>
  <generation param="Monkhorst-Pack">
   <v type="int" name="divisions">       3        3        1 </v>
   <v name="usershift">      0.00000000       0.00000000       0.00000000 </v>
   <v name="genvec1">      0.33333333       0.00000000       0.00000000 </v>
   <v name="genvec2">      0.00000000       0.33333333       0.00000000 </v>
   <v name="genvec3">      0.00000000       0.00000000       1.00000000 </v>
   <v name="shift">      0.00000000       0.00000000       0.00000000 </v>
  </generation>
  <varray name="kpointlist" >
   <v>       0.00000000       0.00000000       0.00000000 </v>
   <v>       0.33333333       0.00000000       0.00000000 </v>
   <v>       0.00000000       0.33333333       0.00000000 </v>
   <v>       0.33333333       0.33333333       0.00000000 </v>
   <v>      -0.33333333       0.33333333       0.00000000 </v>
  </varray>
  <varray name="weights" >
   <v>       0.11111111 </v>
   <v>       0.22222222 </v>
   <v>       0.22222222 </v>
   <v>       0.22222222 </v>
   <v>       0.22222222 </v>
  </varray>
 </kpoints>
 <parameters>
  <separator name="general" >
   <i type="string" name="SYSTEM">PBE-grap</i>
   <i type="logical" name="LCOMPAT"> F  </i>
  </separator>
  <separator name="electronic" >
   <i type="string" name="PREC">normal</i>
   <i name="ENMAX">    520.00000000</i>
   <i name="ENAUG">    644.87300000</i>
   <i name="EDIFF">      0.00001000</i>
   <i type="int" name="IALGO">    38</i>
   <i type="int" name="IWAVPR">    11</i>
   <i type="int" name="NBANDS">   320</i>
   <i name="NELECT">    518.00000000</i>
   <i type="int" name="TURBO">     0</i>
   <i type="int" name="IRESTART">     0</i>
   <i type="int" name="NREBOOT">     0</i>
   <i type="int" name="NMIN">     0</i>
   <i name="EREF">      0.00000000</i>
   <separator name="electronic smearing" >
    <i type="int" name="ISMEAR">     0</i>
    <i name="SIGMA">      0.05000000</i>
    <i name="KSPACING">      0.50000000</i>
    <i type="logical" name="KGAMMA"> T  </i>
   </separator>
   <separator name="electronic projectors" >
    <i type="logical" name="LREAL"> T  </i>
    <v name="ROPT">     -0.00050000     -0.00050000     -0.00050000</v>
    <i type="int" name="LMAXPAW">  -100</i>
    <i type="int" name="LMAXMIX">     2</i>
    <i type="logical" name="NLSPLINE"> F  </i>
   </separator>
   <separator name="electronic startup" >
    <i type="int" name="ISTART">     0</i>
    <i type="int" name="ICHARG">     2</i>
    <i type="int" name="INIWAV">     1</i>
   </separator>
   <separator name="electronic spin" >
    <i type="int" name="ISPIN">     1</i>
    <i type="logical" name="LNONCOLLINEAR"> F  </i>
    <v name="MAGMOM">      1.00000000      1.00000000      1.00000000      1.00000000      1.00000000      1.00000000      1.00000000      1.00000000      1.00000000      1.00000000      1.00000000      1.00000000      1.00000000      1.00000000      1.00000000      1.00000000      1.00000000      1.00000000      1.00000000      1.00000000
      1.00000000      1.00000000      1.00000000      1.00000000      1.00000000      1.00000000      1.00000000      1.00000000      1.00000000      1.00000000      1.00000000      1.00000000      1.00000000      1.00000000      1.00000000      1.00000000      1.00000000      1.00000000      1.00000000      1.00000000
      1.00000000      1.00000000      1.00000000      1.00000000      1.00000000      1.00000000      1.00000000      1.00000000      1.00000000      1.00000000      1.00000000      1.00000000      1.00000000      1.00000000      1.00000000      1.00000000      1.00000000      1.00000000      1.00000000      1.00000000
      1.00000000      1.00000000      1.00000000      1.00000000      1.00000000</v>
    <i name="NUPDOWN">     -1.00000000</i>
    <i type="logical" name="LSORBIT"> F  </i>
    <v name="SAXIS">      0.00000000      0.00000000      1.00000000</v>
    <i type="logical" name="LSPIRAL"> F  </i>
    <v name="QSPIRAL">      0.00000000      0.00000000      0.00000000</v>
    <i type="logical" name="LZEROZ"> F  </i>
   </separator>
   <separator name="electronic exchange-correlation" >
    <i type="logical" name="LASPH"> F  </i>
    <i type="logical" name="LMETAGGA"> F  </i>
   </separator>
   <separator name="electronic convergence" >
    <i type="int" name="NELM">   150</i>
    <i type="int" name="NELMDL">    -5</i>
    <i type="int" name="NELMIN">     4</i>
    <i name="ENINI">    520.00000000</i>
    <separator name="electronic convergence detail" >
     <i type="logical" name="LDIAG"> T  </i>
     <i type="logical" name="LSUBROT"> F  </i>
     <i name="WEIMIN">      0.00100000</i>
     <i name="EBREAK">      0.00000001</i>
     <i name="DEPER">      0.30000000</i>
     <i type="int" name="NRMM">     4</i>
     <i name="TIME">      0.40000000</i>
    </separator>
   </separator>
   <separator name="electronic mixer" >
    <i name="AMIX">      0.40000000</i>
    <i name="BMIX">      1.00000000</i>
    <i name="AMIN">      0.10000000</i>
    <i name="AMIX_MAG">      1.60000000</i>
    <i name="BMIX_MAG">      1.00000000</i>
    <separator name="electronic mixer details" >
     <i type="int" name="IMIX">     4</i>
     <i type="logical" name="MIXFIRST"> F  </i>
     <i type="int" name="MAXMIX">   -45</i>
     <i name="WC">    100.00000000</i>
     <i type="int" name="INIMIX">     1</i>
     <i type="int" name="MIXPRE">     1</i>
     <i type="int" name="MREMOVE">     5</i>
    </separator>
   </separator>
   <separator name="electronic dipolcorrection" >
    <i type="logical" name="LDIPOL"> F  </i>
    <i type="logical" name="LMONO"> F  </i>
    <i type="int" name="IDIPOL">     0</i>
    <i name="EPSILON">      1.00000000</i>
    <v name="DIPOL">   -100.00000000   -100.00000000   -100.00000000</v>
    <i name="EFIELD">      0.00000000</i>
   </separator>
  </separator>
  <separator name="grids" >
   <i type="int" name="NGX">    54</i>
   <i type="int" name="NGY">    54</i>
   <i type="int" name="NGZ">   126</i>
   <i type="int" name="NGXF">   108</i>
   <i type="int" name="NGYF">   108</i>
   <i type="int" name="NGZF">   252</i>
   <i type="logical" name="ADDGRID"> F  </i>
  </separator>
  <separator name="ionic" >
   <i type="int" name="NSW">    50</i>
   <i type="int" name="IBRION">     3</i>
   <i type="int" name="MDALGO">     0</i>
   <i type="int" name="ISIF">     2</i>
   <i name="PSTRESS">      0.00000000</i>
   <i name="EDIFFG">     -0.01000000</i>
   <i type="int" name="NFREE">     0</i>
   <i name="POTIM">      0.00000000</i>
   <i name="SMASS">     -3.00000000</i>
   <i name="SCALEE">      1.00000000</i>
  </separator>
  <separator name="ionic md" >
   <i name="TEBEG">      0.00010000</i>
   <i name="TEEND">      0.00010000</i>
   <i type="int" name="NBLOCK">     1</i>
   <i type="int" name="KBLOCK">    50</i>
   <i type="int" name="NPACO">   256</i>
   <i name="APACO">     16.00000000</i>
  </separator>
  <separator name="symmetry" >
   <i type="int" name="ISYM">     0</i>
   <i name="SYMPREC">      0.00001000</i>
  </separator>
  <separator name="dos" >
   <i type="int" name="LORBIT">     0</i>
   <v name="RWIGS">     -1.00000000     -1.00000000     -1.00000000</v>
   <i type="int" name="NEDOS">   301</i>
   <i name="EMIN">     10.00000000</i>
   <i name="EMAX">    -10.00000000</i>
   <i name="EFERMI">      0.00000000</i>
  </separator>
  <separator name="writing" >
   <i type="int" name="NWRITE">     0</i>
   <i type="logical" name="LWAVE"> F  </i>
   <i type="logical" name="LDOWNSAMPLE"> F  </i>
   <i type="logical" name="LCHARG"> F  </i>
   <i type="logical" name="LPARD"> F  </i>
   <i type="logical" name="LVTOT"> F  </i>
   <i type="logical" name="LVHAR"> F  </i>
   <i type="logical" name="LELF"> F  </i>
   <i type="logical" name="LOPTICS"> F  </i>
   <v name="STM">      0.00000000      0.00000000      0.00000000      0.00000000      0.00000000      0.00000000      0.00000000</v>
  </separator>
  <separator name="performance" >
   <i type="int" name="NPAR">    16</i>
   <i type="int" name="NSIM">     4</i>
   <i type="int" name="NBLK">    -1</i>
   <i type="logical" name="LPLANE"> T  </i>
   <i type="logical" name="LSCALAPACK"> T  </i>
   <i type="logical" name="LSCAAWARE"> F  </i>
   <i type="logical" name="LSCALU"> F  </i>
   <i type="logical" name="LASYNC"> F  </i>
   <i type="logical" name="LORBITALREAL"> F  </i>
  </separator>
  <separator name="miscellaneous" >
   <i type="int" name="IDIOT">     3</i>
   <i type="int" name="ISPECIAL">     0</i>
   <i type="logical" name="LMUSIC"> F  </i>
   <v name="POMASS">    178.49000000     12.01100000     16.00000000</v>
   <v name="DARWINR">      0.00000000      0.00000000      0.00000000</v>
   <v name="DARWINV">      1.00000000      1.00000000      1.00000000</v>
   <i type="logical" name="LCORR"> T  </i>
  </separator>
  <i type="logical" name="GGA_COMPAT"> T  </i>
  <i type="logical" name="LBERRY"> F  </i>
  <i type="int" name="ICORELEVEL">     0</i>
  <i type="logical" name="LDAU"> F  </i>
  <i type="int" name="I_CONSTRAINED_M">     0</i>
  <separator name="electronic exchange-correlation" >
   <i type="string" name="GGA">PE</i>
   <i type="int" name="VOSKOWN">     0</i>
   <i type="logical" name="LHFCALC"> F  </i>
   <i type="string" name="PRECFOCK"></i>
   <i type="logical" name="LSYMGRAD"> F  </i>
   <i type="logical" name="LHFONE"> F  </i>
   <i type="logical" name="LRHFCALC"> F  </i>
   <i type="logical" name="LTHOMAS"> F  </i>
   <i type="logical" name="LMODELHF"> F  </i>
   <i name="ENCUT4O">     -1.00000000</i>
   <i type="int" name="EXXOEP">     0</i>
   <i type="int" name="FOURORBIT">     0</i>
   <i name="AEXX">      0.00000000</i>
   <i name="HFALPHA">      0.00000000</i>
   <i name="MCALPHA">      0.00000000</i>
   <i name="ALDAX">      1.00000000</i>
   <i name="AGGAX">      1.00000000</i>
   <i name="ALDAC">      1.00000000</i>
   <i name="AGGAC">      1.00000000</i>
   <i type="int" name="NKREDX">     1</i>
   <i type="int" name="NKREDY">     1</i>
   <i type="int" name="NKREDZ">     1</i>
   <i type="logical" name="SHIFTRED"> F  </i>
   <i type="logical" name="ODDONLY"> F  </i>
   <i type="logical" name="EVENONLY"> F  </i>
   <i type="int" name="LMAXFOCK">     0</i>
   <i type="int" name="NMAXFOCKAE">     0</i>
   <i type="logical" name="LFOCKAEDFT"> F  </i>
   <i name="HFSCREEN">      0.00000000</i>
   <i name="HFSCREENC">      0.00000000</i>
   <i type="int" name="NBANDSGWLOW">     0</i>
  </separator>
  <separator name="vdW DFT" >
   <i type="logical" name="LUSE_VDW"> F  </i>
   <i name="Zab_VDW">     -0.84910000</i>
   <i name="PARAM1">      0.12340000</i>
   <i name="PARAM2">      1.00000000</i>
   <i name="PARAM3">      0.00000000</i>
  </separator>
  <separator name="model GW" >
   <i type="int" name="MODEL_GW">     0</i>
   <i name="MODEL_EPS0">     17.52143904</i>
   <i name="MODEL_ALPHA">      1.00000000</i>
  </separator>
  <separator name="linear response parameters" >
   <i type="logical" name="LEPSILON"> F  </i>
   <i type="logical" name="LRPA"> F  </i>
   <i type="logical" name="LNABLA"> F  </i>
   <i type="logical" name="LVEL"> F  </i>
   <i type="int" name="KINTER">     0</i>
   <i name="CSHIFT">      0.10000000</i>
   <i name="OMEGAMAX">     -1.00000000</i>
   <i name="DEG_THRESHOLD">      0.00200000</i>
   <i name="RTIME">     -0.10000000</i>
   <i name="WPLASMAI">      0.00000000</i>
   <v name="DFIELD">      0.00000000      0.00000000      0.00000000</v>
   <v name="WPLASMA">      0.00000000      0.00000000      0.00000000      0.00000000      0.00000000      0.00000000      0.00000000      0.00000000      0.00000000</v>
  </separator>
  <separator name="orbital magnetization" >
   <i type="logical" name="NUCIND"> F  </i>
   <v name="MAGPOS">      0.00000000      0.00000000      0.00000000</v>
   <i type="logical" name="LNICSALL"> T  </i>
   <i type="logical" name="ORBITALMAG"> F  </i>
   <i type="logical" name="LMAGBLOCH"> F  </i>
   <i type="logical" name="LCHIMAG"> F  </i>
   <i type="logical" name="LGAUGE"> T  </i>
   <i type="int" name="MAGATOM">     0</i>
   <v name="MAGDIPOL">      0.00000000      0.00000000      0.00000000</v>
   <v name="AVECCONST">      0.00000000      0.00000000      0.00000000</v>
  </separator>
  <separator name="response functions" >
   <i type="logical" name="LADDER"> F  </i>
   <i type="logical" name="LRPAFORCE"> F  </i>
   <i type="logical" name="LFXC"> F  </i>
   <i type="logical" name="LHARTREE"> T  </i>
   <i type="int" name="IBSE">     0</i>
   <v type="int" name="KPOINT">    -1     0     0     0</v>
   <i type="logical" name="LTCTE"> F  </i>
   <i type="logical" name="LTETE"> F  </i>
   <i type="logical" name="LTRIPLET"> F  </i>
   <i type="logical" name="LFXCEPS"> F  </i>
   <i type="logical" name="LFXHEG"> F  </i>
   <i type="int" name="NATURALO">     2</i>
   <i type="logical" name="L2ORDER"> F  </i>
   <i type="logical" name="LMP2LT"> F  </i>
   <i type="logical" name="LUSEW"> F  </i>
   <i name="ENCUTGW">     -2.00000000</i>
   <i name="ENCUTGWSOFT">     -2.00000000</i>
   <i name="ENCUTLF">     -1.00000000</i>
   <i type="int" name="LMAXMP2">    -1</i>
   <i name="SCISSOR">      0.00000000</i>
   <i type="int" name="NOMEGA">     0</i>
   <i type="int" name="NOMEGAR">     0</i>
   <i type="int" name="NBANDSGW">    -1</i>
   <i type="int" name="NBANDSO">    -1</i>
   <i type="int" name="NBANDSV">    -1</i>
   <i type="int" name="NELM">   150</i>
   <i type="int" name="NELMHF">     1</i>
   <i type="int" name="DIM">     3</i>
   <i type="int" name="ANTIRES">     0</i>
   <i name="OMEGAMAX">    -30.00000000</i>
   <i name="OMEGAMIN">    -30.00000000</i>
   <i name="OMEGATL">   -200.00000000</i>
   <i type="int" name="OMEGAGRID">   140</i>
   <i name="CSHIFT">     -0.10000000</i>
   <i type="logical" name="SELFENERGY"> F  </i>
   <i type="logical" name="LSPECTRAL"> F  </i>
   <i type="logical" name="LSPECTRALGW"> F  </i>
   <i type="logical" name="LSINGLES"> F  </i>
   <i type="logical" name="LFERMIGW"> F  </i>
   <i type="logical" name="ODDONLYGW"> F  </i>
   <i type="logical" name="EVENONLYGW"> F  </i>
   <i type="int" name="NKREDLFX">     1</i>
   <i type="int" name="NKREDLFY">     1</i>
   <i type="int" name="NKREDLFZ">     1</i>
   <i type="int" name="MAXMEM">  2800</i>
   <i type="int" name="TELESCOPE">     0</i>
   <i type="int" name="TAUPAR">     1</i>
   <i type="int" name="OMEGAPAR">    -1</i>
   <i name="LAMBDA">      1.00000000</i>
  </separator>
  <separator name="External order field" >
   <i name="OFIELD_KAPPA">      0.00000000</i>
   <v name="OFIELD_K">      0.00000000      0.00000000      0.00000000</v>
   <i name="OFIELD_Q6_NEAR">      0.00000000</i>
   <i name="OFIELD_Q6_FAR">      0.00000000</i>
   <i name="OFIELD_A">      0.00000000</i>
  </separator>
 </parameters>
 <atominfo>
  <atoms>      65 </atoms>
  <types>       3 </types>
  <array name="atoms" >
   <dimension dim="1">ion</dimension>
   <field type="string">element</field>
   <field type="int">atomtype</field>
   <set>
    <rc><c>Hf</c><c>   1</c></rc>
    <rc><c>Hf</c><c>   1</c></rc>
    <rc><c>Hf</c><c>   1</c></rc>
    <rc><c>Hf</c><c>   1</c></rc>
    <rc><c>Hf</c><c>   1</c></rc>
    <rc><c>Hf</c><c>   1</c></rc>
    <rc><c>Hf</c><c>   1</c></rc>
    <rc><c>Hf</c><c>   1</c></rc>
    <rc><c>Hf</c><c>   1</c></rc>
    <rc><c>Hf</c><c>   1</c></rc>
    <rc><c>Hf</c><c>   1</c></rc>
    <rc><c>Hf</c><c>   1</c></rc>
    <rc><c>Hf</c><c>   1</c></rc>
    <rc><c>Hf</c><c>   1</c></rc>
    <rc><c>Hf</c><c>   1</c></rc>
    <rc><c>Hf</c><c>   1</c></rc>
    <rc><c>Hf</c><c>   1</c></rc>
    <rc><c>Hf</c><c>   1</c></rc>
    <rc><c>Hf</c><c>   1</c></rc>
    <rc><c>Hf</c><c>   1</c></rc>
    <rc><c>Hf</c><c>   1</c></rc>
    <rc><c>Hf</c><c>   1</c></rc>
    <rc><c>Hf</c><c>   1</c></rc>
    <rc><c>Hf</c><c>   1</c></rc>
    <rc><c>Hf</c><c>   1</c></rc>
    <rc><c>Hf</c><c>   1</c></rc>
    <rc><c>Hf</c><c>   1</c></rc>
    <rc><c>Hf</c><c>   1</c></rc>
    <rc><c>Hf</c><c>   1</c></rc>
    <rc><c>Hf</c><c>   1</c></rc>
    <rc><c>Hf</c><c>   1</c></rc>
    <rc><c>Hf</c><c>   1</c></rc>
    <rc><c>C </c><c>   2</c></rc>
    <rc><c>C </c><c>   2</c></rc>
    <rc><c>C </c><c>   2</c></rc>
    <rc><c>C </c><c>   2</c></rc>
    <rc><c>C </c><c>   2</c></rc>
    <rc><c>C </c><c>   2</c></rc>
    <rc><c>C </c><c>   2</c></rc>
    <rc><c>C </c><c>   2</c></rc>
    <rc><c>C </c><c>   2</c></rc>
    <rc><c>C </c><c>   2</c></rc>
    <rc><c>C </c><c>   2</c></rc>
    <rc><c>C </c><c>   2</c></rc>
    <rc><c>C </c><c>   2</c></rc>
    <rc><c>C </c><c>   2</c></rc>
    <rc><c>C </c><c>   2</c></rc>
    <rc><c>C </c><c>   2</c></rc>
    <rc><c>C </c><c>   2</c></rc>
    <rc><c>C </c><c>   2</c></rc>
    <rc><c>C </c><c>   2</c></rc>
    <rc><c>C </c><c>   2</c></rc>
    <rc><c>C </c><c>   2</c></rc>
    <rc><c>C </c><c>   2</c></rc>
    <rc><c>C </c><c>   2</c></rc>
    <rc><c>C </c><c>   2</c></rc>
    <rc><c>C </c><c>   2</c></rc>
    <rc><c>C </c><c>   2</c></rc>
    <rc><c>C </c><c>   2</c></rc>
    <rc><c>C </c><c>   2</c></rc>
    <rc><c>C </c><c>   2</c></rc>
    <rc><c>C </c><c>   2</c></rc>
    <rc><c>C </c><c>   2</c></rc>
    <rc><c>C </c><c>   2</c></rc>
    <rc><c>O </c><c>   3</c></rc>
   </set>
  </array>
  <array name="atomtypes" >
   <dimension dim="1">type</dimension>
   <field type="int">atomspertype</field>
   <field type="string">element</field>
   <field>mass</field>
   <field>valence</field>
   <field type="string">pseudopotential</field>
   <set>
    <rc><c>  32</c><c>Hf</c><c>    178.49000000</c><c>     12.00000000</c><c>  PAW_PBE Hf_sv 10Jan2008 GW suitable   </c></rc>
    <rc><c>  32</c><c>C </c><c>     12.01100000</c><c>      4.00000000</c><c>  PAW_PBE C 08Apr2002                   </c></rc>
    <rc><c>   1</c><c>O </c><c>     16.00000000</c><c>      6.00000000</c><c>  PAW_PBE O 08Apr2002                   </c></rc>
   </set>
  </array>
 </atominfo>
 <structure name="initialpos" >
  <crystal>
   <varray name="basis" >
    <v>       9.29479980       0.00000000       0.00000000 </v>
    <v>       0.00000000       9.29479980       0.00000000 </v>
    <v>       0.00000000       0.00000000      21.97109985 </v>
   </varray>
   <i name="volume">   1898.15589588 </i>
   <varray name="rec_basis" >
    <v>       0.10758704       0.00000000       0.00000000 </v>
    <v>       0.00000000       0.10758704       0.00000000 </v>
    <v>       0.00000000       0.00000000       0.04551434 </v>
   </varray>
  </crystal>
  <varray name="positions" >
   <v>       0.00136000       0.99913000       0.31262000 </v>
   <v>       0.25099000       0.24891000       0.31260000 </v>
   <v>       0.00000000       0.25000000       0.00000000 </v>
   <v>       0.25000000       0.00000000       0.00000000 </v>
   <v>       0.00000000       0.00000000       0.10576000 </v>
   <v>       0.25000000       0.25000000       0.10576000 </v>
   <v>       0.00048000       0.24969000       0.21001000 </v>
   <v>       0.24992000       0.00029000       0.20961000 </v>
   <v>       0.49883000       0.99980000       0.31222000 </v>
   <v>       0.75100000       0.24176000       0.31226000 </v>
   <v>       0.50000000       0.25000000       0.00000000 </v>
   <v>       0.75000000       0.00000000       0.00000000 </v>
   <v>       0.50000000       0.00000000       0.10576000 </v>
   <v>       0.75000000       0.25000000       0.10576000 </v>
   <v>       0.50015000       0.24987000       0.21005000 </v>
   <v>       0.75009000       0.99866000       0.20967000 </v>
   <v>       0.00826000       0.49921000       0.31225000 </v>
   <v>       0.25031000       0.75123000       0.31222000 </v>
   <v>       0.00000000       0.75000000       0.00000000 </v>
   <v>       0.25000000       0.50000000       0.00000000 </v>
   <v>       0.00000000       0.50000000       0.10576000 </v>
   <v>       0.25000000       0.75000000       0.10576000 </v>
   <v>       0.00030000       0.75007000       0.21006000 </v>
   <v>       0.25154000       0.50000000       0.20965000 </v>
   <v>       0.49852000       0.50005000       0.31445000 </v>
   <v>       0.75012000       0.75147000       0.31453000 </v>
   <v>       0.50000000       0.75000000       0.00000000 </v>
   <v>       0.75000000       0.50000000       0.00000000 </v>
   <v>       0.50000000       0.50000000       0.10576000 </v>
   <v>       0.75000000       0.75000000       0.10576000 </v>
   <v>       0.50056000       0.74959000       0.21046000 </v>
   <v>       0.74850000       0.50165000       0.21118000 </v>
   <v>       0.25000000       0.25000000       0.00000000 </v>
   <v>       0.00000000       0.00000000       0.00000000 </v>
   <v>       0.24954000       0.00059000       0.31645000 </v>
   <v>       0.00062000       0.24952000       0.31653000 </v>
   <v>       0.25059000       0.24994000       0.21136000 </v>
   <v>       0.00017000       0.99955000       0.21137000 </v>
   <v>       0.25000000       0.00000000       0.10576000 </v>
   <v>       0.00000000       0.25000000       0.10576000 </v>
   <v>       0.75000000       0.25000000       0.00000000 </v>
   <v>       0.50000000       0.00000000       0.00000000 </v>
   <v>       0.75052000       0.99862000       0.31701000 </v>
   <v>       0.49948000       0.25078000       0.31665000 </v>
   <v>       0.75042000       0.25019000       0.21206000 </v>
   <v>       0.50013000       0.00038000       0.21091000 </v>
   <v>       0.75000000       0.00000000       0.10576000 </v>
   <v>       0.50000000       0.25000000       0.10576000 </v>
   <v>       0.25000000       0.75000000       0.00000000 </v>
   <v>       0.00000000       0.50000000       0.00000000 </v>
   <v>       0.25151000       0.49967000       0.31697000 </v>
   <v>       0.99940000       0.75067000       0.31666000 </v>
   <v>       0.24969000       0.74999000       0.21093000 </v>
   <v>       0.99995000       0.49977000       0.21206000 </v>
   <v>       0.25000000       0.50000000       0.10576000 </v>
   <v>       0.00000000       0.75000000       0.10576000 </v>
   <v>       0.75000000       0.75000000       0.00000000 </v>
   <v>       0.50000000       0.50000000       0.00000000 </v>
   <v>       0.75285000       0.49789000       0.34046000 </v>
   <v>       0.49354000       0.75647000       0.31398000 </v>
   <v>       0.75058000       0.75039000       0.21117000 </v>
   <v>       0.49977000       0.49959000       0.21109000 </v>
   <v>       0.75000000       0.50000000       0.10576000 </v>
   <v>       0.50000000       0.75000000       0.10576000 </v>
   <v>       0.68497000       0.56579000       0.39143000 </v>
  </varray>
  <varray name="selective"  type="logical" >
   <v type="logical" >  T  T  T </v>
   <v type="logical" >  T  T  T </v>
   <v type="logical" >  F  F  F </v>
   <v type="logical" >  F  F  F </v>
   <v type="logical" >  F  F  F </v>
   <v type="logical" >  F  F  F </v>
   <v type="logical" >  T  T  T </v>
   <v type="logical" >  T  T  T </v>
   <v type="logical" >  T  T  T </v>
   <v type="logical" >  T  T  T </v>
   <v type="logical" >  F  F  F </v>
   <v type="logical" >  F  F  F </v>
   <v type="logical" >  F  F  F </v>
   <v type="logical" >  F  F  F </v>
   <v type="logical" >  T  T  T </v>
   <v type="logical" >  T  T  T </v>
   <v type="logical" >  T  T  T </v>
   <v type="logical" >  T  T  T </v>
   <v type="logical" >  F  F  F </v>
   <v type="logical" >  F  F  F </v>
   <v type="logical" >  F  F  F </v>
   <v type="logical" >  F  F  F </v>
   <v type="logical" >  T  T  T </v>
   <v type="logical" >  T  T  T </v>
   <v type="logical" >  T  T  T </v>
   <v type="logical" >  T  T  T </v>
   <v type="logical" >  F  F  F </v>
   <v type="logical" >  F  F  F </v>
   <v type="logical" >  F  F  F </v>
   <v type="logical" >  F  F  F </v>
   <v type="logical" >  T  T  T </v>
   <v type="logical" >  T  T  T </v>
   <v type="logical" >  F  F  F </v>
   <v type="logical" >  F  F  F </v>
   <v type="logical" >  T  T  T </v>
   <v type="logical" >  T  T  T </v>
   <v type="logical" >  T  T  T </v>
   <v type="logical" >  T  T  T </v>
   <v type="logical" >  F  F  F </v>
   <v type="logical" >  F  F  F </v>
   <v type="logical" >  F  F  F </v>
   <v type="logical" >  F  F  F </v>
   <v type="logical" >  T  T  T </v>
   <v type="logical" >  T  T  T </v>
   <v type="logical" >  T  T  T </v>
   <v type="logical" >  T  T  T </v>
   <v type="logical" >  F  F  F </v>
   <v type="logical" >  F  F  F </v>
   <v type="logical" >  F  F  F </v>
   <v type="logical" >  F  F  F </v>
   <v type="logical" >  T  T  T </v>
   <v type="logical" >  T  T  T </v>
   <v type="logical" >  T  T  T </v>
   <v type="logical" >  T  T  T </v>
   <v type="logical" >  F  F  F </v>
   <v type="logical" >  F  F  F </v>
   <v type="logical" >  F  F  F </v>
   <v type="logical" >  F  F  F </v>
   <v type="logical" >  T  T  T </v>
   <v type="logical" >  T  T  T </v>
   <v type="logical" >  T  T  T </v>
   <v type="logical" >  T  T  T </v>
   <v type="logical" >  F  F  F </v>
   <v type="logical" >  F  F  F </v>
   <v type="logical" >  T  T  T </v>
  </varray>
  <nose>
   <v>      -3.00000000       0.00000000       0.00010000       0.00010000 </v>
  </nose>
 </structure>
 <calculation>
  <scstep>
   <time name="dav">   30.93   31.00</time>
   <time name="total">   31.53   32.95</time>
   <energy>
    <i name="alphaZ">   1649.05367391 </i>
    <i name="ewald"> 134349.42860197 </i>
    <i name="hartreedc">-176084.20370585 </i>
    <i name="XCdc">   1406.62616833 </i>
    <i name="pawpsdc">  36999.11784765 </i>
    <i name="pawaedc"> -36263.23664038 </i>
    <i name="eentropy">     -0.02476946 </i>
    <i name="bandstr">  -5616.04265036 </i>
    <i name="atom">  48333.26757577 </i>
    <i name="e_fr_energy">   4773.98610159 </i>
    <i name="e_wo_entrp">   4774.01087104 </i>
    <i name="e_0_energy">   4773.99848632 </i>
   </energy>
  </scstep>
  <scstep>
   <time name="dav">   32.96   32.97</time>
   <time name="total">   32.97   32.97</time>
   <energy>
    <i name="e_fr_energy">   -533.16527817 </i>
    <i name="e_wo_entrp">   -533.15402064 </i>
    <i name="e_0_energy">   -533.15964941 </i>
   </energy>
  </scstep>
  <scstep>
   <time name="dav">   32.43   32.43</time>
   <time name="total">   32.44   32.44</time>
   <energy>
    <i name="e_fr_energy">   -898.73996052 </i>
    <i name="e_wo_entrp">   -898.71861387 </i>
    <i name="e_0_energy">   -898.72928719 </i>
   </energy>
  </scstep>
  <scstep>
   <time name="dav">   35.24   35.25</time>
   <time name="total">   35.25   35.25</time>
   <energy>
    <i name="e_fr_energy">   -913.10274011 </i>
    <i name="e_wo_entrp">   -913.08113898 </i>
    <i name="e_0_energy">   -913.09193954 </i>
   </energy>
  </scstep>
  <scstep>
   <time name="dav">   34.07   34.07</time>
   <time name="total">   35.71   35.71</time>
   <energy>
    <i name="e_fr_energy">   -913.35629044 </i>
    <i name="e_wo_entrp">   -913.33468467 </i>
    <i name="e_0_energy">   -913.34548755 </i>
   </energy>
  </scstep>
  <scstep>
   <time name="dav">   32.14   32.15</time>
   <time name="total">   34.26   34.26</time>
   <energy>
    <i name="e_fr_energy">   -760.94298029 </i>
    <i name="e_wo_entrp">   -760.91703981 </i>
    <i name="e_0_energy">   -760.93001005 </i>
   </energy>
  </scstep>
  <scstep>
   <time name="dav">   37.85   37.85</time>
   <time name="total">   39.97   39.97</time>
   <energy>
    <i name="e_fr_energy">   -756.40376170 </i>
    <i name="e_wo_entrp">   -756.37095754 </i>
    <i name="e_0_energy">   -756.38735962 </i>
   </energy>
  </scstep>
  <scstep>
   <time name="dav">   34.89   34.89</time>
   <time name="total">   37.00   37.00</time>
   <energy>
    <i name="e_fr_energy">   -751.17720980 </i>
    <i name="e_wo_entrp">   -751.15744491 </i>
    <i name="e_0_energy">   -751.16732735 </i>
   </energy>
  </scstep>
  <scstep>
   <time name="dav">   35.83   35.85</time>
   <time name="total">   37.96   37.98</time>
   <energy>
    <i name="e_fr_energy">   -750.16732937 </i>
    <i name="e_wo_entrp">   -750.14510078 </i>
    <i name="e_0_energy">   -750.15621508 </i>
   </energy>
  </scstep>
  <scstep>
   <time name="dav">   36.21   36.38</time>
   <time name="total">   38.33   38.70</time>
   <energy>
    <i name="e_fr_energy">   -748.11860609 </i>
    <i name="e_wo_entrp">   -748.10278509 </i>
    <i name="e_0_energy">   -748.11069559 </i>
   </energy>
  </scstep>
  <scstep>
   <time name="dav">   35.02   35.03</time>
   <time name="total">   37.15   37.15</time>
   <energy>
    <i name="e_fr_energy">   -748.98537733 </i>
    <i name="e_wo_entrp">   -748.96685939 </i>
    <i name="e_0_energy">   -748.97611836 </i>
   </energy>
  </scstep>
  <scstep>
   <time name="dav">   34.44   34.59</time>
   <time name="total">   36.57   36.71</time>
   <energy>
    <i name="e_fr_energy">   -747.61107247 </i>
    <i name="e_wo_entrp">   -747.59336716 </i>
    <i name="e_0_energy">   -747.60221981 </i>
   </energy>
  </scstep>
  <scstep>
   <time name="dav">   33.16   33.16</time>
   <time name="total">   35.31   35.31</time>
   <energy>
    <i name="e_fr_energy">   -748.93251671 </i>
    <i name="e_wo_entrp">   -748.91022009 </i>
    <i name="e_0_energy">   -748.92136840 </i>
   </energy>
  </scstep>
  <scstep>
   <time name="dav">   35.50   35.74</time>
   <time name="total">   37.68   37.93</time>
   <energy>
    <i name="e_fr_energy">   -750.43204593 </i>
    <i name="e_wo_entrp">   -750.41880810 </i>
    <i name="e_0_energy">   -750.42542701 </i>
   </energy>
  </scstep>
  <scstep>
   <time name="dav">   35.30   35.31</time>
   <time name="total">   37.44   37.45</time>
   <energy>
    <i name="e_fr_energy">   -747.59031027 </i>
    <i name="e_wo_entrp">   -747.57312280 </i>
    <i name="e_0_energy">   -747.58171653 </i>
   </energy>
  </scstep>
  <scstep>
   <time name="dav">   33.30   33.30</time>
   <time name="total">   35.46   35.47</time>
   <energy>
    <i name="e_fr_energy">   -747.59383930 </i>
    <i name="e_wo_entrp">   -747.57645708 </i>
    <i name="e_0_energy">   -747.58514819 </i>
   </energy>
  </scstep>
  <scstep>
   <time name="dav">   33.97   33.97</time>
   <time name="total">   36.11   36.11</time>
   <energy>
    <i name="e_fr_energy">   -747.59651941 </i>
    <i name="e_wo_entrp">   -747.57883184 </i>
    <i name="e_0_energy">   -747.58767563 </i>
   </energy>
  </scstep>
  <scstep>
   <time name="dav">   30.73   30.74</time>
   <time name="total">   32.88   32.88</time>
   <energy>
    <i name="e_fr_energy">   -747.59832396 </i>
    <i name="e_wo_entrp">   -747.58063696 </i>
    <i name="e_0_energy">   -747.58948046 </i>
   </energy>
  </scstep>
  <scstep>
   <time name="dav">   29.60   29.60</time>
   <time name="total">   31.75   31.75</time>
   <energy>
    <i name="e_fr_energy">   -747.59969643 </i>
    <i name="e_wo_entrp">   -747.58214881 </i>
    <i name="e_0_energy">   -747.59092262 </i>
   </energy>
  </scstep>
  <scstep>
   <time name="dav">   28.40   28.40</time>
   <time name="total">   30.54   30.54</time>
   <energy>
    <i name="e_fr_energy">   -747.60059657 </i>
    <i name="e_wo_entrp">   -747.58298020 </i>
    <i name="e_0_energy">   -747.59178838 </i>
   </energy>
  </scstep>
  <scstep>
   <time name="dav">   28.73   28.73</time>
   <time name="total">   30.86   30.86</time>
   <energy>
    <i name="e_fr_energy">   -747.60215263 </i>
    <i name="e_wo_entrp">   -747.58452151 </i>
    <i name="e_0_energy">   -747.59333707 </i>
   </energy>
  </scstep>
  <scstep>
   <time name="dav">   28.19   28.19</time>
   <time name="total">   30.32   30.32</time>
   <energy>
    <i name="e_fr_energy">   -747.60364090 </i>
    <i name="e_wo_entrp">   -747.58604451 </i>
    <i name="e_0_energy">   -747.59484271 </i>
   </energy>
  </scstep>
  <scstep>
   <time name="dav">   28.40   28.40</time>
   <time name="total">   30.53   30.53</time>
   <energy>
    <i name="e_fr_energy">   -747.60452357 </i>
    <i name="e_wo_entrp">   -747.58692874 </i>
    <i name="e_0_energy">   -747.59572615 </i>
   </energy>
  </scstep>
  <scstep>
   <time name="dav">   27.04   27.04</time>
   <time name="total">   29.18   29.18</time>
   <energy>
    <i name="e_fr_energy">   -747.60484085 </i>
    <i name="e_wo_entrp">   -747.58724425 </i>
    <i name="e_0_energy">   -747.59604255 </i>
   </energy>
  </scstep>
  <scstep>
   <time name="dav">   26.10   26.11</time>
   <time name="total">   28.24   28.24</time>
   <energy>
    <i name="e_fr_energy">   -747.60499452 </i>
    <i name="e_wo_entrp">   -747.58739391 </i>
    <i name="e_0_energy">   -747.59619422 </i>
   </energy>
  </scstep>
  <scstep>
   <time name="dav">   24.94   24.94</time>
   <time name="total">   27.08   27.08</time>
   <energy>
    <i name="e_fr_energy">   -747.60503226 </i>
    <i name="e_wo_entrp">   -747.58743234 </i>
    <i name="e_0_energy">   -747.59623230 </i>
   </energy>
  </scstep>
  <scstep>
   <time name="dav">   24.42   24.43</time>
   <time name="total">   26.57   26.58</time>
   <energy>
    <i name="e_fr_energy">   -747.60504956 </i>
    <i name="e_wo_entrp">   -747.58744944 </i>
    <i name="e_0_energy">   -747.59624950 </i>
   </energy>
  </scstep>
  <scstep>
   <time name="dav">   24.22   24.22</time>
   <time name="total">   24.73   24.73</time>
   <energy>
    <i name="alphaZ">   1649.05367391 </i>
    <i name="ewald"> 133170.31598636 </i>
    <i name="hartreedc">-175681.53863029 </i>
    <i name="XCdc">   1402.59330736 </i>
    <i name="pawpsdc">  39535.82563700 </i>
    <i name="pawaedc"> -38825.06685695 </i>
    <i name="eentropy">     -0.01759959 </i>
    <i name="bandstr"> -10332.03814986 </i>
    <i name="atom">  48333.26757577 </i>
    <i name="e_fr_energy">   -747.60505629 </i>
    <i name="e_wo_entrp">   -747.58745670 </i>
    <i name="e_0_energy">   -747.59625649 </i>
   </energy>
  </scstep>
  <structure>
   <crystal>
    <varray name="basis" >
     <v>       9.29479980       0.00000000       0.00000000 </v>
     <v>       0.00000000       9.29479980       0.00000000 </v>
     <v>       0.00000000       0.00000000      21.97109985 </v>
    </varray>
    <i name="volume">   1898.15589588 </i>
    <varray name="rec_basis" >
     <v>       0.10758704       0.00000000       0.00000000 </v>
     <v>       0.00000000       0.10758704       0.00000000 </v>
     <v>       0.00000000       0.00000000       0.04551434 </v>
    </varray>
   </crystal>
   <varray name="positions" >
    <v>       0.00136000       0.99913000       0.31262000 </v>
    <v>       0.25099000       0.24891000       0.31260000 </v>
    <v>       0.00000000       0.25000000       0.00000000 </v>
    <v>       0.25000000       0.00000000       0.00000000 </v>
    <v>       0.00000000       0.00000000       0.10576000 </v>
    <v>       0.25000000       0.25000000       0.10576000 </v>
    <v>       0.00048000       0.24969000       0.21001000 </v>
    <v>       0.24992000       0.00029000       0.20961000 </v>
    <v>       0.49883000       0.99980000       0.31222000 </v>
    <v>       0.75100000       0.24176000       0.31226000 </v>
    <v>       0.50000000       0.25000000       0.00000000 </v>
    <v>       0.75000000       0.00000000       0.00000000 </v>
    <v>       0.50000000       0.00000000       0.10576000 </v>
    <v>       0.75000000       0.25000000       0.10576000 </v>
    <v>       0.50015000       0.24987000       0.21005000 </v>
    <v>       0.75009000       0.99866000       0.20967000 </v>
    <v>       0.00826000       0.49921000       0.31225000 </v>
    <v>       0.25031000       0.75123000       0.31222000 </v>
    <v>       0.00000000       0.75000000       0.00000000 </v>
    <v>       0.25000000       0.50000000       0.00000000 </v>
    <v>       0.00000000       0.50000000       0.10576000 </v>
    <v>       0.25000000       0.75000000       0.10576000 </v>
    <v>       0.00030000       0.75007000       0.21006000 </v>
    <v>       0.25154000       0.50000000       0.20965000 </v>
    <v>       0.49852000       0.50005000       0.31445000 </v>
    <v>       0.75012000       0.75147000       0.31453000 </v>
    <v>       0.50000000       0.75000000       0.00000000 </v>
    <v>       0.75000000       0.50000000       0.00000000 </v>
    <v>       0.50000000       0.50000000       0.10576000 </v>
    <v>       0.75000000       0.75000000       0.10576000 </v>
    <v>       0.50056000       0.74959000       0.21046000 </v>
    <v>       0.74850000       0.50165000       0.21118000 </v>
    <v>       0.25000000       0.25000000       0.00000000 </v>
    <v>       0.00000000       0.00000000       0.00000000 </v>
    <v>       0.24954000       0.00059000       0.31645000 </v>
    <v>       0.00062000       0.24952000       0.31653000 </v>
    <v>       0.25059000       0.24994000       0.21136000 </v>
    <v>       0.00017000       0.99955000       0.21137000 </v>
    <v>       0.25000000       0.00000000       0.10576000 </v>
    <v>       0.00000000       0.25000000       0.10576000 </v>
    <v>       0.75000000       0.25000000       0.00000000 </v>
    <v>       0.50000000       0.00000000       0.00000000 </v>
    <v>       0.75052000       0.99862000       0.31701000 </v>
    <v>       0.49948000       0.25078000       0.31665000 </v>
    <v>       0.75042000       0.25019000       0.21206000 </v>
    <v>       0.50013000       0.00038000       0.21091000 </v>
    <v>       0.75000000       0.00000000       0.10576000 </v>
    <v>       0.50000000       0.25000000       0.10576000 </v>
    <v>       0.25000000       0.75000000       0.00000000 </v>
    <v>       0.00000000       0.50000000       0.00000000 </v>
    <v>       0.25151000       0.49967000       0.31697000 </v>
    <v>       0.99940000       0.75067000       0.31666000 </v>
    <v>       0.24969000       0.74999000       0.21093000 </v>
    <v>       0.99995000       0.49977000       0.21206000 </v>
    <v>       0.25000000       0.50000000       0.10576000 </v>
    <v>       0.00000000       0.75000000       0.10576000 </v>
    <v>       0.75000000       0.75000000       0.00000000 </v>
    <v>       0.50000000       0.50000000       0.00000000 </v>
    <v>       0.74994000       0.50210000       0.38344000 </v>
    <v>       0.49354000       0.75647000       0.31398000 </v>
    <v>       0.75058000       0.75039000       0.21117000 </v>
    <v>       0.49977000       0.49959000       0.21109000 </v>
    <v>       0.75000000       0.50000000       0.10576000 </v>
    <v>       0.50000000       0.75000000       0.10576000 </v>
    <v>       0.68206000       0.57000000       0.43441000 </v>
   </varray>
  </structure>
  <varray name="forces" >
   <v>       0.17940380      -0.02032243      -0.09829021 </v>
   <v>       0.01420229      -0.18839229      -0.08256041 </v>
   <v>      -0.00747197       0.00594088       1.27513087 </v>
   <v>       0.00372447      -0.00505300       1.17534406 </v>
   <v>       0.00311119       0.00214504      -0.21663555 </v>
   <v>       0.00012016      -0.00181746      -0.13845187 </v>
   <v>      -0.10967407       0.12186925       0.00110267 </v>
   <v>      -0.00298240      -0.00730001       0.04523163 </v>
   <v>      -0.08121418      -0.01073903      -0.10008396 </v>
   <v>      -0.02490915      -0.19024646       1.27369951 </v>
   <v>       0.00929651       0.00858135       1.27523470 </v>
   <v>       0.01320596       0.01143354       1.23574186 </v>
   <v>       0.01124602      -0.04381373      -0.19501675 </v>
   <v>       0.00457198      -0.00603694      -0.09925243 </v>
   <v>       0.03580844       0.09036152       0.01711704 </v>
   <v>      -0.00292534       0.09171251      -0.03535223 </v>
   <v>       0.18087140       0.00536687       1.30979754 </v>
   <v>       0.00619588       0.08425217      -0.07860474 </v>
   <v>      -0.00991514      -0.00943358       1.27621642 </v>
   <v>      -0.01226893      -0.01377427       1.23485549 </v>
   <v>       0.00810479      -0.00076556      -0.17783027 </v>
   <v>       0.04481547      -0.00791393      -0.10931847 </v>
   <v>      -0.08608822      -0.04219935       0.01497848 </v>
   <v>      -0.12521893       0.00917337      -0.04549042 </v>
   <v>      -1.32805606      -0.12737601       0.38815373 </v>
   <v>       0.13017483       1.32394755       0.38260327 </v>
   <v>       0.00433603      -0.00472469       1.26482029 </v>
   <v>       0.00295726      -0.00308453       1.32049941 </v>
   <v>      -0.00554323      -0.00821167      -0.24826995 </v>
   <v>       0.01162121       0.00859176      -0.15955270 </v>
   <v>      -0.08995591       0.10244771      -0.14841792 </v>
   <v>       0.16295292      -0.15157035      -2.02565489 </v>
   <v>      -0.00027224       0.01422378      -0.57236300 </v>
   <v>      -0.01570539      -0.00102587      -0.57499719 </v>
   <v>      -0.04638837       0.04616906       0.04305817 </v>
   <v>      -0.22320408       0.21643568      -0.00408144 </v>
   <v>      -0.01003476       0.02138823       0.03016845 </v>
   <v>      -0.02382169       0.01068493       0.02856089 </v>
   <v>      -0.00668902       0.00940256      -0.58975528 </v>
   <v>      -0.00508568       0.00779589      -0.55914549 </v>
   <v>      -0.00688160       0.00220862      -0.60004364 </v>
   <v>      -0.00286479       0.00630166      -0.57841768 </v>
   <v>      -0.11477409      -0.03098375      -0.13863453 </v>
   <v>       0.25670128       0.24157962       0.06600454 </v>
   <v>      -0.00448111       0.14823840       0.02655028 </v>
   <v>       0.01960687      -0.03809590       0.07919980 </v>
   <v>       0.00695443       0.00133211      -0.51843283 </v>
   <v>       0.04003293       0.01496398      -0.60322499 </v>
   <v>      -0.00775027       0.00103371      -0.57628201 </v>
   <v>      -0.00452517       0.00456945      -0.60193694 </v>
   <v>       0.03713652       0.11371260      -0.13810217 </v>
   <v>      -0.23055911      -0.23755142       0.06074236 </v>
   <v>       0.03872059      -0.02131283       0.08195597 </v>
   <v>      -0.15460744       0.00577347       0.02010130 </v>
   <v>       0.00128823      -0.00567623      -0.52077352 </v>
   <v>      -0.01272648      -0.03600696      -0.60259452 </v>
   <v>      -0.01641439      -0.01899910      -0.60596832 </v>
   <v>       0.01720748       0.01411146      -0.60854110 </v>
   <v>      -2.33320401       2.37035826       3.77364683 </v>
   <v>       0.71713543      -0.71849381       0.49787313 </v>
   <v>      -0.05275742      -0.27568099       0.49631261 </v>
   <v>       0.27295886       0.05029558       0.49783927 </v>
   <v>      -0.00431945       0.00776301       0.08714193 </v>
   <v>       0.00367072      -0.00085144      -0.67104195 </v>
   <v>       2.9251561  <energy>
   <i name="e_fr_energy">   -750.44703822 </i>
   <i name="e_wo_entrp">   -750.44044865 </i>
   <i name="e_0_energy">     -0.01317913 </i>
  </energy>
  <time name="totalsc">  960.94  963.68</time>
 </calculation>
704      -3.56563212     -18.12651363 </v>
  </varray>
  <energy>
   <i name="e_fr_energy">   -748.94550023 </i>
   <i name="e_wo_entrp">   -748.93415186 </i>
   <i name="e_0_energy">     -0.02269673 </i>
  </energy>
  <time name="totalsc">  960.64  963.91</time>
 </calculation>
 <calculation>
  <scstep>
   <time name="dav">   32.09   32.09</time>
   <time name="total">   34.22   35.27</time>
   <energy>
    <i name="alphaZ">   1649.05367391 </i>
    <i name="ewald"> 134957.48983525 </i>
    <i name="hartreedc">-177493.49931145 </i>
    <i name="XCdc">   1403.99766822 </i>
    <i name="pawpsdc">  39606.79228246 </i>
    <i name="pawaedc"> -38896.04905307 </i>
    <i name="eentropy">     -0.01946252 </i>
    <i name="bandstr"> -10310.73162729 </i>
    <i name="atom">  48333.26757577 </i>
    <i name="e_fr_energy">   -749.69841873 </i>
    <i name="e_wo_entrp">   -749.67895621 </i>
    <i name="e_0_energy">   -749.68868747 </i>
   </energy>
  </scstep>
  <scstep>
   <time name="dav">   33.19   33.19</time>
   <time name="total">   35.31   35.31</time>
   <energy>
    <i name="e_fr_energy">   -747.61239584 </i>
    <i name="e_wo_entrp">   -747.59453176 </i>
    <i name="e_0_energy">   -747.60346380 </i>
   </energy>
  </scstep>
  <scstep>
   <time name="dav">   29.68   29.68</time>
   <time name="total">   31.83   31.83</time>
   <energy>
    <i name="e_fr_energy">   -747.61214631 </i>
    <i name="e_wo_entrp">   -747.59453963 </i>
    <i name="e_0_energy">   -747.60334297 </i>
   </energy>
  </scstep>
  <scstep>
   <time name="dav">   27.35   27.35</time>
   <time name="total">   27.86   27.87</time>
   <energy>
    <i name="alphaZ">   1649.05367391 </i>
    <i name="ewald"> 133165.74440975 </i>
    <i name="hartreedc">-175677.17818087 </i>
    <i name="XCdc">   1402.59546342 </i>
    <i name="pawpsdc">  39536.26706530 </i>
    <i name="pawaedc"> -38825.50754676 </i>
    <i name="eentropy">     -0.01762747 </i>
    <i name="bandstr"> -10331.83698450 </i>
    <i name="atom">  48333.26757577 </i>
    <i name="e_fr_energy">   -747.61215144 </i>
    <i name="e_wo_entrp">   -747.59452398 </i>
    <i name="e_0_energy">   -747.60333771 </i>
   </energy>
  </scstep>
  <structure>
   <crystal>
    <varray name="basis" >
     <v>       9.29479980       0.00000000       0.00000000 </v>
     <v>       0.00000000       9.29479980       0.00000000 </v>
     <v>       0.00000000       0.00000000      21.97109985 </v>
    </varray>
    <i name="volume">   1898.15589588 </i>
    <varray name="rec_basis" >
     <v>       0.10758704       0.00000000       0.00000000 </v>
     <v>       0.00000000       0.10758704       0.00000000 </v>
     <v>       0.00000000       0.00000000       0.04551434 </v>
    </varray>
   </crystal>
   <varray name="positions" >
    <v>       0.00136265       0.99913013       0.31261941 </v>
    <v>       0.25098977       0.24890718       0.31259946 </v>
    <v>       0.00000000       0.25000000       0.00000000 </v>
    <v>       0.25000000       0.00000000       0.00000000 </v>
    <v>       0.00000000       0.00000000       0.10576000 </v>
    <v>       0.25000000       0.25000000       0.10576000 </v>
    <v>       0.00047857       0.24969151       0.21001010 </v>
    <v>       0.24992005       0.00028972       0.20961027 </v>
    <v>       0.49882843       0.99979989       0.31221958 </v>
    <v>       0.75099932       0.24175624       0.31226612 </v>
    <v>       0.50000000       0.25000000       0.00000000 </v>
    <v>       0.75000000       0.00000000       0.00000000 </v>
    <v>       0.50000000       0.00000000       0.10576000 </v>
    <v>       0.75000000       0.25000000       0.10576000 </v>
    <v>       0.50015045       0.24987107       0.21005014 </v>
    <v>       0.75008998       0.99866155       0.20966963 </v>
    <v>       0.00826369       0.49921037       0.31225634 </v>
    <v>       0.25030997       0.75123149       0.31221967 </v>
    <v>       0.00000000       0.75000000       0.00000000 </v>
    <v>       0.25000000       0.50000000       0.00000000 </v>
    <v>       0.00000000       0.50000000       0.10576000 </v>
    <v>       0.25000000       0.75000000       0.10576000 </v>
    <v>       0.00029889       0.75006937       0.21006014 </v>
    <v>       0.25153798       0.50000005       0.20964958 </v>
    <v>       0.49850097       0.50004852       0.31445111 </v>
    <v>       0.75012140       0.75148890       0.31453106 </v>
    <v>       0.50000000       0.75000000       0.00000000 </v>
    <v>       0.75000000       0.50000000       0.00000000 </v>
    <v>       0.50000000       0.50000000       0.10576000 </v>
    <v>       0.75000000       0.75000000       0.10576000 </v>
    <v>       0.50055888       0.74959114       0.21045921 </v>
    <v>       0.74850250       0.50164757       0.21116939 </v>
    <v>       0.25000000       0.25000000       0.00000000 </v>
    <v>       0.00000000       0.00000000       0.00000000 </v>
    <v>       0.24953976       0.00059015       0.31645009 </v>
    <v>       0.00061664       0.24952326       0.31653075 </v>
    <v>       0.25058966       0.24994011       0.21136014 </v>
    <v>       0.00016982       0.99955029       0.21137014 </v>
    <v>       0.25000000       0.00000000       0.10576000 </v>
    <v>       0.00000000       0.25000000       0.10576000 </v>
    <v>       0.75000000       0.25000000       0.00000000 </v>
    <v>       0.50000000       0.00000000       0.00000000 </v>
    <v>       0.75051857       0.99862021       0.31700883 </v>
    <v>       0.49948380       0.25078293       0.31665100 </v>
    <v>       0.75041981       0.25019163       0.21206021 </v>
    <v>       0.50013008       0.00037937       0.21091058 </v>
    <v>       0.75000000       0.00000000       0.10576000 </v>
    <v>       0.50000000       0.25000000       0.10576000 </v>
    <v>       0.25000000       0.75000000       0.00000000 </v>
    <v>       0.00000000       0.50000000       0.00000000 </v>
    <v>       0.25150977       0.49967129       0.31696885 </v>
    <v>       0.99939712       0.75066629       0.31666099 </v>
    <v>       0.24969059       0.74998983       0.21093058 </v>
    <v>       0.99994825       0.49977014       0.21206019 </v>
    <v>       0.25000000       0.50000000       0.10576000 </v>
    <v>       0.00000000       0.75000000       0.10576000 </v>
    <v>       0.75000000       0.75000000       0.00000000 </v>
    <v>       0.50000000       0.50000000       0.00000000 </v>
    <v>       0.74990669       0.50215764       0.38354774 </v>
    <v>       0.49355147       0.75645841       0.31398420 </v>
    <v>       0.75057921       0.75038660       0.21117277 </v>
    <v>       0.49977323       0.49959068       0.21109280 </v>
    <v>       0.75000000       0.50000000       0.10576000 </v>
    <v>       0.50000000       0.75000000       0.10576000 </v>
    <v>       0.68208586       0.56994470       0.43446649 </v>
   </varray>
  </structure>
  <varray name="forces" >
   <v>       0.17915533      -0.02030919      -0.09831999 </v>
   <v>       0.01407971      -0.18788587      -0.08268963 </v>
   <v>      -0.00750152       0.00589943       1.27456254 </v>
   <v>       0.00372041      -0.00508285       1.17507755 </v>
   <v>       0.00300294       0.00210678      -0.21686459 </v>
   <v>       0.00008384      -0.00176347      -0.13874896 </v>
   <v>      -0.10978293       0.12185629       0.00103491 </v>
   <v>      -0.00300268      -0.00724933       0.04518132 </v>
   <v>      -0.08073325      -0.01025841      -0.10010437 </v>
   <v>      -0.02535526      -0.19164891       1.26794585 </v>
   <v>       0.00931025       0.00864078       1.27465921 </v>
   <v>       0.01314470       0.01145920       1.23549237 </v>
   <v>       0.01122834      -0.04368666      -0.19548563 </v>
   <v>       0.00453960      -0.00644552      -0.09939397 </v>
   <v>       0.03606515       0.09052018       0.01708994 </v>
   <v>      -0.00290540       0.09161472      -0.03456614 </v>
   <v>       0.18151945       0.00494306       1.30652674 </v>
   <v>       0.00571385       0.08361443      -0.07875870 </v>
   <v>      -0.01003292      -0.00943028       1.27568563 </v>
   <v>      -0.01231605      -0.01371492       1.23458236 </v>
   <v>       0.00845287      -0.00079712      -0.17792305 </v>
   <v>       0.04462292      -0.00793662      -0.10983401 </v>
   <v>      -0.08629750      -0.04248056       0.01488893 </v>
   <v>      -0.12499969       0.00910814      -0.04464122 </v>
   <v>      -1.32602839      -0.12683750       0.38373311 </v>
   <v>       0.12977996       1.32143812       0.37782719 </v>
   <v>       0.00426954      -0.00464293       1.26422056 </v>
   <v>       0.00291978      -0.00302787       1.31958473 </v>
   <v>      -0.00614326      -0.00816457      -0.24868315 </v>
   <v>       0.01150835       0.00913130      -0.16002036 </v>
   <v>      -0.08946492       0.10186599      -0.14817595 </v>
   <v>       0.16282635      -0.15169339      -2.01768050 </v>
   <v>      -0.00031365       0.01420649      -0.57244092 </v>
   <v>      -0.01571085      -0.00098528      -0.57516425 </v>
   <v>      -0.04632720       0.04605097       0.04321750 </v>
   <v>      -0.22405354       0.21711170      -0.00235508 </v>
   <v>      -0.01009096       0.02138670       0.03067026 </v>
   <v>      -0.02386827       0.01072227       0.02900268 </v>
   <v>      -0.00671707       0.00941351      -0.58947282 </v>
   <v>      -0.00508401       0.00778629      -0.55888094 </v>
   <v>      -0.00691442       0.00224675      -0.60007251 </v>
   <v>      -0.00288122       0.00625656      -0.57856150 </v>
   <v>      -0.11489649      -0.03049568      -0.13814286 </v>
   <v>       0.25734965       0.24186408       0.06754357 </v>
   <v>      -0.00444213       0.14757896       0.02775683 </v>
   <v>       0.01958295      -0.03811748       0.07971268 </v>
   <v>       0.00689401       0.00129274      -0.51831605 </v>
   <v>       0.03997692       0.01493546      -0.60279322 </v>
   <v>      -0.00771989       0.00102133      -0.57637362 </v>
   <v>      -0.00461636       0.00456967      -0.60200025 </v>
   <v>       0.03667867       0.11374481      -0.13768543 </v>
   <v>      -0.23093839      -0.23777728       0.06227923 </v>
   <v>       0.03870146      -0.02132623       0.08254788 </v>
   <v>      -0.15413031       0.00574903       0.02123494 </v>
   <v>       0.00133198      -0.00563254      -0.52065339 </v>
   <v>      -0.01269719      -0.03594273      -0.60214692 </v>
   <v>      -0.01640416      -0.01913192      -0.60597926 </v>
   <v>       0.01731536       0.01406431      -0.60854747 </v>
   <v>      -2.33318377       2.37111669       3.77252554 </v>
   <v>       0.71779896      -0.71898441       0.49937599 </v>
   <v>      -0.05262131      -0.27481526       0.49632912 </v>
   <v>       0.27210995       0.05018973       0.49770004 </v>
   <v>      -0.00431775       0.00775714       0.08669532 </v>
   <v>       0.00372481      -0.00090534      -0.67046282 </v>
   <v>       2.92508466      -2.94409345      -6.25274500 </v>
  </varray>
  <varray name="stress" >
   <v>     -31.73742637       1.59970426       3.48637654 </v>
   <v>       1.59970463     -31.79660956      -3.56136091 </v>
   <v>       3.48637651      -3.56136122     -18.11063167 </v>
  </varray>
  <energy>
   <i name="e_fr_energy">   -747.61215144 </i>
   <i name="e_wo_entrp">   -747.60333771 </i>
   <i name="e_0_energy">     -0.01762747 </i>
  </energy>
  <time name="totalsc">  161.75  164.15</time>
 </calculation>
 <calculation>
  <scstep>
   <time name="dav">   31.28   31.38</time>
   <time name="total">   33.94   34.74</time>
   <energy>
    <i name="alphaZ">   1649.05367391 </i>
    <i name="ewald"> 135572.64800185 </i>
    <i name="hartreedc">-178123.73506488 </i>
    <i name="XCdc">   1404.59727661 </i>
    <i name="pawpsdc">  39641.59903838 </i>
    <i name="pawaedc"> -38930.87450994 </i>
    <i name="eentropy">     -0.01319402 </i>
    <i name="bandstr"> -10296.99408778 </i>
    <i name="atom">  48333.26757577 </i>
    <i name="e_fr_energy">   -750.45129010 </i>
    <i name="e_wo_entrp">   -750.43809608 </i>
    <i name="e_0_energy">   -750.44469309 </i>
   </energy>
  </scstep>
  <scstep>
   <time name="dav">   34.16   34.16</time>
   <time name="total">   36.31   36.36</time>
   <energy>
    <i name="e_fr_energy">   -747.62734542 </i>
    <i name="e_wo_entrp">   -747.60924532 </i>
    <i name="e_0_energy">   -747.61829537 </i>
   </energy>
  </scstep>
  <scstep>
   <time name="dav">   30.81   30.81</time>
   <time name="total">   32.96   32.96</time>
   <energy>
    <i name="e_fr_energy">   -747.62632516 </i>
    <i name="e_wo_entrp">   -747.60868066 </i>
    <i name="e_0_energy">   -747.61750291 </i>
   </energy>
  </scstep>
  <scstep>
   <time name="dav">   28.11   28.11</time>
   <time name="total">   30.26   30.26</time>
   <energy>
    <i name="e_fr_energy">   -747.62634143 </i>
    <i name="e_wo_entrp">   -747.60865391 </i>
    <i name="e_0_energy">   -747.61749767 </i>
   </energy>
  </scstep>
  <scstep>
   <time name="dav">   27.88   27.89</time>
   <time name="total">   28.41   28.41</time>
   <energy>
    <i name="alphaZ">   1649.05367391 </i>
    <i name="ewald"> 133156.61551612 </i>
    <i name="hartreedc">-175668.63673683 </i>
    <i name="XCdc">   1402.60137287 </i>
    <i name="pawpsdc">  39537.67806479 </i>
    <i name="pawaedc"> -38826.91836834 </i>
    <i name="eentropy">     -0.01767238 </i>
    <i name="bandstr"> -10331.26977131 </i>
    <i name="atom">  48333.26757577 </i>
    <i name="e_fr_energy">   -747.62634541 </i>
    <i name="e_wo_entrp">   -747.60867303 </i>
    <i name="e_0_energy">   -747.61750922 </i>
   </energy>
  </scstep>
  <structure>
   <crystal>
    <varray name="basis" >
     <v>       9.29479980       0.00000000       0.00000000 </v>
     <v>       0.00000000       9.29479980       0.00000000 </v>
     <v>       0.00000000       0.00000000      21.97109985 </v>
    </varray>
    <i name="volume">   1898.15589588 </i>
    <varray name="rec_basis" >
     <v>       0.10758704       0.00000000       0.00000000 </v>
     <v>       0.00000000       0.10758704       0.00000000 </v>
     <v>       0.00000000       0.00000000       0.04551434 </v>
    </varray>
   </crystal>
   <varray name="positions" >
    <v>       0.00136796       0.99913040       0.31261823 </v>
    <v>       0.25098931       0.24890156       0.31259837 </v>
    <v>       0.00000000       0.25000000       0.00000000 </v>
    <v>       0.25000000       0.00000000       0.00000000 </v>
    <v>       0.00000000       0.00000000       0.10576000 </v>
    <v>       0.25000000       0.25000000       0.10576000 </v>
    <v>       0.00047571       0.24969452       0.21001030 </v>
    <v>       0.24992014       0.00028917       0.20961080 </v>
    <v>       0.49882531       0.99979968       0.31221875 </v>
    <v>       0.75099795       0.24174868       0.31227830 </v>
    <v>       0.50000000       0.25000000       0.00000000 </v>
    <v>       0.75000000       0.00000000       0.00000000 </v>
    <v>       0.50000000       0.00000000       0.10576000 </v>
    <v>       0.75000000       0.25000000       0.10576000 </v>
    <v>       0.50015135       0.24987321       0.21005042 </v>
    <v>       0.75008993       0.99866465       0.20966891 </v>
    <v>       0.00827109       0.49921111       0.31226900 </v>
    <v>       0.25030990       0.75123446       0.31221901 </v>
    <v>       0.00000000       0.75000000       0.00000000 </v>
    <v>       0.25000000       0.50000000       0.00000000 </v>
    <v>       0.00000000       0.50000000       0.10576000 </v>
    <v>       0.25000000       0.75000000       0.10576000 </v>
    <v>       0.00029667       0.75006811       0.21006043 </v>
    <v>       0.25153394       0.50000015       0.20964875 </v>
    <v>       0.49846294       0.50004557       0.31445328 </v>
    <v>       0.75012419       0.75152663       0.31453312 </v>
    <v>       0.50000000       0.75000000       0.00000000 </v>
    <v>       0.75000000       0.50000000       0.00000000 </v>
    <v>       0.50000000       0.50000000       0.10576000 </v>
    <v>       0.75000000       0.75000000       0.10576000 </v>
    <v>       0.50055665       0.74959340       0.21045763 </v>
    <v>       0.74850748       0.50164270       0.21114824 </v>
    <v>       0.25000000       0.25000000       0.00000000 </v>
    <v>       0.00000000       0.00000000       0.00000000 </v>
    <v>       0.24953928       0.00059044       0.31645028 </v>
    <v>       0.00060990       0.24952980       0.31653225 </v>
    <v>       0.25058899       0.24994034       0.21136043 </v>
    <v>       0.00016946       0.99955086       0.21137043 </v>
    <v>       0.25000000       0.00000000       0.10576000 </v>
    <v>       0.00000000       0.25000000       0.10576000 </v>
    <v>       0.75000000       0.25000000       0.00000000 </v>
    <v>       0.50000000       0.00000000       0.00000000 </v>
    <v>       0.75051572       0.99862065       0.31700648 </v>
    <v>       0.49949140       0.25078878       0.31665301 </v>
    <v>       0.75041944       0.25019488       0.21206064 </v>
    <v>       0.50013023       0.00037810       0.21091174 </v>
    <v>       0.75000000       0.00000000       0.10576000 </v>
    <v>       0.50000000       0.25000000       0.10576000 </v>
    <v>       0.25000000       0.75000000       0.00000000 </v>
    <v>       0.00000000       0.50000000       0.00000000 </v>
    <v>       0.25150929       0.49967387       0.31696656 </v>
    <v>       0.99939135       0.75065887       0.31666299 </v>
    <v>       0.24969176       0.74998949       0.21093175 </v>
    <v>       0.99994475       0.49977041       0.21206058 </v>
    <v>       0.25000000       0.50000000       0.10576000 </v>
    <v>       0.00000000       0.75000000       0.10576000 </v>
    <v>       0.75000000       0.75000000       0.00000000 </v>
    <v>       0.50000000       0.50000000       0.00000000 </v>
    <v>       0.74984007       0.50227291       0.38376313 </v>
    <v>       0.49357443       0.75643523       0.31399262 </v>
    <v>       0.75057763       0.75037983       0.21117831 </v>
    <v>       0.49977967       0.49959205       0.21109841 </v>
    <v>       0.75000000       0.50000000       0.10576000 </v>
    <v>       0.50000000       0.75000000       0.10576000 </v>
    <v>       0.68213759       0.56983416       0.43457942 </v>
   </varray>
  </structure>
  <varray name="forces" >
   <v>       0.18044161      -0.01991540      -0.09950179 </v>
   <v>       0.01360771      -0.18774087      -0.08265356 </v>
   <v>      -0.00731298       0.00574790       1.27550152 </v>
   <v>       0.00387566      -0.00516046       1.17735064 </v>
   <v>       0.00300892       0.00198901      -0.21562231 </v>
   <v>       0.00019842      -0.00173896      -0.13760426 </v>
   <v>      -0.10968573       0.12170412       0.00136523 </v>
   <v>      -0.00284028      -0.00725915       0.04583141 </v>
   <v>      -0.08045843      -0.01013452      -0.09995831 </v>
   <v>      -0.02489616      -0.19637808       1.25766608 </v>
   <v>       0.00948197       0.00869748       1.27557947 </v>
   <v>       0.01324651       0.01145019       1.23730519 </v>
   <v>       0.01130714      -0.04344865      -0.19464940 </v>
   <v>       0.00460762      -0.00765036      -0.09854851 </v>
   <v>       0.03650190       0.09068303       0.01708997 </v>
   <v>      -0.00276213       0.09145027      -0.03325499 </v>
   <v>       0.18455406       0.00486464       1.29819889 </v>
   <v>       0.00568775       0.08314024      -0.07883919 </v>
   <v>      -0.01004863      -0.00946280       1.27668366 </v>
   <v>      -0.01221808      -0.01370415       1.23633735 </v>
   <v>       0.00970375      -0.00084877      -0.17700419 </v>
   <v>       0.04440405      -0.00797782      -0.10908060 </v>
   <v>      -0.08645016      -0.04292359       0.01486718 </v>
   <v>      -0.12455607       0.00899730      -0.04320736 </v>
   <v>      -1.32596013      -0.12647109       0.37236128 </v>
   <v>       0.12979240       1.32063649       0.36567433 </v>
   <v>       0.00431673      -0.00455103       1.26509972 </v>
   <v>       0.00304519      -0.00301156       1.31968151 </v>
   <v>      -0.00741579      -0.00808597      -0.24782696 </v>
   <v>       0.01144764       0.01041688      -0.15925355 </v>
   <v>      -0.08880244       0.10111907      -0.14756625 </v>
   <v>       0.16276812      -0.15193966      -2.00535086 </v>
   <v>      -0.00027246       0.01411768      -0.57388451 </v>
   <v>      -0.01553429      -0.00091048      -0.57676610 </v>
   <v>      -0.04595381       0.04569820       0.04340048 </v>
   <v>      -0.22481715       0.21768754       0.00078286 </v>
   <v>      -0.01004590       0.02127446       0.03039401 </v>
   <v>      -0.02370347       0.01078318       0.02861470 </v>
   <v>      -0.00658699       0.00938717      -0.59066672 </v>
   <v>      -0.00486806       0.00769084      -0.55967512 </v>
   <v>      -0.00675924       0.00218952      -0.60103679 </v>
   <v>      -0.00277479       0.00613914      -0.58005909 </v>
   <v>      -0.11494319      -0.02996165      -0.13754466 </v>
   <v>       0.25668689       0.24219901       0.06846573 </v>
   <v>      -0.00422977       0.14608794       0.02840795 </v>
   <v>       0.01963886      -0.03824340       0.07955043 </v>
   <v>       0.00700447       0.00120714      -0.51970533 </v>
   <v>       0.04002578       0.01482781      -0.60316340 </v>
   <v>      -0.00750074       0.00099755      -0.57777989 </v>
   <v>      -0.00451143       0.00448505      -0.60301959 </v>
   <v>       0.03626908       0.11380377      -0.13723712 </v>
   <v>      -0.23146308      -0.23734567       0.06494342 </v>
   <v>       0.03890278      -0.02132118       0.08254351 </v>
   <v>      -0.15282237       0.00568875       0.02178097 </v>
   <v>       0.00155359      -0.00563576      -0.52202614 </v>
   <v>      -0.01245744      -0.03584913      -0.60249669 </v>
   <v>      -0.01611787      -0.01927113      -0.60688395 </v>
   <v>       0.01754282       0.01385203      -0.60944055 </v>
   <v>      -2.33790553       2.36929393       3.78451632 </v>
   <v>       0.71660457      -0.71637515       0.50087261 </v>
   <v>      -0.05221282      -0.27306589       0.49445570 </v>
   <v>       0.27051374       0.04996580       0.49558384 </v>
   <v>      -0.00416489       0.00771985       0.08445045 </v>
   <v>       0.00396928      -0.00102524      -0.67051041 </v>
   <v>       2.9223433  <energy>
   <i name="e_fr_energy">   -750.45129672 </i>
   <i name="e_wo_entrp">   -750.44470516 </i>
   <i name="e_0_energy">     -0.01318313 </i>
  </energy>
  <time name="totalsc">  193.31  196.19</time>
 </calculation>
943      -3.55406885     -18.08478750 </v>
  </varray>
  <energy>
   <i name="e_fr_energy">   -747.62634541 </i>
   <i name="e_wo_entrp">   -747.61750922 </i>
   <i name="e_0_energy">     -0.01767238 </i>
  </energy>
 <calculation>
  <scstep>
   <time name="dav">   31.12   31.12</time>
   <time name="total">   33.21   34.68</time>
   <energy>
    <i name="alphaZ">   1649.05367391 </i>
    <i name="ewald"> 134344.05814002 </i>
    <i name="hartreedc">-176869.44811462 </i>
    <i name="XCdc">   1403.46340615 </i>
    <i name="pawpsdc">  39578.57779825 </i>
    <i name="pawaedc"> -38867.82235587 </i>
    <i name="eentropy">     -0.02258370 </i>
    <i name="bandstr"> -10320.09636374 </i>
    <i name="atom">  48333.26757577 </i>
    <i name="e_fr_energy">   -748.96882384 </i>
    <i name="e_wo_entrp">   -748.94624014 </i>
    <i name="e_0_energy">   -748.95753199 </i>
   </energy>
  </scstep>
  <scstep>
   <time name="dav">   34.22   34.24</time>
   <time name="total">   36.35   36.37</time>
   <energy>
    <   <time name="total">   37.71   37.76</time>
   <energy>
    <i name="e_fr_energy">   -747.64986868 </i>
    <i name="e_wo_entrp">   -747.63158436 </i>
    <i name="e_0_ene   <time name="dav">   31.06   31.06</time>
   <time name="tota   <time name="dav">   32.29   32.30</time>
   <time name="total">   34.42   34.42</time>
   <energy>
    <i name="e_fr_energy">   -747.64769496 </i>
    <i name="e_wo_entrp">   -747.62996515 </i>
    <i name="e_0_ene   <time name="dav">   28.00   28.02</time>
   <time name="tota   <time name="dav">   27.85   27.85</time>
   <time name="total">   29.99   29.99</time>
   <energy>
    <i name="e_fr_energy">   -747.64772739 </i>
    <i name="e_wo_entrp">   -747.62993515 </i>
    <i name="e_0_ene   <time name="dav">   25.28   25.28</time>
   <time name="tota   <time name="dav">   28.47   28.48</time>
   <time name="total">   28.99   28.99</time>
   <energy>
    <i name="alphaZ">   1649.05367391 </i>
    <i name="ewald"> 133142.97063237 </i>
    <i name="hartreedc">-175655.81701619 </i>
    <i name="XCdc">   1402.60999177 </i>
    <i name="pawpsdc">  39539.60258198 </i>
    <i name="pawaedc"> -38828.84280971 </i>
    <i name="eentropy">     -0.01777192 </i>
    <i name="bandstr"> -10330.47458862 </i>
    <i name="atom">  48333.26757577 </i>
    <i name="e_fr_energy">   -747.64773065 </i>
    <i name="e_wo_entrp">   -747.62995873 </i>
    <i na  <structure>
   <crystal>
    <varray name="basis" >
     <v>   <structure>
   <crystal>
    <varray name="basis" >
     <v>       9.29479980       0.00000000       0.00000000 </v>
     <v>       0.00000000       9.29479980       0.00000000 </v>
     <v>       0.00000000       0.00000000      21.97109985 </v>
    </varray>
    <i name="volume">   1898.15589588 </i>
    <varray name="rec_basis" >
     <v>       0.10758704       0.00000000       0.00000000 </v>
     <v>       0.00000000       0.10758704       0.00000000 </v>
     <v>       0.00000000       0.00000000       0.04551434 </v>
    </varray>
   </crystal>
   <varray name="positions" >
    <v>       0.00137595       0.99913082       0.31261645 </v>
    <v>       0.25098861       0.24889312       0.31259675 </v>
    <v>       0.00000000       0.25000000       0.00000000 </v>
    <v>       0.25000000       0.00000000       0.00000000 </v>
    <v>       0.00000000       0.00000000       0.10576000 </v>
    <v>       0.25000000       0.25000000       0.10576000 </v>
    <v>       0.00047142       0.24969904       0.21001061 </v>
    <v>       0.24992028       0.00028834       0.20961162 </v>
    <v>       0.49882064       0.99979936       0.31221751 </v>
    <v>       0.75099591       0.24173720       0.31229643 </v>
    <v>       0.50000000       0.25000000       0.00000000 </v>
    <v>       0.75000000       0.00000000       0.00000000 </v>
    <v>       0.50000000       0.00000000       0.10576000 </v>
    <v>       0.75000000       0.25000000       0.10576000 </v>
    <v>       0.50015273       0.24987643       0.21005085 </v>
    <v>       0.75008986       0.99866929       0.20966784 </v>
    <v>       0.00828229       0.49921221       0.31228787 </v>
    <v>       0.25030979       0.75123890       0.31221802 </v>
    <v>       0.00000000       0.75000000       0.00000000 </v>
    <v>       0.25000000       0.50000000       0.00000000 </v>
    <v>       0.00000000       0.50000000       0.10576000 </v>
    <v>       0.25000000       0.75000000       0.10576000 </v>
    <v>       0.00029333       0.75006620       0.21006087 </v>
    <v>       0.25152789       0.50000029       0.20964753 </v>
    <v>       0.49840593       0.50004116       0.31445639 </v>
    <v>       0.75012838       0.75158319       0.31453606 </v>
    <v>       0.50000000       0.75000000       0.00000000 </v>
    <v>       0.75000000       0.50000000       0.00000000 </v>
    <v>       0.50000000       0.50000000       0.10576000 </v>
    <v>       0.75000000       0.75000000       0.10576000 </v>
    <v>       0.50055333       0.74959678       0.21045528 </v>
    <v>       0.74851496       0.50163539       0.21111668 </v>
    <v>       0.25000000       0.25000000       0.00000000 </v>
    <v>       0.00000000       0.00000000       0.00000000 </v>
    <v>       0.24953857       0.00059087       0.31645056 </v>
    <v>       0.00059977       0.24953962       0.31653455 </v>
    <v>       0.25058798       0.24994069       0.21136085 </v>
    <v>       0.00016893       0.99955171       0.21137086 </v>
    <v>       0.25000000       0.00000000       0.10576000 </v>
    <v>       0.00000000       0.25000000       0.10576000 </v>
    <v>       0.75000000       0.25000000       0.00000000 </v>
    <v>       0.50000000       0.00000000       0.00000000 </v>
[...]
       <r>   -50.4939     0.0000    64.0000 </r>
       <r>   -50.2516     0.0000    64.0000 </r>
       <r>   -50.0093     0.0000    64.0000 </r>
       <r>   -49.7670     0.0000    64.0000 </r>
       <r>   -49.5247     0.0000    64.0000 </r>
       <r>   -49.2824     0.0000    64.0000 </r>
       <r>   -49.0401     0.0000    64.0000 </r>
       <r>   -48.7978     0.0000    64.0000 </r>
       <r>   -48.5555     0.0000    64.0000 </r>
       <r>   -48.3132     0.0000    64.0000 </r>
       <r>   -48.0709     0.0000    64.0000 </r>
       <r>   -47.8286     0.0000    64.0000 </r>
       <r>   -47.5863     0.0000    64.0000 </r>
       <r>   -47.3440     0.0000    64.0000 </r>
       <r>   -47.1017     0.0000    64.0000 </r>
       <r>   -46.8594     0.0000    64.0000 </r>
       <r>   -46.6171     0.0000    64.0000 </r>
       <r>   -46.3748     0.0000    64.0000 </r>
       <r>   -46.1325     0.0000    64.0000 </r>
       <r>   -45.8902     0.0000    64.0000 </r>
       <r>   -45.6479     0.0000    64.0000 </r>
       <r>   -45.4056     0.0000    64.0000 </r>
       <r>   -45.1633     0.0000    64.0000 </r>
       <r>   -44.9210     0.0000    64.0000 </r>
       <r>   -44.6787     0.0000    64.0000 </r>
       <r>   -44.4364     0.0000    64.0000 </r>
       <r>   -44.1941     0.0000    64.0000 </r>
       <r>   -43.9518     0.0000    64.0000 </r>
       <r>   -43.7095     0.0000    64.0000 </r>
       <r>   -43.4672     0.0000    64.0000 </r>
       <r>   -43.2249     0.0000    64.0000 </r>
       <r>   -42.9826     0.0000    64.0000 </r>
       <r>   -42.7403     0.0000    64.0000 </r>
       <r>   -42.4980     0.0000    64.0000 </r>
       <r>   -42.2557     0.0000    64.0000 </r>
       <r>   -42.0134     0.0000    64.0000 </r>
       <r>   -41.7711     0.0000    64.0000 </r>
       <r>   -41.5288     0.0000    64.0000 </r>
       <r>   -41.2865     0.0000    64.0000 </r>
       <r>   -41.0442     0.0000    64.0000 </r>
       <r>   -40.8019     0.0000    64.0000 </r>
       <r>   -40.5596     0.0000    64.0000 </r>
       <r>   -40.3173     0.0000    64.0000 </r>
       <r>   -40.0750     0.0000    64.0000 </r>
       <r>   -39.8327     0.0000    64.0000 </r>
       <r>   -39.5904     0.0000    64.0000 </r>
       <r>   -39.3481     0.0000    64.0000 </r>
       <r>   -39.1058     0.0000    64.0000 </r>
       <r>   -38.8635     0.0000    64.0000 </r>
       <r>   -38.6212     0.0000    64.0000 </r>
       <r>   -38.3789     0.0000    64.0000 </r>
       <r>   -38.1366     0.0000    64.0000 </r>
       <r>   -37.8943     0.0000    64.0000 </r>
       <r>   -37.6520     0.0000    64.0000 </r>
       <r>   -37.4097     0.0000    64.0000 </r>
       <r>   -37.1674     0.0000    64.0000 </r>
       <r>   -36.9251     0.0000    64.0000 </r>
       <r>   -36.6828     0.0000    64.0000 </r>
       <r>   -36.4405     0.0000    64.0000 </r>
       <r>   -36.1982     0.0000    64.0000 </r>
       <r>   -35.9560     0.0000    64.0000 </r>
       <r>   -35.7137     0.0000    64.0000 </r>
       <r>   -35.4714     0.0000    64.0000 </r>
       <r>   -35.2291     0.0000    64.0000 </r>
       <r>   -34.9868     0.0000    64.0000 </r>
       <r>   -34.7445     0.0000    64.0000 </r>
       <r>   -34.5022     0.0000    64.0000 </r>
       <r>   -34.2599     0.0000    64.0000 </r>
       <r>   -34.0176     0.0000    64.0000 </r>
       <r>   -33.7753     0.0000    64.0000 </r>
       <r>   -33.5330     0.0000    64.0000 </r>
       <r>   -33.2907     0.0000    64.0000 </r>
       <r>   -33.0484     0.0000    64.0000 </r>
       <r>   -32.8061     0.0000    64.0000 </r>
       <r>   -32.5638     0.0000    64.0000 </r>
       <r>   -32.3215     0.0000    64.0000 </r>
       <r>   -32.0792     0.0000    64.0000 </r>
       <r>   -31.8369     0.0000    64.0000 </r>
       <r>   -31.5946     0.0000    64.0000 </r>
       <r>   -31.3523     0.0000    64.0000 </r>
       <r>   -31.1100     0.0000    64.0000 </r>
       <r>   -30.8677     0.0000    64.0000 </r>
       <r>   -30.6254     0.0000    64.0000 </r>
       <r>   -30.3831     0.0000    64.0000 </r>
       <r>   -30.1408     0.0000    64.0000 </r>
       <r>   -29.8985     0.0000    64.0000 </r>
       <r>   -29.6562     0.0000    64.0000 </r>
       <r>   -29.4139     1.5392    64.3730 </r>
       <r>   -29.1716   132.2906    96.4267 </r>
       <r>   -28.9293   216.2886   148.8331 </r>
       <r>   -28.6870   266.9701   213.5196 </r>
       <r>   -28.4447   175.3049   255.9956 </r>
       <r>   -28.2024     0.0179   256.0000 </r>
       <r>   -27.9601     0.0000   256.0000 </r>
       <r>   -27.7178     0.0000   256.0000 </r>
       <r>   -27.4755     0.0000   256.0000 </r>
       <r>   -27.2332     0.0000   256.0000 </r>
       <r>   -26.9909     0.0000   256.0000 </r>
       <r>   -26.7486     0.0000   256.0000 </r>
       <r>   -26.5063     0.0000   256.0000 </r>
       <r>   -26.2640     0.0000   256.0000 </r>
       <r>   -26.0217     0.0000   256.0000 </r>
       <r>   -25.7794     0.0000   256.0000 </r>
       <r>   -25.5371     0.0000   256.0000 </r>
       <r>   -25.2948     0.0000   256.0000 </r>
       <r>   -25.0525     0.0000   256.0000 </r>
       <r>   -24.8102     0.0000   256.0000 </r>
       <r>   -24.5679     0.0000   256.0000 </r>
       <r>   -24.3256     0.0000   256.0000 </r>
       <r>   -24.0833     0.0000   256.0000 </r>
       <r>   -23.8410     0.0000   256.0000 </r>
       <r>   -23.5987     0.0000   256.0000 </r>
       <r>   -23.3564     0.0000   256.0000 </r>
       <r>   -23.1141     0.0000   256.0000 </r>
       <r>   -22.8718     0.0000   256.0000 </r>
       <r>   -22.6295     0.0000   256.0000 </r>
       <r>   -22.3872     0.0000   256.0000 </r>
       <r>   -22.1449     0.0000   256.0000 </r>
       <r>   -21.9026     0.0000   256.0000 </r>
       <r>   -21.6603     0.0000   256.0000 </r>
       <r>   -21.4180     0.0000   256.0000 </r>
       <r>   -21.1757     0.0000   256.0000 </r>
       <r>   -20.9335     0.0000   256.0000 </r>
       <r>   -20.6912     0.0000   256.0000 </r>
       <r>   -20.4489     0.0000   256.0000 </r>
       <r>   -20.2066     0.0000   256.0000 </r>
       <r>   -19.9643     2.1736   256.5267 </r>
       <r>   -19.7220     6.0807   258.0000 </r>
       <r>   -19.4797     0.0000   258.0000 </r>
       <r>   -19.2374     0.0000   258.0000 </r>
       <r>   -18.9951     0.0000   258.0000 </r>
       <r>   -18.7528     0.0000   258.0000 </r>
       <r>   -18.5105     0.0000   258.0000 </r>
       <r>   -18.2682     0.0000   258.0000 </r>
       <r>   -18.0259     0.0000   258.0000 </r>
       <r>   -17.7836     0.0000   258.0000 </r>
       <r>   -17.5413     0.0000   258.0000 </r>
       <r>   -17.2990     0.0000   258.0000 </r>
       <r>   -17.0567     0.0000   258.0000 </r>
       <r>   -16.8144     0.0000   258.0000 </r>
       <r>   -16.5721     0.0000   258.0000 </r>
       <r>   -16.3298     0.0000   258.0000 </r>
       <r>   -16.0875     0.0000   258.0000 </r>
       <r>   -15.8452     0.0000   258.0000 </r>
       <r>   -15.6029     0.0000   258.0000 </r>
       <r>   -15.3606     0.0000   258.0000 </r>
       <r>   -15.1183     0.0000   258.0000 </r>
       <r>   -14.8760     0.0000   258.0000 </r>
       <r>   -14.6337     0.0000   258.0000 </r>
       <r>   -14.3914     0.0000   258.0000 </r>
       <r>   -14.1491     0.0000   258.0000 </r>
       <r>   -13.9068     0.0000   258.0000 </r>
       <r>   -13.6645     0.0000   258.0000 </r>
       <r>   -13.4222     0.0000   258.0000 </r>
       <r>   -13.1799     0.0000   258.0000 </r>
       <r>   -12.9376     0.0000   258.0000 </r>
       <r>   -12.6953     0.0000   258.0000 </r>
       <r>   -12.4530     0.0000   258.0000 </r>
       <r>   -12.2107     0.0000   258.0000 </r>
       <r>   -11.9684     0.0000   258.0000 </r>
       <r>   -11.7261     0.0000   258.0000 </r>
       <r>   -11.4838     0.0000   258.0000 </r>
       <r>   -11.2415     0.0000   258.0000 </r>
       <r>   -10.9992     0.0000   258.0000 </r>
       <r>   -10.7569     0.8115   258.1966 </r>
       <r>   -10.5146     3.6430   259.0793 </r>
       <r>   -10.2723     3.7785   259.9949 </r>
       <r>   -10.0300     0.6793   260.1595 </r>
       <r>    -9.7877     7.7701   262.0421 </r>
       <r>    -9.5454     7.1436   263.7730 </r>
       <r>    -9.3031     6.7178   265.4007 </r>
       <r>    -9.0608    17.3485   269.6042 </r>
       <r>    -8.8185    34.9348   278.0689 </r>
       <r>    -8.5762    26.6888   284.5356 </r>
       <r>    -8.3339    43.6253   295.1059 </r>
       <r>    -8.0916    33.0902   303.1236 </r>
       <r>    -7.8493    37.5805   312.2293 </r>
       <r>    -7.6070    23.3583   317.8890 </r>
       <r>    -7.3647    13.0671   321.0551 </r>
       <r>    -7.1224     3.8996   322.0000 </r>
       <r>    -6.8801     0.0001   322.0000 </r>
       <r>    -6.6378     0.0000   322.0000 </r>
       <r>    -6.3955     0.0000   322.0000 </r>
       <r>    -6.1532     0.0000   322.0000 </r>
       <r>    -5.9110     0.0000   322.0000 </r>
       <r>    -5.6687     0.0000   322.0000 </r>
       <r>    -5.4264     0.0000   322.0000 </r>
       <r>    -5.1841     0.0000   322.0000 </r>
       <r>    -4.9418     0.6510   322.1577 </r>
       <r>    -4.6995    15.5545   325.9266 </r>
       <r>    -4.4572     2.8458   326.6161 </r>
       <r>    -4.2149     9.6737   328.9600 </r>
       <r>    -3.9726    15.6550   332.7532 </r>
       <r>    -3.7303     6.5562   334.3417 </r>
       <r>    -3.4880    15.2837   338.0450 </r>
       <r>    -3.2457    27.9688   344.8217 </r>
       <r>    -3.0034    25.2815   350.9474 </r>
       <r>    -2.7611    22.7030   356.4483 </r>
       <r>    -2.5188    29.6634   363.6357 </r>
       <r>    -2.2765    25.9334   369.9193 </r>
       <r>    -2.0342    22.2733   375.3161 </r>
       <r>    -1.7919    23.5001   381.0102 </r>
       <r>    -1.5496    56.4448   394.6866 </r>
       <r>    -1.3073    94.8395   417.6661 </r>
       <r>    -1.0650    65.6650   433.5766 </r>
       <r>    -0.8227    83.7297   453.8642 </r>
       <r>    -0.5804    77.4928   472.6406 </r>
       <r>    -0.3381    36.0502   481.3755 </r>
       <r>    -0.0958    47.9805   493.0011 </r>
       <r>     0.1465    41.3573   503.0219 </r>
       <r>     0.3888    18.3034   507.4568 </r>
       <r>     0.6311    19.0393   512.0700 </r>
       <r>     0.8734    15.2528   515.7657 </r>
       <r>     1.1157    12.3724   518.7635 </r>
       <r>     1.3580     5.2172   520.0276 </r>
       <r>     1.6003     5.2812   521.3072 </r>
       <r>     1.8426    21.4211   526.4975 </r>
       <r>     2.0849    13.2378   529.7050 </r>
       <r>     2.3272    12.1393   532.6464 </r>
       <r>     2.5695     9.5446   534.9590 </r>
       <r>     2.8118    14.8735   538.5628 </r>
       <r>     3.0541    27.6234   545.2559 </r>
       <r>     3.2964    48.3974   556.9826 </r>
       <r>     3.5387    38.0233   566.1955 </r>
       <r>     3.7810    28.0198   572.9847 </r>
       <r>     4.0233    18.2271   577.4011 </r>
       <r>     4.2656    30.2140   584.7219 </r>
       <r>     4.5079    33.7875   592.9086 </r>
       <r>     4.7502    28.5655   599.8299 </r>
       <r>     4.9925    49.5911   611.8458 </r>
       <r>     5.2348    49.6909   623.8858 </r>
       <r>     5.4771    58.7481   638.1204 </r>
       <r>     5.7194     7.7575   640.0000 </r>
       <r>     5.9617     0.0000   640.0000 </r>
       <r>     6.2040     0.0000   640.0000 </r>
       <r>     6.4463     0.0000   640.0000 </r>
       <r>     6.6886     0.0000   640.0000 </r>
       <r>     6.9309     0.0000   640.0000 </r>
       <r>     7.1732     0.0000   640.0000 </r>
       <r>     7.4155     0.0000   640.0000 </r>
       <r>     7.6578     0.0000   640.0000 </r>
       <r>     7.9001     0.0000   640.0000 </r>
       <r>     8.1424     0.0000   640.0000 </r>
       <r>     8.3847     0.0000   640.0000 </r>
       <r>     8.6270     0.0000   640.0000 </r>
       <r>     8.8693     0.0000   640.0000 </r>
      </set>
     </set>
    </array>
   </total>
  </dos>
 </calculation>
 <structure name="finalpos" >
  <crystal>
   <varray name="basis" >
    <v>       9.29479980       0.00000000       0.00000000 </v>
    <v>       0.00000000       9.29479980       0.00000000 </v>
    <v>       0.00000000       0.00000000      21.97109985 </v>
   </varray>
   <i name="volume">   1898.15589588 </i>
   <varray name="rec_basis" >
    <v>       0.10758704       0.00000000       0.00000000 </v>
    <v>       0.00000000       0.10758704       0.00000000 </v>
    <v>       0.00000000       0.00000000       0.04551434 </v>
   </varray>
  </crystal>
  <varray name="positions" >
   <v>       0.00157806       0.99917952       0.31272323 </v>
   <v>       0.25093224       0.24858826       0.31273742 </v>
   <v>       0.00000000       0.25000000       0.00000000 </v>
   <v>       0.25000000       0.00000000       0.00000000 </v>
   <v>       0.00000000       0.00000000       0.10576000 </v>
   <v>       0.25000000       0.25000000       0.10576000 </v>
   <v>      -0.00088077       0.25079862       0.21076274 </v>
   <v>       0.24994859       0.00023496       0.20977825 </v>
   <v>       0.49880211       0.99987199       0.31257403 </v>
   <v>       0.75118502       0.24371940       0.31470108 </v>
   <v>       0.50000000       0.25000000       0.00000000 </v>
   <v>       0.75000000       0.00000000       0.00000000 </v>
   <v>       0.50000000       0.00000000       0.10576000 </v>
   <v>       0.75000000       0.25000000       0.10576000 </v>
   <v>       0.50079783       0.25083045       0.21091186 </v>
   <v>       0.74999441       0.99907341       0.21029088 </v>
   <v>       0.00614278       0.49887358       0.31472213 </v>
   <v>       0.25015700       0.75113454       0.31265394 </v>
   <v>       0.00000000       0.75000000       0.00000000 </v>
   <v>       0.25000000       0.50000000       0.00000000 </v>
   <v>       0.00000000       0.50000000       0.10576000 </v>
   <v>       0.25000000       0.75000000       0.10576000 </v>
   <v>      -0.00084644       0.74942686       0.21090936 </v>
   <v>       0.25078909       0.50008666       0.21030542 </v>
   <v>       0.49716021       0.49963990       0.31767887 </v>
   <v>       0.75060420       0.75281562       0.31765665 </v>
   <v>       0.50000000       0.75000000       0.00000000 </v>
   <v>       0.75000000       0.50000000       0.00000000 </v>
   <v>       0.50000000       0.50000000       0.10576000 </v>
   <v>       0.75000000       0.75000000       0.10576000 </v>
   <v>       0.50141258       0.74869024       0.21135332 </v>
   <v>       0.74864010       0.50138717       0.20863282 </v>
   <v>       0.25000000       0.25000000       0.00000000 </v>
   <v>       0.00000000       0.00000000       0.00000000 </v>
   <v>       0.24959023       0.00062798       0.31675672 </v>
   <v>       0.00046910       0.24962867       0.31628033 </v>
   <v>       0.25055724       0.25038847       0.21152417 </v>
   <v>      -0.00028490       0.99954539       0.21154105 </v>
   <v>       0.25000000       0.00000000       0.10576000 </v>
   <v>       0.00000000       0.25000000       0.10576000 </v>
   <v>       0.75000000       0.25000000       0.00000000 </v>
   <v>       0.50000000       0.00000000       0.00000000 </v>
   <v>       0.75020447       0.99817110       0.31822807 </v>
   <v>       0.49944566       0.25075808       0.31712915 </v>
   <v>       0.75010615       0.25151623       0.21273396 </v>
   <v>       0.50040306       0.00041548       0.21133002 </v>
   <v>       0.75000000       0.00000000       0.10576000 </v>
   <v>       0.50000000       0.25000000       0.10576000 </v>
   <v>       0.25000000       0.75000000       0.00000000 </v>
   <v>       0.00000000       0.50000000       0.00000000 </v>
   <v>       0.25214563       0.50006545       0.31828186 </v>
   <v>       0.99956540       0.75097746       0.31712352 </v>
   <v>       0.24965790       0.74967892       0.21135847 </v>
   <v>       0.99837237       0.49997528       0.21275293 </v>
   <v>       0.25000000       0.50000000       0.10576000 </v>
   <v>       0.00000000       0.75000000       0.10576000 </v>
   <v>       0.75000000       0.75000000       0.00000000 </v>
   <v>       0.50000000       0.50000000       0.00000000 </v>
   <v>       0.76049006       0.49105264       0.34251186 </v>
   <v>       0.49531593       0.75482684       0.31526185 </v>
   <v>       0.75015041       0.74886793       0.21266521 </v>
   <v>       0.50126588       0.49995131       0.21262644 </v>
   <v>       0.75000000       0.50000000       0.10576000 </v>
   <v>       0.50000000       0.75000000       0.10576000 </v>
   <v>       0.67809388       0.57159367       0.38220842 </v>
  </varray>
  <varray name="selective"  type="logical" >
   <v type="logical" >  T  T  T </v>
   <v type="logical" >  T  T  T </v>
   <v type="logical" >  F  F  F </v>
   <v type="logical" >  F  F  F </v>
   <v type="logical" >  F  F  F </v>
   <v type="logical" >  F  F  F </v>
   <v type="logical" >  T  T  T </v>
   <v type="logical" >  T  T  T </v>
   <v type="logical" >  T  T  T </v>
   <v type="logical" >  T  T  T </v>
   <v type="logical" >  F  F  F </v>
   <v type="logical" >  F  F  F </v>
   <v type="logical" >  F  F  F </v>
   <v type="logical" >  F  F  F </v>
   <v type="logical" >  T  T  T </v>
   <v type="logical" >  T  T  T </v>
   <v type="logical" >  T  T  T </v>
   <v type="logical" >  T  T  T </v>
   <v type="logical" >  F  F  F </v>
   <v type="logical" >  F  F  F </v>
   <v type="logical" >  F  F  F </v>
   <v type="logical" >  F  F  F </v>
   <v type="logical" >  T  T  T </v>
   <v type="logical" >  T  T  T </v>
   <v type="logical" >  T  T  T </v>
   <v type="logical" >  T  T  T </v>
   <v type="logical" >  F  F  F </v>
   <v type="logical" >  F  F  F </v>
   <v type="logical" >  F  F  F </v>
   <v type="logical" >  F  F  F </v>
   <v type="logical" >  T  T  T </v>
   <v type="logical" >  T  T  T </v>
   <v type="logical" >  F  F  F </v>
   <v type="logical" >  F  F  F </v>
   <v type="logical" >  T  T  T </v>
   <v type="logical" >  T  T  T </v>
   <v type="logical" >  T  T  T </v>
   <v type="logical" >  T  T  T </v>
   <v type="logical" >  F  F  F </v>
   <v type="logical" >  F  F  F </v>
   <v type="logical" >  F  F  F </v>
   <v type="logical" >  F  F  F </v>
   <v type="logical" >  T  T  T </v>
   <v type="logical" >  T  T  T </v>
   <v type="logical" >  T  T  T </v>
   <v type="logical" >  T  T  T </v>
   <v type="logical" >  F  F  F </v>
   <v type="logical" >  F  F  F </v>
   <v type="logical" >  F  F  F </v>
   <v type="logical" >  F  F  F </v>
   <v type="logical" >  T  T  T </v>
   <v type="logical" >  T  T  T </v>
   <v type="logical" >  T  T  T </v>
   <v type="logical" >  T  T  T </v>
   <v type="logical" >  F  F  F </v>
   <v type="logical" >  F  F  F </v>
   <v type="logical" >  F  F  F </v>
   <v type="logical" >  F  F  F </v>
   <v type="logical" >  T  T  T </v>
   <v type="logical" >  T  T  T </v>
   <v type="logical" >  T  T  T </v>
   <v type="logical" >  T  T  T </v>
   <v type="logical" >  F  F  F </v>
   <v type="logical" >  F  F  F </v>
   <v type="logical" >  T  T  T </v>
  </varray>
  <nose>
   <v>      -3.00000000       0.00000000       0.00010000       0.00010000 </v>
  </nose>
 </structure>
</modeling>
>  T  T  T </v>
   <v type="logical" >  F  F  F </v>
   <v type="logical" >  F  F  F </v>
   <v type="logical" >  F  F  F </v>
   <v type="logical" >  F  F  F </v>
   <v type="logical" >  T  T  T </v>
   <v type="logical" >  T  T  T </v>
   <v type="logical" >  T  T  T </v>
   <v type="logical" >  T  T  T </v>
   <v type="logical" >  F  F  F </v>
   <v type="logical" >  F  F  F </v>
   <v type="logical" >  T  T  T </v>
  </varray>
  <nose>
   <v>      -3.00000000       0.00000000       0.00010000       0.00010000 </v>
  </nose>
 </structure>
</modeling>
