 vasp.6.5.1 10Mar25 (build Apr 25 2025 15:31:43) complex                        
  
 executed on             LinuxIFC date 2025.12.08  14:54:14
 running  384 mpi-ranks, on   16 nodes
 each image running on   48 cores
 distrk:  each k-point on   24 cores,    2 groups
 distr:  one band on NCORE=   6 cores,    4 groups


--------------------------------------------------------------------------------------------------------


 INCAR:
   SYSTEM = PBE-grap
   NWRITE = 0    write-flag
   ISTART = 0    job   : 0-new, 1-cont, 2-samecut
   ICHARG = 2    charge: 0-wave, 1-file, 2-atom, >10-const
   INIWAV = 1    electr: 0-lowe 1-rand  2-diag
   GGA = PE
   PREC = Normal   low | medium | high
   ENCUT = 370
   NELMDL = -5    number of delayed ELM steps
   NELMIN = 4
   NELM = 150    number of ELM steps
   EDIFF = 1E-05    energy stopping-criterion for ELM
   LREAL = AUTO   real-space projection (.FALSE., .TRUE., On, Auto)
   IALGO = 38    algorithm (8\=CG for small, 48\=RMM for big systems)
   LCHARG = .FALSE.
   LVTOT = .FALSE.
   LWAVE = .FALSE.
   NSW = 1000   max number of geometry steps
   EDIFFG = -0.026   force (eV/A) stopping-criterion for geometry steps
   ISIF = 2     (1:force\=y stress\=trace only ions\=y shape\=n volume\=n)
   ISYM = 0     (1-use symmetry, 0-no symmetry)
   ISMEAR = 0    (-1-Fermi, 1-Methfessel/Paxton)
   SIGMA = 0.41   broadening in eV
   IOPT = 3
   TIMESTEP = 0.05
   ICHAIN = 0     turn on NEB
   LCLIMB = .TRUE.
   POTIM = 0
   IBRION = 3
   IMAGES = 8      image number
   SPRING = -5     spring constant between images
   LPLANE = .TRUE.
   NPAR = 4
   KPAR = 2

 POTCAR:    PAW_PBE Pd 04Jan2005                  
 POTCAR:    PAW_PBE C 08Apr2002                   
 POTCAR:    PAW_PBE O 08Apr2002                   
 POTCAR:    PAW_PBE Pd 04Jan2005                  
  local pseudopotential read in
  partial core-charges read in
  partial kinetic energy density read in
  atomic valenz-charges read in
  non local Contribution for L=           2  read in
    real space projection operators read in
  non local Contribution for L=           2  read in
    real space projection operators read in
  non local Contribution for L=           0  read in
    real space projection operators read in
  non local Contribution for L=           0  read in
    real space projection operators read in
  non local Contribution for L=           1  read in
    real space projection operators read in
  non local Contribution for L=           1  read in
    real space projection operators read in
    PAW grid and wavefunctions read in
 
   number of l-projection  operators is LMAX  =           6
   number of lm-projection operators is LMMAX =          18
 
 POTCAR:    PAW_PBE C 08Apr2002                   
  local pseudopotential read in
  partial core-charges read in
  partial kinetic energy density read in
  atomic valenz-charges read in
  non local Contribution for L=           0  read in
    real space projection operators read in
  non local Contribution for L=           0  read in
    real space projection operators read in
  non local Contribution for L=           1  read in
    real space projection operators read in
  non local Contribution for L=           1  read in
    real space projection operators read in
    PAW grid and wavefunctions read in
 
   number of l-projection  operators is LMAX  =           4
   number of lm-projection operators is LMMAX =           8
 
 POTCAR:    PAW_PBE O 08Apr2002                   
  local pseudopotential read in
  partial core-charges read in
  partial kinetic energy density read in
  kinetic energy density of atom read in
  atomic valenz-charges read in
  non local Contribution for L=           0  read in
    real space projection operators read in
  non local Contribution for L=           0  read in
    real space projection operators read in
  non local Contribution for L=           1  read in
    real space projection operators read in
  non local Contribution for L=           1  read in
    real space projection operators read in
    PAW grid and wavefunctions read in
 
   number of l-projection  operators is LMAX  =           4
   number of lm-projection operators is LMMAX =           8
 
 Optimization of the real space projectors (new method)

 maximal supplied QI-value         = 14.36
 optimisation between [QCUT,QGAM] = [  9.77, 19.68] = [ 26.71,108.41] Ry 
 Optimized for a Real-space Cutoff    1.52 Angstroem

   l    n(q)    QCUT    max X(q) W(low)/X(q) W(high)/X(q)  e(spline) 
   2      8     9.766    59.108    0.18E-03    0.12E-03    0.98E-07
   2      8     9.766    58.101    0.18E-03    0.12E-03    0.10E-06
   0      9     9.766   102.235    0.37E-04    0.68E-04    0.73E-07
   0      9     9.766    58.388    0.33E-04    0.64E-04    0.69E-07
   1      8     9.766    22.191    0.23E-03    0.61E-04    0.11E-06
   1      8     9.766    15.590    0.19E-03    0.52E-04    0.93E-07
 Optimization of the real space projectors (new method)

 maximal supplied QI-value         = 25.13
 optimisation between [QCUT,QGAM] = [  9.80, 19.60] = [ 26.90,107.62] Ry 
 Optimized for a Real-space Cutoff    1.35 Angstroem

   l    n(q)    QCUT    max X(q) W(low)/X(q) W(high)/X(q)  e(spline) 
   0      8     9.802   115.676    0.45E-03    0.67E-03    0.24E-06
   0      8     9.802    87.132    0.44E-03    0.67E-03    0.24E-06
   1      7     9.802     4.429    0.38E-03    0.18E-03    0.24E-06
   1      7     9.802     2.733    0.25E-03    0.72E-04    0.26E-06
 Optimization of the real space projectors (new method)

 maximal supplied QI-value         = 24.76
 optimisation between [QCUT,QGAM] = [  9.65, 19.56] = [ 26.10,107.10] Ry 
 Optimized for a Real-space Cutoff    1.44 Angstroem

   l    n(q)    QCUT    max X(q) W(low)/X(q) W(high)/X(q)  e(spline) 
   0      8     9.655    20.381    0.19E-03    0.21E-03    0.36E-06
   0      8     9.655    15.268    0.21E-03    0.24E-03    0.37E-06
   1      8     9.655     5.964    0.43E-03    0.39E-03    0.31E-06
   1      8     9.655     5.382    0.36E-03    0.33E-03    0.28E-06
  PAW_PBE Pd 04Jan2005                  :
 energy of atom  1       EATOM= -809.7530
 kinetic energy error for atom=    0.0177 (will be added to EATOM!!)
  PAW_PBE C 08Apr2002                   :
 energy of atom  2       EATOM= -147.1560
 kinetic energy error for atom=    0.0545 (will be added to EATOM!!)
  PAW_PBE O 08Apr2002                   :
 energy of atom  3       EATOM= -432.3788
 kinetic energy error for atom=    0.2342 (will be added to EATOM!!)
 
 
 POSCAR: Pd  C  O
  positions in direct lattice
  velocities in cartesian coordinates


 exchange-correlation table for PE
   RHO(1)=    0.500       N(1)  =     2000
   RHO(2)=  100.500       N(2)  =     4000

 VTST: version 4.2, (11/09/24)

 CHAIN: initializing optimizer
 
 OPT: Using Quick-Min optimizer
 OPT: QM, Init
 OPT: QM, MAXMOVE       0.200000
 OPT: QM, TIMESTEP      0.050000
 
 CHAIN: Read ICHAIN            0
 CHAIN: Running the NEB
 NEB:          SPRING     -5.000000
 NEB:          LCLIMB      T
 NEB:     LTANGENTOLD      F
 NEB:           LDNEB      F
 NEB:        LDNEBORG      F
 NEB:        LNEBCELL      F
 NEB:          EFIRST      0.000000
 NEB:           ELAST      0.000000
 
 POSCAR: Pd  C  O
  positions in cartesian coordinates
  No initial velocities read in
 
 POSCAR: Pd  C  O
  positions in cartesian coordinates
  No initial velocities read in
 
 POSCAR: Pd  C  O
  positions in cartesian coordinates
  No initial velocities read in
 
 POSCAR: Pd  C  O
  positions in cartesian coordinates
  No initial velocities read in
 


--------------------------------------------------------------------------------------------------------


 ion  position               nearest neighbor table
   1  0.999  0.999  0.438-  25 2.77  19 2.77  13 2.77   4 2.77   7 2.77  10 2.78   3 2.80  27 2.81
                             9 2.81
   2  0.111  0.223  0.160-  31 2.77  32 2.77  28 2.77   5 2.77   8 2.77  26 2.77  20 2.77  14 2.77
                            11 2.77   9 2.79  12 2.79   3 2.80
   3  0.222  0.112  0.299-  15 2.76  12 2.76   9 2.77   6 2.77  27 2.77  21 2.77   2 2.80   4 2.80
                            20 2.80   5 2.80   1 2.80  13 2.83
   4  0.333  1.000  0.438-  22 2.76   7 2.77  13 2.77  16 2.77   1 2.77  19 2.77   3 2.80  21 2.80
                             6 2.81
   5  0.444  0.223  0.160-  32 2.77  29 2.77  33 2.77   2 2.77  20 2.77  23 2.77   8 2.77  17 2.77
                            14 2.77   6 2.78  15 2.79   3 2.80
   6  0.555  0.111  0.298-  21 2.77   3 2.77  24 2.77  18 2.77  15 2.77   9 2.77  23 2.78   5 2.78
                             8 2.79  16 2.79   7 2.79   4 2.81
   7  0.666  0.000  0.437-  10 2.76  22 2.76   4 2.77  25 2.77  16 2.77   1 2.77   9 2.79  24 2.79
                             6 2.79
   8  0.778  0.223  0.160-  33 2.77  31 2.77  30 2.77   2 2.77  26 2.77  23 2.77  11 2.77   5 2.77
                            17 2.77  18 2.78   6 2.79   9 2.79
   9  0.889  0.112  0.299-  12 2.77  27 2.77   3 2.77  18 2.77  24 2.77   6 2.77   7 2.79  26 2.79
                             2 2.79   8 2.79  10 2.80   1 2.81
  10  0.998  0.333  0.438-   7 2.76  16 2.76  19 2.77   1 2.78  13 2.78  22 2.79   9 2.80  12 2.81
                            18 2.81
  11  0.111  0.557  0.160-  34 2.77  35 2.77  31 2.77  14 2.77  17 2.77  23 2.77  20 2.77   8 2.77
                             2 2.77  21 2.79  18 2.79  12 2.80
  12  0.222  0.445  0.299-  15 2.76   3 2.76   9 2.77  24 2.77  18 2.77  21 2.77   2 2.79  22 2.79
                            14 2.80  11 2.80  10 2.81  13 2.84
  13  0.332  0.332  0.441-   4 2.77  16 2.77   1 2.77  25 2.78  22 2.78  10 2.78   3 2.83  12 2.84
                            15 2.84
  14  0.444  0.557  0.160-  35 2.77  36 2.77  32 2.77  11 2.77  23 2.77  26 2.77   2 2.77  17 2.77
                             5 2.77  24 2.78  15 2.79  12 2.80
  15  0.554  0.444  0.299-   3 2.76  12 2.76  24 2.77   6 2.77  18 2.78  27 2.78  25 2.78  16 2.78
                             5 2.79  14 2.79  17 2.80  13 2.84
  16  0.665  0.333  0.437-  10 2.76   4 2.77  25 2.77  13 2.77  19 2.77   7 2.77  15 2.78   6 2.79
                            18 2.79
  17  0.778  0.557  0.160-  36 2.77  34 2.77  33 2.77  11 2.77  26 2.77  20 2.77  14 2.77   8 2.77
                             5 2.77  27 2.78  18 2.78  15 2.80
  18  0.888  0.445  0.298-   9 2.77   6 2.77  12 2.77  21 2.77  27 2.77  15 2.78   8 2.78  17 2.78
                            19 2.79  11 2.79  16 2.79  10 2.81
  19  0.999  0.666  0.436-  25 2.77   1 2.77  10 2.77  16 2.77   4 2.77  22 2.78  18 2.79  21 2.79
                            27 2.79
  20  0.111  0.890  0.160-  29 2.77  28 2.77  34 2.77  23 2.77  26 2.77  11 2.77  17 2.77   5 2.77
                             2 2.77  27 2.78  21 2.79   3 2.80
  21  0.222  0.778  0.298-   6 2.77  24 2.77  27 2.77  18 2.77  12 2.77   3 2.77  11 2.79  20 2.79
                            23 2.79  19 2.79  22 2.80   4 2.80
  22  0.333  0.668  0.437-   7 2.76   4 2.76  25 2.77  19 2.78  13 2.78  10 2.79  12 2.79  24 2.80
                            21 2.80
  23  0.444  0.890  0.160-  29 2.77  35 2.77  30 2.77  20 2.77  11 2.77  14 2.77   5 2.77   8 2.77
                            26 2.77   6 2.78  24 2.78  21 2.79
  24  0.555  0.778  0.298-  21 2.77  15 2.77  12 2.77   6 2.77  27 2.77   9 2.77  14 2.78  23 2.78
                            26 2.79   7 2.79  25 2.79  22 2.80
  25  0.666  0.667  0.437-   1 2.77  19 2.77  22 2.77  16 2.77   7 2.77  13 2.78  15 2.78  27 2.79
                            24 2.79
  26  0.778  0.890  0.160-  28 2.77  30 2.77  36 2.77  20 2.77  17 2.77   8 2.77   2 2.77  14 2.77
                            23 2.77  27 2.78  24 2.79   9 2.79
  27  0.888  0.779  0.298-   9 2.77  24 2.77   3 2.77  21 2.77  18 2.77  15 2.78  26 2.78  17 2.78
                            20 2.78  19 2.79  25 2.79   1 2.81
  28  1.000  0.001  0.023-  26 2.77  20 2.77   2 2.77  30 2.77  29 2.77  31 2.77  32 2.77  36 2.77
                            34 2.77
  29  0.333  0.001  0.023-  20 2.77  23 2.77   5 2.77  28 2.77  32 2.77  34 2.77  35 2.77  33 2.77
                            30 2.77
  30  0.666  0.001  0.023-  26 2.77   8 2.77  23 2.77  28 2.77  31 2.77  33 2.77  36 2.77  35 2.77
                            29 2.77
  31  1.000  0.334  0.023-   2 2.77   8 2.77  11 2.77  33 2.77  32 2.77  28 2.77  30 2.77  35 2.77
                            34 2.77
  32  0.333  0.334  0.023-   5 2.77   2 2.77  14 2.77  31 2.77  29 2.77  28 2.77  33 2.77  35 2.77
                            36 2.77
  33  0.666  0.334  0.023-   8 2.77   5 2.77  17 2.77  31 2.77  30 2.77  29 2.77  34 2.77  32 2.77
                            36 2.77
  34  1.000  0.668  0.023-  11 2.77  17 2.77  20 2.77  36 2.77  35 2.77  28 2.77  29 2.77  33 2.77
                            31 2.77
  35  0.333  0.668  0.023-  14 2.77  11 2.77  23 2.77  34 2.77  29 2.77  30 2.77  31 2.77  36 2.77
                            32 2.77
  36  0.666  0.668  0.023-  17 2.77  26 2.77  14 2.77  34 2.77  28 2.77  30 2.77  35 2.77  32 2.77
                            33 2.77
  37  0.236  0.152  0.658-  38 1.18  39 1.18
  38  0.248  0.296  0.644-  37 1.18
  39  0.222  0.010  0.679-  37 1.18
 

IMPORTANT INFORMATION: All symmetrisations will be switched off!
NOSYMM: (Re-)initialisation of all symmetry stuff for point group C_1.


----------------------------------------------------------------------------------------

                                     Primitive cell                                     

  volume of cell :     988.1533

  direct lattice vectors                    reciprocal lattice vectors
     8.309900284  0.000000000  0.000000000     0.120338387  0.069477400  0.000000000
    -4.154950142  7.196584749  0.000000000     0.000000000  0.138954801  0.000000000
     0.000000000  0.000000000 16.523500443     0.000000000  0.000000000  0.060519864

  length of vectors
     8.309900284  8.309900284 16.523500443     0.138954801  0.138954801  0.060519864

  position of ions in fractional coordinates (direct lattice)
     0.998886725  0.999304116  0.438151210
     0.110930000  0.223300000  0.160240000
     0.221793002  0.112295154  0.299250060
     0.332652890  0.999884979  0.437915485
     0.444260000  0.223300000  0.160240000
     0.554617228  0.111488250  0.298175085
     0.665688691  0.000002017  0.436733903
     0.777600000  0.223300000  0.160240000
     0.888546713  0.111783800  0.298697974
     0.997566974  0.332811884  0.437934919
     0.110930000  0.556640000  0.160240000
     0.221635499  0.444661737  0.299010699
     0.331902653  0.332497912  0.441058233
     0.444260000  0.556640000  0.160240000
     0.553706018  0.444471249  0.298799566
     0.665318788  0.333299113  0.436530908
     0.777600000  0.556640000  0.160240000
     0.888188522  0.444767138  0.298120098
     0.998603426  0.666329024  0.436327614
     0.110930000  0.889970000  0.160240000
     0.221821942  0.778453496  0.298396999
     0.333362962  0.667542224  0.437431566
     0.444260000  0.889970000  0.160240000
     0.554630528  0.778197299  0.298199226
     0.665937798  0.666689208  0.436567235
     0.777600000  0.889970000  0.160240000
     0.888308339  0.778676399  0.298069954
     0.999820000  0.001080000  0.023370000
     0.333150000  0.001080000  0.023370000
     0.666490000  0.001080000  0.023370000
     0.999820000  0.334410000  0.023370000
     0.333150000  0.334410000  0.023370000
     0.666490000  0.334410000  0.023370000
     0.999820000  0.667750000  0.023370000
     0.333150000  0.667750000  0.023370000
     0.666490000  0.667750000  0.023370000
     0.235956770  0.152079065  0.658272315
     0.247660676  0.296310133  0.644353202
     0.222336446  0.009811519  0.678523743

  ion indices of the primitive-cell ions
   primitive index   ion index
                 1           1
                 2           2
                 3           3
                 4           4
                 5           5
                 6           6
                 7           7
                 8           8
                 9           9
                10          10
                11          11
                12          12
                13          13
                14          14
                15          15
                16          16
                17          17
                18          18
                19          19
                20          20
                21          21
                22          22
                23          23
                24          24
                25          25
                26          26
                27          27
                28          28
                29          29
                30          30
                31          31
                32          32
                33          33
                34          34
                35          35
                36          36
                37          37
                38          38
                39          39

----------------------------------------------------------------------------------------

 
 
 KPOINTS: Automatic mesh                          

Automatic generation of k-mesh.
 Grid dimensions read from file:
 generate k-points for:    4    4    1

 Generating k-lattice:

  Cartesian coordinates                     Fractional coordinates (reciprocal lattice)
     0.030084597  0.017369350  0.000000000     0.250000000  0.000000000  0.000000000
     0.000000000  0.034738700  0.000000000     0.000000000  0.250000000  0.000000000
     0.000000000  0.000000000  0.060519864     0.000000000  0.000000000  1.000000000

  Length of vectors
     0.034738700  0.034738700  0.060519864

  Shift w.r.t. Gamma in fractional coordinates (k-lattice)
     0.500000000  0.500000000  0.000000000

 
 Subroutine IBZKPT returns following result:
 ===========================================
 
 Found     24 irreducible k-points:
 
 Following reciprocal coordinates:
            Coordinates               Weight
  0.125000  0.125000  0.000000      2.000000
 -0.125000  0.250000  0.000000      2.000000
 -0.250000  0.125000  0.000000      2.000000
  0.375000  0.125000  0.000000      2.000000
 -0.125000  0.500000  0.000000      2.000000
  0.500000  0.375000  0.000000      2.000000
 -0.375000  0.500000  0.000000      2.000000
  0.125000  0.375000  0.000000      2.000000
  0.500000 -0.125000  0.000000      2.000000
 -0.375000  0.125000  0.000000      2.000000
 -0.125000 -0.250000  0.000000      2.000000
  0.250000 -0.375000  0.000000      2.000000
  0.375000 -0.250000  0.000000      2.000000
  0.125000 -0.375000  0.000000      2.000000
 -0.250000 -0.125000  0.000000      2.000000
 -0.125000  0.125000  0.000000      2.000000
 -0.125000  0.000000  0.000000      2.000000
  0.000000 -0.125000  0.000000      2.000000
  0.375000  0.375000  0.000000      2.000000
 -0.375000 -0.250000  0.000000      2.000000
  0.250000  0.375000  0.000000      2.000000
 -0.375000  0.375000  0.000000      2.000000
 -0.375000  0.000000  0.000000      2.000000
  0.000000 -0.375000  0.000000      2.000000
 
 Following cartesian coordinates:
            Coordinates               Weight
  0.015042  0.026054  0.000000      2.000000
 -0.015042  0.026054  0.000000      2.000000
 -0.030085  0.000000  0.000000      2.000000
  0.045127  0.043423  0.000000      2.000000
 -0.015042  0.060793  0.000000      2.000000
  0.060169  0.086847  0.000000      2.000000
 -0.045127  0.043423  0.000000      2.000000
  0.015042  0.060793  0.000000      2.000000
  0.060169  0.017369  0.000000      2.000000
 -0.045127 -0.008685  0.000000      2.000000
 -0.015042 -0.043423  0.000000      2.000000
  0.030085 -0.034739  0.000000      2.000000
  0.045127 -0.008685  0.000000      2.000000
  0.015042 -0.043423  0.000000      2.000000
 -0.030085 -0.034739  0.000000      2.000000
 -0.015042  0.008685  0.000000      2.000000
 -0.015042 -0.008685  0.000000      2.000000
  0.000000 -0.017369  0.000000      2.000000
  0.045127  0.078162  0.000000      2.000000
 -0.045127 -0.060793  0.000000      2.000000
  0.030085  0.069477  0.000000      2.000000
 -0.045127  0.026054  0.000000      2.000000
 -0.045127 -0.026054  0.000000      2.000000
  0.000000 -0.052108  0.000000      2.000000
 


--------------------------------------------------------------------------------------------------------




 Dimension of arrays:
   k-points           NKPTS =     24   k-points in BZ     NKDIM =     24   number of bands    NBANDS=    228
   number of dos      NEDOS =    301   number of ions     NIONS =     39
   non local maximal  LDIM  =      6   non local SUM 2l+1 LMDIM =     18
   total plane-waves  NPLWV = 128000
   max r-space proj   IRMAX =   1966   max aug-charges    IRDMAX=   6482
   dimension x,y,z NGX =    40 NGY =   40 NGZ =   80
   dimension x,y,z NGXF=    80 NGYF=   80 NGZF=  160
   support grid    NGXF=    80 NGYF=   80 NGZF=  160
   ions per type =              36   1   2
   NGX,Y,Z   is equivalent  to a cutoff of   8.00,  8.00,  8.05 a.u.
   NGXF,Y,Z  is equivalent  to a cutoff of  16.00, 16.00, 16.10 a.u.

 SYSTEM =  PBE-grap                                
 POSCAR =  Pd  C  O                                

 Startparameter for this run:
   NWRITE =      0    write-flag & timer
   PREC   = normal    normal or accurate (medium, high low for compatibility)
   ISTART =      0    job   : 0-new  1-cont  2-samecut
   ICHARG =      2    charge: 1-file 2-atom 10-const
   ISPIN  =      1    spin polarized calculation?
   LNONCOLLINEAR =      F non collinear calculations
   LSORBIT =      F    spin-orbit coupling
   INIWAV =      1    electr: 0-lowe 1-rand  2-diag
   LASPH  =      F    aspherical Exc in radial PAW
 Electronic Relaxation 1
   ENCUT  =  370.0 eV  27.19 Ry    5.21 a.u.  13.03 13.03 25.92*2*pi/ulx,y,z
   ENINI  =  370.0     initial cutoff
   ENAUG  =  644.9 eV  augmentation charge cutoff
   NELM   =    150;   NELMIN=  4; NELMDL= -5     # of ELM steps 
   EDIFF  = 0.1E-04   stopping-criterion for ELM
   LREAL  =      T    real-space projection
   NLSPLINE    = F    spline interpolate recip. space projectors
   LCOMPAT=      F    compatible to vasp.4.4
   GGA_COMPAT  = T    GGA compatible to vasp.4.4-vasp.4.6
   LMAXPAW     = -100 max onsite density
   LMAXMIX     =    2 max onsite mixed and CHGCAR
   VOSKOWN=      0    Vosko Wilk Nusair interpolation
   ROPT   =   -0.00050  -0.00050  -0.00050
 Ionic relaxation
   EDIFFG = -.3E-01   stopping-criterion for IOM
   NSW    =   1000    number of steps for IOM
   NBLOCK =      1;   KBLOCK =   1000    inner block; outer block 
   IBRION =      3    ionic relax: 0-MD 1-quasi-New 2-CG
   NFREE  =      0    steps in history (QN), initial steepest desc. (CG)
   ISIF   =      2    stress and relaxation
   IWAVPR =     11    prediction:  0-non 1-charg 2-wave 3-comb
   ISYM   =      0    0-nonsym 1-usesym 2-fastsym
   LCORR  =      T    Harris-Foulkes like correction to forces

   POTIM  = 0.0000    time-step for ionic-motion
   TEIN   =    0.0    initial temperature
   TEBEG  =    0.0;   TEEND  =   0.0 temperature during run
   SMASS  =  -3.00    Nose mass-parameter (am)
   estimated Nose-frequenzy (Omega)   =  0.10E-29 period in steps = 0.00E+00 mass=  -0.158E-26a.u.
   SCALEE = 1.0000    scale energy and forces
   NPACO  =    256;   APACO  = 10.0  distance and # of slots for P.C.
   PSTRESS=    0.0 pullay stress

  Mass of Ions in am
   POMASS = 106.42 12.01 16.00
  Ionic Valenz
   ZVAL   =  10.00  4.00  6.00
  Atomic Wigner-Seitz radii
   RWIGS  =  -1.00 -1.00 -1.00
  virtual crystal weights 
   VCA    =   1.00  1.00  1.00
   NELECT =     376.0000    total number of electrons
   NUPDOWN=      -1.0000    fix difference up-down

 DOS related values:
   EMIN   =  10.00;   EMAX   =-10.00  energy-range for DOS
   EFERMI =   0.00;   METHOD = LEGACY      
   ISMEAR =     0;   SIGMA  =   0.41  broadening in eV -4-tet -1-fermi 0-gaus
   EFERMI_NEDOS =   21; number of points for ismear=-14 and -15

 Electronic relaxation 2 (details)
   IALGO  =     38    algorithm
   LDIAG  =      T    sub-space diagonalisation (order eigenvalues)
   LSUBROT=      F    optimize rotation matrix (better conditioning)
   LROBUST=      F    robust break criterion during scf (extrapolated energy error)
   ISEARCH=      0    line search for conjugate gradient (0, 1=use gradient)
   TURBO    =      0    0=normal 1=particle mesh
   IRESTART =      0    0=no restart 2=restart with 2 vectors
   NREBOOT  =      0    no. of reboots
   NMIN     =      0    reboot dimension
   EREF     =   0.00    reference energy to select bands
   IMIX   =      4    mixing-type and parameters
     AMIX     =   0.40;   BMIX     =  1.00
     AMIX_MAG =   1.60;   BMIX_MAG =  1.00
     AMIN     =   0.10
     WC   =   100.;   INIMIX=   1;  MIXPRE=   1;  MAXMIX= -45

 Intra band minimization:
   WEIMIN = 0.0010     energy-eigenvalue tresh-hold
   EBREAK =  0.11E-07  absolut break condition
   DEPER  =   0.30     relativ break condition  

   TIME   =   0.40     timestep for ELM

  volume/ion in A,a.u.               =      25.34       170.98
  Fermi-wavevector in a.u.,A,eV,Ry     =   1.186304  2.241790 19.147714  1.407317
  Thomas-Fermi vector in A             =   2.322480
 
 Write flags
   LWAVE        =      F    write WAVECAR
   LDOWNSAMPLE  =      F    k-point downsampling of WAVECAR
   LCHARG       =      F    write CHGCAR
   LVTOT        =      F    write LOCPOT, total local potential
   LVHAR        =      F    write LOCPOT, Hartree potential only
   WRT_POTENTIAL= false  ! write potential to hdf5 file
   LELF         =      F    write electronic localiz. function (ELF)
   LORBIT       =      0    0 simple, 1 ext, 2 COOP (PROOUT), +10 PAW based schemes


 Python interface
   PLUGINS active      =      F    recompile with -DPLUGINS to activate
 
 Dipole corrections
   LMONO      =      F    monopole corrections only (constant potential shift)
   LDIPOL     =      F    correct potential (dipole corrections)
   IDIPOL     =      0    1-x, 2-y, 3-z, 4-all directions 
   EPSILON    =  1.0000000 bulk dielectric constant
   LVACPOTAV  =      F  vacuum potentials using an averaging scheme for the charge density
   VACPOTFLAT =  0.1000000 required flatness to determine vacuum potential
 
Coulomb truncation method
  LTRUNCATE          =      F  Coulomb kernel truncation to be used

 
 Exchange correlation treatment:
   GGA     = PE    functional components
   XC_C    = 1    coefficients multiplying the functional components
   LIBXC   =     F    Libxc                    
   VOSKOWN =     0    Vosko Wilk Nusair interpolation
   LHFCALC =     F    Hartree Fock is set to
   LHFONE  =     F    Hartree Fock one center treatment
   AEXX    =    0.0000 exact exchange contribution

 Parameters of functionals:
   PE:
     No parameter
 
 Van der Waals corrections
   IVDW    =     0    specifies the selected vdW correction

 Linear response parameters
   LEPSILON=     F    determine dielectric tensor
   LRPA    =     F    only Hartree local field effects (RPA)
   LNABLA  =     F    use nabla operator in PAW spheres
   LVEL    =     F    velocity operator in full k-point grid
   CSHIFT  =0.1000    complex shift for real part using Kramers Kronig
   OMEGAMAX=  -1.0    maximum frequency
   DEG_THRESHOLD= 0.2000000E-02 threshold for treating states as degnerate
   RTIME   =   -0.100 relaxation time in fs
  (WPLASMAI=    0.000 imaginary part of plasma frequency in eV, 0.658/RTIME)
   DFIELD  = 0.0000000 0.0000000 0.0000000 field for delta impulse in time
 
  Optional k-point grid parameters
   LKPOINTS_OPT  =     F    use optional k-point grid
   KPOINTS_OPT_MODE=     1    mode for optional k-point grid
 
 Orbital magnetization related:
   ORBITALMAG=     F  switch on orbital magnetization
   LCHIMAG   =     F  perturbation theory with respect to B field
   DQ        =  0.001000  dq finite difference perturbation B field
   LLRAUG    =     F  two centre corrections for induced B field
   LBONE     =     F  B-component reconstruction in AE one-centre
   LVGVCALC  =     T  calculate vGv susceptibility
   LVGVAPPL  =     F  apply vGv susceptibility instead of pGv for G=0

 Random number generation:
   RANDOM_GENERATOR = DEFAULT
   PCG_SEED         = not used


--------------------------------------------------------------------------------------------------------


 quickmin algorithm: (dynamic with friction)
   using selective dynamics as specified on POSCAR
 charge density and potential will be updated during run
 non-spin polarized calculation
 Variant of blocked Davidson
 Davidson routine will perform the subspace rotation
 perform sub-space diagonalisation
    after iterative eigenvector-optimisation
 modified Broyden-mixing scheme, WC =      100.0
 initial mixing is a Kerker type mixing with AMIX =  0.4000 and BMIX =      1.0000
 Hartree-type preconditioning will be used
 using additional bands           40
 real space projection scheme for non local part
 use partial core corrections
 calculate Harris-corrections to forces 
   (improved forces if not selfconsistent)
 use gradient corrections 
 use of overlap-Matrix (Vanderbilt PP)
 Gauss-broadening in eV      SIGMA  =   0.41


--------------------------------------------------------------------------------------------------------


  energy-cutoff  :      370.00
  volume of cell :      988.15
      direct lattice vectors                 reciprocal lattice vectors
     8.309900284  0.000000000  0.000000000     0.120338387  0.069477400  0.000000000
    -4.154950142  7.196584749  0.000000000     0.000000000  0.138954801  0.000000000
     0.000000000  0.000000000 16.523500443     0.000000000  0.000000000  0.060519864

  length of vectors
     8.309900284  8.309900284 16.523500443     0.138954801  0.138954801  0.060519864


 
 k-points in units of 2pi/SCALE and weight: Automatic mesh                          
   0.01504230  0.02605403  0.00000000       0.042
  -0.01504230  0.02605403  0.00000000       0.042
  -0.03008460  0.00000000  0.00000000       0.042
   0.04512690  0.04342338  0.00000000       0.042
  -0.01504230  0.06079273  0.00000000       0.042
   0.06016919  0.08684675  0.00000000       0.042
  -0.04512690  0.04342338  0.00000000       0.042
   0.01504230  0.06079273  0.00000000       0.042
   0.06016919  0.01736935  0.00000000       0.042
  -0.04512690 -0.00868468  0.00000000       0.042
  -0.01504230 -0.04342338  0.00000000       0.042
   0.03008460 -0.03473870  0.00000000       0.042
   0.04512690 -0.00868468  0.00000000       0.042
   0.01504230 -0.04342338  0.00000000       0.042
  -0.03008460 -0.03473870  0.00000000       0.042
  -0.01504230  0.00868468  0.00000000       0.042
  -0.01504230 -0.00868468  0.00000000       0.042
   0.00000000 -0.01736935  0.00000000       0.042
   0.04512690  0.07816208  0.00000000       0.042
  -0.04512690 -0.06079273  0.00000000       0.042
   0.03008460  0.06947740  0.00000000       0.042
  -0.04512690  0.02605403  0.00000000       0.042
  -0.04512690 -0.02605403  0.00000000       0.042
   0.00000000 -0.05210805  0.00000000       0.042
 
 k-points in reciprocal lattice and weights: Automatic mesh                          
   0.12500000  0.12500000  0.00000000       0.042
  -0.12500000  0.25000000  0.00000000       0.042
  -0.25000000  0.12500000  0.00000000       0.042
   0.37500000  0.12500000  0.00000000       0.042
  -0.12500000  0.50000000  0.00000000       0.042
   0.50000000  0.37500000  0.00000000       0.042
  -0.37500000  0.50000000  0.00000000       0.042
   0.12500000  0.37500000  0.00000000       0.042
   0.50000000 -0.12500000  0.00000000       0.042
  -0.37500000  0.12500000  0.00000000       0.042
  -0.12500000 -0.25000000  0.00000000       0.042
   0.25000000 -0.37500000  0.00000000       0.042
   0.37500000 -0.25000000  0.00000000       0.042
   0.12500000 -0.37500000  0.00000000       0.042
  -0.25000000 -0.12500000  0.00000000       0.042
  -0.12500000  0.12500000  0.00000000       0.042
  -0.12500000  0.00000000  0.00000000       0.042
   0.00000000 -0.12500000  0.00000000       0.042
   0.37500000  0.37500000  0.00000000       0.042
  -0.37500000 -0.25000000  0.00000000       0.042
   0.25000000  0.37500000  0.00000000       0.042
  -0.37500000  0.37500000  0.00000000       0.042
  -0.37500000  0.00000000  0.00000000       0.042
   0.00000000 -0.37500000  0.00000000       0.042
 
 position of ions in fractional coordinates (direct lattice) 
   0.99888673  0.99930412  0.43815121
   0.11093000  0.22330000  0.16024000
   0.22179300  0.11229515  0.29925006
   0.33265289  0.99988498  0.43791549
   0.44426000  0.22330000  0.16024000
   0.55461723  0.11148825  0.29817508
   0.66568869  0.00000202  0.43673390
   0.77760000  0.22330000  0.16024000
   0.88854671  0.11178380  0.29869797
   0.99756697  0.33281188  0.43793492
   0.11093000  0.55664000  0.16024000
   0.22163550  0.44466174  0.29901070
   0.33190265  0.33249791  0.44105823
   0.44426000  0.55664000  0.16024000
   0.55370602  0.44447125  0.29879957
   0.66531879  0.33329911  0.43653091
   0.77760000  0.55664000  0.16024000
   0.88818852  0.44476714  0.29812010
   0.99860343  0.66632902  0.43632761
   0.11093000  0.88997000  0.16024000
   0.22182194  0.77845350  0.29839700
   0.33336296  0.66754222  0.43743157
   0.44426000  0.88997000  0.16024000
   0.55463053  0.77819730  0.29819923
   0.66593780  0.66668921  0.43656724
   0.77760000  0.88997000  0.16024000
   0.88830834  0.77867640  0.29806995
   0.99982000  0.00108000  0.02337000
   0.33315000  0.00108000  0.02337000
   0.66649000  0.00108000  0.02337000
   0.99982000  0.33441000  0.02337000
   0.33315000  0.33441000  0.02337000
   0.66649000  0.33441000  0.02337000
   0.99982000  0.66775000  0.02337000
   0.33315000  0.66775000  0.02337000
   0.66649000  0.66775000  0.02337000
   0.23595677  0.15207906  0.65827231
   0.24766068  0.29631013  0.64435320
   0.22233645  0.00981152  0.67852374
 
 position of ions in cartesian coordinates  (Angst):
   4.14859030  7.19157676  7.23979172
  -0.00598313  1.60699737  2.64772571
   1.37649697  0.80814159  4.94465850
  -1.39015989  7.19575699  7.23589672
   2.76395593  1.60699737  2.64772571
   4.14558574  0.80233464  4.92689615
   5.53179827  0.00001451  7.21637284
   5.53397809  1.60699737  2.64772571
   6.91927847  0.80446159  4.93553611
   6.90686529  2.39510893  7.23621783
  -1.39099421  4.00590693  2.64772571
  -0.00577845  3.20004587  4.94070341
   1.37656570  2.39284940  7.28782590
   1.37894485  4.00590693  2.64772571
   2.75448591  3.19867501  4.93721475
   4.14389159  2.39861531  7.21301865
   4.14896701  4.00590693  2.64772571
   5.53277277  3.20080440  4.92598757
   5.52973102  4.79529329  7.20965952
  -2.77596374  6.40474453  2.64772571
  -1.39111724  5.60220656  4.93056294
  -0.00339169  4.80402419  7.22790068
  -0.00602468  6.40474453  2.64772571
   1.37555340  5.60036282  4.92729503
   2.76381628  4.79788538  7.21361891
   2.76399748  6.40474453  2.64772571
   4.14639210  5.60381070  4.92515902
   8.30391716  0.00777231  0.38615421
   2.76395593  0.00777231  0.38615421
   5.53397809  0.00777231  0.38615421
   6.91894762  2.40660991  0.38615421
   1.37898640  2.40660991  0.38615421
   4.14900856  2.40660991  0.38615421
   5.53393654  4.80551947  0.38615421
  -0.00602468  4.80551947  0.38615421
   2.76399748  4.80551947  0.38615421
   1.32889630  1.09444988 10.87696288
   0.82688169  2.13242099 10.64697042
   1.80682732  0.07060943 11.21158737
 


--------------------------------------------------------------------------------------------------------


 k-point     1 :   0.1250 0.1250 0.0000  plane waves:   15951
 k-point     2 :  -0.1250 0.2500 0.0000  plane waves:   15951
 k-point     3 :  -0.2500 0.1250 0.0000  plane waves:   15951
 k-point     4 :   0.3750 0.1250 0.0000  plane waves:   15982
 k-point     5 :  -0.1250 0.5000 0.0000  plane waves:   15982
 k-point     6 :   0.5000 0.3750 0.0000  plane waves:   15982
 k-point     7 :  -0.3750 0.5000 0.0000  plane waves:   15982
 k-point     8 :   0.1250 0.3750 0.0000  plane waves:   15982
 k-point     9 :   0.5000-0.1250 0.0000  plane waves:   15982
 k-point    10 :  -0.3750 0.1250 0.0000  plane waves:   15967
 k-point    11 :  -0.1250-0.2500 0.0000  plane waves:   15967
 k-point    12 :   0.2500-0.3750 0.0000  plane waves:   15967
 k-point    13 :   0.3750-0.2500 0.0000  plane waves:   15967
 k-point    14 :   0.1250-0.3750 0.0000  plane waves:   15967
 k-point    15 :  -0.2500-0.1250 0.0000  plane waves:   15967
 k-point    16 :  -0.1250 0.1250 0.0000  plane waves:   15947
 k-point    17 :  -0.1250 0.0000 0.0000  plane waves:   15947
 k-point    18 :   0.0000-0.1250 0.0000  plane waves:   15947
 k-point    19 :   0.3750 0.3750 0.0000  plane waves:   16001
 k-point    20 :  -0.3750-0.2500 0.0000  plane waves:   16001
 k-point    21 :   0.2500 0.3750 0.0000  plane waves:   16001
 k-point    22 :  -0.3750 0.3750 0.0000  plane waves:   15956
 k-point    23 :  -0.3750 0.0000 0.0000  plane waves:   15956
 k-point    24 :   0.0000-0.3750 0.0000  plane waves:   15956

 maximum and minimum number of plane-waves per node :      2691     2615

 maximum number of plane-waves:     16001
 maximum index in each direction: 
   IXMAX=   13   IYMAX=   13   IZMAX=   25
   IXMIN=  -13   IYMIN=  -13   IZMIN=  -25


 real space projection operators:
  total allocation   :       9689.61 KBytes
  max/ min on nodes  :       1709.44       1430.52


 parallel 3D FFT for wavefunctions:
    minimum data exchange during FFTs selected (reduces bandwidth)
 parallel 3D FFT for charge:
    minimum data exchange during FFTs selected (reduces bandwidth)


 total amount of memory used by VASP MPI-rank0   101486. kBytes
=======================================================================

   base                                    :      30000. kBytes
   nonlr-proj                              :       3359. kBytes
   fftplans                                :       2350. kBytes
   grid                                    :       4208. kBytes
   one-center                              :        108. kBytes
   wavefun                                 :      61461. kBytes
 
     INWAV:  cpu time      0.0000: real time      0.0000
 Broyden mixing: mesh for mixing (old mesh)
   NGX = 27   NGY = 27   NGZ = 51
  (NGX  = 80   NGY  = 80   NGZ  =160)
  gives a total of  37179 points

 initial charge density was supplied:
 charge density of overlapping atoms calculated
 number of electron     376.0000000 magnetization 
 keeping initial charge density in first step


--------------------------------------------------------------------------------------------------------


 Maximum index for non-local projection operator          386
 Maximum index for augmentation-charges          593 (set IRDMAX)


--------------------------------------------------------------------------------------------------------


 First call to EWALD:  gamma=   0.178
 Maximum number of real-space cells   4x   4x   2
 Maximum number of reciprocal cells   2x   2x   4

    FEWALD:  cpu time      0.0131: real time      0.0132


--------------------------------------- Ionic step        1  -------------------------------------------




--------------------------------------- Iteration      1(   1)  ---------------------------------------


    POTLOK:  cpu time      0.0548: real time      0.0551
    SETDIJ:  cpu time      0.0210: real time      0.0210
     EDDAV:  cpu time     14.5249: real time     14.6159
       DOS:  cpu time      0.0370: real time      0.0372
    --------------------------------------------
      LOOP:  cpu time     14.6377: real time     14.7293

 eigenvalue-minimisations  : 10968
 total energy-change (2. order) : 0.2100958E+04  (-0.1521564E+05)
 number of electron     376.0000000 magnetization 
 augmentation part      376.0000000 magnetization 

 Free energy of the ion-electron system (eV)
  ---------------------------------------------------
  alpha Z        PSCENC =       918.22725072
  Ewald energy   TEWEN  =     20630.71927917
  -Hartree energ DENC   =    -53270.30875731
  -exchange      EXHF   =         0.00000000
  -V(xc)+E(xc)   XCENC  =      -993.42600157
  PAW double counting   =     29844.20032359   -27608.36462881
  entropy T*S    EENTRO =        -1.26022300
  eigenvalues    EBANDS =      2419.30705294
  atomic energy  EATOM  =     30161.86332653
  Solvation  Ediel_sol  =         0.00000000
  ---------------------------------------------------
  free energy    TOTEN  =      2100.95762227 eV

  energy without entropy =     2102.21784527  energy(sigma->0) =     2101.58773377


--------------------------------------------------------------------------------------------------------




--------------------------------------- Iteration      1(   2)  ---------------------------------------


     EDDAV:  cpu time     15.5141: real time     15.6102
       DOS:  cpu time      0.0358: real time      0.0359
    --------------------------------------------
      LOOP:  cpu time     15.5499: real time     15.6461

 eigenvalue-minimisations  : 11876
 total energy-change (2. order) :-0.2195924E+04  (-0.2068073E+04)
 number of electron     376.0000000 magnetization 
 augmentation part      376.0000000 magnetization 

 Free energy of the ion-electron system (eV)
  ---------------------------------------------------
  alpha Z        PSCENC =       918.22725072
  Ewald energy   TEWEN  =     20630.71927917
  -Hartree energ DENC   =    -53270.30875731
  -exchange      EXHF   =         0.00000000
  -V(xc)+E(xc)   XCENC  =      -993.42600157
  PAW double counting   =     29844.20032359   -27608.36462881
  entropy T*S    EENTRO =        -3.50924418
  eigenvalues    EBANDS =       225.63222206
  atomic energy  EATOM  =     30161.86332653
  Solvation  Ediel_sol  =         0.00000000
  ---------------------------------------------------
  free energy    TOTEN  =       -94.96622978 eV

  energy without entropy =      -91.45698560  energy(sigma->0) =      -93.21160769


--------------------------------------------------------------------------------------------------------




--------------------------------------- Iteration      1(   3)  ---------------------------------------


     EDDAV:  cpu time     16.3334: real time     16.4295
       DOS:  cpu time      0.0335: real time      0.0336
    --------------------------------------------
      LOOP:  cpu time     16.3668: real time     16.4631

 eigenvalue-minimisations  : 12200
 total energy-change (2. order) :-0.1158278E+03  (-0.1058324E+03)
 number of electron     376.0000000 magnetization 
 augmentation part      376.0000000 magnetization 

 Free energy of the ion-electron system (eV)
  ---------------------------------------------------
  alpha Z        PSCENC =       918.22725072
  Ewald energy   TEWEN  =     20630.71927917
  -Hartree energ DENC   =    -53270.30875731
  -exchange      EXHF   =         0.00000000
  -V(xc)+E(xc)   XCENC  =      -993.42600157
  PAW double counting   =     29844.20032359   -27608.36462881
  entropy T*S    EENTRO =        -5.22294658
  eigenvalues    EBANDS =       111.51809342
  atomic energy  EATOM  =     30161.86332653
  Solvation  Ediel_sol  =         0.00000000
  ---------------------------------------------------
  free energy    TOTEN  =      -210.79406082 eV

  energy without entropy =     -205.57111424  energy(sigma->0) =     -208.18258753


--------------------------------------------------------------------------------------------------------




--------------------------------------- Iteration      1(   4)  ---------------------------------------


     EDDAV:  cpu time     16.7601: real time     16.8614
       DOS:  cpu time      0.0289: real time      0.0290
    --------------------------------------------
      LOOP:  cpu time     16.7891: real time     16.8904

 eigenvalue-minimisations  : 12592
 total energy-change (2. order) :-0.3392655E+01  (-0.3329960E+01)
 number of electron     376.0000000 magnetization 
 augmentation part      376.0000000 magnetization 

 Free energy of the ion-electron system (eV)
  ---------------------------------------------------
  alpha Z        PSCENC =       918.22725072
  Ewald energy   TEWEN  =     20630.71927917
  -Hartree energ DENC   =    -53270.30875731
  -exchange      EXHF   =         0.00000000
  -V(xc)+E(xc)   XCENC  =      -993.42600157
  PAW double counting   =     29844.20032359   -27608.36462881
  entropy T*S    EENTRO =        -5.26560233
  eigenvalues    EBANDS =       108.16809393
  atomic energy  EATOM  =     30161.86332653
  Solvation  Ediel_sol  =         0.00000000
  ---------------------------------------------------
  free energy    TOTEN  =      -214.18671606 eV

  energy without entropy =     -208.92111374  energy(sigma->0) =     -211.55391490


--------------------------------------------------------------------------------------------------------




--------------------------------------- Iteration      1(   5)  ---------------------------------------


     EDDAV:  cpu time     20.3806: real time     20.5058
       DOS:  cpu time      0.0317: real time      0.0318
    CHARGE:  cpu time      0.2669: real time      0.2680
    MIXING:  cpu time      0.0894: real time      0.0897
    --------------------------------------------
      LOOP:  cpu time     20.7685: real time     20.8954

 eigenvalue-minimisations  : 16064
 total energy-change (2. order) :-0.1607336E+00  (-0.1595859E+00)
 number of electron     376.0000035 magnetization 
 augmentation part      146.9765326 magnetization 

 Broyden mixing:
  rms(total) = 0.39531E+01    rms(broyden)= 0.39523E+01
  rms(prec ) = 0.41070E+01
  weight for this iteration     100.00

 Free energy of the ion-electron system (eV)
  ---------------------------------------------------
  alpha Z        PSCENC =       918.22725072
  Ewald energy   TEWEN  =     20630.71927917
  -Hartree energ DENC   =    -53270.30875731
  -exchange      EXHF   =         0.00000000
  -V(xc)+E(xc)   XCENC  =      -993.42600157
  PAW double counting   =     29844.20032359   -27608.36462881
  entropy T*S    EENTRO =        -5.26597815
  eigenvalues    EBANDS =       108.00773613
  atomic energy  EATOM  =     30161.86332653
  Solvation  Ediel_sol  =         0.00000000
  ---------------------------------------------------
  free energy    TOTEN  =      -214.34744969 eV

  energy without entropy =     -209.08147154  energy(sigma->0) =     -211.71446061


--------------------------------------------------------------------------------------------------------




--------------------------------------- Iteration      1(   6)  ---------------------------------------


    POTLOK:  cpu time      0.0537: real time      0.0563
    SETDIJ:  cpu time      0.0156: real time      0.0156
     EDDAV:  cpu time     15.7106: real time     15.8065
       DOS:  cpu time      0.0356: real time      0.0357
    CHARGE:  cpu time      0.2646: real time      0.2657
    MIXING:  cpu time      0.0897: real time      0.0900
    --------------------------------------------
      LOOP:  cpu time     16.1697: real time     16.2698

 eigenvalue-minimisations  : 11644
 total energy-change (2. order) : 0.9526548E+01  (-0.3273627E+01)
 number of electron     376.0000033 magnetization 
 augmentation part      152.5150526 magnetization 

 Broyden mixing:
  rms(total) = 0.19552E+01    rms(broyden)= 0.19551E+01
  rms(prec ) = 0.19883E+01
  weight for this iteration     100.00

 eigenvalues of (default mixing * dielectric matrix)
  average eigenvalue GAMMA=   1.4959
  1.4959

 Free energy of the ion-electron system (eV)
  ---------------------------------------------------
  alpha Z        PSCENC =       918.22725072
  Ewald energy   TEWEN  =     20630.71927917
  -Hartree energ DENC   =    -53117.06935526
  -exchange      EXHF   =         0.00000000
  -V(xc)+E(xc)   XCENC  =      -999.13952026
  PAW double counting   =     32028.07350830   -29835.60045377
  entropy T*S    EENTRO =        -5.19861829
  eigenvalues    EBANDS =        13.30368126
  atomic energy  EATOM  =     30161.86332653
  Solvation  Ediel_sol  =         0.00000000
  ---------------------------------------------------
  free energy    TOTEN  =      -204.82090159 eV

  energy without entropy =     -199.62228331  energy(sigma->0) =     -202.22159245


--------------------------------------------------------------------------------------------------------




--------------------------------------- Iteration      1(   7)  ---------------------------------------


    POTLOK:  cpu time      0.0533: real time      0.0535
    SETDIJ:  cpu time      0.0155: real time      0.0156
     EDDAV:  cpu time     16.0165: real time     16.1149
       DOS:  cpu time      0.0420: real time      0.0421
    CHARGE:  cpu time      0.2646: real time      0.2658
    MIXING:  cpu time      0.0889: real time      0.0892
    --------------------------------------------
      LOOP:  cpu time     16.4807: real time     16.5810

 eigenvalue-minimisations  : 12072
 total energy-change (2. order) :-0.3667512E+01  (-0.7687052E+00)
 number of electron     376.0000043 magnetization 
 augmentation part      152.7542560 magnetization 

 Broyden mixing:
  rms(total) = 0.22839E+01    rms(broyden)= 0.22837E+01
  rms(prec ) = 0.32503E+01
  weight for this iteration     100.00

 eigenvalues of (default mixing * dielectric matrix)
  average eigenvalue GAMMA=   0.9710
  1.6420  0.3000

 Free energy of the ion-electron system (eV)
  ---------------------------------------------------
  alpha Z        PSCENC =       918.22725072
  Ewald energy   TEWEN  =     20630.71927917
  -Hartree energ DENC   =    -53111.56530887
  -exchange      EXHF   =         0.00000000
  -V(xc)+E(xc)   XCENC  =      -999.47623396
  PAW double counting   =     33911.35855123   -31741.33603721
  entropy T*S    EENTRO =        -4.73240955
  eigenvalues    EBANDS =        26.45316855
  atomic energy  EATOM  =     30161.86332653
  Solvation  Ediel_sol  =         0.00000000
  ---------------------------------------------------
  free energy    TOTEN  =      -208.48841338 eV

  energy without entropy =     -203.75600383  energy(sigma->0) =     -206.12220861


--------------------------------------------------------------------------------------------------------




--------------------------------------- Iteration      1(   8)  ---------------------------------------


    POTLOK:  cpu time      0.0534: real time      0.0547
    SETDIJ:  cpu time      0.0154: real time      0.0154
     EDDAV:  cpu time     16.9100: real time     17.0121
       DOS:  cpu time      0.0313: real time      0.0314
    CHARGE:  cpu time      0.2664: real time      0.2676
    MIXING:  cpu time      0.0880: real time      0.0883
    --------------------------------------------
      LOOP:  cpu time     17.3645: real time     17.4695

 eigenvalue-minimisations  : 12948
 total energy-change (2. order) : 0.2339043E+01  (-0.1266265E+01)
 number of electron     376.0000044 magnetization 
 augmentation part      152.6584280 magnetization 

 Broyden mixing:
  rms(total) = 0.14698E+01    rms(broyden)= 0.14695E+01
  rms(prec ) = 0.25751E+01
  weight for this iteration     100.00

 eigenvalues of (default mixing * dielectric matrix)
  average eigenvalue GAMMA=   0.9008
  1.8907  0.6497  0.1622

 Free energy of the ion-electron system (eV)
  ---------------------------------------------------
  alpha Z        PSCENC =       918.22725072
  Ewald energy   TEWEN  =     20630.71927917
  -Hartree energ DENC   =    -53159.36056020
  -exchange      EXHF   =         0.00000000
  -V(xc)+E(xc)   XCENC  =      -999.66291333
  PAW double counting   =     34224.73633066   -32058.26495083
  entropy T*S    EENTRO =        -4.84071314
  eigenvalues    EBANDS =        80.43358049
  atomic energy  EATOM  =     30161.86332653
  Solvation  Ediel_sol  =         0.00000000
  ---------------------------------------------------
  free energy    TOTEN  =      -206.14936993 eV

  energy without entropy =     -201.30865679  energy(sigma->0) =     -203.72901336


--------------------------------------------------------------------------------------------------------




--------------------------------------- Iteration      1(   9)  ---------------------------------------


    POTLOK:  cpu time      0.0533: real time      0.0535
    SETDIJ:  cpu time      0.0152: real time      0.0153
     EDDAV:  cpu time     16.7772: real time     16.8785
       DOS:  cpu time      0.0325: real time      0.0326
    CHARGE:  cpu time      0.2662: real time      0.2680
    MIXING:  cpu time      0.0881: real time      0.0884
    --------------------------------------------
      LOOP:  cpu time     17.2326: real time     17.3363

 eigenvalue-minimisations  : 12860
 total energy-change (2. order) :-0.1900620E+01  (-0.1115973E+01)
 number of electron     376.0000019 magnetization 
 augmentation part      152.4546143 magnetization 

 Broyden mixing:
  rms(total) = 0.17009E+01    rms(broyden)= 0.17006E+01
  rms(prec ) = 0.28427E+01
  weight for this iteration     100.00

 eigenvalues of (default mixing * dielectric matrix)
  average eigenvalue GAMMA=   0.9163
  2.3748  0.9679  0.2118  0.1106

 Free energy of the ion-electron system (eV)
  ---------------------------------------------------
  alpha Z        PSCENC =       918.22725072
  Ewald energy   TEWEN  =     20630.71927917
  -Hartree energ DENC   =    -53180.61562508
  -exchange      EXHF   =         0.00000000
  -V(xc)+E(xc)   XCENC  =      -999.75910091
  PAW double counting   =     34597.59883127   -32435.13450398
  entropy T*S    EENTRO =        -4.66711693
  eigenvalues    EBANDS =       103.71766957
  atomic energy  EATOM  =     30161.86332653
  Solvation  Ediel_sol  =         0.00000000
  ---------------------------------------------------
  free energy    TOTEN  =      -208.04998964 eV

  energy without entropy =     -203.38287271  energy(sigma->0) =     -205.71643117


--------------------------------------------------------------------------------------------------------




--------------------------------------- Iteration      1(  10)  ---------------------------------------


    POTLOK:  cpu time      0.0535: real time      0.0544
    SETDIJ:  cpu time      0.0155: real time      0.0156
     EDDAV:  cpu time     16.8521: real time     16.9500
       DOS:  cpu time      0.0329: real time      0.0330
    CHARGE:  cpu time      0.2652: real time      0.2664
    MIXING:  cpu time      0.0885: real time      0.0888
    --------------------------------------------
      LOOP:  cpu time     17.3077: real time     17.4082

 eigenvalue-minimisations  : 12628
 total energy-change (2. order) : 0.3055974E+01  (-0.4860814E+00)
 number of electron     376.0000035 magnetization 
 augmentation part      152.8909847 magnetization 

 Broyden mixing:
  rms(total) = 0.94473E+00    rms(broyden)= 0.94451E+00
  rms(prec ) = 0.12156E+01
  weight for this iteration     100.00

 eigenvalues of (default mixing * dielectric matrix)
  average eigenvalue GAMMA=   0.7936
  2.4325  0.9938  0.2352  0.1916  0.1149

 Free energy of the ion-electron system (eV)
  ---------------------------------------------------
  alpha Z        PSCENC =       918.22725072
  Ewald energy   TEWEN  =     20630.71927917
  -Hartree energ DENC   =    -53164.56110542
  -exchange      EXHF   =         0.00000000
  -V(xc)+E(xc)   XCENC  =      -999.75614009
  PAW double counting   =     35413.89906028   -33260.12151693
  entropy T*S    EENTRO =        -5.02497244
  eigenvalues    EBANDS =        99.76080272
  atomic energy  EATOM  =     30161.86332653
  Solvation  Ediel_sol  =         0.00000000
  ---------------------------------------------------
  free energy    TOTEN  =      -204.99401546 eV

  energy without entropy =     -199.96904302  energy(sigma->0) =     -202.48152924


--------------------------------------------------------------------------------------------------------




--------------------------------------- Iteration      1(  11)  ---------------------------------------


    POTLOK:  cpu time      0.0532: real time      0.0535
    SETDIJ:  cpu time      0.0154: real time      0.0155
     EDDAV:  cpu time     16.3048: real time     16.4033
       DOS:  cpu time      0.0448: real time      0.0450
    CHARGE:  cpu time      0.2651: real time      0.2662
    MIXING:  cpu time      0.0887: real time      0.0889
    --------------------------------------------
      LOOP:  cpu time     16.7720: real time     16.8723

 eigenvalue-minimisations  : 12420
 total energy-change (2. order) : 0.9961140E+00  (-0.1441918E+00)
 number of electron     376.0000033 magnetization 
 augmentation part      152.9180564 magnetization 

 Broyden mixing:
  rms(total) = 0.15561E+00    rms(broyden)= 0.15520E+00
  rms(prec ) = 0.24309E+00
  weight for this iteration     100.00

 eigenvalues of (default mixing * dielectric matrix)
  average eigenvalue GAMMA=   0.7835
  2.4069  1.0508  0.6878  0.2215  0.2215  0.1126

 Free energy of the ion-electron system (eV)
  ---------------------------------------------------
  alpha Z        PSCENC =       918.22725072
  Ewald energy   TEWEN  =     20630.71927917
  -Hartree energ DENC   =    -53164.37594957
  -exchange      EXHF   =         0.00000000
  -V(xc)+E(xc)   XCENC  =      -999.69636895
  PAW double counting   =     35515.65375030   -33362.61108280
  entropy T*S    EENTRO =        -5.20341226
  eigenvalues    EBANDS =       101.42530538
  atomic energy  EATOM  =     30161.86332653
  Solvation  Ediel_sol  =         0.00000000
  ---------------------------------------------------
  free energy    TOTEN  =      -203.99790147 eV

  energy without entropy =     -198.79448921  energy(sigma->0) =     -201.39619534


--------------------------------------------------------------------------------------------------------




--------------------------------------- Iteration      1(  12)  ---------------------------------------


    POTLOK:  cpu time      0.0533: real time      0.0550
    SETDIJ:  cpu time      0.0154: real time      0.0155
     EDDAV:  cpu time     15.6766: real time     15.7688
       DOS:  cpu time      0.0365: real time      0.0366
    CHARGE:  cpu time      0.2652: real time      0.2663
    MIXING:  cpu time      0.0888: real time      0.0890
    --------------------------------------------
      LOOP:  cpu time     16.1358: real time     16.2312

 eigenvalue-minimisations  : 11728
 total energy-change (2. order) : 0.1994224E-02  (-0.2224564E-01)
 number of electron     376.0000035 magnetization 
 augmentation part      152.7852633 magnetization 

 Broyden mixing:
  rms(total) = 0.11229E+00    rms(broyden)= 0.11222E+00
  rms(prec ) = 0.13853E+00
  weight for this iteration     100.00

 eigenvalues of (default mixing * dielectric matrix)
  average eigenvalue GAMMA=   0.7191
  2.4059  1.0499  0.6776  0.3243  0.2317  0.2317  0.1128

 Free energy of the ion-electron system (eV)
  ---------------------------------------------------
  alpha Z        PSCENC =       918.22725072
  Ewald energy   TEWEN  =     20630.71927917
  -Hartree energ DENC   =    -53173.63914938
  -exchange      EXHF   =         0.00000000
  -V(xc)+E(xc)   XCENC  =      -999.52959333
  PAW double counting   =     35538.92768249   -33385.08975566
  entropy T*S    EENTRO =        -5.22113402
  eigenvalues    EBANDS =       109.74618622
  atomic energy  EATOM  =     30161.86332653
  Solvation  Ediel_sol  =         0.00000000
  ---------------------------------------------------
  free energy    TOTEN  =      -203.99590725 eV

  energy without entropy =     -198.77477323  energy(sigma->0) =     -201.38534024


--------------------------------------------------------------------------------------------------------




--------------------------------------- Iteration      1(  13)  ---------------------------------------


    POTLOK:  cpu time      0.0533: real time      0.0535
    SETDIJ:  cpu time      0.0155: real time      0.0155
     EDDAV:  cpu time     15.3145: real time     15.4066
       DOS:  cpu time      0.0373: real time      0.0375
    CHARGE:  cpu time      0.2649: real time      0.2660
    MIXING:  cpu time      0.0891: real time      0.0894
    --------------------------------------------
      LOOP:  cpu time     15.7747: real time     15.8684

 eigenvalue-minimisations  : 11528
 total energy-change (2. order) : 0.6644751E-02  (-0.4338156E-02)
 number of electron     376.0000035 magnetization 
 augmentation part      152.7791878 magnetization 

 Broyden mixing:
  rms(total) = 0.61410E-01    rms(broyden)= 0.61397E-01
  rms(prec ) = 0.81428E-01
  weight for this iteration     100.00

 eigenvalues of (default mixing * dielectric matrix)
  average eigenvalue GAMMA=   0.7566
  2.3967  0.9568  0.9568  0.9236  0.1128  0.2225  0.2225  0.2611

 Free energy of the ion-electron system (eV)
  ---------------------------------------------------
  alpha Z        PSCENC =       918.22725072
  Ewald energy   TEWEN  =     20630.71927917
  -Hartree energ DENC   =    -53176.24448802
  -exchange      EXHF   =         0.00000000
  -V(xc)+E(xc)   XCENC  =      -999.50829945
  PAW double counting   =     35542.33789018   -33388.36262874
  entropy T*S    EENTRO =        -5.22446216
  eigenvalues    EBANDS =       112.20286928
  atomic energy  EATOM  =     30161.86332653
  Solvation  Ediel_sol  =         0.00000000
  ---------------------------------------------------
  free energy    TOTEN  =      -203.98926249 eV

  energy without entropy =     -198.76480033  energy(sigma->0) =     -201.37703141


--------------------------------------------------------------------------------------------------------




--------------------------------------- Iteration      1(  14)  ---------------------------------------


    POTLOK:  cpu time      0.0529: real time      0.0542
    SETDIJ:  cpu time      0.0153: real time      0.0154
     EDDAV:  cpu time     15.7233: real time     15.8177
       DOS:  cpu time      0.0331: real time      0.0332
    CHARGE:  cpu time      0.2653: real time      0.2664
    MIXING:  cpu time      0.0896: real time      0.0899
    --------------------------------------------
      LOOP:  cpu time     16.1796: real time     16.2768

 eigenvalue-minimisations  : 11864
 total energy-change (2. order) : 0.1113976E-02  (-0.1533750E-02)
 number of electron     376.0000035 magnetization 
 augmentation part      152.7719871 magnetization 

 Broyden mixing:
  rms(total) = 0.64887E-01    rms(broyden)= 0.64881E-01
  rms(prec ) = 0.90817E-01
  weight for this iteration     100.00

 eigenvalues of (default mixing * dielectric matrix)
  average eigenvalue GAMMA=   0.7486
  2.3850  1.1746  1.1746  0.8514  0.1128  0.3406  0.2244  0.2244  0.2495

 Free energy of the ion-electron system (eV)
  ---------------------------------------------------
  alpha Z        PSCENC =       918.22725072
  Ewald energy   TEWEN  =     20630.71927917
  -Hartree energ DENC   =    -53182.64352575
  -exchange      EXHF   =         0.00000000
  -V(xc)+E(xc)   XCENC  =      -999.46678478
  PAW double counting   =     35539.34982846   -33385.08243055
  entropy T*S    EENTRO =        -5.22921308
  eigenvalues    EBANDS =       118.27412076
  atomic energy  EATOM  =     30161.86332653
  Solvation  Ediel_sol  =         0.00000000
  ---------------------------------------------------
  free energy    TOTEN  =      -203.98814852 eV

  energy without entropy =     -198.75893544  energy(sigma->0) =     -201.37354198


--------------------------------------------------------------------------------------------------------




--------------------------------------- Iteration      1(  15)  ---------------------------------------


    POTLOK:  cpu time      0.0532: real time      0.0535
    SETDIJ:  cpu time      0.0156: real time      0.0156
     EDDAV:  cpu time     15.5256: real time     15.6191
       DOS:  cpu time      0.0347: real time      0.0348
    CHARGE:  cpu time      0.2640: real time      0.2651
    MIXING:  cpu time      0.0897: real time      0.0900
    --------------------------------------------
      LOOP:  cpu time     15.9828: real time     16.0781

 eigenvalue-minimisations  : 11716
 total energy-change (2. order) : 0.3210022E-02  (-0.8875519E-03)
 number of electron     376.0000035 magnetization 
 augmentation part      152.7660110 magnetization 

 Broyden mixing:
  rms(total) = 0.46653E-01    rms(broyden)= 0.46647E-01
  rms(prec ) = 0.71321E-01
  weight for this iteration     100.00

 eigenvalues of (default mixing * dielectric matrix)
  average eigenvalue GAMMA=   0.8117
  2.2961  1.9092  1.1710  0.8362  0.8362  0.1128  0.2862  0.2239  0.2239  0.2212

 Free energy of the ion-electron system (eV)
  ---------------------------------------------------
  alpha Z        PSCENC =       918.22725072
  Ewald energy   TEWEN  =     20630.71927917
  -Hartree energ DENC   =    -53187.01594481
  -exchange      EXHF   =         0.00000000
  -V(xc)+E(xc)   XCENC  =      -999.43802057
  PAW double counting   =     35535.41366412   -33380.97906496
  entropy T*S    EENTRO =        -5.23094809
  eigenvalues    EBANDS =       122.45551939
  atomic energy  EATOM  =     30161.86332653
  Solvation  Ediel_sol  =         0.00000000
  ---------------------------------------------------
  free energy    TOTEN  =      -203.98493850 eV

  energy without entropy =     -198.75399040  energy(sigma->0) =     -201.36946445


--------------------------------------------------------------------------------------------------------




--------------------------------------- Iteration      1(  16)  ---------------------------------------


    POTLOK:  cpu time      0.0534: real time      0.0553
    SETDIJ:  cpu time      0.0155: real time      0.0156
     EDDAV:  cpu time     15.5765: real time     15.6707
       DOS:  cpu time      0.0319: real time      0.0320
    CHARGE:  cpu time      0.2645: real time      0.2657
    MIXING:  cpu time      0.0901: real time      0.0904
    --------------------------------------------
      LOOP:  cpu time     16.0319: real time     16.1296

 eigenvalue-minimisations  : 11868
 total energy-change (2. order) : 0.3539527E-02  (-0.6165913E-03)
 number of electron     376.0000035 magnetization 
 augmentation part      152.7548756 magnetization 

 Broyden mixing:
  rms(total) = 0.21092E-01    rms(broyden)= 0.21080E-01
  rms(prec ) = 0.30136E-01
  weight for this iteration     100.00

 eigenvalues of (default mixing * dielectric matrix)
  average eigenvalue GAMMA=   0.7837
  2.2294  2.1542  1.1504  0.8377  0.8377  0.1128  0.3167  0.3167  0.2237  0.2237
  0.2177

 Free energy of the ion-electron system (eV)
  ---------------------------------------------------
  alpha Z        PSCENC =       918.22725072
  Ewald energy   TEWEN  =     20630.71927917
  -Hartree energ DENC   =    -53194.56552728
  -exchange      EXHF   =         0.00000000
  -V(xc)+E(xc)   XCENC  =      -999.38140618
  PAW double counting   =     35526.21938881   -33371.54690652
  entropy T*S    EENTRO =        -5.23422044
  eigenvalues    EBANDS =       129.71741622
  atomic energy  EATOM  =     30161.86332653
  Solvation  Ediel_sol  =         0.00000000
  ---------------------------------------------------
  free energy    TOTEN  =      -203.98139897 eV

  energy without entropy =     -198.74717853  energy(sigma->0) =     -201.36428875


--------------------------------------------------------------------------------------------------------




--------------------------------------- Iteration      1(  17)  ---------------------------------------


    POTLOK:  cpu time      0.0531: real time      0.0534
    SETDIJ:  cpu time      0.0154: real time      0.0155
     EDDAV:  cpu time     15.5439: real time     15.6380
       DOS:  cpu time      0.0320: real time      0.0321
    CHARGE:  cpu time      0.2647: real time      0.2657
    MIXING:  cpu time      0.0902: real time      0.0906
    --------------------------------------------
      LOOP:  cpu time     15.9994: real time     16.0953

 eigenvalue-minimisations  : 11840
 total energy-change (2. order) : 0.5834470E-03  (-0.2008691E-03)
 number of electron     376.0000035 magnetization 
 augmentation part      152.7527143 magnetization 

 Broyden mixing:
  rms(total) = 0.13720E-01    rms(broyden)= 0.13717E-01
  rms(prec ) = 0.22042E-01
  weight for this iteration     100.00

 eigenvalues of (default mixing * dielectric matrix)
  average eigenvalue GAMMA=   0.8359
  2.3818  2.3818  1.1238  1.0315  1.0315  0.7352  0.1128  0.2998  0.2242  0.2242
  0.2653  0.2191

 Free energy of the ion-electron system (eV)
  ---------------------------------------------------
  alpha Z        PSCENC =       918.22725072
  Ewald energy   TEWEN  =     20630.71927917
  -Hartree energ DENC   =    -53197.04719383
  -exchange      EXHF   =         0.00000000
  -V(xc)+E(xc)   XCENC  =      -999.36449650
  PAW double counting   =     35525.24679699   -33370.54989917
  entropy T*S    EENTRO =        -5.23458432
  eigenvalues    EBANDS =       132.15870488
  atomic energy  EATOM  =     30161.86332653
  Solvation  Ediel_sol  =         0.00000000
  ---------------------------------------------------
  free energy    TOTEN  =      -203.98081552 eV

  energy without entropy =     -198.74623121  energy(sigma->0) =     -201.36352337


--------------------------------------------------------------------------------------------------------




--------------------------------------- Iteration      1(  18)  ---------------------------------------


    POTLOK:  cpu time      0.0533: real time      0.0542
    SETDIJ:  cpu time      0.0154: real time      0.0154
     EDDAV:  cpu time     15.4454: real time     15.5400
       DOS:  cpu time      0.0329: real time      0.0330
    CHARGE:  cpu time      0.2651: real time      0.2662
    MIXING:  cpu time      0.0906: real time      0.0909
    --------------------------------------------
      LOOP:  cpu time     15.9027: real time     15.9998

 eigenvalue-minimisations  : 11728
 total energy-change (2. order) : 0.1811338E-03  (-0.1674521E-03)
 number of electron     376.0000035 magnetization 
 augmentation part      152.7511194 magnetization 

 Broyden mixing:
  rms(total) = 0.17852E-01    rms(broyden)= 0.17850E-01
  rms(prec ) = 0.25796E-01
  weight for this iteration     100.00

 eigenvalues of (default mixing * dielectric matrix)
  average eigenvalue GAMMA=   0.8349
  2.6739  2.3478  1.1668  1.1668  1.0619  0.7314  0.1128  0.3406  0.3212  0.2234
  0.2234  0.2662  0.2174

 Free energy of the ion-electron system (eV)
  ---------------------------------------------------
  alpha Z        PSCENC =       918.22725072
  Ewald energy   TEWEN  =     20630.71927917
  -Hartree energ DENC   =    -53203.29185399
  -exchange      EXHF   =         0.00000000
  -V(xc)+E(xc)   XCENC  =      -999.32440400
  PAW double counting   =     35522.34166041   -33367.64825194
  entropy T*S    EENTRO =        -5.23539615
  eigenvalues    EBANDS =       138.36775485
  atomic energy  EATOM  =     30161.86332653
  Solvation  Ediel_sol  =         0.00000000
  ---------------------------------------------------
  free energy    TOTEN  =      -203.98063439 eV

  energy without entropy =     -198.74523824  energy(sigma->0) =     -201.36293631


--------------------------------------------------------------------------------------------------------




--------------------------------------- Iteration      1(  19)  ---------------------------------------


    POTLOK:  cpu time      0.0530: real time      0.0532
    SETDIJ:  cpu time      0.0154: real time      0.0155
     EDDAV:  cpu time     15.4727: real time     15.5691
       DOS:  cpu time      0.0314: real time      0.0315
    CHARGE:  cpu time      0.2650: real time      0.2661
    MIXING:  cpu time      0.0910: real time      0.0914
    --------------------------------------------
      LOOP:  cpu time     15.9285: real time     16.0268

 eigenvalue-minimisations  : 11824
 total energy-change (2. order) : 0.8525193E-04  (-0.9474883E-04)
 number of electron     376.0000035 magnetization 
 augmentation part      152.7500662 magnetization 

 Broyden mixing:
  rms(total) = 0.13110E-01    rms(broyden)= 0.13108E-01
  rms(prec ) = 0.20365E-01
  weight for this iteration     100.00

 eigenvalues of (default mixing * dielectric matrix)
  average eigenvalue GAMMA=   0.8905
  3.0374  2.4478  1.4155  1.4155  0.9227  0.8066  0.8066  0.1128  0.3092  0.2238
  0.2238  0.2809  0.2180  0.2466

 Free energy of the ion-electron system (eV)
  ---------------------------------------------------
  alpha Z        PSCENC =       918.22725072
  Ewald energy   TEWEN  =     20630.71927917
  -Hartree energ DENC   =    -53206.04658232
  -exchange      EXHF   =         0.00000000
  -V(xc)+E(xc)   XCENC  =      -999.30958102
  PAW double counting   =     35519.35226748   -33364.66371495
  entropy T*S    EENTRO =        -5.23513160
  eigenvalues    EBANDS =       141.11233684
  atomic energy  EATOM  =     30161.86332653
  Solvation  Ediel_sol  =         0.00000000
  ---------------------------------------------------
  free energy    TOTEN  =      -203.98054914 eV

  energy without entropy =     -198.74541754  energy(sigma->0) =     -201.36298334


--------------------------------------------------------------------------------------------------------




--------------------------------------- Iteration      1(  20)  ---------------------------------------


    POTLOK:  cpu time      0.0534: real time      0.0552
    SETDIJ:  cpu time      0.0154: real time      0.0154
     EDDAV:  cpu time     15.5836: real time     15.6795
       DOS:  cpu time      0.0322: real time      0.0323
    CHARGE:  cpu time      0.2660: real time      0.2671
    MIXING:  cpu time      0.0914: real time      0.0917
    --------------------------------------------
      LOOP:  cpu time     16.0419: real time     16.1412

 eigenvalue-minimisations  : 11924
 total energy-change (2. order) :-0.4667727E-04  (-0.5711916E-04)
 number of electron     376.0000035 magnetization 
 augmentation part      152.7478623 magnetization 

 Broyden mixing:
  rms(total) = 0.62898E-02    rms(broyden)= 0.62852E-02
  rms(prec ) = 0.82500E-02
  weight for this iteration     100.00

 eigenvalues of (default mixing * dielectric matrix)
  average eigenvalue GAMMA=   0.8825
  3.0574  2.4374  1.7750  1.2494  0.8991  0.7936  0.7936  0.6096  0.1128  0.3170
  0.2822  0.2238  0.2238  0.2179  0.2449

 Free energy of the ion-electron system (eV)
  ---------------------------------------------------
  alpha Z        PSCENC =       918.22725072
  Ewald energy   TEWEN  =     20630.71927917
  -Hartree energ DENC   =    -53209.32225412
  -exchange      EXHF   =         0.00000000
  -V(xc)+E(xc)   XCENC  =      -999.29683046
  PAW double counting   =     35512.45531968   -33357.78181985
  entropy T*S    EENTRO =        -5.23442535
  eigenvalues    EBANDS =       144.38955786
  atomic energy  EATOM  =     30161.86332653
  Solvation  Ediel_sol  =         0.00000000
  ---------------------------------------------------
  free energy    TOTEN  =      -203.98059582 eV

  energy without entropy =     -198.74617046  energy(sigma->0) =     -201.36338314


--------------------------------------------------------------------------------------------------------




--------------------------------------- Iteration      1(  21)  ---------------------------------------


    POTLOK:  cpu time      0.0527: real time      0.0530
    SETDIJ:  cpu time      0.0154: real time      0.0155
     EDDAV:  cpu time     15.5706: real time     15.6649
       DOS:  cpu time      0.0346: real time      0.0347
    CHARGE:  cpu time      0.2659: real time      0.2670
    MIXING:  cpu time      0.0919: real time      0.0923
    --------------------------------------------
      LOOP:  cpu time     16.0312: real time     16.1274

 eigenvalue-minimisations  : 11912
 total energy-change (2. order) :-0.1324980E-03  (-0.2208075E-04)
 number of electron     376.0000035 magnetization 
 augmentation part      152.7481051 magnetization 

 Broyden mixing:
  rms(total) = 0.72067E-02    rms(broyden)= 0.72061E-02
  rms(prec ) = 0.94894E-02
  weight for this iteration     100.00

 eigenvalues of (default mixing * dielectric matrix)
  average eigenvalue GAMMA=   0.9514
  3.4057  2.5304  2.5304  1.1405  1.1405  0.9596  0.8334  0.8334  0.1128  0.3126
  0.2814  0.2238  0.2238  0.2180  0.2429  0.2340

 Free energy of the ion-electron system (eV)
  ---------------------------------------------------
  alpha Z        PSCENC =       918.22725072
  Ewald energy   TEWEN  =     20630.71927917
  -Hartree energ DENC   =    -53210.04242611
  -exchange      EXHF   =         0.00000000
  -V(xc)+E(xc)   XCENC  =      -999.29626530
  PAW double counting   =     35511.33231935   -33356.69114998
  entropy T*S    EENTRO =        -5.23453260
  eigenvalues    EBANDS =       145.14146990
  atomic energy  EATOM  =     30161.86332653
  Solvation  Ediel_sol  =         0.00000000
  ---------------------------------------------------
  free energy    TOTEN  =      -203.98072831 eV

  energy without entropy =     -198.74619572  energy(sigma->0) =     -201.36346201


--------------------------------------------------------------------------------------------------------




--------------------------------------- Iteration      1(  22)  ---------------------------------------


    POTLOK:  cpu time      0.0528: real time      0.0542
    SETDIJ:  cpu time      0.0155: real time      0.0156
     EDDAV:  cpu time     15.1188: real time     15.2097
       DOS:  cpu time      0.0371: real time      0.0373
    CHARGE:  cpu time      0.2659: real time      0.2671
    MIXING:  cpu time      0.0924: real time      0.0927
    --------------------------------------------
      LOOP:  cpu time     15.5826: real time     15.6765

 eigenvalue-minimisations  : 11436
 total energy-change (2. order) :-0.1344736E-03  (-0.1615211E-04)
 number of electron     376.0000035 magnetization 
 augmentation part      152.7481023 magnetization 

 Broyden mixing:
  rms(total) = 0.35712E-02    rms(broyden)= 0.35703E-02
  rms(prec ) = 0.58620E-02
  weight for this iteration     100.00

 eigenvalues of (default mixing * dielectric matrix)
  average eigenvalue GAMMA=   1.0413
  4.8364  2.5773  2.4752  1.3317  1.3317  0.9405  0.7935  0.7935  0.7845  0.1128
  0.3151  0.2827  0.2238  0.2238  0.2463  0.2180  0.2159

 Free energy of the ion-electron system (eV)
  ---------------------------------------------------
  alpha Z        PSCENC =       918.22725072
  Ewald energy   TEWEN  =     20630.71927917
  -Hartree energ DENC   =    -53211.16430621
  -exchange      EXHF   =         0.00000000
  -V(xc)+E(xc)   XCENC  =      -999.29546568
  PAW double counting   =     35509.81725409   -33355.22562319
  entropy T*S    EENTRO =        -5.23473868
  eigenvalues    EBANDS =       146.31216046
  atomic energy  EATOM  =     30161.86332653
  Solvation  Ediel_sol  =         0.00000000
  ---------------------------------------------------
  free energy    TOTEN  =      -203.98086279 eV

  energy without entropy =     -198.74612410  energy(sigma->0) =     -201.36349344


--------------------------------------------------------------------------------------------------------




--------------------------------------- Iteration      1(  23)  ---------------------------------------


    POTLOK:  cpu time      0.0526: real time      0.0529
    SETDIJ:  cpu time      0.0155: real time      0.0155
     EDDAV:  cpu time     13.8829: real time     13.9718
       DOS:  cpu time      0.0357: real time      0.0358
    CHARGE:  cpu time      0.2661: real time      0.2673
    MIXING:  cpu time      0.0929: real time      0.0932
    --------------------------------------------
      LOOP:  cpu time     14.3457: real time     14.4366

 eigenvalue-minimisations  : 10268
 total energy-change (2. order) :-0.1167242E-03  (-0.6304928E-05)
[...]
  0.000000000000000E+000  0.000000000000000E+000  0.000000000000000E+000
   1.00000000000000        1.00000000000000        1.00000000000000     
   1.00000000000000        1.00000000000000        1.00000000000000     
  0.000000000000000E+000  0.000000000000000E+000  0.000000000000000E+000
   1.00000000000000        1.00000000000000        1.00000000000000     
   1.00000000000000        1.00000000000000        1.00000000000000     
  0.000000000000000E+000  0.000000000000000E+000  0.000000000000000E+000
   1.00000000000000        1.00000000000000        1.00000000000000     
   1.00000000000000        1.00000000000000        1.00000000000000     
  0.000000000000000E+000  0.000000000000000E+000  0.000000000000000E+000
   1.00000000000000        1.00000000000000        1.00000000000000     
   1.00000000000000        1.00000000000000        1.00000000000000     
  0.000000000000000E+000  0.000000000000000E+000  0.000000000000000E+000
   1.00000000000000        1.00000000000000        1.00000000000000     
   1.00000000000000        1.00000000000000        1.00000000000000     
  0.000000000000000E+000  0.000000000000000E+000  0.000000000000000E+000
   1.00000000000000        1.00000000000000        1.00000000000000     
   1.00000000000000        1.00000000000000        1.00000000000000     
  0.000000000000000E+000  0.000000000000000E+000  0.000000000000000E+000
   1.00000000000000        1.00000000000000        1.00000000000000     
  0.000000000000000E+000  0.000000000000000E+000  0.000000000000000E+000
  0.000000000000000E+000  0.000000000000000E+000  0.000000000000000E+000
  0.000000000000000E+000  0.000000000000000E+000  0.000000000000000E+000
  0.000000000000000E+000  0.000000000000000E+000  0.000000000000000E+000
  0.000000000000000E+000  0.000000000000000E+000  0.000000000000000E+000
  0.000000000000000E+000  0.000000000000000E+000  0.000000000000000E+000
  0.000000000000000E+000  0.000000000000000E+000  0.000000000000000E+000
  0.000000000000000E+000  0.000000000000000E+000  0.000000000000000E+000
  0.000000000000000E+000  0.000000000000000E+000  0.000000000000000E+000
   1.00000000000000        1.00000000000000        1.00000000000000     
   1.00000000000000        1.00000000000000        1.00000000000000     
   1.00000000000000        1.00000000000000        1.00000000000000     
 NEB: the previous image is higher in energy: T
 NEB: the next image is higher in energy    : F
 NEB: only prev energy greater

 NEB: Tangent
 ----------------------------------------------
     -0.00363     -0.01432      0.02542
      0.00000      0.00000      0.00000
     -0.00282     -0.01043      0.01226
     -0.01462     -0.02501      0.01863
      0.00000      0.00000      0.00000
     -0.00466     -0.01150      0.00459
     -0.00900     -0.02502      0.00272
      0.00000      0.00000      0.00000
     -0.00255     -0.01133      0.00659
     -0.00225     -0.02604      0.01749
      0.00000      0.00000      0.00000
     -0.00089     -0.01326      0.01173
     -0.01511     -0.03809      0.03582
      0.00000      0.00000      0.00000
     -0.00343     -0.01107      0.00539
     -0.01193     -0.02510      0.00514
      0.00000      0.00000      0.00000
     -0.00298     -0.01096      0.00623
     -0.00857     -0.02305      0.00897
      0.00000      0.00000      0.00000
     -0.00244     -0.01152      0.00732
     -0.00701     -0.02819      0.01177
      0.00000      0.00000      0.00000
     -0.00418     -0.01243      0.00316
     -0.01129     -0.02813      0.00473
      0.00000      0.00000      0.00000
     -0.00330     -0.00810      0.00898
      0.00000      0.00000      0.00000
      0.00000      0.00000      0.00000
      0.00000      0.00000      0.00000
      0.00000      0.00000      0.00000
      0.00000      0.00000      0.00000
      0.00000      0.00000      0.00000
      0.00000      0.00000      0.00000
      0.00000      0.00000      0.00000
      0.00000      0.00000      0.00000
      0.16926      0.18453      0.54113
      0.10492      0.14072      0.48078
      0.22339      0.20477      0.52798

 NEB: forces: par spring, perp REAL, dneb     0.080187    0.067170    0.000000
 NEB: distance to prev, next image, angle between     1.004973    0.988936  160.426994
 NEB: projections on to tangent (spring, REAL)    -0.080187    0.081554

 stress matrix after NEB project (eV)
    -12.65826     -0.19502      0.10984
     -0.19502    -12.44784     -0.20274
      0.10984     -0.20274     -2.20556
 after stress write
 before force*Free
 force:   1.026317861838792E-004  1.379400419370830E-003 -2.382840666490287E-003
  0.000000000000000E+000  0.000000000000000E+000  0.000000000000000E+000
 -2.827946662644241E-005  3.672867043046701E-004 -2.088403205295039E-003
  2.562215720018218E-004  1.398662378447405E-003 -5.198043285368267E-004
  0.000000000000000E+000  0.000000000000000E+000  0.000000000000000E+000
  2.276923740035651E-004  1.022001158144480E-003 -6.294246353419213E-004
  5.420642415840639E-004  1.481828781652050E-003 -1.346524533780357E-004
  0.000000000000000E+000  0.000000000000000E+000  0.000000000000000E+000
  2.805542954954312E-004  7.251276523217663E-004 -2.800865402027397E-004
  3.911146060378001E-004  1.240471586958888E-003  5.284551720381610E-004
  0.000000000000000E+000  0.000000000000000E+000  0.000000000000000E+000
  1.066172915292082E-004  5.257663126217154E-004 -2.373907157825716E-004
  5.271214987279636E-005  1.255180069318681E-003 -4.263809740840088E-004
  0.000000000000000E+000  0.000000000000000E+000  0.000000000000000E+000
  3.647294029374275E-004  1.011368165142634E-003 -5.716194925631064E-004
  2.988468665532089E-004  1.054934617934143E-003  3.633624968442635E-004
  0.000000000000000E+000  0.000000000000000E+000  0.000000000000000E+000
  3.650275190369998E-004  7.350779570738752E-004 -5.682230326450200E-004
  2.301161277735244E-004  1.045743281083153E-003  4.256460055976233E-005
  0.000000000000000E+000  0.000000000000000E+000  0.000000000000000E+000
  2.596146060988156E-004  8.943492288075965E-004 -6.521890338096667E-004
  1.132134694871287E-004  1.294760561855090E-003  2.006992627222609E-004
  0.000000000000000E+000  0.000000000000000E+000  0.000000000000000E+000
  5.514014463459219E-005  9.886650657316700E-004 -4.033155768133132E-004
  1.659488311971883E-005  1.413338616402403E-003  3.073745615478796E-005
  0.000000000000000E+000  0.000000000000000E+000  0.000000000000000E+000
  2.332025610632681E-004  8.452024089904650E-004 -9.741060093578161E-004
  0.000000000000000E+000  0.000000000000000E+000  0.000000000000000E+000
  0.000000000000000E+000  0.000000000000000E+000  0.000000000000000E+000
  0.000000000000000E+000  0.000000000000000E+000  0.000000000000000E+000
  0.000000000000000E+000  0.000000000000000E+000  0.000000000000000E+000
  0.000000000000000E+000  0.000000000000000E+000  0.000000000000000E+000
  0.000000000000000E+000  0.000000000000000E+000  0.000000000000000E+000
  0.000000000000000E+000  0.000000000000000E+000  0.000000000000000E+000
  0.000000000000000E+000  0.000000000000000E+000  0.000000000000000E+000
  0.000000000000000E+000  0.000000000000000E+000  0.000000000000000E+000
 -2.894632144598494E-002 -1.348965316280934E-002 -3.556144843057963E-002
 -6.656331364646786E-003 -1.784985834794271E-002  7.858468178244510E-003
 -3.244998763831883E-002 -4.927706465704294E-002 -6.866842538717040E-002
 A:    8.30990028380000       0.000000000000000E+000  0.000000000000000E+000
  -4.15495014190000        7.19658474870000       0.000000000000000E+000
  0.000000000000000E+000  0.000000000000000E+000   16.5235004425000     
 B:   0.120338387447258       6.947740038638753E-002  0.000000000000000E+000
  0.000000000000000E+000  0.138954800772775       0.000000000000000E+000
  0.000000000000000E+000  0.000000000000000E+000  6.051986402517384E-002
 force:   1.081876988799778E-004  1.916743104595560E-004 -1.442091931296468E-004
  0.000000000000000E+000  0.000000000000000E+000  0.000000000000000E+000
  2.211501999987767E-005  5.103625082314458E-005 -1.263898780141930E-004
  1.280087168766681E-004  1.943508521455349E-004 -3.145848728274554E-005
  0.000000000000000E+000  0.000000000000000E+000  0.000000000000000E+000
  9.840611678138269E-005  1.420119673195116E-004 -3.809269334498771E-005
  1.681847482919592E-004  2.059072231338246E-004 -8.149148169094784E-006
  0.000000000000000E+000  0.000000000000000E+000  0.000000000000000E+000
  8.414143574292214E-005  1.007599684632011E-004 -1.695079932835119E-005
  1.332508421127385E-004  1.723694822301603E-004  3.198203515514935E-005
  0.000000000000000E+000  0.000000000000000E+000  0.000000000000000E+000
  4.935902954831259E-005  7.305775322338703E-005 -1.436685383999993E-005
  9.354994334763815E-005  1.744132964661353E-004 -2.580451857448539E-005
  0.000000000000000E+000  0.000000000000000E+000  0.000000000000000E+000
  1.141581791517520E-004  1.405344618953218E-004 -3.459433396405807E-005
  1.092568648463501E-004  1.465882296633424E-004  2.199064890086248E-005
  0.000000000000000E+000  0.000000000000000E+000  0.000000000000000E+000
  9.499812855361507E-005  1.021426110776588E-004 -3.438878067164852E-005
  1.003473283830619E-004  1.453110492823777E-004  2.576003838162655E-006
  0.000000000000000E+000  0.000000000000000E+000  0.000000000000000E+000
  9.337866251080872E-005  1.242741189102446E-004 -3.947039164487053E-005
  1.035805243159005E-004  1.799131959210203E-004  1.214629208990387E-005
  0.000000000000000E+000  0.000000000000000E+000  0.000000000000000E+000
  7.532535470880875E-005  1.373797572397468E-004 -2.440860386797627E-005
  1.001920944078354E-004  1.963901858666654E-004  1.860226666967510E-006
  0.000000000000000E+000  0.000000000000000E+000  0.000000000000000E+000
  8.678568632389410E-005  1.174449323539396E-004 -5.895276323243975E-005
  0.000000000000000E+000  0.000000000000000E+000  0.000000000000000E+000
  0.000000000000000E+000  0.000000000000000E+000  0.000000000000000E+000
  0.000000000000000E+000  0.000000000000000E+000  0.000000000000000E+000
  0.000000000000000E+000  0.000000000000000E+000  0.000000000000000E+000
  0.000000000000000E+000  0.000000000000000E+000  0.000000000000000E+000
  0.000000000000000E+000  0.000000000000000E+000  0.000000000000000E+000
  0.000000000000000E+000  0.000000000000000E+000  0.000000000000000E+000
  0.000000000000000E+000  0.000000000000000E+000  0.000000000000000E+000
  0.000000000000000E+000  0.000000000000000E+000  0.000000000000000E+000
 -4.420579679205800E-003 -1.874452067732006E-003 -2.152174023556911E-003
 -2.041173938016515E-003 -2.480323510560635E-003  4.755934255935134E-004
 -7.328621536122008E-003 -6.847284702086556E-003 -4.155803767254348E-003
 Free:    1.00000000000000        1.00000000000000        1.00000000000000     
  0.000000000000000E+000  0.000000000000000E+000  0.000000000000000E+000
   1.00000000000000        1.00000000000000        1.00000000000000     
   1.00000000000000        1.00000000000000        1.00000000000000     
  0.000000000000000E+000  0.000000000000000E+000  0.000000000000000E+000
   1.00000000000000        1.00000000000000        1.00000000000000     
   1.00000000000000        1.00000000000000        1.00000000000000     
  0.000000000000000E+000  0.000000000000000E+000  0.000000000000000E+000
   1.00000000000000        1.00000000000000        1.00000000000000     
   1.00000000000000        1.00000000000000        1.00000000000000     
  0.000000000000000E+000  0.000000000000000E+000  0.000000000000000E+000
   1.00000000000000        1.00000000000000        1.00000000000000     
   1.00000000000000        1.00000000000000        1.00000000000000     
  0.000000000000000E+000  0.000000000000000E+000  0.000000000000000E+000
   1.00000000000000        1.00000000000000        1.00000000000000     
   1.00000000000000        1.00000000000000        1.00000000000000     
  0.000000000000000E+000  0.000000000000000E+000  0.000000000000000E+000
   1.00000000000000        1.00000000000000        1.00000000000000     
   1.00000000000000        1.00000000000000        1.00000000000000     
  0.000000000000000E+000  0.000000000000000E+000  0.000000000000000E+000
   1.00000000000000        1.00000000000000        1.00000000000000     
   1.00000000000000        1.00000000000000        1.00000000000000     
  0.000000000000000E+000  0.000000000000000E+000  0.000000000000000E+000
   1.00000000000000        1.00000000000000        1.00000000000000     
   1.00000000000000        1.00000000000000        1.00000000000000     
  0.000000000000000E+000  0.000000000000000E+000  0.000000000000000E+000
   1.00000000000000        1.00000000000000        1.00000000000000     
  0.000000000000000E+000  0.000000000000000E+000  0.000000000000000E+000
  0.000000000000000E+000  0.000000000000000E+000  0.000000000000000E+000
  0.000000000000000E+000  0.000000000000000E+000  0.000000000000000E+000
  0.000000000000000E+000  0.000000000000000E+000  0.000000000000000E+000
  0.000000000000000E+000  0.000000000000000E+000  0.000000000000000E+000
  0.000000000000000E+000  0.000000000000000E+000  0.000000000000000E+000
  0.000000000000000E+000  0.000000000000000E+000  0.000000000000000E+000
  0.000000000000000E+000  0.000000000000000E+000  0.000000000000000E+000
  0.000000000000000E+000  0.000000000000000E+000  0.000000000000000E+000
   1.00000000000000        1.00000000000000        1.00000000000000     
   1.00000000000000        1.00000000000000        1.00000000000000     
   1.00000000000000        1.00000000000000        1.00000000000000     
 force:   1.081876988799778E-004  1.916743104595560E-004 -1.442091931296468E-004
  0.000000000000000E+000  0.000000000000000E+000  0.000000000000000E+000
  2.211501999987767E-005  5.103625082314458E-005 -1.263898780141930E-004
  1.280087168766681E-004  1.943508521455349E-004 -3.145848728274554E-005
  0.000000000000000E+000  0.000000000000000E+000  0.000000000000000E+000
  9.840611678138269E-005  1.420119673195116E-004 -3.809269334498771E-005
  1.681847482919592E-004  2.059072231338246E-004 -8.149148169094784E-006
  0.000000000000000E+000  0.000000000000000E+000  0.000000000000000E+000
  8.414143574292214E-005  1.007599684632011E-004 -1.695079932835119E-005
  1.332508421127385E-004  1.723694822301603E-004  3.198203515514935E-005
  0.000000000000000E+000  0.000000000000000E+000  0.000000000000000E+000
  4.935902954831259E-005  7.305775322338703E-005 -1.436685383999993E-005
  9.354994334763815E-005  1.744132964661353E-004 -2.580451857448539E-005
  0.000000000000000E+000  0.000000000000000E+000  0.000000000000000E+000
  1.141581791517520E-004  1.405344618953218E-004 -3.459433396405807E-005
  1.092568648463501E-004  1.465882296633424E-004  2.199064890086248E-005
  0.000000000000000E+000  0.000000000000000E+000  0.000000000000000E+000
  9.499812855361507E-005  1.021426110776588E-004 -3.438878067164852E-005
  1.003473283830619E-004  1.453110492823777E-004  2.576003838162655E-006
  0.000000000000000E+000  0.000000000000000E+000  0.000000000000000E+000
  9.337866251080872E-005  1.242741189102446E-004 -3.947039164487053E-005
  1.035805243159005E-004  1.799131959210203E-004  1.214629208990387E-005
  0.000000000000000E+000  0.000000000000000E+000  0.000000000000000E+000
  7.532535470880875E-005  1.373797572397468E-004 -2.440860386797627E-005
  1.001920944078354E-004  1.963901858666654E-004  1.860226666967510E-006
  0.000000000000000E+000  0.000000000000000E+000  0.000000000000000E+000
  8.678568632389410E-005  1.174449323539396E-004 -5.895276323243975E-005
  0.000000000000000E+000  0.000000000000000E+000  0.000000000000000E+000
  0.000000000000000E+000  0.000000000000000E+000  0.000000000000000E+000
  0.000000000000000E+000  0.000000000000000E+000  0.000000000000000E+000
  0.000000000000000E+000  0.000000000000000E+000  0.000000000000000E+000
  0.000000000000000E+000  0.000000000000000E+000  0.000000000000000E+000
  0.000000000000000E+000  0.000000000000000E+000  0.000000000000000E+000
  0.000000000000000E+000  0.000000000000000E+000  0.000000000000000E+000
  0.000000000000000E+000  0.000000000000000E+000  0.000000000000000E+000
  0.000000000000000E+000  0.000000000000000E+000  0.000000000000000E+000
 -4.420579679205800E-003 -1.874452067732006E-003 -2.152174023556911E-003
 -2.041173938016515E-003 -2.480323510560635E-003  4.755934255935134E-004
 -7.328621536122008E-003 -6.847284702086556E-003 -4.155803767254348E-003
 after force*Free
  1.026317861838792E-004  1.379400419370830E-003 -2.382840666490287E-003
  0.000000000000000E+000  0.000000000000000E+000  0.000000000000000E+000
 -2.827946662644241E-005  3.672867043046701E-004 -2.088403205295038E-003
  2.562215720018218E-004  1.398662378447405E-003 -5.198043285368267E-004
  0.000000000000000E+000  0.000000000000000E+000  0.000000000000000E+000
  2.276923740035650E-004  1.022001158144480E-003 -6.294246353419212E-004
  5.420642415840639E-004  1.481828781652050E-003 -1.346524533780357E-004
  0.000000000000000E+000  0.000000000000000E+000  0.000000000000000E+000
  2.805542954954310E-004  7.251276523217663E-004 -2.800865402027396E-004
  3.911146060378002E-004  1.240471586958888E-003  5.284551720381609E-004
  0.000000000000000E+000  0.000000000000000E+000  0.000000000000000E+000
  1.066172915292083E-004  5.257663126217154E-004 -2.373907157825716E-004
  5.271214987279636E-005  1.255180069318681E-003 -4.263809740840088E-004
  0.000000000000000E+000  0.000000000000000E+000  0.000000000000000E+000
  3.647294029374274E-004  1.011368165142634E-003 -5.716194925631063E-004
  2.988468665532089E-004  1.054934617934143E-003  3.633624968442634E-004
  0.000000000000000E+000  0.000000000000000E+000  0.000000000000000E+000
  3.650275190369998E-004  7.350779570738752E-004 -5.682230326450199E-004
  2.301161277735244E-004  1.045743281083153E-003  4.256460055976233E-005
  0.000000000000000E+000  0.000000000000000E+000  0.000000000000000E+000
  2.596146060988156E-004  8.943492288075965E-004 -6.521890338096666E-004
  1.132134694871286E-004  1.294760561855090E-003  2.006992627222608E-004
  0.000000000000000E+000  0.000000000000000E+000  0.000000000000000E+000
  5.514014463459214E-005  9.886650657316700E-004 -4.033155768133131E-004
  1.659488311971872E-005  1.413338616402403E-003  3.073745615478796E-005
  0.000000000000000E+000  0.000000000000000E+000  0.000000000000000E+000
  2.332025610632681E-004  8.452024089904650E-004 -9.741060093578160E-004
  0.000000000000000E+000  0.000000000000000E+000  0.000000000000000E+000
  0.000000000000000E+000  0.000000000000000E+000  0.000000000000000E+000
  0.000000000000000E+000  0.000000000000000E+000  0.000000000000000E+000
  0.000000000000000E+000  0.000000000000000E+000  0.000000000000000E+000
  0.000000000000000E+000  0.000000000000000E+000  0.000000000000000E+000
  0.000000000000000E+000  0.000000000000000E+000  0.000000000000000E+000
  0.000000000000000E+000  0.000000000000000E+000  0.000000000000000E+000
  0.000000000000000E+000  0.000000000000000E+000  0.000000000000000E+000
  0.000000000000000E+000  0.000000000000000E+000  0.000000000000000E+000
 -2.894632144598494E-002 -1.348965316280934E-002 -3.556144843057962E-002
 -6.656331364646790E-003 -1.784985834794271E-002  7.858468178244510E-003
 -3.244998763831883E-002 -4.927706465704294E-002 -6.866842538717040E-002
 before force check
 after force check
 before ML stuff 
  FORCES: max atom, RMS     0.090535    0.016750
  FORCE total and by dimension    0.104603    0.068668
 into some ML stuff
  Stress total and by dimension   17.894888   12.658257
 
 OPT: Flag T
 OPT: QM Step
 another before ML stuff


--------------------------------------------------------------------------------------------------------


      MLFF:  cpu time      1.5816: real time      1.5925
    WAVPRE:  cpu time      0.0241: real time      0.0243
    FEWALD:  cpu time      0.0062: real time      0.0063

 real space projection operators:
  total allocation   :       9690.98 KBytes
  max/ min on nodes  :       1711.25       1432.12

