 vasp.6.5.1 10Mar25 (build Apr 25 2025 15:31:43) complex                        
  
 POSCAR found type information on POSCAR PdC O 
 06/POSCAR found :  3 types and      39 ions
 scaLAPACK will be used
 LDA part: xc-table for (Slater+PW92), standard interpolation
 00/POSCAR found :  3 types and      39 ions
 09/POSCAR found :  3 types and      39 ions
 Jacobian:    18.3422329801906     
 00/POSCAR found :  3 types and      39 ions
 09/POSCAR found :  3 types and      39 ions
 POSCAR, INCAR and KPOINTS ok, starting setup
 FFT: planning ... GRIDC
 FFT: planning ... GRID_SOFT
 FFT: planning ... GRID
 WAVECAR not read
 entering main loop
       N       E                     dE             d eps       ncg     rms          rms(c)
DAV:   1     0.210095762227E+04    0.21010E+04   -0.15216E+05 10968   0.116E+03
DAV:   2    -0.949662297836E+02   -0.21959E+04   -0.20681E+04 11876   0.293E+02
DAV:   3    -0.210794060819E+03   -0.11583E+03   -0.10583E+03 12200   0.615E+01
DAV:   4    -0.214186716062E+03   -0.33927E+01   -0.33300E+01 12592   0.106E+01
DAV:   5    -0.214347449686E+03   -0.16073E+00   -0.15959E+00 16064   0.214E+00    0.395E+01
DAV:   6    -0.204820901593E+03    0.95265E+01   -0.32736E+01 11644   0.141E+01    0.196E+01
DAV:   7    -0.208488413383E+03   -0.36675E+01   -0.76871E+00 12072   0.155E+01    0.228E+01
DAV:   8    -0.206149369925E+03    0.23390E+01   -0.12663E+01 12948   0.169E+01    0.147E+01
DAV:   9    -0.208049989638E+03   -0.19006E+01   -0.11160E+01 12860   0.173E+01    0.170E+01
DAV:  10    -0.204994015457E+03    0.30560E+01   -0.48608E+00 12628   0.119E+01    0.945E+00
DAV:  11    -0.203997901470E+03    0.99611E+00   -0.14419E+00 12420   0.617E+00    0.156E+00
DAV:  12    -0.203995907246E+03    0.19942E-02   -0.22246E-01 11728   0.164E+00    0.112E+00
DAV:  13    -0.203989262495E+03    0.66448E-02   -0.43382E-02 11528   0.102E+00    0.614E-01
DAV:  14    -0.203988148519E+03    0.11140E-02   -0.15338E-02 11864   0.612E-01    0.649E-01
DAV:  15    -0.203984938497E+03    0.32100E-02   -0.88755E-03 11716   0.511E-01    0.467E-01
DAV:  16    -0.203981398970E+03    0.35395E-02   -0.61659E-03 11868   0.383E-01    0.211E-01
DAV:  17    -0.203980815523E+03    0.58345E-03   -0.20087E-03 11840   0.219E-01    0.137E-01
DAV:  18    -0.203980634390E+03    0.18113E-03   -0.16745E-03 11728   0.174E-01    0.179E-01
DAV:  19    -0.203980549138E+03    0.85252E-04   -0.94749E-04 11824   0.149E-01    0.131E-01
DAV:  20    -0.203980595815E+03   -0.46677E-04   -0.57119E-04 11924   0.116E-01    0.629E-02
DAV:  21    -0.203980728313E+03   -0.13250E-03   -0.22081E-04 11912   0.632E-02    0.721E-02
DAV:  22    -0.203980862787E+03   -0.13447E-03   -0.16152E-04 11436   0.582E-02    0.357E-02
DAV:  23    -0.203980979511E+03   -0.11672E-03   -0.63049E-05 10268   0.317E-02    0.226E-02
DAV:  24    -0.203981009854E+03   -0.30343E-04   -0.16451E-05  7632   0.194E-02    0.108E-02
DAV:  25    -0.203981053749E+03   -0.43894E-04   -0.72748E-06  7156   0.108E-02    0.109E-02
DAV:  26    -0.203981077925E+03   -0.24176E-04   -0.43746E-06  7048   0.956E-03    0.703E-03
DAV:  27    -0.203981097209E+03   -0.19284E-04   -0.33691E-06  7112   0.548E-03    0.447E-03
DAV:  28    -0.203981100441E+03   -0.32319E-05   -0.97080E-07  6832   0.378E-03
   1 F= -.20398110E+03 E0= -.20136350E+03  d E =-.203981E+03
quench:  g(F)=  0.000E+00 g(S)=  0.000E+00 dE (1.order)= 0.000E+00
 bond charge predicted
       N       E                     dE             d eps       ncg     rms          rms(c)
DAV:   1    -0.203983088271E+03   -0.19911E-02   -0.27924E-02 10984   0.197E-01    0.352E-02
DAV:   2    -0.203983133252E+03   -0.44980E-04   -0.56756E-04 11520   0.314E-02    0.291E-02
DAV:   3    -0.203983139339E+03   -0.60875E-05   -0.42212E-05  7352   0.318E-02    0.422E-02
DAV:   4    -0.203983128998E+03    0.10341E-04   -0.44183E-05  7264   0.331E-02    0.277E-02
DAV:   5    -0.203983126209E+03    0.27891E-05   -0.24805E-05  7160   0.273E-02
   2 F= -.20398313E+03 E0= -.20136550E+03  d E =-.202577E-02
quench:  g(F)=  0.000E+00 g(S)=  0.000E+00 dE (1.order)= 0.000E+00
 bond charge predicted
       N       E                     dE             d eps       ncg     rms          rms(c)
DAV:   1    -0.203986236287E+03   -0.31073E-02   -0.89366E-02 10976   0.371E-01    0.423E-02
DAV:   2    -0.203986356667E+03   -0.12038E-03   -0.13014E-03 11616   0.637E-02    0.507E-02
DAV:   3    -0.203986356092E+03    0.57477E-06   -0.11430E-04 10892   0.536E-02    0.497E-02
DAV:   4    -0.203986353525E+03    0.25664E-05   -0.80420E-05  7512   0.448E-02
   3 F= -.20398635E+03 E0= -.20136870E+03  d E =-.322732E-02
quench:  g(F)=  0.000E+00 g(S)=  0.000E+00 dE (1.order)= 0.000E+00
 bond charge predicted
       N       E                     dE             d eps       ncg     rms          rms(c)
DAV:   1    -0.203990175286E+03   -0.38192E-02   -0.17017E-01 10952   0.526E-01    0.564E-02
DAV:   2    -0.203990444883E+03   -0.26960E-03   -0.23583E-03 11616   0.105E-01    0.108E-01
DAV:   3    -0.203990381916E+03    0.62967E-04   -0.28621E-04 11992   0.869E-02    0.695E-02
DAV:   4    -0.203990367064E+03    0.14851E-04   -0.13858E-04 10184   0.597E-02    0.601E-02
DAV:   5    -0.203990337617E+03    0.29447E-04   -0.39503E-05  7896   0.383E-02    0.267E-02
DAV:   6    -0.203990345363E+03   -0.77455E-05   -0.41472E-05  8688   0.359E-02
   4 F= -.20399035E+03 E0= -.20137263E+03  d E =-.399184E-02
quench:  g(F)=  0.000E+00 g(S)=  0.000E+00 dE (1.order)= 0.000E+00
 bond charge predicted
       N       E                     dE             d eps       ncg     rms          rms(c)
DAV:   1    -0.203994208727E+03   -0.38711E-02   -0.28400E-01 10944   0.697E-01    0.654E-02
DAV:   2    -0.203994569414E+03   -0.36069E-03   -0.38381E-03 11616   0.111E-01    0.804E-02
DAV:   3    -0.203994595249E+03   -0.25836E-04   -0.34307E-04 11948   0.900E-02    0.938E-02
DAV:   4    -0.203994546431E+03    0.48818E-04   -0.22630E-04 11060   0.745E-02    0.635E-02
DAV:   5    -0.203994512059E+03    0.34372E-04   -0.62589E-05  8256   0.443E-02    0.295E-02
DAV:   6    -0.203994528206E+03   -0.16147E-04   -0.48877E-05  9000   0.397E-02    0.483E-02
DAV:   7    -0.203994506938E+03    0.21268E-04   -0.30967E-05  7956   0.357E-02    0.153E-02
DAV:   8    -0.203994505092E+03    0.18461E-05   -0.85553E-06  6008   0.141E-02
   5 F= -.20399451E+03 E0= -.20137671E+03  d E =-.415973E-02
quench:  g(F)=  0.000E+00 g(S)=  0.000E+00 dE (1.order)= 0.000E+00
 bond charge predicted
       N       E                     dE             d eps       ncg     rms          rms(c)
DAV:   1    -0.203997583870E+03   -0.30769E-02   -0.38188E-01 10944   0.846E-01    0.898E-02
DAV:   2    -0.203998125793E+03   -0.54192E-03   -0.59290E-03 11592   0.136E-01    0.998E-02
DAV:   3    -0.203998181738E+03   -0.55944E-04   -0.52141E-04 11908   0.112E-01    0.128E-01
DAV:   4    -0.203998080841E+03    0.10090E-03   -0.37771E-04 11812   0.958E-02    0.789E-02
DAV:   5    -0.203998039739E+03    0.41102E-04   -0.11635E-04 10480   0.618E-02    0.507E-02
DAV:   6    -0.203998051960E+03   -0.12222E-04   -0.87815E-05 11260   0.570E-02    0.606E-02
DAV:   7    -0.203998016291E+03    0.35670E-04   -0.59217E-05  9888   0.484E-02    0.205E-02
DAV:   8    -0.203998015263E+03    0.10274E-05   -0.25055E-05  6748   0.254E-02
   6 F= -.20399802E+03 E0= -.20138013E+03  d E =-.351017E-02
quench:  g(F)=  0.000E+00 g(S)=  0.000E+00 dE (1.order)= 0.000E+00
 bond charge predicted
       N       E                     dE             d eps       ncg     rms          rms(c)
DAV:   1    -0.203998366290E+03   -0.35000E-03   -0.34414E-01 10944   0.765E-01    0.139E-01
DAV:   2    -0.203998967522E+03   -0.60123E-03   -0.77629E-03 11440   0.130E-01    0.118E-01
DAV:   3    -0.203999075436E+03   -0.10791E-03   -0.73297E-04 11996   0.134E-01    0.172E-01
DAV:   4    -0.203998903261E+03    0.17217E-03   -0.75860E-04 12248   0.135E-01    0.116E-01
DAV:   5    -0.203998847513E+03    0.55748E-04   -0.41185E-04 12152   0.110E-01    0.946E-02
DAV:   6    -0.203998799616E+03    0.47897E-04   -0.21360E-04 12172   0.878E-02    0.739E-02
DAV:   7    -0.203998741068E+03    0.58548E-04   -0.87960E-05 11300   0.610E-02    0.226E-02
DAV:   8    -0.203998741300E+03   -0.23281E-06   -0.31806E-05  6768   0.293E-02
   7 F= -.20399874E+03 E0= -.20138078E+03  d E =-.726037E-03
quench:  g(F)=  0.000E+00 g(S)=  0.000E+00 dE (1.order)= 0.000E+00
 bond charge predicted
       N       E                     dE             d eps       ncg     rms          rms(c)
DAV:   1    -0.204000257636E+03   -0.15166E-02   -0.25744E-02 10976   0.168E-01    0.624E-02
DAV:   2    -0.204000317080E+03   -0.59444E-04   -0.98408E-04 10716   0.372E-02    0.510E-02
DAV:   3    -0.204000313377E+03    0.37030E-05   -0.79380E-05  7980   0.434E-02    0.587E-02
DAV:   4    -0.204000314605E+03   -0.12277E-05   -0.13372E-04  7636   0.574E-02    0.605E-02
DAV:   5    -0.204000303820E+03    0.10785E-04   -0.13261E-04  9392   0.577E-02    0.510E-02
DAV:   6    -0.204000278026E+03    0.25794E-04   -0.53914E-05  7996   0.403E-02    0.175E-02
DAV:   7    -0.204000275150E+03    0.28768E-05   -0.87455E-06  5968   0.165E-02
   8 F= -.20400028E+03 E0= -.20138232E+03  d E =-.153385E-02
quench:  g(F)=  0.000E+00 g(S)=  0.000E+00 dE (1.order)= 0.000E+00
 bond charge predicted
       N       E                     dE             d eps       ncg     rms          rms(c)
DAV:   1    -0.204000886872E+03   -0.60885E-03   -0.50578E-02 10944   0.304E-01    0.616E-02
DAV:   2    -0.204001007677E+03   -0.12080E-03   -0.13778E-03 11388   0.694E-02    0.729E-02
DAV:   3    -0.204001008687E+03   -0.10100E-05   -0.17902E-04 11728   0.704E-02    0.781E-02
DAV:   4    -0.204000981203E+03    0.27484E-04   -0.14500E-04  8148   0.590E-02    0.596E-02
DAV:   5    -0.204000957755E+03    0.23448E-04   -0.69957E-05  8236   0.480E-02    0.368E-02
DAV:   6    -0.204000955061E+03    0.26937E-05   -0.52849E-05  8932   0.415E-02
   9 F= -.20400096E+03 E0= -.20138295E+03  d E =-.679912E-03
quench:  g(F)=  0.000E+00 g(S)=  0.000E+00 dE (1.order)= 0.000E+00
 bond charge predicted
       N       E                     dE             d eps       ncg     rms          rms(c)
DAV:   1    -0.204001394363E+03   -0.43661E-03   -0.37050E-02 10944   0.258E-01    0.429E-02
DAV:   2    -0.204001465774E+03   -0.71411E-04   -0.75750E-04 11420   0.572E-02    0.495E-02
DAV:   3    -0.204001467728E+03   -0.19543E-05   -0.11032E-04 10192   0.534E-02    0.536E-02
DAV:   4    -0.204001456336E+03    0.11392E-04   -0.83169E-05  7400   0.453E-02    0.422E-02
DAV:   5    -0.204001439068E+03    0.17268E-04   -0.32003E-05  7128   0.307E-02    0.138E-02
DAV:   6    -0.204001439770E+03   -0.70218E-06   -0.10762E-05  6596   0.171E-02
  10 F= -.20400144E+03 E0= -.20138341E+03  d E =-.484709E-03
quench:  g(F)=  0.000E+00 g(S)=  0.000E+00 dE (1.order)= 0.000E+00
 bond charge predicted
       N       E                     dE             d eps       ncg     rms          rms(c)
DAV:   1    -0.204001860442E+03   -0.42137E-03   -0.40439E-02 10944   0.287E-01    0.355E-02
DAV:   2    -0.204001932044E+03   -0.71601E-04   -0.73012E-04 11492   0.521E-02    0.448E-02
DAV:   3    -0.204001935996E+03   -0.39521E-05   -0.82768E-05  8548   0.466E-02    0.496E-02
DAV:   4    -0.204001922754E+03    0.13241E-04   -0.56384E-05  7220   0.375E-02    0.330E-02
DAV:   5    -0.204001915486E+03    0.72678E-05   -0.15875E-05  7116   0.252E-02
  11 F= -.20400192E+03 E0= -.20138385E+03  d E =-.475717E-03
quench:  g(F)=  0.000E+00 g(S)=  0.000E+00 dE (1.order)= 0.000E+00
 bond charge predicted
       N       E                     dE             d eps       ncg     rms          rms(c)
DAV:   1    -0.204002325869E+03   -0.40311E-03   -0.68915E-02 10944   0.365E-01    0.428E-02
DAV:   2    -0.204002446893E+03   -0.12102E-03   -0.11055E-03 11520   0.737E-02    0.607E-02
DAV:   3    -0.204002426720E+03    0.20173E-04   -0.10960E-04 11648   0.596E-02    0.411E-02
DAV:   4    -0.204002440004E+03   -0.13283E-04   -0.80217E-05  7124   0.447E-02    0.572E-02
DAV:   5    -0.204002413892E+03    0.26112E-04   -0.48475E-05  7160   0.359E-02    0.217E-02
DAV:   6    -0.204002412035E+03    0.18570E-05   -0.12525E-05  6488   0.225E-02
  12 F= -.20400241E+03 E0= -.20138437E+03  d E =-.496549E-03
quench:  g(F)=  0.000E+00 g(S)=  0.000E+00 dE (1.order)= 0.000E+00
 bond charge predicted
       N       E                     dE             d eps       ncg     rms          rms(c)
DAV:   1    -0.204002762643E+03   -0.34875E-03   -0.83877E-02 10944   0.411E-01    0.540E-02
DAV:   2    -0.204002912802E+03   -0.15016E-03   -0.15398E-03 11428   0.801E-02    0.670E-02
DAV:   3    -0.204002918060E+03   -0.52579E-05   -0.19534E-04 11712   0.700E-02    0.730E-02
DAV:   4    -0.204002890520E+03    0.27540E-04   -0.13111E-04  8432   0.566E-02    0.484E-02
DAV:   5    -0.204002875604E+03    0.14915E-04   -0.45068E-05  7416   0.381E-02    0.292E-02
DAV:   6    -0.204002878320E+03   -0.27152E-05   -0.28558E-05  7492   0.341E-02
  13 F= -.20400288E+03 E0= -.20138476E+03  d E =-.466285E-03
quench:  g(F)=  0.000E+00 g(S)=  0.000E+00 dE (1.order)= 0.000E+00
 bond charge predicted
       N       E                     dE             d eps       ncg     rms          rms(c)
DAV:   1    -0.204003032220E+03   -0.15662E-03   -0.97829E-02 10944   0.419E-01    0.641E-02
DAV:   2    -0.204003230168E+03   -0.19795E-03   -0.19363E-03 11340   0.941E-02    0.863E-02
DAV:   3    -0.204003206866E+03    0.23302E-04   -0.26360E-04 11992   0.842E-02    0.729E-02
DAV:   4    -0.204003204747E+03    0.21189E-05   -0.19200E-04  9396   0.682E-02    0.733E-02
DAV:   5    -0.204003157575E+03    0.47172E-04   -0.88279E-05  8204   0.501E-02    0.278E-02
DAV:   6    -0.204003166221E+03   -0.86460E-05   -0.37715E-05  7964   0.395E-02
  14 F= -.20400317E+03 E0= -.20138514E+03  d E =-.287902E-03
quench:  g(F)=  0.000E+00 g(S)=  0.000E+00 dE (1.order)= 0.000E+00
 bond charge predicted
       N       E                     dE             d eps       ncg     rms          rms(c)
DAV:   1    -0.204003415170E+03   -0.25760E-03   -0.33381E-02 10944   0.243E-01    0.558E-02
DAV:   2    -0.204003504779E+03   -0.89609E-04   -0.10077E-03 11104   0.645E-02    0.680E-02
DAV:   3    -0.204003493607E+03    0.11172E-04   -0.13370E-04 11264   0.618E-02    0.627E-02
DAV:   4    -0.204003488235E+03    0.53725E-05   -0.11414E-04  7584   0.524E-02    0.604E-02
DAV:   5    -0.204003462414E+03    0.25821E-04   -0.73902E-05  7736   0.461E-02    0.318E-02
DAV:   6    -0.204003466898E+03   -0.44848E-05   -0.44976E-05  7892   0.391E-02
  15 F= -.20400347E+03 E0= -.20138532E+03  d E =-.300677E-03
quench:  g(F)=  0.000E+00 g(S)=  0.000E+00 dE (1.order)= 0.000E+00
 bond charge predicted
       N       E                     dE             d eps       ncg     rms          rms(c)
DAV:   1    -0.204003633496E+03   -0.17108E-03   -0.19254E-02 10944   0.190E-01    0.329E-02
DAV:   2    -0.204003676669E+03   -0.43173E-04   -0.41455E-04 11220   0.483E-02    0.450E-02
DAV:   3    -0.204003670440E+03    0.62287E-05   -0.69196E-05  8204   0.434E-02    0.390E-02
DAV:   4    -0.204003667288E+03    0.31524E-05   -0.50282E-05  6620   0.350E-02
  16 F= -.20400367E+03 E0= -.20138556E+03  d E =-.200390E-03
quench:  g(F)=  0.000E+00 g(S)=  0.000E+00 dE (1.order)= 0.000E+00
 bond charge predicted
       N       E                     dE             d eps       ncg     rms          rms(c)
DAV:   1    -0.204003818498E+03   -0.14806E-03   -0.25538E-02 10944   0.233E-01    0.316E-02
DAV:   2    -0.204003914439E+03   -0.95941E-04   -0.51215E-04 11608   0.731E-02    0.804E-02
DAV:   3    -0.204003865628E+03    0.48811E-04   -0.12218E-04 11224   0.613E-02    0.410E-02
DAV:   4    -0.204003856654E+03    0.89740E-05   -0.46141E-05  6824   0.333E-02
  17 F= -.20400386E+03 E0= -.20138571E+03  d E =-.189366E-03
quench:  g(F)=  0.000E+00 g(S)=  0.000E+00 dE (1.order)= 0.000E+00
 bond charge predicted
       N       E                     dE             d eps       ncg     rms          rms(c)
DAV:   1    -0.204004032008E+03   -0.16638E-03   -0.46823E-02 10944   0.311E-01    0.416E-02
DAV:   2    -0.204004129830E+03   -0.97822E-04   -0.80021E-04 11392   0.761E-02    0.683E-02
DAV:   3    -0.204004112651E+03    0.17179E-04   -0.15212E-04 11352   0.638E-02    0.555E-02
DAV:   4    -0.204004096048E+03    0.16603E-04   -0.83252E-05  7144   0.450E-02    0.351E-02
DAV:   5    -0.204004092813E+03    0.32353E-05   -0.21504E-05  7168   0.275E-02
  18 F= -.20400409E+03 E0= -.20138592E+03  d E =-.236158E-03
quench:  g(F)=  0.000E+00 g(S)=  0.000E+00 dE (1.order)= 0.000E+00
 bond charge predicted
       N       E                     dE             d eps       ncg     rms          rms(c)
DAV:   1    -0.204004273538E+03   -0.17749E-03   -0.68778E-02 10944   0.386E-01    0.469E-02
DAV:   2    -0.204004383422E+03   -0.10988E-03   -0.10882E-03 11328   0.658E-02    0.507E-02
DAV:   3    -0.204004382280E+03    0.11421E-05   -0.81626E-05 11664   0.536E-02    0.466E-02
DAV:   4    -0.204004384296E+03   -0.20164E-05   -0.64029E-05  7728   0.429E-02
  19 F= -.20400438E+03 E0= -.20138625E+03  d E =-.291484E-03
quench:  g(F)=  0.000E+00 g(S)=  0.000E+00 dE (1.order)= 0.000E+00
 bond charge predicted
       N       E                     dE             d eps       ncg     rms          rms(c)
DAV:   1    -0.204004514776E+03   -0.13250E-03   -0.97332E-02 10944   0.460E-01    0.619E-02
DAV:   2    -0.204005123804E+03   -0.60903E-03   -0.22817E-03 11752   0.168E-01    0.232E-01
DAV:   3    -0.204004665055E+03    0.45875E-03   -0.88356E-04 11824   0.146E-01    0.624E-02
DAV:   4    -0.204004653165E+03    0.11890E-04   -0.12553E-04 11864   0.599E-02    0.509E-02
DAV:   5    -0.204004639673E+03    0.13492E-04   -0.40852E-05  8908   0.401E-02    0.306E-02
DAV:   6    -0.204004634811E+03    0.48613E-05   -0.32490E-05  8372   0.337E-02
  20 F= -.20400463E+03 E0= -.20138649E+03  d E =-.250515E-03
quench:  g(F)=  0.000E+00 g(S)=  0.000E+00 dE (1.order)= 0.000E+00
 bond charge predicted
       N       E                     dE             d eps       ncg     rms          rms(c)
DAV:   1    -0.204004571786E+03    0.67887E-04   -0.68097E-02 10944   0.388E-01    0.698E-02
DAV:   2    -0.204004747748E+03   -0.17596E-03   -0.17639E-03 10968   0.998E-02    0.972E-02
DAV:   3    -0.204004710290E+03    0.37458E-04   -0.29621E-04 11784   0.869E-02    0.781E-02
DAV:   4    -0.204004697381E+03    0.12910E-04   -0.17927E-04  9272   0.652E-02    0.701E-02
DAV:   5    -0.204004657056E+03    0.40324E-04   -0.10315E-04  7952   0.499E-02    0.306E-02
DAV:   6    -0.204004658906E+03   -0.18499E-05   -0.59074E-05  7992   0.380E-02
  21 F= -.20400466E+03 E0= -.20138652E+03  d E =-.240948E-04
quench:  g(F)=  0.000E+00 g(S)=  0.000E+00 dE (1.order)= 0.000E+00
 bond charge predicted
       N       E                     dE             d eps       ncg     rms          rms(c)
DAV:   1    -0.204004928934E+03   -0.27188E-03   -0.68184E-03 10992   0.105E-01    0.299E-02
DAV:   2    -0.204004950073E+03   -0.21139E-04   -0.22287E-04  8724   0.371E-02    0.369E-02
DAV:   3    -0.204004945361E+03    0.47129E-05   -0.40233E-05  7156   0.354E-02    0.332E-02
DAV:   4    -0.204004944480E+03    0.88107E-06   -0.36818E-05  6732   0.299E-02
  22 F= -.20400494E+03 E0= -.20138682E+03  d E =-.285573E-03
quench:  g(F)=  0.000E+00 g(S)=  0.000E+00 dE (1.order)= 0.000E+00
 bond charge predicted
       N       E                     dE             d eps       ncg     rms          rms(c)
DAV:   1    -0.204005033380E+03   -0.88020E-04   -0.15493E-02 10944   0.177E-01    0.381E-02
DAV:   2    -0.204005153997E+03   -0.12062E-03   -0.46840E-04 11524   0.842E-02    0.105E-01
DAV:   3    -0.204005066172E+03    0.87824E-04   -0.19454E-04 11652   0.753E-02    0.509E-02
DAV:   4    -0.204005049521E+03    0.16651E-04   -0.57936E-05  7204   0.388E-02    0.304E-02
DAV:   5    -0.204005042853E+03    0.66678E-05   -0.19839E-05  6856   0.220E-02
  23 F= -.20400504E+03 E0= -.20138692E+03  d E =-.983736E-04
quench:  g(F)=  0.000E+00 g(S)=  0.000E+00 dE (1.order)= 0.000E+00
 bond charge predicted
       N       E                     dE             d eps       ncg     rms          rms(c)
DAV:   1    -0.204005136538E+03   -0.87017E-04   -0.11676E-02 10944   0.166E-01    0.266E-02
DAV:   2    -0.204005182430E+03   -0.45891E-04   -0.29552E-04 10944   0.549E-02    0.526E-02
DAV:   3    -0.204005156035E+03    0.26395E-04   -0.54351E-05  9044   0.428E-02    0.193E-02
DAV:   4    -0.204005155649E+03    0.38577E-06   -0.10263E-05  6252   0.161E-02
  24 F= -.20400516E+03 E0= -.20138705E+03  d E =-.112796E-03
quench:  g(F)=  0.000E+00 g(S)=  0.000E+00 dE (1.order)= 0.000E+00
 bond charge predicted
       N       E                     dE             d eps       ncg     rms          rms(c)
DAV:   1    -0.204005244927E+03   -0.88893E-04   -0.19821E-02 10944   0.209E-01    0.278E-02
DAV:   2    -0.204005342841E+03   -0.97914E-04   -0.42367E-04 11384   0.699E-02    0.883E-02
DAV:   3    -0.204005281344E+03    0.61497E-04   -0.14503E-04  9520   0.617E-02    0.360E-02
DAV:   4    -0.204005273405E+03    0.79389E-05   -0.30952E-05  6824   0.286E-02
  25 F= -.20400527E+03 E0= -.20138712E+03  d E =-.117757E-03
quench:  g(F)=  0.000E+00 g(S)=  0.000E+00 dE (1.order)= 0.000E+00
 bond charge predicted
       N       E                     dE             d eps       ncg     rms          rms(c)
DAV:   1    -0.204005366954E+03   -0.85609E-04   -0.27602E-02 10944   0.248E-01    0.358E-02
DAV:   2    -0.204005439208E+03   -0.72254E-04   -0.52896E-04 10944   0.675E-02    0.635E-02
DAV:   3    -0.204005405923E+03    0.33285E-04   -0.90314E-05 11408   0.530E-02    0.279E-02
DAV:   4    -0.204005417016E+03   -0.11093E-04   -0.45936E-05  6708   0.339E-02    0.445E-02
DAV:   5    -0.204005405437E+03    0.11578E-04   -0.37081E-05  6976   0.310E-02    0.234E-02
DAV:   6    -0.204005403024E+03    0.24136E-05   -0.11626E-05  6300   0.223E-02
  26 F= -.20400540E+03 E0= -.20138731E+03  d E =-.129618E-03
quench:  g(F)=  0.000E+00 g(S)=  0.000E+00 dE (1.order)= 0.000E+00
 bond charge predicted
       N       E                     dE             d eps       ncg     rms          rms(c)
DAV:   1    -0.204005477423E+03   -0.71985E-04   -0.42306E-02 10944   0.301E-01    0.369E-02
DAV:   2    -0.204005568789E+03   -0.91366E-04   -0.75571E-04 10944   0.669E-02    0.625E-02
DAV:   3    -0.204005550012E+03    0.18777E-04   -0.11866E-04 10980   0.560E-02    0.438E-02
DAV:   4    -0.204005547210E+03    0.28022E-05   -0.66962E-05  6848   0.404E-02
  27 F= -.20400555E+03 E0= -.20138741E+03  d E =-.144186E-03
quench:  g(F)=  0.000E+00 g(S)=  0.000E+00 dE (1.order)= 0.000E+00
 bond charge predicted
       N       E                     dE             d eps       ncg     rms          rms(c)
DAV:   1    -0.204005571495E+03   -0.21483E-04   -0.35695E-02 10944   0.280E-01    0.470E-02
DAV:   2    -0.204005686155E+03   -0.11466E-03   -0.84708E-04 10944   0.764E-02    0.831E-02
DAV:   3    -0.204005647810E+03    0.38345E-04   -0.15556E-04 11524   0.663E-02    0.556E-02
DAV:   4    -0.204005637389E+03    0.10421E-04   -0.79029E-05  7568   0.443E-02    0.444E-02
DAV:   5    -0.204005625780E+03    0.11609E-04   -0.33200E-05  7232   0.320E-02    0.256E-02
DAV:   6    -0.204005629707E+03   -0.39277E-05   -0.31202E-05  7164   0.336E-02
  28 F= -.20400563E+03 E0= -.20138757E+03  d E =-.824974E-04
quench:  g(F)=  0.000E+00 g(S)=  0.000E+00 dE (1.order)= 0.000E+00
 bond charge predicted
       N       E                     dE             d eps       ncg     rms          rms(c)
DAV:   1    -0.204005715877E+03   -0.90097E-04   -0.19540E-02 10956   0.184E-01    0.387E-02
DAV:   2    -0.204005757621E+03   -0.41744E-04   -0.49134E-04 10896   0.431E-02    0.419E-02
DAV:   3    -0.204005754100E+03    0.35207E-05   -0.64830E-05  8172   0.424E-02    0.399E-02
DAV:   4    -0.204005760374E+03   -0.62734E-05   -0.65323E-05  7148   0.398E-02
  29 F= -.20400576E+03 E0= -.20138766E+03  d E =-.130666E-03
quench:  g(F)=  0.000E+00 g(S)=  0.000E+00 dE (1.order)= 0.000E+00
 bond charge predicted
       N       E                     dE             d eps       ncg     rms          rms(c)
DAV:   1    -0.204005811268E+03   -0.57167E-04   -0.67977E-03 10944   0.127E-01    0.232E-02
DAV:   2    -0.204005950851E+03   -0.13958E-03   -0.35764E-04 11960   0.818E-02    0.116E-01
DAV:   3    -0.204005832561E+03    0.11829E-03   -0.19554E-04  9236   0.702E-02    0.317E-02
DAV:   4    -0.204005824290E+03    0.82707E-05   -0.17793E-05  6528   0.218E-02
  30 F= -.20400582E+03 E0= -.20138775E+03  d E =-.639165E-04
quench:  g(F)=  0.000E+00 g(S)=  0.000E+00 dE (1.order)= 0.000E+00
 bond charge predicted
       N       E                     dE             d eps       ncg     rms          rms(c)
DAV:   1    -0.204005885864E+03   -0.53303E-04   -0.12934E-02 10944   0.169E-01    0.237E-02
DAV:   2    -0.204005915040E+03   -0.29176E-04   -0.22616E-04 10904   0.417E-02    0.376E-02
DAV:   3    -0.204005905640E+03    0.93995E-05   -0.36881E-05  7496   0.342E-02    0.227E-02
DAV:   4    -0.204005908875E+03   -0.32347E-05   -0.24882E-05  6424   0.242E-02
  31 F= -.20400591E+03 E0= -.20138782E+03  d E =-.845848E-04
quench:  g(F)=  0.000E+00 g(S)=  0.000E+00 dE (1.order)= 0.000E+00
 bond charge predicted
       N       E                     dE             d eps       ncg     rms          rms(c)
DAV:   1    -0.204005972844E+03   -0.67204E-04   -0.22210E-02 10944   0.221E-01    0.330E-02
DAV:   2    -0.204006082087E+03   -0.10924E-03   -0.48017E-04 11292   0.789E-02    0.943E-02
DAV:   3    -0.204006016502E+03    0.65585E-04   -0.17976E-04 11092   0.686E-02    0.461E-02
DAV:   4    -0.204006001718E+03    0.14784E-04   -0.47850E-05  7220   0.356E-02    0.236E-02
DAV:   5    -0.204006002449E+03   -0.73071E-06   -0.14120E-05  6552   0.221E-02
  32 F= -.20400600E+03 E0= -.20138790E+03  d E =-.935740E-04
quench:  g(F)=  0.000E+00 g(S)=  0.000E+00 dE (1.order)= 0.000E+00
 bond charge predicted
       N       E                     dE             d eps       ncg     rms          rms(c)
DAV:   1    -0.204006066314E+03   -0.64595E-04   -0.35852E-02 10944   0.278E-01    0.341E-02
DAV:   2    -0.204006116529E+03   -0.50216E-04   -0.54645E-04 11024   0.416E-02    0.239E-02
DAV:   3    -0.204006132440E+03   -0.15910E-04   -0.46887E-05  7436   0.355E-02    0.455E-02
DAV:   4    -0.204006122260E+03    0.10179E-04   -0.51707E-05  6584   0.363E-02    0.307E-02
DAV:   5    -0.204006116452E+03    0.58082E-05   -0.17757E-05  6548   0.241E-02
  33 F= -.20400612E+03 E0= -.20138803E+03  d E =-.114003E-03
quench:  g(F)=  0.000E+00 g(S)=  0.000E+00 dE (1.order)= 0.000E+00
 bond charge predicted
       N       E                     dE             d eps       ncg     rms          rms(c)
DAV:   1    -0.204006168523E+03   -0.46263E-04   -0.49347E-02 10944   0.322E-01    0.424E-02
DAV:   2    -0.204006266935E+03   -0.98412E-04   -0.82106E-04 10944   0.686E-02    0.621E-02
DAV:   3    -0.204006248200E+03    0.18735E-04   -0.99375E-05 11588   0.575E-02    0.426E-02
DAV:   4    -0.204006260836E+03   -0.12636E-04   -0.86140E-05  7112   0.458E-02    0.561E-02
DAV:   5    -0.204006237762E+03    0.23074E-04   -0.46579E-05  7200   0.367E-02    0.221E-02
DAV:   6    -0.204006236674E+03    0.10884E-05   -0.14320E-05  6280   0.233E-02
  34 F= -.20400624E+03 E0= -.20138820E+03  d E =-.120222E-03
quench:  g(F)=  0.000E+00 g(S)=  0.000E+00 dE (1.order)= 0.000E+00
 bond charge predicted
       N       E                     dE             d eps       ncg     rms          rms(c)
DAV:   1    -0.204006233820E+03    0.39421E-05   -0.68582E-02 10944   0.372E-01    0.469E-02
DAV:   2    -0.204006367081E+03   -0.13326E-03   -0.12037E-03 10944   0.801E-02    0.672E-02
DAV:   3    -0.204006360491E+03    0.65895E-05   -0.18788E-04 11484   0.689E-02    0.637E-02
DAV:   4    -0.204006341249E+03    0.19242E-04   -0.11168E-04  8432   0.521E-02    0.430E-02
DAV:   5    -0.204006329233E+03    0.12016E-04   -0.32321E-05  7204   0.323E-02    0.232E-02
DAV:   6    -0.204006328018E+03    0.12147E-05   -0.13720E-05  6672   0.249E-02
  35 F= -.20400633E+03 E0= -.20138827E+03  d E =-.913445E-04
quench:  g(F)=  0.000E+00 g(S)=  0.000E+00 dE (1.order)= 0.000E+00
 bond charge predicted
       N       E                     dE             d eps       ncg     rms          rms(c)
DAV:   1    -0.204006215784E+03    0.11345E-03   -0.40130E-02 10944   0.273E-01    0.601E-02
DAV:   2    -0.204006329286E+03   -0.11350E-03   -0.11582E-03 10944   0.784E-02    0.814E-02
DAV:   3    -0.204006307149E+03    0.22137E-04   -0.19617E-04 11652   0.726E-02    0.697E-02
DAV:   4    -0.204006293628E+03    0.13521E-04   -0.13196E-04  8080   0.561E-02    0.595E-02
DAV:   5    -0.204006269764E+03    0.23863E-04   -0.75201E-05  7844   0.453E-02    0.334E-02
DAV:   6    -0.204006277743E+03   -0.79789E-05   -0.47272E-05  8284   0.436E-02
  36 F= -.20400628E+03 E0= -.20138833E+03  d E =0.502752E-04
quench:  g(F)=  0.000E+00 g(S)=  0.000E+00 dE (1.order)= 0.000E+00
 bond charge predicted
       N       E                     dE             d eps       ncg     rms          rms(c)
DAV:   1    -0.204006448003E+03   -0.17824E-03   -0.50181E-03 10968   0.898E-02    0.282E-02
DAV:   2    -0.204006478158E+03   -0.30155E-04   -0.19492E-04  9976   0.487E-02    0.506E-02
DAV:   3    -0.204006456641E+03    0.21517E-04   -0.46044E-05  7832   0.403E-02    0.252E-02
DAV:   4    -0.204006459813E+03   -0.31717E-05   -0.29111E-05  6512   0.264E-02
  37 F= -.20400646E+03 E0= -.20138844E+03  d E =-.182069E-03
quench:  g(F)=  0.000E+00 g(S)=  0.000E+00 dE (1.order)= 0.000E+00
 bond charge predicted
       N       E                     dE             d eps       ncg     rms          rms(c)
DAV:   1    -0.204006492431E+03   -0.35791E-04   -0.11680E-02 10944   0.143E-01    0.354E-02
DAV:   2    -0.204006628938E+03   -0.13651E-03   -0.45125E-04 11648   0.889E-02    0.116E-01
DAV:   3    -0.204006519965E+03    0.10897E-03   -0.24146E-04 10888   0.789E-02    0.486E-02
DAV:   4    -0.204006502175E+03    0.17790E-04   -0.46407E-05  7472   0.365E-02    0.258E-02
DAV:   5    -0.204006499241E+03    0.29339E-05   -0.18348E-05  6916   0.233E-02
  38 F= -.20400650E+03 E0= -.20138847E+03  d E =-.394282E-04
quench:  g(F)=  0.000E+00 g(S)=  0.000E+00 dE (1.order)= 0.000E+00
 bond charge predicted
       N       E                     dE             d eps       ncg     rms          rms(c)
DAV:   1    -0.204006528106E+03   -0.25931E-04   -0.10107E-02 10944   0.140E-01    0.222E-02
DAV:   2    -0.204006551775E+03   -0.23669E-04   -0.21201E-04 10584   0.330E-02    0.299E-02
DAV:   3    -0.204006546294E+03    0.54801E-05   -0.24844E-05  6628   0.269E-02    0.194E-02
DAV:   4    -0.204006550124E+03   -0.38292E-05   -0.16547E-05  6508   0.200E-02
  39 F= -.20400655E+03 E0= -.20138855E+03  d E =-.508829E-04
quench:  g(F)=  0.000E+00 g(S)=  0.000E+00 dE (1.order)= 0.000E+00
 bond charge predicted
       N       E                     dE             d eps       ncg     rms          rms(c)
DAV:   1    -0.204006561317E+03   -0.15023E-04   -0.18554E-02 10944   0.181E-01    0.280E-02
DAV:   2    -0.204006641460E+03   -0.80143E-04   -0.37573E-04 11216   0.604E-02    0.778E-02
DAV:   3    -0.204006593238E+03    0.48222E-04   -0.11580E-04  7952   0.548E-02    0.305E-02
DAV:   4    -0.204006592297E+03    0.94083E-06   -0.26639E-05  7012   0.284E-02
  40 F= -.20400659E+03 E0= -.20138856E+03  d E =-.421734E-04
quench:  g(F)=  0.000E+00 g(S)=  0.000E+00 dE (1.order)= 0.000E+00
 bond charge predicted
       N       E                     dE             d eps       ncg     rms          rms(c)
DAV:   1    -0.204006593176E+03    0.61686E-07   -0.26610E-02 10944   0.215E-01    0.353E-02
DAV:   2    -0.204006643076E+03   -0.49900E-04   -0.46744E-04 10944   0.486E-02    0.429E-02
DAV:   3    -0.204006641120E+03    0.19562E-05   -0.73664E-05  9120   0.450E-02    0.411E-02
DAV:   4    -0.204006639834E+03    0.12861E-05   -0.57201E-05  6656   0.372E-02
  41 F= -.20400664E+03 E0= -.20138866E+03  d E =-.475369E-04
quench:  g(F)=  0.000E+00 g(S)=  0.000E+00 dE (1.order)= 0.000E+00
 bond charge predicted
       N       E                     dE             d eps       ncg     rms          rms(c)
DAV:   1    -0.204006611085E+03    0.30035E-04   -0.42550E-02 10944   0.265E-01    0.429E-02
DAV:   2    -0.204006724257E+03   -0.11317E-03   -0.76998E-04 11060   0.727E-02    0.793E-02
DAV:   3    -0.204006689560E+03    0.34697E-04   -0.15884E-04 11108   0.670E-02    0.529E-02
DAV:   4    -0.204006683814E+03    0.57460E-05   -0.88863E-05  7808   0.472E-02
  42 F= -.20400668E+03 E0= -.20138868E+03  d E =-.439801E-04
quench:  g(F)=  0.000E+00 g(S)=  0.000E+00 dE (1.order)= 0.000E+00
 bond charge predicted
       N       E                     dE             d eps       ncg     rms          rms(c)
DAV:   1    -0.204006613576E+03    0.75984E-04   -0.41849E-02 10944   0.264E-01    0.537E-02
DAV:   2    -0.204006728717E+03   -0.11514E-03   -0.95001E-04 10944   0.822E-02    0.805E-02
DAV:   3    -0.204006700995E+03    0.27722E-04   -0.17928E-04 11708   0.726E-02    0.637E-02
DAV:   4    -0.204006687835E+03    0.13161E-04   -0.11438E-04  7984   0.522E-02    0.510E-02
DAV:   5    -0.204006679287E+03    0.85475E-05   -0.51515E-05  7952   0.405E-02
  43 F= -.20400668E+03 E0= -.20138868E+03  d E =0.452708E-05
quench:  g(F)=  0.000E+00 g(S)=  0.000E+00 dE (1.order)= 0.000E+00
 bond charge predicted
       N       E                     dE             d eps       ncg     rms          rms(c)
DAV:   1    -0.204006637787E+03    0.50048E-04   -0.34343E-02 10944   0.221E-01    0.490E-02
DAV:   2    -0.204006752121E+03   -0.11433E-03   -0.86889E-04 11040   0.793E-02    0.818E-02
DAV:   3    -0.204006697624E+03    0.54497E-04   -0.11005E-04 11560   0.648E-02    0.395E-02
DAV:   4    -0.204006715505E+03   -0.17881E-04   -0.85777E-05  7732   0.459E-02    0.612E-02
DAV:   5    -0.204006690868E+03    0.24637E-04   -0.83290E-05  7412   0.461E-02    0.334E-02
DAV:   6    -0.204006682883E+03    0.79851E-05   -0.30423E-05  7044   0.320E-02
  44 F= -.20400668E+03 E0= -.20138876E+03  d E =-.359548E-05
quench:  g(F)=  0.000E+00 g(S)=  0.000E+00 dE (1.order)= 0.000E+00
 bond charge predicted
       N       E                     dE             d eps       ncg     rms          rms(c)
DAV:   1    -0.204006772740E+03   -0.81873E-04   -0.65393E-03 10944   0.983E-02    0.289E-02
DAV:   2    -0.204006807442E+03   -0.34701E-04   -0.25212E-04 10224   0.508E-02    0.508E-02
DAV:   3    -0.204006783535E+03    0.23907E-04   -0.52195E-05  8200   0.408E-02    0.222E-02
DAV:   4    -0.204006787892E+03   -0.43572E-05   -0.22727E-05  6832   0.228E-02
  45 F= -.20400679E+03 E0= -.20138887E+03  d E =-.105009E-03
quench:  g(F)=  0.000E+00 g(S)=  0.000E+00 dE (1.order)= 0.000E+00
 bond charge predicted
       N       E                     dE             d eps       ncg     rms          rms(c)
DAV:   1    -0.204006785977E+03   -0.24418E-05   -0.11321E-02 10944   0.137E-01    0.304E-02
DAV:   2    -0.204007051656E+03   -0.26568E-03   -0.59605E-04 12628   0.109E-01    0.164E-01
DAV:   3    -0.204006803365E+03    0.24829E-03   -0.38635E-04 11108   0.958E-02    0.281E-02
DAV:   4    -0.204006799784E+03    0.35811E-05   -0.24966E-05  6744   0.270E-02
  46 F= -.20400680E+03 E0= -.20138890E+03  d E =-.118919E-04
quench:  g(F)=  0.000E+00 g(S)=  0.000E+00 dE (1.order)= 0.000E+00
 bond charge predicted
       N       E                     dE             d eps       ncg     rms          rms(c)
DAV:   1    -0.204006790145E+03    0.13220E-04   -0.22567E-02 10944   0.184E-01    0.355E-02
DAV:   2    -0.204006862779E+03   -0.72634E-04   -0.43404E-04 11140   0.677E-02    0.678E-02
DAV:   3    -0.204006823612E+03    0.39166E-04   -0.81154E-05 11392   0.559E-02    0.321E-02
DAV:   4    -0.204006830140E+03   -0.65276E-05   -0.50013E-05  6684   0.348E-02
  47 F= -.20400683E+03 E0= -.20138891E+03  d E =-.303561E-04
quench:  g(F)=  0.000E+00 g(S)=  0.000E+00 dE (1.order)= 0.000E+00
 bond charge predicted
       N       E                     dE             d eps       ncg     rms          rms(c)
DAV:   1    -0.204006788381E+03    0.35232E-04   -0.38034E-02 10952   0.234E-01    0.483E-02
DAV:   2    -0.204007026436E+03   -0.23805E-03   -0.93349E-04 11424   0.114E-01    0.143E-01
DAV:   3    -0.204006865512E+03    0.16092E-03   -0.40024E-04 11924   0.101E-01    0.635E-02
DAV:   4    -0.204006838000E+03    0.27512E-04   -0.95998E-05 10424   0.509E-02    0.339E-02
DAV:   5    -0.204006841060E+03   -0.30597E-05   -0.28344E-05  7580   0.336E-02
  48 F= -.20400684E+03 E0= -.20138890E+03  d E =-.109199E-04
quench:  g(F)=  0.000E+00 g(S)=  0.000E+00 dE (1.order)= 0.000E+00
 bond charge predicted
       N       E                     dE             d eps       ncg     rms          rms(c)
DAV:   1    -0.204006763153E+03    0.74847E-04   -0.59828E-02 10952   0.287E-01    0.476E-02
DAV:   2    -0.204006844218E+03   -0.81064E-04   -0.90737E-04 11016   0.418E-02    0.289E-02
DAV:   3    -0.204006874448E+03   -0.30231E-04   -0.63529E-05  8428   0.430E-02    0.592E-02
DAV:   4    -0.204006854503E+03    0.19945E-04   -0.77245E-05  7228   0.454E-02    0.369E-02
DAV:   5    -0.204006848854E+03    0.56490E-05   -0.33724E-05  7048   0.320E-02
  49 F= -.20400685E+03 E0= -.20138893E+03  d E =-.779409E-05
quench:  g(F)=  0.000E+00 g(S)=  0.000E+00 dE (1.order)= 0.000E+00
 bond charge predicted
       N       E                     dE             d eps       ncg     rms          rms(c)
DAV:   1    -0.204006743423E+03    0.11108E-03   -0.81980E-02 10952   0.332E-01    0.578E-02
DAV:   2    -0.204006903264E+03   -0.15984E-03   -0.13986E-03 10944   0.868E-02    0.771E-02
DAV:   3    -0.204006891301E+03    0.11963E-04   -0.21377E-04 11844   0.798E-02    0.705E-02
DAV:   4    -0.204006881492E+03    0.98086E-05   -0.16381E-04  9120   0.625E-02    0.606E-02
DAV:   5    -0.204006861818E+03    0.19674E-04   -0.59032E-05  8112   0.446E-02    0.350E-02
DAV:   6    -0.204006854342E+03    0.74761E-05   -0.21524E-05  7192   0.317E-02
  50 F= -.20400685E+03 E0= -.20138901E+03  d E =-.548771E-05
quench:  g(F)=  0.000E+00 g(S)=  0.000E+00 dE (1.order)= 0.000E+00
 bond charge predicted
       N       E                     dE             d eps       ncg     rms          rms(c)
DAV:   1    -0.204006658746E+03    0.20307E-03   -0.11166E-01 10952   0.392E-01    0.623E-02
DAV:   2    -0.204006852374E+03   -0.19363E-03   -0.18841E-03 10944   0.868E-02    0.705E-02
DAV:   3    -0.204006866123E+03   -0.13750E-04   -0.25580E-04 11724   0.826E-02    0.821E-02
DAV:   4    -0.204006844972E+03    0.21151E-04   -0.20093E-04  9880   0.696E-02    0.647E-02
DAV:   5    -0.204006815032E+03    0.29940E-04   -0.67522E-05  8244   0.470E-02    0.309E-02
DAV:   6    -0.204006812135E+03    0.28973E-05   -0.23035E-05  7304   0.325E-02
  51 F= -.20400681E+03 E0= -.20138893E+03  d E =0.422070E-04
quench:  g(F)=  0.000E+00 g(S)=  0.000E+00 dE (1.order)= 0.000E+00
 bond charge predicted
       N       E                     dE             d eps       ncg     rms          rms(c)
DAV:   1    -0.204006452417E+03    0.36261E-03   -0.57094E-02 10944   0.271E-01    0.775E-02
DAV:   2    -0.204006589295E+03   -0.13688E-03   -0.17131E-03 10944   0.817E-02    0.847E-02
DAV:   3    -0.204006593409E+03   -0.41133E-05   -0.26512E-04 11780   0.844E-02    0.937E-02
DAV:   4    -0.204006559520E+03    0.33889E-04   -0.22922E-04  9884   0.735E-02    0.733E-02
DAV:   5    -0.204006526360E+03    0.33160E-04   -0.14295E-04  9316   0.616E-02    0.453E-02
DAV:   6    -0.204006530876E+03   -0.45169E-05   -0.75821E-05  9888   0.540E-02
  52 F= -.20400653E+03 E0= -.20138877E+03  d E =0.281258E-03
quench:  g(F)=  0.000E+00 g(S)=  0.000E+00 dE (1.order)= 0.000E+00
 bond charge predicted
       N       E                     dE             d eps       ncg     rms          rms(c)
DAV:   1    -0.204006844091E+03   -0.31773E-03   -0.85892E-03 10968   0.104E-01    0.378E-02
DAV:   2    -0.204006888097E+03   -0.44006E-04   -0.30870E-04 10704   0.568E-02    0.611E-02
DAV:   3    -0.204006857748E+03    0.30349E-04   -0.62801E-05  8988   0.490E-02    0.331E-02
DAV:   4    -0.204006868031E+03   -0.10283E-04   -0.56713E-05  7140   0.373E-02    0.486E-02
DAV:   5    -0.204006853260E+03    0.14771E-04   -0.51815E-05  7136   0.369E-02    0.272E-02
DAV:   6    -0.204006846506E+03    0.67533E-05   -0.17376E-05  6836   0.258E-02
  53 F= -.20400685E+03 E0= -.20138900E+03  d E =-.315630E-03
quench:  g(F)=  0.000E+00 g(S)=  0.000E+00 dE (1.order)= 0.000E+00
 bond charge predicted
       N       E                     dE             d eps       ncg     rms          rms(c)
DAV:   1    -0.204006849659E+03    0.36002E-05   -0.17750E-02 10968   0.142E-01    0.317E-02
DAV:   2    -0.204006887266E+03   -0.37607E-04   -0.40235E-04  9848   0.413E-02    0.387E-02
DAV:   3    -0.204006881365E+03    0.59009E-05   -0.50425E-05  7564   0.379E-02    0.326E-02
DAV:   4    -0.204006883766E+03   -0.24003E-05   -0.41395E-05  6940   0.314E-02
  54 F= -.20400688E+03 E0= -.20138906E+03  d E =-.372594E-04
quench:  g(F)=  0.000E+00 g(S)=  0.000E+00 dE (1.order)= 0.000E+00
 bond charge predicted
       N       E                     dE             d eps       ncg     rms          rms(c)
DAV:   1    -0.204006847080E+03    0.34285E-04   -0.18134E-02 10968   0.149E-01    0.314E-02
DAV:   2    -0.204006944142E+03   -0.97062E-04   -0.44215E-04 11200   0.671E-02    0.866E-02
DAV:   3    -0.204006884573E+03    0.59569E-04   -0.13835E-04  8260   0.596E-02    0.373E-02
DAV:   4    -0.204006878110E+03    0.64632E-05   -0.34883E-05  7004   0.313E-02
  55 F= -.20400688E+03 E0= -.20138903E+03  d E =0.565601E-05
quench:  g(F)=  0.000E+00 g(S)=  0.000E+00 dE (1.order)= 0.000E+00
 bond charge predicted
       N       E                     dE             d eps       ncg     rms          rms(c)
DAV:   1    -0.204006808258E+03    0.76315E-04   -0.37328E-02 10960   0.199E-01    0.410E-02
DAV:   2    -0.204006875604E+03   -0.67347E-04   -0.60215E-04 10920   0.529E-02    0.499E-02
DAV:   3    -0.204006866975E+03    0.86290E-05   -0.70728E-05 10012   0.502E-02    0.396E-02
DAV:   4    -0.204006886575E+03   -0.19599E-04   -0.83590E-05  7088   0.458E-02    0.600E-02
DAV:   5    -0.204006860674E+03    0.25900E-04   -0.57738E-05  7080   0.394E-02    0.239E-02
DAV:   6    -0.204006856680E+03    0.39944E-05   -0.12731E-05  6192   0.221E-02
  56 F= -.20400686E+03 E0= -.20138906E+03  d E =0.214296E-04
quench:  g(F)=  0.000E+00 g(S)=  0.000E+00 dE (1.order)= 0.000E+00
 bond charge predicted
       N       E                     dE             d eps       ncg     rms          rms(c)
DAV:   1    -0.204006743244E+03    0.11743E-03   -0.60658E-02 10952   0.250E-01    0.484E-02
DAV:   2    -0.204006843823E+03   -0.10058E-03   -0.98575E-04 10936   0.589E-02    0.508E-02
DAV:   3    -0.204006849652E+03   -0.58289E-05   -0.12477E-04 10544   0.597E-02    0.571E-02
DAV:   4    -0.204006853908E+03   -0.42554E-05   -0.11445E-04  7520   0.528E-02    0.596E-02
DAV:   5    -0.204006826890E+03    0.27018E-04   -0.57405E-05  7336   0.407E-02    0.219E-02
DAV:   6    -0.204006828047E+03   -0.11564E-05   -0.14768E-05  6648   0.258E-02
  57 F= -.20400683E+03 E0= -.20138900E+03  d E =0.286335E-04
quench:  g(F)=  0.000E+00 g(S)=  0.000E+00 dE (1.order)= 0.000E+00
 bond charge predicted
       N       E                     dE             d eps       ncg     rms          rms(c)
DAV:   1    -0.204006634624E+03    0.19227E-03   -0.97938E-02 10952   0.316E-01    0.573E-02
DAV:   2    -0.204006789821E+03   -0.15520E-03   -0.15420E-03 10944   0.669E-02    0.580E-02
DAV:   3    -0.204006813749E+03   -0.23928E-04   -0.17909E-04 11692   0.723E-02    0.756E-02
DAV:   4    -0.204006809854E+03    0.38952E-05   -0.18611E-04  8720   0.668E-02    0.713E-02
DAV:   5    -0.204006768982E+03    0.40872E-04   -0.73035E-05  8060   0.477E-02    0.255E-02
DAV:   6    -0.204006768098E+03    0.88368E-06   -0.20777E-05  6684   0.283E-02
  58 F= -.20400677E+03 E0= -.20138901E+03  d E =0.599486E-04
quench:  g(F)=  0.000E+00 g(S)=  0.000E+00 dE (1.order)= 0.000E+00
 bond charge predicted
       N       E                     dE             d eps       ncg     rms          rms(c)
DAV:   1    -0.204006456843E+03    0.31214E-03   -0.10133E-01 10968   0.328E-01    0.741E-02
DAV:   2    -0.204006643065E+03   -0.18622E-03   -0.19760E-03 10944   0.818E-02    0.791E-02
DAV:   3    -0.204006655423E+03   -0.12358E-04   -0.25388E-04 12004   0.850E-02    0.904E-02
DAV:   4    -0.204006641115E+03    0.14308E-04   -0.23905E-04  9768   0.755E-02    0.802E-02
DAV:   5    -0.204006599025E+03    0.42090E-04   -0.13013E-04  9144   0.613E-02    0.410E-02
DAV:   6    -0.204006601959E+03   -0.29333E-05   -0.55648E-05  9076   0.476E-02
  59 F= -.20400660E+03 E0= -.20138878E+03  d E =0.166139E-03
quench:  g(F)=  0.000E+00 g(S)=  0.000E+00 dE (1.order)= 0.000E+00
 bond charge predicted
       N       E                     dE             d eps       ncg     rms          rms(c)
DAV:   1    -0.204006455706E+03    0.14332E-03   -0.64988E-02 11020   0.249E-01    0.728E-02
DAV:   2    -0.204006600352E+03   -0.14465E-03   -0.16554E-03 10952   0.801E-02    0.820E-02
DAV:   3    -0.204006577847E+03    0.22505E-04   -0.20533E-04 11872   0.800E-02    0.730E-02
DAV:   4    -0.204006598349E+03   -0.20502E-04   -0.22013E-04  9380   0.729E-02    0.910E-02
DAV:   5    -0.204006533936E+03    0.64412E-04   -0.17518E-04  9048   0.665E-02    0.408E-02
DAV:   6    -0.204006533811E+03    0.12510E-06   -0.59054E-05  8724   0.474E-02
  60 F= -.20400653E+03 E0= -.20138883E+03  d E =0.681472E-04
quench:  g(F)=  0.000E+00 g(S)=  0.000E+00 dE (1.order)= 0.000E+00
 bond charge predicted
       N       E                     dE             d eps       ncg     rms          rms(c)
DAV:   1    -0.204006692161E+03   -0.15822E-03   -0.54434E-03 10968   0.864E-02    0.291E-02
DAV:   2    -0.204006729506E+03   -0.37345E-04   -0.23408E-04 10480   0.539E-02    0.546E-02
DAV:   3    -0.204006701843E+03    0.27663E-04   -0.47308E-05  8436   0.424E-02    0.234E-02
DAV:   4    -0.204006702793E+03   -0.94998E-06   -0.19055E-05  6740   0.218E-02
  61 F= -.20400670E+03 E0= -.20138895E+03  d E =-.168982E-03
quench:  g(F)=  0.000E+00 g(S)=  0.000E+00 dE (1.order)= 0.000E+00
 bond charge predicted
       N       E                     dE             d eps       ncg     rms          rms(c)
DAV:   1    -0.204006687034E+03    0.14809E-04   -0.16029E-02 10960   0.131E-01    0.441E-02
DAV:   2    -0.204007152209E+03   -0.46518E-03   -0.10432E-03 13012   0.143E-01    0.220E-01
DAV:   3    -0.204006706434E+03    0.44578E-03   -0.68439E-04 12504   0.126E-01    0.374E-02
DAV:   4    -0.204006703795E+03    0.26390E-05   -0.37095E-05  8464   0.349E-02
  62 F= -.20400670E+03 E0= -.20138900E+03  d E =-.100185E-05
quench:  g(F)=  0.000E+00 g(S)=  0.000E+00 dE (1.order)= 0.000E+00
 bond charge predicted
       N       E                     dE             d eps       ncg     rms          rms(c)
DAV:   1    -0.204006627885E+03    0.78549E-04   -0.35941E-02 11000   0.189E-01    0.439E-02
DAV:   2    -0.204006738599E+03   -0.11071E-03   -0.66446E-04 11228   0.806E-02    0.818E-02
DAV:   3    -0.204006679934E+03    0.58665E-04   -0.10012E-04 11928   0.664E-02    0.368E-02
DAV:   4    -0.204006696359E+03   -0.16425E-04   -0.77632E-05  7148   0.439E-02    0.555E-02
DAV:   5    -0.204006677979E+03    0.18380E-04   -0.62171E-05  6808   0.400E-02    0.278E-02
DAV:   6    -0.204006670846E+03    0.71332E-05   -0.13242E-05  6320   0.227E-02
  63 F= -.20400667E+03 E0= -.20138892E+03  d E =0.329491E-04
quench:  g(F)=  0.000E+00 g(S)=  0.000E+00 dE (1.order)= 0.000E+00
 bond charge predicted
       N       E                     dE             d eps       ncg     rms          rms(c)
DAV:   1    -0.204006544857E+03    0.13312E-03   -0.63277E-02 10984   0.242E-01    0.476E-02
DAV:   2    -0.204006642140E+03   -0.97282E-04   -0.98177E-04 10928   0.540E-02    0.454E-02
DAV:   3    -0.204006647019E+03   -0.48794E-05   -0.11230E-04 10388   0.559E-02    0.492E-02
DAV:   4    -0.204006665074E+03   -0.18055E-04   -0.11277E-04  7492   0.522E-02    0.659E-02
DAV:   5    -0.204006627896E+03    0.37178E-04   -0.63097E-05  7216   0.416E-02    0.150E-02
DAV:   6    -0.204006632483E+03   -0.45875E-05   -0.16757E-05  6452   0.219E-02
  64 F= -.20400663E+03 E0= -.20138888E+03  d E =0.383627E-04
quench:  g(F)=  0.000E+00 g(S)=  0.000E+00 dE (1.order)= 0.000E+00
 bond charge predicted
       N       E                     dE             d eps       ncg     rms          rms(c)
DAV:   1    -0.204006415659E+03    0.21224E-03   -0.11108E-01 10992   0.316E-01    0.591E-02
DAV:   2    -0.204006573082E+03   -0.15742E-03   -0.16523E-03 10944   0.532E-02    0.459E-02
DAV:   3    -0.204006652771E+03   -0.79689E-04   -0.20755E-04 11240   0.758E-02    0.100E-01
DAV:   4    -0.204006594917E+03    0.57854E-04   -0.20817E-04  9120   0.711E-02    0.595E-02
DAV:   5    -0.204006564849E+03    0.30068E-04   -0.43154E-05  7808   0.421E-02    0.212E-02
DAV:   6    -0.204006568800E+03   -0.39517E-05   -0.22170E-05  7032   0.266E-02
  65 F= -.20400657E+03 E0= -.20138886E+03  d E =0.636827E-04
quench:  g(F)=  0.000E+00 g(S)=  0.000E+00 dE (1.order)= 0.000E+00
 bond charge predicted
       N       E                     dE             d eps       ncg     rms          rms(c)
DAV:   1    -0.204006255417E+03    0.30943E-03   -0.15397E-01 10992   0.371E-01    0.753E-02
DAV:   2    -0.204006476131E+03   -0.22071E-03   -0.23900E-03 10944   0.661E-02    0.597E-02
DAV:   3    -0.204006578232E+03   -0.10210E-03   -0.31218E-04 11924   0.900E-02    0.117E-01
DAV:   4    -0.204006499634E+03    0.78597E-04   -0.30318E-04 10420   0.855E-02    0.709E-02
DAV:   5    -0.204006462598E+03    0.37037E-04   -0.10106E-04  9172   0.560E-02    0.316E-02
DAV:   6    -0.204006472336E+03   -0.97381E-05   -0.35453E-05  8292   0.380E-02
  66 F= -.20400647E+03 E0= -.20138872E+03  d E =0.964647E-04
quench:  g(F)=  0.000E+00 g(S)=  0.000E+00 dE (1.order)= 0.000E+00
 bond charge predicted
       N       E                     dE             d eps       ncg     rms          rms(c)
DAV:   1    -0.204005848447E+03    0.61415E-03   -0.21013E-01 11000   0.435E-01    0.865E-02
DAV:   2    -0.204006160434E+03   -0.31199E-03   -0.35404E-03 10944   0.797E-02    0.716E-02
DAV:   3    -0.204006263099E+03   -0.10266E-03   -0.37452E-04 12316   0.100E-01    0.126E-01
DAV:   4    -0.204006186469E+03    0.76630E-04   -0.39106E-04 11228   0.971E-02    0.879E-02
DAV:   5    -0.204006126957E+03    0.59513E-04   -0.14954E-04 10668   0.679E-02    0.403E-02
DAV:   6    -0.204006132901E+03   -0.59444E-05   -0.59221E-05 10092   0.466E-02
  67 F= -.20400613E+03 E0= -.20138849E+03  d E =0.339435E-03
quench:  g(F)=  0.000E+00 g(S)=  0.000E+00 dE (1.order)= 0.000E+00
 bond charge predicted
       N       E                     dE             d eps       ncg     rms          rms(c)
DAV:   1    -0.204006035140E+03    0.91817E-04   -0.67828E-02 11032   0.240E-01    0.915E-02
DAV:   2    -0.204006182314E+03   -0.14717E-03   -0.21019E-03 10944   0.791E-02    0.916E-02
DAV:   3    -0.204006184141E+03   -0.18275E-05   -0.27037E-04 12244   0.896E-02    0.100E-01
DAV:   4    -0.204006185870E+03   -0.17289E-05   -0.33630E-04 10628   0.889E-02    0.105E-01
DAV:   5    -0.204006116689E+03    0.69181E-04   -0.28573E-04 11000   0.864E-02    0.611E-02
DAV:   6    -0.204006109069E+03    0.76202E-05   -0.10598E-04 11236   0.617E-02    0.567E-02
DAV:   7    -0.204006074511E+03    0.34557E-04   -0.47218E-05  8196   0.432E-02    0.160E-02
DAV:   8    -0.204006072602E+03    0.19096E-05   -0.11343E-05  6232   0.145E-02
  68 F= -.20400607E+03 E0= -.20138839E+03  d E =0.602995E-04
quench:  g(F)=  0.000E+00 g(S)=  0.000E+00 dE (1.order)= 0.000E+00
 bond charge predicted
       N       E                     dE             d eps       ncg     rms          rms(c)
DAV:   1    -0.204006326502E+03   -0.25199E-03   -0.10317E-02 10988   0.914E-02    0.300E-02
DAV:   2    -0.204006342247E+03   -0.15745E-04   -0.24631E-04  7328   0.162E-02    0.218E-02
DAV:   3    -0.204006340029E+03    0.22181E-05   -0.14808E-05  6880   0.176E-02    0.214E-02
DAV:   4    -0.204006346089E+03   -0.60599E-05   -0.31150E-05  6972   0.282E-02
  69 F= -.20400635E+03 E0= -.20138865E+03  d E =-.273487E-03
quench:  g(F)=  0.000E+00 g(S)=  0.000E+00 dE (1.order)= 0.000E+00
 bond charge predicted
       N       E                     dE             d eps       ncg     rms          rms(c)
DAV:   1    -0.204006310447E+03    0.29582E-04   -0.26529E-02 11008   0.160E-01    0.430E-02
DAV:   2    -0.204006623717E+03   -0.31327E-03   -0.93348E-04 12512   0.125E-01    0.174E-01
DAV:   3    -0.204006365352E+03    0.25836E-03   -0.48362E-04 12340   0.110E-01    0.562E-02
DAV:   4    -0.204006339588E+03    0.25764E-04   -0.68329E-05  8300   0.428E-02    0.263E-02
DAV:   5    -0.204006338955E+03    0.63328E-06   -0.19060E-05  7128   0.243E-02
  70 F= -.20400634E+03 E0= -.20138869E+03  d E =0.713373E-05
quench:  g(F)=  0.000E+00 g(S)=  0.000E+00 dE (1.order)= 0.000E+00
 bond charge predicted
       N       E                     dE             d eps       ncg     rms          rms(c)
DAV:   1    -0.204006245941E+03    0.93647E-04   -0.42136E-02 11000   0.199E-01    0.427E-02
DAV:   2    -0.204006336931E+03   -0.90989E-04   -0.70616E-04 10992   0.611E-02    0.633E-02
DAV:   3    -0.204006313153E+03    0.23777E-04   -0.86387E-05 10016   0.555E-02    0.423E-02
DAV:   4    -0.204006329781E+03   -0.16627E-04   -0.88730E-05  7120   0.460E-02    0.580E-02
DAV:   5    -0.204006304234E+03    0.25547E-04   -0.48187E-05  7280   0.379E-02    0.205E-02
DAV:   6    -0.204006304644E+03   -0.41088E-06   -0.15792E-05  6740   0.243E-02
  71 F= -.20400630E+03 E0= -.20138862E+03  d E =0.343107E-04
quench:  g(F)=  0.000E+00 g(S)=  0.000E+00 dE (1.order)= 0.000E+00
 bond charge predicted
       N       E                     dE             d eps       ncg     rms          rms(c)
DAV:   1    -0.204006137968E+03    0.16627E-03   -0.81144E-02 10976   0.268E-01    0.506E-02
DAV:   2    -0.204006251276E+03   -0.11331E-03   -0.12105E-03 10912   0.464E-02    0.378E-02
DAV:   3    -0.204006303249E+03   -0.51973E-04   -0.15767E-04  9568   0.630E-02    0.808E-02
DAV:   4    -0.204006266333E+03    0.36916E-04   -0.14593E-04  7564   0.597E-02    0.502E-02
DAV:   5    -0.204006244548E+03    0.21785E-04   -0.43476E-05  7180   0.364E-02    0.142E-02
DAV:   6    -0.204006248615E+03   -0.40666E-05   -0.14844E-05  6364   0.192E-02
  72 F= -.20400625E+03 E0= -.20138860E+03  d E =0.560296E-04
quench:  g(F)=  0.000E+00 g(S)=  0.000E+00 dE (1.order)= 0.000E+00
 bond charge predicted
       N       E                     dE             d eps       ncg     rms          rms(c)
DAV:   1    -0.204006007502E+03    0.23705E-03   -0.11670E-01 10992   0.322E-01    0.653E-02
DAV:   2    -0.204006173302E+03   -0.16580E-03   -0.18136E-03 10960   0.523E-02    0.497E-02
DAV:   3    -0.204006281441E+03   -0.10814E-03   -0.25647E-04 11108   0.814E-02    0.116E-01
DAV:   4    -0.204006178482E+03    0.10296E-03   -0.23268E-04  9128   0.750E-02    0.473E-02
DAV:   5    -0.204006170843E+03    0.76385E-05   -0.45781E-05  8572   0.444E-02
  73 F= -.20400617E+03 E0= -.20138858E+03  d E =0.777714E-04
quench:  g(F)=  0.000E+00 g(S)=  0.000E+00 dE (1.order)= 0.000E+00
 bond charge predicted
       N       E                     dE             d eps       ncg     rms          rms(c)
DAV:   1    -0.204005748776E+03    0.42971E-03   -0.16980E-01 11008   0.389E-01    0.803E-02
DAV:   2    -0.204006053022E+03   -0.30425E-03   -0.28624E-03 10944   0.109E-01    0.978E-02
DAV:   3    -0.204005999495E+03    0.53526E-04   -0.24629E-04 12072   0.969E-02    0.696E-02
DAV:   4    -0.204006014534E+03   -0.15038E-04   -0.15656E-04 11900   0.688E-02    0.779E-02
DAV:   5    -0.204005996072E+03    0.18462E-04   -0.19156E-04  8940   0.683E-02    0.648E-02
DAV:   6    -0.204005965104E+03    0.30968E-04   -0.92251E-05  9296   0.515E-02    0.289E-02
DAV:   7    -0.204005962265E+03    0.28387E-05   -0.25178E-05  6856   0.284E-02
  74 F= -.20400596E+03 E0= -.20138834E+03  d E =0.208578E-03
quench:  g(F)=  0.000E+00 g(S)=  0.000E+00 dE (1.order)= 0.000E+00
 bond charge predicted
       N       E                     dE             d eps       ncg     rms          rms(c)
DAV:   1    -0.204005553043E+03    0.41206E-03   -0.92547E-02 11000   0.281E-01    0.923E-02
DAV:   2    -0.204005701657E+03   -0.14861E-03   -0.23401E-03 10944   0.510E-02    0.731E-02
DAV:   3    -0.204005721894E+03   -0.20238E-04   -0.19058E-04  9276   0.661E-02    0.953E-02
DAV:   4    -0.204005704009E+03    0.17885E-04   -0.32673E-04  9372   0.879E-02    0.855E-02
DAV:   5    -0.204005709117E+03   -0.51075E-05   -0.30582E-04 12296   0.876E-02    0.857E-02
DAV:   6    -0.204005633059E+03    0.76057E-04   -0.10927E-04 10644   0.597E-02    0.198E-02
DAV:   7    -0.204005630855E+03    0.22049E-05   -0.11987E-05  6800   0.192E-02
  75 F= -.20400563E+03 E0= -.20138804E+03  d E =0.331410E-03
quench:  g(F)=  0.000E+00 g(S)=  0.000E+00 dE (1.order)= 0.000E+00
 bond charge predicted
       N       E                     dE             d eps       ncg     rms          rms(c)
DAV:   1    -0.204006008954E+03   -0.37589E-03   -0.16127E-02 10964   0.112E-01    0.398E-02
DAV:   2    -0.204006035636E+03   -0.26682E-04   -0.41160E-04  7888   0.284E-02    0.327E-02
DAV:   3    -0.204006040123E+03   -0.44869E-05   -0.45628E-05  7340   0.370E-02    0.439E-02
DAV:   4    -0.204006038100E+03    0.20228E-05   -0.64766E-05  7116   0.400E-02
  76 F= -.20400604E+03 E0= -.20138842E+03  d E =-.407245E-03
quench:  g(F)=  0.000E+00 g(S)=  0.000E+00 dE (1.order)= 0.000E+00
 bond charge predicted
       N       E                     dE             d eps       ncg     rms          rms(c)
DAV:   1    -0.204005968445E+03    0.71677E-04   -0.32079E-02 10960   0.176E-01    0.445E-02
DAV:   2    -0.204006193484E+03   -0.22504E-03   -0.82490E-04 12100   0.107E-01    0.141E-01
DAV:   3    -0.204006026561E+03    0.16692E-03   -0.35194E-04 11524   0.948E-02    0.580E-02
DAV:   4    -0.204006004978E+03    0.21583E-04   -0.70963E-05  8992   0.449E-02    0.331E-02
DAV:   5    -0.204006000561E+03    0.44171E-05   -0.23658E-05  7188   0.278E-02
  77 F= -.20400600E+03 E0= -.20138837E+03  d E =0.375390E-04
quench:  g(F)=  0.000E+00 g(S)=  0.000E+00 dE (1.order)= 0.000E+00
 bond charge predicted
       N       E                     dE             d eps       ncg     rms          rms(c)
DAV:   1    -0.204005886795E+03    0.11818E-03   -0.48454E-02 11016   0.209E-01    0.465E-02
DAV:   2    -0.204005983419E+03   -0.96625E-04   -0.83531E-04 10920   0.643E-02    0.608E-02
DAV:   3    -0.204005974108E+03    0.93111E-05   -0.12459E-04  9636   0.604E-02    0.559E-02
DAV:   4    -0.204005968675E+03    0.54334E-05   -0.98164E-05  7600   0.487E-02
  78 F= -.20400597E+03 E0= -.20138839E+03  d E =0.318859E-04
quench:  g(F)=  0.000E+00 g(S)=  0.000E+00 dE (1.order)= 0.000E+00
 bond charge predicted
       N       E                     dE             d eps       ncg     rms          rms(c)
DAV:   1    -0.204005767004E+03    0.20710E-03   -0.90518E-02 10960   0.284E-01    0.640E-02
DAV:   2    -0.204006041093E+03   -0.27409E-03   -0.15509E-03 11580   0.113E-01    0.130E-01
DAV:   3    -0.204005912547E+03    0.12855E-03   -0.30226E-04 12672   0.101E-01    0.701E-02
DAV:   4    -0.204005916443E+03   -0.38965E-05   -0.18876E-04 10528   0.678E-02    0.704E-02
DAV:   5    -0.204005881949E+03    0.34494E-04   -0.63397E-05  8132   0.453E-02    0.257E-02
DAV:   6    -0.204005880482E+03    0.14668E-05   -0.27465E-05  7192   0.312E-02
  79 F= -.20400588E+03 E0= -.20138829E+03  d E =0.881929E-04
quench:  g(F)=  0.000E+00 g(S)=  0.000E+00 dE (1.order)= 0.000E+00
 bond charge predicted
       N       E                     dE             d eps       ncg     rms          rms(c)
DAV:   1    -0.204005600564E+03    0.28138E-03   -0.11983E-01 10976   0.322E-01    0.689E-02
DAV:   2    -0.204005767911E+03   -0.16735E-03   -0.19107E-03 10976   0.485E-02    0.485E-02
DAV:   3    -0.204005888991E+03   -0.12108E-03   -0.25644E-04  9940   0.800E-02    0.122E-01
DAV:   4    -0.204005763625E+03    0.12537E-03   -0.24060E-04  8960   0.761E-02    0.363E-02
DAV:   5    -0.204005775229E+03   -0.11604E-04   -0.65798E-05  8916   0.455E-02    0.450E-02
DAV:   6    -0.204005759776E+03    0.15453E-04   -0.32072E-05  7448   0.365E-02    0.208E-02
DAV:   7    -0.204005756368E+03    0.34081E-05   -0.97222E-06  6140   0.198E-02
  80 F= -.20400576E+03 E0= -.20138820E+03  d E =0.124114E-03
quench:  g(F)=  0.000E+00 g(S)=  0.000E+00 dE (1.order)= 0.000E+00
 bond charge predicted
       N       E                     dE             d eps       ncg     rms          rms(c)
DAV:   1    -0.204005250787E+03    0.50899E-03   -0.15954E-01 10960   0.368E-01    0.789E-02
DAV:   2    -0.204005483269E+03   -0.23248E-03   -0.28121E-03 10944   0.627E-02    0.597E-02
DAV:   3    -0.204005522567E+03   -0.39298E-04   -0.18856E-04 12152   0.742E-02    0.890E-02
DAV:   4    -0.204005498334E+03    0.24233E-04   -0.22740E-04 10104   0.770E-02    0.771E-02
DAV:   5    -0.204005467117E+03    0.31217E-04   -0.16787E-04  9444   0.656E-02    0.504E-02
DAV:   6    -0.204005456416E+03    0.10701E-04   -0.54150E-05  8616   0.447E-02    0.375E-02
DAV:   7    -0.204005442271E+03    0.14145E-04   -0.25209E-05  6892   0.311E-02    0.113E-02
DAV:   8    -0.204005442017E+03    0.25472E-06   -0.68517E-06  5564   0.132E-02
  81 F= -.20400544E+03 E0= -.20138789E+03  d E =0.314351E-03
quench:  g(F)=  0.000E+00 g(S)=  0.000E+00 dE (1.order)= 0.000E+00
 bond charge predicted
       N       E                     dE             d eps       ncg     rms          rms(c)
DAV:   1    -0.204005514264E+03   -0.71992E-04   -0.51125E-02 10960   0.200E-01    0.763E-02
DAV:   2    -0.204005593063E+03   -0.78800E-04   -0.14229E-03 10284   0.353E-02    0.588E-02
DAV:   3    -0.204005583440E+03    0.96227E-05   -0.92430E-05  7320   0.403E-02    0.626E-02
DAV:   4    -0.204005613078E+03   -0.29637E-04   -0.23522E-04  8012   0.746E-02    0.841E-02
DAV:   5    -0.204005564889E+03    0.48189E-04   -0.15361E-04  8336   0.608E-02    0.454E-02
DAV:   6    -0.204005542116E+03    0.22773E-04   -0.34558E-05  7236   0.346E-02    0.116E-02
DAV:   7    -0.204005541781E+03    0.33474E-06   -0.71080E-06  6292   0.115E-02
  82 F= -.20400554E+03 E0= -.20138800E+03  d E =-.997646E-04
quench:  g(F)=  0.000E+00 g(S)=  0.000E+00 dE (1.order)= 0.000E+00
 bond charge predicted
       N       E                     dE             d eps       ncg     rms          rms(c)
DAV:   1    -0.204005638767E+03   -0.96652E-04   -0.20823E-02 10960   0.131E-01    0.349E-02
DAV:   2    -0.204005671925E+03   -0.33158E-04   -0.42356E-04  7972   0.281E-02    0.303E-02
DAV:   3    -0.204005674608E+03   -0.26827E-05   -0.25585E-05  7528   0.335E-02    0.364E-02
DAV:   4    -0.204005664201E+03    0.10406E-04   -0.21806E-05  7168   0.281E-02    0.200E-02
DAV:   5    -0.204005678091E+03   -0.13890E-04   -0.43208E-05  6804   0.325E-02    0.439E-02
DAV:   6    -0.204005661600E+03    0.16491E-04   -0.29277E-05  6548   0.278E-02    0.126E-02
DAV:   7    -0.204005659706E+03    0.18933E-05   -0.37316E-06  5824   0.117E-02
  83 F= -.20400566E+03 E0= -.20138812E+03  d E =-.117925E-03
quench:  g(F)=  0.000E+00 g(S)=  0.000E+00 dE (1.order)= 0.000E+00
 bond charge predicted
       N       E                     dE             d eps       ncg     rms          rms(c)
DAV:   1    -0.204005567007E+03    0.94592E-04   -0.33349E-02 10960   0.170E-01    0.327E-02
DAV:   2    -0.204005612898E+03   -0.45891E-04   -0.49210E-04  8584   0.280E-02    0.233E-02
DAV:   3    -0.204005629838E+03   -0.16940E-04   -0.51188E-05  7220   0.374E-02    0.468E-02
DAV:   4    -0.204005621412E+03    0.84265E-05   -0.54343E-05  6636   0.368E-02
  84 F= -.20400562E+03 E0= -.20138808E+03  d E =0.382946E-04
quench:  g(F)=  0.000E+00 g(S)=  0.000E+00 dE (1.order)= 0.000E+00
 bond charge predicted
       N       E                     dE             d eps       ncg     rms          rms(c)
DAV:   1    -0.204005450054E+03    0.17978E-03   -0.69719E-02 10960   0.247E-01    0.515E-02
DAV:   2    -0.204005560425E+03   -0.11037E-03   -0.10492E-03 10800   0.551E-02    0.566E-02
DAV:   3    -0.204005585364E+03   -0.24939E-04   -0.17631E-04  8800   0.669E-02    0.756E-02
DAV:   4    -0.204005564910E+03    0.20454E-04   -0.14072E-04  8880   0.588E-02    0.544E-02
DAV:   5    -0.204005539901E+03    0.25009E-04   -0.41411E-05  7864   0.391E-02    0.170E-02
DAV:   6    -0.204005546646E+03   -0.67449E-05   -0.16745E-05  6568   0.255E-02
  85 F= -.20400555E+03 E0= -.20138806E+03  d E =0.747660E-04
quench:  g(F)=  0.000E+00 g(S)=  0.000E+00 dE (1.order)= 0.000E+00
 bond charge predicted
       N       E                     dE             d eps       ncg     rms          rms(c)
DAV:   1    -0.204005289035E+03    0.25087E-03   -0.11710E-01 10960   0.318E-01    0.613E-02
DAV:   2    -0.204005447320E+03   -0.15829E-03   -0.17096E-03 10976   0.480E-02    0.399E-02
DAV:   3    -0.204005539009E+03   -0.91689E-04   -0.18178E-04 11144   0.713E-02    0.103E-01
DAV:   4    -0.204005463842E+03    0.75167E-04   -0.19675E-04  8800   0.695E-02    0.493E-02
DAV:   5    -0.204005448398E+03    0.15444E-04   -0.43682E-05  7800   0.402E-02    0.269E-02
DAV:   6    -0.204005450109E+03   -0.17107E-05   -0.21666E-05  7044   0.284E-02
  86 F= -.20400545E+03 E0= -.20138792E+03  d E =0.965368E-04
quench:  g(F)=  0.000E+00 g(S)=  0.000E+00 dE (1.order)= 0.000E+00
 bond charge predicted
       N       E                     dE             d eps       ncg     rms          rms(c)
DAV:   1    -0.204005082132E+03    0.36627E-03   -0.17977E-01 10960   0.395E-01    0.740E-02
DAV:   2    -0.204005320991E+03   -0.23886E-03   -0.26075E-03 10960   0.548E-02    0.438E-02
DAV:   3    -0.204005471301E+03   -0.15031E-03   -0.30039E-04 11200   0.854E-02    0.129E-01
DAV:   4    -0.204005332467E+03    0.13883E-03   -0.27459E-04  9392   0.817E-02    0.433E-02
DAV:   5    -0.204005326332E+03    0.61351E-05   -0.67631E-05  8152   0.429E-02
  87 F= -.20400533E+03 E0= -.20138784E+03  d E =0.123777E-03
quench:  g(F)=  0.000E+00 g(S)=  0.000E+00 dE (1.order)= 0.000E+00
 bond charge predicted
       N       E                     dE             d eps       ncg     rms          rms(c)
DAV:   1    -0.204004829236E+03    0.50323E-03   -0.23077E-01 10960   0.448E-01    0.933E-02
DAV:   2    -0.204005199713E+03   -0.37048E-03   -0.35806E-03 10976   0.102E-01    0.968E-02
DAV:   3    -0.204005212121E+03   -0.12408E-04   -0.29686E-04 12524   0.107E-01    0.103E-01
DAV:   4    -0.204005266710E+03   -0.54589E-04   -0.41406E-04 11616   0.100E-01    0.126E-01
DAV:   5    -0.204005139642E+03    0.12707E-03   -0.26641E-04 10764   0.840E-02    0.433E-02
DAV:   6    -0.204005141675E+03   -0.20325E-05   -0.75568E-05 10056   0.500E-02
  88 F= -.20400514E+03 E0= -.20138764E+03  d E =0.184657E-03
quench:  g(F)=  0.000E+00 g(S)=  0.000E+00 dE (1.order)= 0.000E+00
 bond charge predicted
       N       E                     dE             d eps       ncg     rms          rms(c)
DAV:   1    -0.204004065381E+03    0.10743E-02   -0.28600E-01 10960   0.499E-01    0.107E-01
DAV:   2    -0.204004485561E+03   -0.42018E-03   -0.50471E-03 10944   0.927E-02    0.840E-02
DAV:   3    -0.204004560973E+03   -0.75411E-04   -0.45758E-04 12168   0.108E-01    0.125E-01
DAV:   4    -0.204004533210E+03    0.27763E-04   -0.51285E-04 11720   0.111E-01    0.114E-01
DAV:   5    -0.204004431526E+03    0.10168E-03   -0.31532E-04 12016   0.887E-02    0.497E-02
DAV:   6    -0.204004420063E+03    0.11463E-04   -0.95607E-05 10492   0.497E-02    0.365E-02
DAV:   7    -0.204004406522E+03    0.13541E-04   -0.36797E-05  7784   0.340E-02    0.112E-02
DAV:   8    -0.204004407340E+03   -0.81794E-06   -0.69836E-06  5692   0.138E-02
  89 F= -.20400441E+03 E0= -.20138695E+03  d E =0.734335E-03
quench:  g(F)=  0.000E+00 g(S)=  0.000E+00 dE (1.order)= 0.000E+00
 bond charge predicted
       N       E                     dE             d eps       ncg     rms          rms(c)
DAV:   1    -0.204004958032E+03   -0.55151E-03   -0.43656E-02 10968   0.178E-01    0.799E-02
DAV:   2    -0.204005029482E+03   -0.71450E-04   -0.13965E-03 10212   0.420E-02    0.638E-02
DAV:   3    -0.204005030999E+03   -0.15171E-05   -0.94699E-05 11192   0.582E-02    0.740E-02
DAV:   4    -0.204004993313E+03    0.37686E-04   -0.11661E-04 11036   0.665E-02    0.453E-02
DAV:   5    -0.204005045352E+03   -0.52039E-04   -0.15531E-04  8908   0.629E-02    0.914E-02
DAV:   6    -0.204004969096E+03    0.76257E-04   -0.11585E-04  7312   0.540E-02    0.178E-02
DAV:   7    -0.204004966275E+03    0.28204E-05   -0.99883E-06  6076   0.165E-02
  90 F= -.20400497E+03 E0= -.20138751E+03  d E =-.558936E-03
quench:  g(F)=  0.000E+00 g(S)=  0.000E+00 dE (1.order)= 0.000E+00
 bond charge predicted
       N       E                     dE             d eps       ncg     rms          rms(c)
DAV:   1    -0.204004938340E+03    0.30755E-04   -0.20102E-02 10960   0.132E-01    0.272E-02
DAV:   2    -0.204004966742E+03   -0.28402E-04   -0.33195E-04  7780   0.245E-02    0.205E-02
DAV:   3    -0.204004971513E+03   -0.47711E-05   -0.26818E-05  6952   0.269E-02    0.306E-02
DAV:   4    -0.204004970960E+03    0.55306E-06   -0.31995E-05  6716   0.282E-02
  91 F= -.20400497E+03 E0= -.20138752E+03  d E =-.468465E-05
quench:  g(F)=  0.000E+00 g(S)=  0.000E+00 dE (1.order)= 0.000E+00
 bond charge predicted
       N       E                     dE             d eps       ncg     rms          rms(c)
DAV:   1    -0.204004847907E+03    0.12361E-03   -0.40816E-02 10960   0.191E-01    0.400E-02
DAV:   2    -0.204004946801E+03   -0.98894E-04   -0.68480E-04 10800   0.640E-02    0.731E-02
DAV:   3    -0.204004918009E+03    0.28793E-04   -0.14274E-04  8252   0.606E-02    0.494E-02
DAV:   4    -0.204004911424E+03    0.65849E-05   -0.73031E-05  7476   0.431E-02
  92 F= -.20400491E+03 E0= -.20138750E+03  d E =0.595361E-04
quench:  g(F)=  0.000E+00 g(S)=  0.000E+00 dE (1.order)= 0.000E+00
 bond charge predicted
       N       E                     dE             d eps       ncg     rms          rms(c)
DAV:   1    -0.204004712450E+03    0.20556E-03   -0.79497E-02 10952   0.266E-01    0.573E-02
DAV:   2    -0.204004859534E+03   -0.14708E-03   -0.11997E-03 11144   0.741E-02    0.761E-02
DAV:   3    -0.204004823492E+03    0.36042E-04   -0.11043E-04 12320   0.698E-02    0.466E-02
DAV:   4    -0.204004851402E+03   -0.27910E-04   -0.87289E-05  8228   0.495E-02    0.687E-02
DAV:   5    -0.204004815925E+03    0.35477E-04   -0.86933E-05  7344   0.466E-02    0.261E-02
DAV:   6    -0.204004817228E+03   -0.13031E-05   -0.30547E-05  6792   0.302E-02
  93 F= -.20400482E+03 E0= -.20138737E+03  d E =0.941954E-04
quench:  g(F)=  0.000E+00 g(S)=  0.000E+00 dE (1.order)= 0.000E+00
 bond charge predicted
       N       E                     dE             d eps       ncg     rms          rms(c)
DAV:   1    -0.204004531973E+03    0.28395E-03   -0.12582E-01 10960   0.332E-01    0.633E-02
DAV:   2    -0.204004700830E+03   -0.16886E-03   -0.18429E-03 10976   0.500E-02    0.403E-02
DAV:   3    -0.204004765295E+03   -0.64465E-04   -0.16877E-04 11044   0.657E-02    0.874E-02
DAV:   4    -0.204004726882E+03    0.38412E-04   -0.17851E-04  8452   0.663E-02    0.573E-02
DAV:   5    -0.204004701749E+03    0.25133E-04   -0.73748E-05  7596   0.440E-02    0.227E-02
DAV:   6    -0.204004703403E+03   -0.16538E-05   -0.17893E-05  6924   0.214E-02
  94 F= -.20400470E+03 E0= -.20138727E+03  d E =0.113826E-03
quench:  g(F)=  0.000E+00 g(S)=  0.000E+00 dE (1.order)= 0.000E+00
 bond charge predicted
       N       E                     dE             d eps       ncg     rms          rms(c)
DAV:   1    -0.204004306774E+03    0.39498E-03   -0.18515E-01 10944   0.405E-01    0.749E-02
DAV:   2    -0.204004555637E+03   -0.24886E-03   -0.27031E-03 10944   0.585E-02    0.478E-02
DAV:   3    -0.204004720191E+03   -0.16455E-03   -0.31586E-04 11984   0.924E-02    0.136E-01
DAV:   4    -0.204004578390E+03    0.14180E-03   -0.31608E-04 10000   0.876E-02    0.553E-02
DAV:   5    -0.204004558974E+03    0.19416E-04   -0.51599E-05  8512   0.453E-02    0.302E-02
DAV:   6    -0.204004560333E+03   -0.13590E-05   -0.23963E-05  7336   0.288E-02
  95 F= -.20400456E+03 E0= -.20138716E+03  d E =0.143070E-03
quench:  g(F)=  0.000E+00 g(S)=  0.000E+00 dE (1.order)= 0.000E+00
 bond charge predicted
       N       E                     dE             d eps       ncg     rms          rms(c)
DAV:   1    -0.204003995019E+03    0.56395E-03   -0.22270E-01 10960   0.446E-01    0.911E-02
DAV:   2    -0.204004304426E+03   -0.30941E-03   -0.35004E-03 10976   0.659E-02    0.631E-02
DAV:   3    -0.204004512117E+03   -0.20769E-03   -0.43216E-04 11984   0.105E-01    0.158E-01
DAV:   4    -0.204004306296E+03    0.20582E-03   -0.42073E-04 10808   0.100E-01    0.512E-02
DAV:   5    -0.204004320105E+03   -0.13809E-04   -0.10644E-04 11084   0.612E-02    0.573E-02
DAV:   6    -0.204004300100E+03    0.20005E-04   -0.45746E-05  9280   0.473E-02    0.337E-02
DAV:   7    -0.204004288723E+03    0.11378E-04   -0.20935E-05  6980   0.292E-02    0.102E-02
DAV:   8    -0.204004288975E+03   -0.25177E-06   -0.57478E-06  5684   0.114E-02
  96 F= -.20400429E+03 E0= -.20138690E+03  d E =0.271358E-03
quench:  g(F)=  0.000E+00 g(S)=  0.000E+00 dE (1.order)= 0.000E+00
 bond charge predicted
       N       E                     dE             d eps       ncg     rms          rms(c)
DAV:   1    -0.204003154786E+03    0.11339E-02   -0.21340E-01 10944   0.426E-01    0.110E-01
DAV:   2    -0.204003473218E+03   -0.31843E-03   -0.44476E-03 10944   0.662E-02    0.784E-02
DAV:   3    -0.204003469078E+03    0.41407E-05   -0.21350E-04  9916   0.651E-02    0.909E-02
DAV:   4    -0.204003491757E+03   -0.22679E-04   -0.41285E-04 10552   0.987E-02    0.105E-01
DAV:   5    -0.204003468101E+03    0.23656E-04   -0.35595E-04 12324   0.957E-02    0.905E-02
DAV:   6    -0.204003383451E+03    0.84650E-04   -0.11791E-04 11292   0.661E-02    0.255E-02
DAV:   7    -0.204003379803E+03    0.36476E-05   -0.21247E-05  6972   0.276E-02
  97 F= -.20400338E+03 E0= -.20138603E+03  d E =0.909171E-03
quench:  g(F)=  0.000E+00 g(S)=  0.000E+00 dE (1.order)= 0.000E+00
 bond charge predicted
       N       E                     dE             d eps       ncg     rms          rms(c)
DAV:   1    -0.204004152900E+03   -0.76945E-03   -0.15696E-02 10968   0.108E-01    0.507E-02
DAV:   2    -0.204004190800E+03   -0.37900E-04   -0.57098E-04  9284   0.448E-02    0.501E-02
DAV:   3    -0.204004182634E+03    0.81661E-05   -0.75642E-05  9252   0.483E-02    0.469E-02
DAV:   4    -0.204004187273E+03   -0.46394E-05   -0.80530E-05  7548   0.460E-02
  98 F= -.20400419E+03 E0= -.20138683E+03  d E =-.807470E-03
quench:  g(F)=  0.000E+00 g(S)=  0.000E+00 dE (1.order)= 0.000E+00
 bond charge predicted
       N       E                     dE             d eps       ncg     rms          rms(c)
DAV:   1    -0.204004158239E+03    0.24395E-04   -0.33065E-02 10944   0.186E-01    0.747E-02
DAV:   2    -0.204005497200E+03   -0.13390E-02   -0.27835E-03 13300   0.242E-01    0.375E-01
DAV:   3    -0.204004207776E+03    0.12894E-02   -0.18621E-03 13580   0.214E-01    0.712E-02
DAV:   4    -0.204004183606E+03    0.24170E-04   -0.11608E-04 11952   0.596E-02    0.552E-02
DAV:   5    -0.204004160790E+03    0.22816E-04   -0.60818E-05  8292   0.401E-02    0.286E-02
DAV:   6    -0.204004173370E+03   -0.12580E-04   -0.68626E-05  8616   0.454E-02    0.461E-02
DAV:   7    -0.204004150652E+03    0.22717E-04   -0.34516E-05  7140   0.342E-02    0.791E-03
DAV:   8    -0.204004150809E+03   -0.15715E-06   -0.58447E-06  5864   0.100E-02
  99 F= -.20400415E+03 E0= -.20138678E+03  d E =0.364639E-04
quench:  g(F)=  0.000E+00 g(S)=  0.000E+00 dE (1.order)= 0.000E+00
 bond charge predicted
       N       E                     dE             d eps       ncg     rms          rms(c)
DAV:   1    -0.204004055576E+03    0.95076E-04   -0.44319E-02 10944   0.196E-01    0.406E-02
DAV:   2    -0.204004118489E+03   -0.62913E-04   -0.76492E-04  9608   0.289E-02    0.277E-02
DAV:   3    -0.204004136303E+03   -0.17813E-04   -0.53023E-05  7184   0.362E-02    0.520E-02
DAV:   4    -0.204004118786E+03    0.17517E-04   -0.63850E-05  7180   0.397E-02    0.288E-02
DAV:   5    -0.204004118936E+03   -0.15023E-06   -0.29253E-05  6656   0.306E-02
 100 F= -.20400412E+03 E0= -.20138679E+03  d E =0.318737E-04
quench:  g(F)=  0.000E+00 g(S)=  0.000E+00 dE (1.order)= 0.000E+00
 bond charge predicted
       N       E                     dE             d eps       ncg     rms          rms(c)
DAV:   1    -0.204003960360E+03    0.15843E-03   -0.53927E-02 10944   0.219E-01    0.497E-02
DAV:   2    -0.204004069347E+03   -0.10899E-03   -0.94705E-04 11120   0.639E-02    0.651E-02
DAV:   3    -0.204004043953E+03    0.25394E-04   -0.76411E-05 11344   0.583E-02    0.440E-02
DAV:   4    -0.204004059338E+03   -0.15385E-04   -0.76139E-05  7644   0.443E-02    0.588E-02
DAV:   5    -0.204004036906E+03    0.22432E-04   -0.77940E-05  7352   0.442E-02    0.298E-02
DAV:   6    -0.204004035257E+03    0.16484E-05   -0.26936E-05  6900   0.304E-02
 101 F= -.20400404E+03 E0= -.20138667E+03  d E =0.836785E-04
quench:  g(F)=  0.000E+00 g(S)=  0.000E+00 dE (1.order)= 0.000E+00
 bond charge predicted
       N       E                     dE             d eps       ncg     rms          rms(c)
DAV:   1    -0.204003780592E+03    0.25631E-03   -0.90489E-02 10944   0.283E-01    0.541E-02
DAV:   2    -0.204003907320E+03   -0.12673E-03   -0.14374E-03 10912   0.471E-02    0.378E-02
DAV:   3    -0.204003947693E+03   -0.40373E-04   -0.13283E-04 10284   0.576E-02    0.739E-02
DAV:   4    -0.204003920071E+03    0.27623E-04   -0.13574E-04  7680   0.576E-02    0.495E-02
DAV:   5    -0.204003901724E+03    0.18346E-04   -0.57346E-05  7784   0.395E-02    0.216E-02
DAV:   6    -0.204003903190E+03   -0.14656E-05   -0.21494E-05  6748   0.252E-02
 102 F= -.20400390E+03 E0= -.20138658E+03  d E =0.132067E-03
quench:  g(F)=  0.000E+00 g(S)=  0.000E+00 dE (1.order)= 0.000E+00
 bond charge predicted
       N       E                     dE             d eps       ncg     rms          rms(c)
DAV:   1    -0.204003581102E+03    0.32062E-03   -0.90081E-02 10952   0.282E-01    0.694E-02
DAV:   2    -0.204003727612E+03   -0.14651E-03   -0.17165E-03 10936   0.563E-02    0.623E-02
DAV:   3    -0.204003760885E+03   -0.33272E-04   -0.14190E-04 11916   0.703E-02    0.866E-02
DAV:   4    -0.204003744317E+03    0.16568E-04   -0.20808E-04  8984   0.708E-02    0.764E-02
DAV:   5    -0.204003705707E+03    0.38610E-04   -0.12539E-04  9532   0.604E-02    0.394E-02
DAV:   6    -0.204003693979E+03    0.11728E-04   -0.23848E-05  7180   0.286E-02    0.180E-02
DAV:   7    -0.204003690929E+03    0.30496E-05   -0.11401E-05  6196   0.202E-02
 103 F= -.20400369E+03 E0= -.20138637E+03  d E =0.212261E-03
quench:  g(F)=  0.000E+00 g(S)=  0.000E+00 dE (1.order)= 0.000E+00
 bond charge predicted
       N       E                     dE             d eps       ncg     rms          rms(c)
DAV:   1    -0.204003478316E+03    0.21566E-03   -0.81811E-02 10944   0.262E-01    0.691E-02
DAV:   2    -0.204003600549E+03   -0.12223E-03   -0.17235E-03 10752   0.456E-02    0.507E-02
DAV:   3    -0.204003589129E+03    0.11420E-04   -0.88191E-05  9384   0.431E-02    0.474E-02
DAV:   4    -0.204003581850E+03    0.72791E-05   -0.10990E-04 10060   0.530E-02    0.404E-02
DAV:   5    -0.204003576406E+03    0.54443E-05   -0.41970E-05  8208   0.409E-02
 104 F= -.20400358E+03 E0= -.20138621E+03  d E =0.114524E-03
quench:  g(F)=  0.000E+00 g(S)=  0.000E+00 dE (1.order)= 0.000E+00
 bond charge predicted
       N       E                     dE             d eps       ncg     rms          rms(c)
[...]
quench:  g(F)=  0.000E+00 g(S)=  0.000E+00 dE (1.order)= 0.000E+00
 bond charge predicted
       N       E                     dE             d eps       ncg     rms          rms(c)
DAV:   1    -0.203976816866E+03    0.49620E-04   -0.60764E-03 10944   0.808E-02    0.153E-02
DAV:   2    -0.203976831840E+03   -0.14974E-04   -0.97174E-05  7292   0.289E-02    0.286E-02
DAV:   3    -0.203976824422E+03    0.74180E-05   -0.98014E-06  6512   0.231E-02    0.107E-02
DAV:   4    -0.203976824576E+03   -0.15352E-06   -0.39667E-06  5480   0.115E-02
 364 F= -.20397682E+03 E0= -.20136099E+03  d E =0.422075E-04
quench:  g(F)=  0.000E+00 g(S)=  0.000E+00 dE (1.order)= 0.000E+00
 bond charge predicted
       N       E                     dE             d eps       ncg     rms          rms(c)
DAV:   1    -0.203976759278E+03    0.65144E-04   -0.97623E-03 10944   0.101E-01    0.185E-02
DAV:   2    -0.203976826382E+03   -0.67104E-04   -0.21748E-04  8124   0.528E-02    0.779E-02
DAV:   3    -0.203976770276E+03    0.56106E-04   -0.85492E-05  7024   0.459E-02    0.106E-02
DAV:   4    -0.203976770505E+03   -0.22918E-06   -0.39593E-06  6080   0.790E-03
 365 F= -.20397677E+03 E0= -.20136094E+03  d E =0.540710E-04
quench:  g(F)=  0.000E+00 g(S)=  0.000E+00 dE (1.order)= 0.000E+00
 bond charge predicted
       N       E                     dE             d eps       ncg     rms          rms(c)
DAV:   1    -0.203976688077E+03    0.82199E-04   -0.14229E-02 10944   0.122E-01    0.216E-02
DAV:   2    -0.203976711720E+03   -0.23643E-04   -0.21318E-04  7656   0.322E-02    0.276E-02
DAV:   3    -0.203976706550E+03    0.51696E-05   -0.17882E-05  6800   0.271E-02    0.164E-02
DAV:   4    -0.203976707104E+03   -0.55328E-06   -0.55917E-06  5904   0.160E-02
 366 F= -.20397671E+03 E0= -.20136086E+03  d E =0.634012E-04
quench:  g(F)=  0.000E+00 g(S)=  0.000E+00 dE (1.order)= 0.000E+00
 bond charge predicted
       N       E                     dE             d eps       ncg     rms          rms(c)
DAV:   1    -0.203976604939E+03    0.10161E-03   -0.16647E-02 10944   0.133E-01    0.266E-02
DAV:   2    -0.203976686185E+03   -0.81246E-04   -0.36174E-04  8260   0.580E-02    0.815E-02
DAV:   3    -0.203976628136E+03    0.58049E-04   -0.10642E-04  7448   0.512E-02    0.213E-02
DAV:   4    -0.203976628456E+03   -0.31957E-06   -0.13744E-05  6800   0.196E-02
 367 F= -.20397663E+03 E0= -.20136083E+03  d E =0.786479E-04
quench:  g(F)=  0.000E+00 g(S)=  0.000E+00 dE (1.order)= 0.000E+00
 bond charge predicted
       N       E                     dE             d eps       ncg     rms          rms(c)
DAV:   1    -0.203976564967E+03    0.63170E-04   -0.98265E-03 10944   0.104E-01    0.277E-02
DAV:   2    -0.203976612128E+03   -0.47161E-04   -0.26693E-04  9560   0.491E-02    0.560E-02
DAV:   3    -0.203976582241E+03    0.29887E-04   -0.31751E-05  8408   0.402E-02    0.207E-02
DAV:   4    -0.203976589818E+03   -0.75765E-05   -0.26467E-05  6912   0.244E-02
 368 F= -.20397659E+03 E0= -.20136076E+03  d E =0.386382E-04
quench:  g(F)=  0.000E+00 g(S)=  0.000E+00 dE (1.order)= 0.000E+00
 bond charge predicted
       N       E                     dE             d eps       ncg     rms          rms(c)
DAV:   1    -0.203976587450E+03   -0.52089E-05   -0.18950E-03 10192   0.565E-02    0.141E-02
DAV:   2    -0.203976657698E+03   -0.70248E-04   -0.15846E-04  7848   0.546E-02    0.836E-02
DAV:   3    -0.203976592504E+03    0.65194E-04   -0.91728E-05  6948   0.476E-02    0.114E-02
DAV:   4    -0.203976592152E+03    0.35205E-06   -0.42887E-06  5940   0.102E-02
 369 F= -.20397659E+03 E0= -.20136078E+03  d E =-.233432E-05
quench:  g(F)=  0.000E+00 g(S)=  0.000E+00 dE (1.order)= 0.000E+00
 bond charge predicted
       N       E                     dE             d eps       ncg     rms          rms(c)
DAV:   1    -0.203976557912E+03    0.34592E-04   -0.34337E-03 10944   0.603E-02    0.125E-02
DAV:   2    -0.203976564888E+03   -0.69763E-05   -0.50081E-05  6944   0.187E-02    0.199E-02
DAV:   3    -0.203976561643E+03    0.32453E-05   -0.48139E-06  5968   0.164E-02    0.888E-03
DAV:   4    -0.203976561878E+03   -0.23522E-06   -0.22014E-06  5548   0.779E-03
 370 F= -.20397656E+03 E0= -.20136075E+03  d E =0.302737E-04
quench:  g(F)=  0.000E+00 g(S)=  0.000E+00 dE (1.order)= 0.000E+00
 bond charge predicted
       N       E                     dE             d eps       ncg     rms          rms(c)
DAV:   1    -0.203976512720E+03    0.48923E-04   -0.64055E-03 10944   0.827E-02    0.165E-02
DAV:   2    -0.203976594744E+03   -0.82023E-04   -0.20779E-04  8156   0.587E-02    0.895E-02
DAV:   3    -0.203976519651E+03    0.75092E-04   -0.10782E-04  7096   0.510E-02    0.839E-03
DAV:   4    -0.203976520658E+03   -0.10071E-05   -0.41937E-06  6020   0.961E-03
 371 F= -.20397652E+03 E0= -.20136072E+03  d E =0.412200E-04
quench:  g(F)=  0.000E+00 g(S)=  0.000E+00 dE (1.order)= 0.000E+00
 bond charge predicted
       N       E                     dE             d eps       ncg     rms          rms(c)
DAV:   1    -0.203976457542E+03    0.62109E-04   -0.10035E-02 10944   0.103E-01    0.181E-02
DAV:   2    -0.203976475194E+03   -0.17652E-04   -0.14149E-04  7488   0.263E-02    0.263E-02
DAV:   3    -0.203976470081E+03    0.51129E-05   -0.92126E-06  6696   0.228E-02    0.136E-02
DAV:   4    -0.203976470170E+03   -0.88545E-07   -0.41612E-06  5780   0.110E-02
 372 F= -.20397647E+03 E0= -.20136066E+03  d E =0.504887E-04
quench:  g(F)=  0.000E+00 g(S)=  0.000E+00 dE (1.order)= 0.000E+00
 bond charge predicted
       N       E                     dE             d eps       ncg     rms          rms(c)
DAV:   1    -0.203976389824E+03    0.80257E-04   -0.14112E-02 10944   0.122E-01    0.240E-02
DAV:   2    -0.203976521675E+03   -0.13185E-03   -0.38994E-04  9656   0.743E-02    0.111E-01
DAV:   3    -0.203976406269E+03    0.11541E-03   -0.17274E-04  7792   0.641E-02    0.139E-02
DAV:   4    -0.203976407802E+03   -0.15332E-05   -0.85953E-06  6668   0.136E-02
 373 F= -.20397641E+03 E0= -.20136062E+03  d E =0.623676E-04
quench:  g(F)=  0.000E+00 g(S)=  0.000E+00 dE (1.order)= 0.000E+00
 bond charge predicted
       N       E                     dE             d eps       ncg     rms          rms(c)
DAV:   1    -0.203976315632E+03    0.90637E-04   -0.14102E-02 10944   0.122E-01    0.274E-02
DAV:   2    -0.203976355000E+03   -0.39368E-04   -0.27792E-04  8744   0.428E-02    0.468E-02
DAV:   3    -0.203976335838E+03    0.19163E-04   -0.23981E-05  7952   0.356E-02    0.202E-02
DAV:   4    -0.203976338276E+03   -0.24384E-05   -0.16950E-05  6776   0.190E-02
 374 F= -.20397634E+03 E0= -.20136053E+03  d E =0.695259E-04
quench:  g(F)=  0.000E+00 g(S)=  0.000E+00 dE (1.order)= 0.000E+00
 bond charge predicted
       N       E                     dE             d eps       ncg     rms          rms(c)
DAV:   1    -0.203976327243E+03    0.85948E-05   -0.50610E-03 10920   0.792E-02    0.253E-02
DAV:   2    -0.203976586292E+03   -0.25905E-03   -0.54200E-04 11700   0.103E-01    0.163E-01
DAV:   3    -0.203976335287E+03    0.25100E-03   -0.35110E-04  9764   0.900E-02    0.157E-02
DAV:   4    -0.203976336000E+03   -0.71330E-06   -0.11809E-05  6804   0.155E-02
 375 F= -.20397634E+03 E0= -.20136055E+03  d E =0.227594E-05
quench:  g(F)=  0.000E+00 g(S)=  0.000E+00 dE (1.order)= 0.000E+00
 bond charge predicted
       N       E                     dE             d eps       ncg     rms          rms(c)
DAV:   1    -0.203976319667E+03    0.15620E-04   -0.20777E-03 10608   0.521E-02    0.129E-02
DAV:   2    -0.203976338439E+03   -0.18771E-04   -0.58642E-05  7600   0.328E-02    0.388E-02
DAV:   3    -0.203976322993E+03    0.15446E-04   -0.11214E-05  6632   0.263E-02    0.745E-03
DAV:   4    -0.203976324491E+03   -0.14982E-05   -0.50488E-06  5568   0.103E-02
 376 F= -.20397632E+03 E0= -.20136052E+03  d E =0.115090E-04
quench:  g(F)=  0.000E+00 g(S)=  0.000E+00 dE (1.order)= 0.000E+00
 bond charge predicted
       N       E                     dE             d eps       ncg     rms          rms(c)
DAV:   1    -0.203976289988E+03    0.33005E-04   -0.38781E-03 10944   0.651E-02    0.120E-02
DAV:   2    -0.203976300587E+03   -0.10600E-04   -0.63154E-05  6940   0.222E-02    0.266E-02
DAV:   3    -0.203976295518E+03    0.50697E-05   -0.15804E-05  6300   0.199E-02    0.127E-02
DAV:   4    -0.203976294815E+03    0.70321E-06   -0.46332E-06  5584   0.116E-02
 377 F= -.20397629E+03 E0= -.20136049E+03  d E =0.296765E-04
quench:  g(F)=  0.000E+00 g(S)=  0.000E+00 dE (1.order)= 0.000E+00
 bond charge predicted
       N       E                     dE             d eps       ncg     rms          rms(c)
DAV:   1    -0.203976246461E+03    0.49056E-04   -0.70443E-03 10944   0.859E-02    0.149E-02
DAV:   2    -0.203976258357E+03   -0.11896E-04   -0.98833E-05  7168   0.224E-02    0.215E-02
DAV:   3    -0.203976255815E+03    0.25423E-05   -0.10827E-05  6268   0.201E-02    0.144E-02
DAV:   4    -0.203976258341E+03   -0.25260E-05   -0.11496E-05  6120   0.166E-02
 378 F= -.20397626E+03 E0= -.20136045E+03  d E =0.364740E-04
quench:  g(F)=  0.000E+00 g(S)=  0.000E+00 dE (1.order)= 0.000E+00
 bond charge predicted
       N       E                     dE             d eps       ncg     rms          rms(c)
DAV:   1    -0.203976192428E+03    0.63386E-04   -0.11223E-02 10944   0.110E-01    0.195E-02
DAV:   2    -0.203976217338E+03   -0.24910E-04   -0.16600E-04  7600   0.334E-02    0.369E-02
DAV:   3    -0.203976209724E+03    0.76140E-05   -0.32317E-05  6944   0.308E-02    0.244E-02
DAV:   4    -0.203976208132E+03    0.15923E-05   -0.17423E-05  6440   0.214E-02
 379 F= -.20397621E+03 E0= -.20136042E+03  d E =0.502088E-04
quench:  g(F)=  0.000E+00 g(S)=  0.000E+00 dE (1.order)= 0.000E+00
 bond charge predicted
       N       E                     dE             d eps       ncg     rms          rms(c)
DAV:   1    -0.203976129706E+03    0.80018E-04   -0.16202E-02 10944   0.131E-01    0.238E-02
DAV:   2    -0.203976157577E+03   -0.27870E-04   -0.23017E-04  7856   0.364E-02    0.338E-02
DAV:   3    -0.203976149603E+03    0.79734E-05   -0.21255E-05  7128   0.310E-02    0.187E-02
DAV:   4    -0.203976152145E+03   -0.25414E-05   -0.12577E-05  6304   0.206E-02
 380 F= -.20397615E+03 E0= -.20136036E+03  d E =0.559872E-04
quench:  g(F)=  0.000E+00 g(S)=  0.000E+00 dE (1.order)= 0.000E+00
 bond charge predicted
       N       E                     dE             d eps       ncg     rms          rms(c)
DAV:   1    -0.203976063677E+03    0.85927E-04   -0.21959E-02 10944   0.154E-01    0.327E-02
DAV:   2    -0.203976374050E+03   -0.31037E-03   -0.75077E-04 12672   0.115E-01    0.175E-01
DAV:   3    -0.203976089468E+03    0.28458E-03   -0.41840E-04 11208   0.100E-01    0.235E-02
DAV:   4    -0.203976091512E+03   -0.20434E-05   -0.22665E-05  6992   0.274E-02
 381 F= -.20397609E+03 E0= -.20136033E+03  d E =0.606328E-04
quench:  g(F)=  0.000E+00 g(S)=  0.000E+00 dE (1.order)= 0.000E+00
 bond charge predicted
       N       E                     dE             d eps       ncg     rms          rms(c)
DAV:   1    -0.203975985241E+03    0.10423E-03   -0.25190E-02 10944   0.164E-01    0.340E-02
DAV:   2    -0.203976037685E+03   -0.52443E-04   -0.42841E-04 10744   0.533E-02    0.496E-02
DAV:   3    -0.203976018947E+03    0.18737E-04   -0.41384E-05  9164   0.436E-02    0.282E-02
DAV:   4    -0.203976018108E+03    0.83923E-06   -0.22400E-05  7004   0.270E-02
 382 F= -.20397602E+03 E0= -.20136024E+03  d E =0.734038E-04
quench:  g(F)=  0.000E+00 g(S)=  0.000E+00 dE (1.order)= 0.000E+00
 bond charge predicted
       N       E                     dE             d eps       ncg     rms          rms(c)
DAV:   1    -0.203975958034E+03    0.60913E-04   -0.11375E-02 10948   0.116E-01    0.477E-02
DAV:   2    -0.203977106719E+03   -0.11487E-02   -0.20636E-03 14100   0.216E-01    0.347E-01
DAV:   3    -0.203975970534E+03    0.11362E-02   -0.15006E-03 14144   0.190E-01    0.294E-02
DAV:   4    -0.203975969391E+03    0.11431E-05   -0.36119E-05  9316   0.291E-02
 383 F= -.20397597E+03 E0= -.20136022E+03  d E =0.487166E-04
quench:  g(F)=  0.000E+00 g(S)=  0.000E+00 dE (1.order)= 0.000E+00
 bond charge predicted
       N       E                     dE             d eps       ncg     rms          rms(c)
DAV:   1    -0.203975999425E+03   -0.28890E-04   -0.10481E-03  8924   0.464E-02    0.165E-02
DAV:   2    -0.203976033436E+03   -0.34011E-04   -0.85427E-05  9368   0.478E-02    0.540E-02
DAV:   3    -0.203976002673E+03    0.30763E-04   -0.24646E-05  7552   0.377E-02    0.110E-02
DAV:   4    -0.203976001945E+03    0.72827E-06   -0.49403E-06  5652   0.987E-03
 384 F= -.20397600E+03 E0= -.20136021E+03  d E =-.325535E-04
quench:  g(F)=  0.000E+00 g(S)=  0.000E+00 dE (1.order)= 0.000E+00
 bond charge predicted
       N       E                     dE             d eps       ncg     rms          rms(c)
DAV:   1    -0.203975990906E+03    0.11767E-04   -0.27235E-03 10704   0.535E-02    0.182E-02
DAV:   2    -0.203976063206E+03   -0.72300E-04   -0.16729E-04  7892   0.557E-02    0.868E-02
DAV:   3    -0.203975993286E+03    0.69920E-04   -0.99186E-05  7008   0.494E-02    0.118E-02
DAV:   4    -0.203975992584E+03    0.70224E-06   -0.49739E-06  6312   0.923E-03
 385 F= -.20397599E+03 E0= -.20136020E+03  d E =0.936081E-05
quench:  g(F)=  0.000E+00 g(S)=  0.000E+00 dE (1.order)= 0.000E+00
 bond charge predicted
       N       E                     dE             d eps       ncg     rms          rms(c)
DAV:   1    -0.203975968451E+03    0.24835E-04   -0.30588E-03 10896   0.589E-02    0.127E-02
DAV:   2    -0.203975980605E+03   -0.12154E-04   -0.63006E-05  7048   0.282E-02    0.287E-02
DAV:   3    -0.203975972649E+03    0.79558E-05   -0.86325E-06  6384   0.220E-02    0.911E-03
DAV:   4    -0.203975972518E+03    0.13152E-06   -0.29584E-06  5472   0.946E-03
 386 F= -.20397597E+03 E0= -.20136019E+03  d E =0.200665E-04
quench:  g(F)=  0.000E+00 g(S)=  0.000E+00 dE (1.order)= 0.000E+00
 bond charge predicted
       N       E                     dE             d eps       ncg     rms          rms(c)
DAV:   1    -0.203975936960E+03    0.35689E-04   -0.49874E-03 10944   0.732E-02    0.176E-02
DAV:   2    -0.203976066979E+03   -0.13002E-03   -0.27295E-04  9416   0.738E-02    0.115E-01
DAV:   3    -0.203975941588E+03    0.12539E-03   -0.17601E-04  7580   0.646E-02    0.994E-03
DAV:   4    -0.203975942575E+03   -0.98765E-06   -0.60704E-06  6124   0.124E-02
 387 F= -.20397594E+03 E0= -.20136017E+03  d E =0.299423E-04
quench:  g(F)=  0.000E+00 g(S)=  0.000E+00 dE (1.order)= 0.000E+00
 bond charge predicted
       N       E                     dE             d eps       ncg     rms          rms(c)
DAV:   1    -0.203975893720E+03    0.47868E-04   -0.80381E-03 10944   0.921E-02    0.173E-02
DAV:   2    -0.203975910893E+03   -0.17174E-04   -0.12150E-04  7376   0.288E-02    0.289E-02
DAV:   3    -0.203975904131E+03    0.67621E-05   -0.11181E-05  6800   0.242E-02    0.139E-02
DAV:   4    -0.203975908161E+03   -0.40291E-05   -0.12986E-05  6156   0.181E-02
 388 F= -.20397591E+03 E0= -.20136012E+03  d E =0.344147E-04
quench:  g(F)=  0.000E+00 g(S)=  0.000E+00 dE (1.order)= 0.000E+00
 bond charge predicted
       N       E                     dE             d eps       ncg     rms          rms(c)
DAV:   1    -0.203975846494E+03    0.57637E-04   -0.11030E-02 10944   0.109E-01    0.213E-02
DAV:   2    -0.203975884215E+03   -0.37721E-04   -0.20212E-04  7820   0.429E-02    0.527E-02
DAV:   3    -0.203975863329E+03    0.20885E-04   -0.57519E-05  7044   0.381E-02    0.239E-02
DAV:   4    -0.203975860823E+03    0.25061E-05   -0.13297E-05  6260   0.209E-02
 389 F= -.20397586E+03 E0= -.20136010E+03  d E =0.473373E-04
quench:  g(F)=  0.000E+00 g(S)=  0.000E+00 dE (1.order)= 0.000E+00
 bond charge predicted
       N       E                     dE             d eps       ncg     rms          rms(c)
DAV:   1    -0.203975792381E+03    0.70949E-04   -0.12402E-02 10944   0.115E-01    0.262E-02
DAV:   2    -0.203975837047E+03   -0.44666E-04   -0.25584E-04  9952   0.500E-02    0.534E-02
DAV:   3    -0.203975809576E+03    0.27470E-04   -0.31108E-05  8536   0.401E-02    0.189E-02
DAV:   4    -0.203975811552E+03   -0.19754E-05   -0.16075E-05  6540   0.204E-02
 390 F= -.20397581E+03 E0= -.20136003E+03  d E =0.492713E-04
quench:  g(F)=  0.000E+00 g(S)=  0.000E+00 dE (1.order)= 0.000E+00
 bond charge predicted
       N       E                     dE             d eps       ncg     rms          rms(c)
DAV:   1    -0.203975792672E+03    0.16905E-04   -0.49312E-03 10928   0.779E-02    0.282E-02
DAV:   2    -0.203976101550E+03   -0.30888E-03   -0.63749E-04 12564   0.114E-01    0.179E-01
DAV:   3    -0.203975801245E+03    0.30031E-03   -0.43616E-04 10884   0.100E-01    0.216E-02
DAV:   4    -0.203975799080E+03    0.21651E-05   -0.13978E-05  6488   0.193E-02
 391 F= -.20397580E+03 E0= -.20136004E+03  d E =0.124723E-04
quench:  g(F)=  0.000E+00 g(S)=  0.000E+00 dE (1.order)= 0.000E+00
 bond charge predicted
       N       E                     dE             d eps       ncg     rms          rms(c)
DAV:   1    -0.203975795826E+03    0.54186E-05   -0.16304E-03 10240   0.471E-02    0.157E-02
DAV:   2    -0.203975827594E+03   -0.31768E-04   -0.76764E-05  9132   0.445E-02    0.527E-02
DAV:   3    -0.203975798626E+03    0.28968E-04   -0.22859E-05  7244   0.358E-02    0.106E-02
DAV:   4    -0.203975799190E+03   -0.56361E-06   -0.67549E-06  5704   0.115E-02
 392 F= -.20397580E+03 E0= -.20136002E+03  d E =-.110012E-06
quench:  g(F)=  0.000E+00 g(S)=  0.000E+00 dE (1.order)= 0.000E+00
 bond charge predicted
       N       E                     dE             d eps       ncg     rms          rms(c)
DAV:   1    -0.203975773330E+03    0.25296E-04   -0.28603E-03 10872   0.563E-02    0.117E-02
DAV:   2    -0.203975783108E+03   -0.97780E-05   -0.51502E-05  6880   0.220E-02    0.274E-02
DAV:   3    -0.203975777468E+03    0.56406E-05   -0.15957E-05  6272   0.199E-02    0.121E-02
DAV:   4    -0.203975776771E+03    0.69723E-06   -0.38812E-06  5604   0.110E-02
 393 F= -.20397578E+03 E0= -.20136000E+03  d E =0.224190E-04
quench:  g(F)=  0.000E+00 g(S)=  0.000E+00 dE (1.order)= 0.000E+00
 bond charge predicted
       N       E                     dE             d eps       ncg     rms          rms(c)
DAV:   1    -0.203975739075E+03    0.38393E-04   -0.53717E-03 10944   0.748E-02    0.139E-02
DAV:   2    -0.203975753510E+03   -0.14434E-04   -0.79445E-05  7160   0.265E-02    0.295E-02
DAV:   3    -0.203975745459E+03    0.80505E-05   -0.89630E-06  6456   0.222E-02    0.970E-03
DAV:   4    -0.203975749271E+03   -0.38123E-05   -0.95807E-06  6068   0.150E-02
 394 F= -.20397575E+03 E0= -.20135996E+03  d E =0.274994E-04
quench:  g(F)=  0.000E+00 g(S)=  0.000E+00 dE (1.order)= 0.000E+00
 bond charge predicted
       N       E                     dE             d eps       ncg     rms          rms(c)
DAV:   1    -0.203975695087E+03    0.50372E-04   -0.87542E-03 10944   0.971E-02    0.163E-02
DAV:   2    -0.203975707229E+03   -0.12142E-04   -0.12150E-04  7264   0.177E-02    0.161E-02
DAV:   3    -0.203975711611E+03   -0.43815E-05   -0.19583E-05  6580   0.218E-02    0.267E-02
DAV:   4    -0.203975706234E+03    0.53766E-05   -0.11609E-05  6144   0.172E-02
 395 F= -.20397571E+03 E0= -.20135993E+03  d E =0.430373E-04
quench:  g(F)=  0.000E+00 g(S)=  0.000E+00 dE (1.order)= 0.000E+00
 bond charge predicted
       N       E                     dE             d eps       ncg     rms          rms(c)
DAV:   1    -0.203975647813E+03    0.63798E-04   -0.12508E-02 10944   0.113E-01    0.198E-02
DAV:   2    -0.203975666729E+03   -0.18916E-04   -0.17771E-04  7568   0.259E-02    0.230E-02
DAV:   3    -0.203975666925E+03   -0.19575E-06   -0.19774E-05  6872   0.252E-02    0.237E-02
DAV:   4    -0.203975667594E+03   -0.66895E-06   -0.20387E-05  6376   0.224E-02
 396 F= -.20397567E+03 E0= -.20135988E+03  d E =0.386404E-04
quench:  g(F)=  0.000E+00 g(S)=  0.000E+00 dE (1.order)= 0.000E+00
 bond charge predicted
