<?xml version="1.0" encoding="ISO-8859-1"?>
<modeling>
 <generator>
  <i name="program" type="string">vasp </i>
  <i name="version" type="string">6.5.1  </i>
  <i name="subversion" type="string">10Mar25 (build Apr 25 2025 15:31:43) complex                          parallel </i>
  <i name="platform" type="string">LinuxIFC </i>
  <i name="date" type="string">2025 12 08 </i>
  <i name="time" type="string">14:54:14 </i>
 </generator>
 <incar>
  <i type="string" name="SYSTEM">PBE-grap</i>
  <i type="int" name="ISTART">     0</i>
  <i type="string" name="PREC">Normal   low | medium | high</i>
  <i type="int" name="IALGO">    38</i>
  <i type="int" name="ICHARG">     2</i>
  <i type="int" name="INIWAV">     1</i>
  <i type="int" name="NELM">   150</i>
  <i type="int" name="NELMDL">    -5</i>
  <i type="int" name="NELMIN">     4</i>
  <i type="int" name="IBRION">     3</i>
  <i name="EDIFF">      0.00001000</i>
  <i name="EDIFFG">     -0.02600000</i>
  <i type="int" name="NSW">  1000</i>
  <i type="int" name="ISIF">     2</i>
  <i type="int" name="ISYM">     0</i>
  <i name="ENCUT">    370.00000000</i>
  <i name="POTIM">      0.00000000</i>
  <i type="string" name="LREAL">AUTO   real-space projection (.FALSE., .TRUE., On, Auto)</i>
  <i type="logical" name="LPLANE"> T  </i>
  <i type="int" name="ISMEAR">     0</i>
  <i name="SIGMA">      0.41000000</i>
  <i type="int" name="NWRITE">     0</i>
  <i type="logical" name="LWAVE"> F  </i>
  <i type="logical" name="LCHARG"> F  </i>
  <i type="logical" name="LVTOT"> F  </i>
  <i type="string" name="GGA">PE</i>
  <i name="SPRING">     -5.00000000</i>
 </incar>
 <primitive_cell>
  <structure name="primitive_cell" >
   <crystal>
    <varray name="basis" >
     <v>       8.30990028       0.00000000       0.00000000 </v>
     <v>      -4.15495014       7.19658475       0.00000000 </v>
     <v>       0.00000000       0.00000000      16.52350044 </v>
    </varray>
    <i name="volume">    988.15327180 </i>
    <varray name="rec_basis" >
     <v>       0.12033839       0.06947740       0.00000000 </v>
     <v>       0.00000000       0.13895480       0.00000000 </v>
     <v>       0.00000000       0.00000000       0.06051986 </v>
    </varray>
   </crystal>
   <varray name="positions" >
    <v>       0.99888673       0.99930412       0.43815121 </v>
    <v>       0.11093000       0.22330000       0.16024000 </v>
    <v>       0.22179300       0.11229515       0.29925006 </v>
    <v>       0.33265289       0.99988498       0.43791549 </v>
    <v>       0.44426000       0.22330000       0.16024000 </v>
    <v>       0.55461723       0.11148825       0.29817508 </v>
    <v>       0.66568869       0.00000202       0.43673390 </v>
    <v>       0.77760000       0.22330000       0.16024000 </v>
    <v>       0.88854671       0.11178380       0.29869797 </v>
    <v>       0.99756697       0.33281188       0.43793492 </v>
    <v>       0.11093000       0.55664000       0.16024000 </v>
    <v>       0.22163550       0.44466174       0.29901070 </v>
    <v>       0.33190265       0.33249791       0.44105823 </v>
    <v>       0.44426000       0.55664000       0.16024000 </v>
    <v>       0.55370602       0.44447125       0.29879957 </v>
    <v>       0.66531879       0.33329911       0.43653091 </v>
    <v>       0.77760000       0.55664000       0.16024000 </v>
    <v>       0.88818852       0.44476714       0.29812010 </v>
    <v>       0.99860343       0.66632902       0.43632761 </v>
    <v>       0.11093000       0.88997000       0.16024000 </v>
    <v>       0.22182194       0.77845350       0.29839700 </v>
    <v>       0.33336296       0.66754222       0.43743157 </v>
    <v>       0.44426000       0.88997000       0.16024000 </v>
    <v>       0.55463053       0.77819730       0.29819923 </v>
    <v>       0.66593780       0.66668921       0.43656724 </v>
    <v>       0.77760000       0.88997000       0.16024000 </v>
    <v>       0.88830834       0.77867640       0.29806995 </v>
    <v>       0.99982000       0.00108000       0.02337000 </v>
    <v>       0.33315000       0.00108000       0.02337000 </v>
    <v>       0.66649000       0.00108000       0.02337000 </v>
    <v>       0.99982000       0.33441000       0.02337000 </v>
    <v>       0.33315000       0.33441000       0.02337000 </v>
    <v>       0.66649000       0.33441000       0.02337000 </v>
    <v>       0.99982000       0.66775000       0.02337000 </v>
    <v>       0.33315000       0.66775000       0.02337000 </v>
    <v>       0.66649000       0.66775000       0.02337000 </v>
    <v>       0.23595677       0.15207906       0.65827231 </v>
    <v>       0.24766068       0.29631013       0.64435320 </v>
    <v>       0.22233645       0.00981152       0.67852374 </v>
   </varray>
  </structure>
  <varray name="primitive_index" >
   <v type="int" >        1 </v>
   <v type="int" >        2 </v>
   <v type="int" >        3 </v>
   <v type="int" >        4 </v>
   <v type="int" >        5 </v>
   <v type="int" >        6 </v>
   <v type="int" >        7 </v>
   <v type="int" >        8 </v>
   <v type="int" >        9 </v>
   <v type="int" >       10 </v>
   <v type="int" >       11 </v>
   <v type="int" >       12 </v>
   <v type="int" >       13 </v>
   <v type="int" >       14 </v>
   <v type="int" >       15 </v>
   <v type="int" >       16 </v>
   <v type="int" >       17 </v>
   <v type="int" >       18 </v>
   <v type="int" >       19 </v>
   <v type="int" >       20 </v>
   <v type="int" >       21 </v>
   <v type="int" >       22 </v>
   <v type="int" >       23 </v>
   <v type="int" >       24 </v>
   <v type="int" >       25 </v>
   <v type="int" >       26 </v>
   <v type="int" >       27 </v>
   <v type="int" >       28 </v>
   <v type="int" >       29 </v>
   <v type="int" >       30 </v>
   <v type="int" >       31 </v>
   <v type="int" >       32 </v>
   <v type="int" >       33 </v>
   <v type="int" >       34 </v>
   <v type="int" >       35 </v>
   <v type="int" >       36 </v>
   <v type="int" >       37 </v>
   <v type="int" >       38 </v>
   <v type="int" >       39 </v>
  </varray>
 </primitive_cell>
 <kpoints>
  <generation param="Monkhorst-Pack">
   <v type="int" name="divisions">       4        4        1 </v>
   <v name="usershift">      0.00000000       0.00000000       0.00000000 </v>
   <v name="genvec1">      0.25000000       0.00000000       0.00000000 </v>
   <v name="genvec2">      0.00000000       0.25000000       0.00000000 </v>
   <v name="genvec3">      0.00000000       0.00000000       1.00000000 </v>
   <v name="shift">      0.50000000       0.50000000       0.00000000 </v>
  </generation>
  <varray name="kpointlist" >
   <v>       0.12500000       0.12500000       0.00000000 </v>
   <v>      -0.12500000       0.25000000       0.00000000 </v>
   <v>      -0.25000000       0.12500000       0.00000000 </v>
   <v>       0.37500000       0.12500000       0.00000000 </v>
   <v>      -0.12500000       0.50000000       0.00000000 </v>
   <v>       0.50000000       0.37500000       0.00000000 </v>
   <v>      -0.37500000       0.50000000       0.00000000 </v>
   <v>       0.12500000       0.37500000       0.00000000 </v>
   <v>       0.50000000      -0.12500000       0.00000000 </v>
   <v>      -0.37500000       0.12500000       0.00000000 </v>
   <v>      -0.12500000      -0.25000000       0.00000000 </v>
   <v>       0.25000000      -0.37500000       0.00000000 </v>
   <v>       0.37500000      -0.25000000       0.00000000 </v>
   <v>       0.12500000      -0.37500000       0.00000000 </v>
   <v>      -0.25000000      -0.12500000       0.00000000 </v>
   <v>      -0.12500000       0.12500000       0.00000000 </v>
   <v>      -0.12500000       0.00000000       0.00000000 </v>
   <v>       0.00000000      -0.12500000       0.00000000 </v>
   <v>       0.37500000       0.37500000       0.00000000 </v>
   <v>      -0.37500000      -0.25000000       0.00000000 </v>
   <v>       0.25000000       0.37500000       0.00000000 </v>
   <v>      -0.37500000       0.37500000       0.00000000 </v>
   <v>      -0.37500000       0.00000000       0.00000000 </v>
   <v>       0.00000000      -0.37500000       0.00000000 </v>
  </varray>
  <varray name="weights" >
   <v>       0.04166667 </v>
   <v>       0.04166667 </v>
   <v>       0.04166667 </v>
   <v>       0.04166667 </v>
   <v>       0.04166667 </v>
   <v>       0.04166667 </v>
   <v>       0.04166667 </v>
   <v>       0.04166667 </v>
   <v>       0.04166667 </v>
   <v>       0.04166667 </v>
   <v>       0.04166667 </v>
   <v>       0.04166667 </v>
   <v>       0.04166667 </v>
   <v>       0.04166667 </v>
   <v>       0.04166667 </v>
   <v>       0.04166667 </v>
   <v>       0.04166667 </v>
   <v>       0.04166667 </v>
   <v>       0.04166667 </v>
   <v>       0.04166667 </v>
   <v>       0.04166667 </v>
   <v>       0.04166667 </v>
   <v>       0.04166667 </v>
   <v>       0.04166667 </v>
  </varray>
 </kpoints>
 <parameters>
  <separator name="general" >
   <i type="string" name="SYSTEM">PBE-grap</i>
   <i type="logical" name="LCOMPAT"> F  </i>
  </separator>
  <separator name="electronic" >
   <i type="string" name="PREC">normal</i>
   <i name="ENMAX">    370.00000000</i>
   <i name="ENAUG">    644.87300000</i>
   <i name="EDIFF">      0.00001000</i>
   <i type="int" name="IALGO">    38</i>
   <i type="int" name="IWAVPR">    11</i>
   <i type="int" name="NBANDS">   228</i>
   <i type="int" name="NBANDSLOW">    -1</i>
   <i type="int" name="NBANDSHIGH">    -1</i>
   <i name="NELECT">    376.00000000</i>
   <i type="int" name="TURBO">     0</i>
   <i type="int" name="IRESTART">     0</i>
   <i type="int" name="NREBOOT">     0</i>
   <i type="int" name="NMIN">     0</i>
   <i name="EREF">      0.00000000</i>
   <separator name="electronic smearing" >
    <i type="int" name="ISMEAR">     0</i>
    <i name="SIGMA">      0.41000000</i>
    <i name="KSPACING">      0.50000000</i>
    <i type="logical" name="KGAMMA"> T  </i>
    <i type="logical" name="KBLOWUP"> T  </i>
   </separator>
   <separator name="electronic projectors" >
    <i type="logical" name="LREAL"> T  </i>
    <v name="ROPT">     -0.00050000     -0.00050000     -0.00050000</v>
    <i type="int" name="LMAXPAW">  -100</i>
    <i type="int" name="LMAXMIX">     2</i>
    <i type="logical" name="NLSPLINE"> F  </i>
   </separator>
   <separator name="electronic startup" >
    <i type="int" name="ISTART">     0</i>
    <i type="int" name="ICHARG">     2</i>
    <i type="int" name="INIWAV">     1</i>
   </separator>
   <separator name="electronic spin" >
    <i type="int" name="ISPIN">     1</i>
    <i type="logical" name="LNONCOLLINEAR"> F  </i>
    <v name="MAGMOM">      1.00000000      1.00000000      1.00000000      1.00000000      1.00000000      1.00000000      1.00000000      1.00000000      1.00000000      1.00000000      1.00000000      1.00000000      1.00000000      1.00000000      1.00000000      1.00000000      1.00000000      1.00000000      1.00000000      1.00000000
      1.00000000      1.00000000      1.00000000      1.00000000      1.00000000      1.00000000      1.00000000      1.00000000      1.00000000      1.00000000      1.00000000      1.00000000      1.00000000      1.00000000      1.00000000      1.00000000      1.00000000      1.00000000      1.00000000</v>
    <i name="NUPDOWN">     -1.00000000</i>
    <i type="logical" name="LSORBIT"> F  </i>
    <v name="SAXIS">      0.00000000      0.00000000      1.00000000</v>
    <i type="logical" name="LSPIRAL"> F  </i>
    <v name="QSPIRAL">      0.00000000      0.00000000      0.00000000</v>
    <i type="logical" name="LZEROZ"> F  </i>
   </separator>
   <separator name="electronic exchange-correlation" >
    <i type="logical" name="LASPH"> F  </i>
   </separator>
   <separator name="electronic convergence" >
    <i type="int" name="NELM">   150</i>
    <i type="int" name="NELMDL">    -5</i>
    <i type="int" name="NELMIN">     4</i>
    <i name="ENINI">    370.00000000</i>
    <separator name="electronic convergence detail" >
     <i type="logical" name="LDIAG"> T  </i>
     <i type="logical" name="LSUBROT"> F  </i>
     <i type="logical" name="LROBUST"> F  </i>
     <i type="int" name="ISEARCH">     0</i>
     <i name="WEIMIN">      0.00100000</i>
     <i name="EBREAK">      0.00000001</i>
     <i name="DEPER">      0.30000000</i>
     <i type="int" name="NRMM">     4</i>
     <i name="TIME">      0.40000000</i>
    </separator>
   </separator>
   <separator name="electronic mixer" >
    <i name="AMIX">      0.40000000</i>
    <i name="BMIX">      1.00000000</i>
    <i name="AMIN">      0.10000000</i>
    <i name="AMIX_MAG">      1.60000000</i>
    <i name="BMIX_MAG">      1.00000000</i>
    <separator name="electronic mixer details" >
     <i type="int" name="IMIX">     4</i>
     <i type="logical" name="MIXFIRST"> F  </i>
     <i type="int" name="MAXMIX">   -45</i>
     <i name="WC">    100.00000000</i>
     <i type="int" name="INIMIX">     1</i>
     <i type="int" name="MIXPRE">     1</i>
     <i type="int" name="MREMOVE">     5</i>
    </separator>
   </separator>
   <separator name="electronic dipolcorrection" >
    <i type="logical" name="LDIPOL"> F  </i>
    <i type="logical" name="LMONO"> F  </i>
    <i type="int" name="IDIPOL">     0</i>
    <i name="EPSILON">      1.00000000</i>
    <v name="DIPOL">   -100.00000000   -100.00000000   -100.00000000</v>
    <i name="EFIELD">      0.00000000</i>
    <i type="logical" name="LVACPOTAV"> F  </i>
   </separator>
  </separator>
  <separator name="grids" >
   <i type="int" name="NGX">    40</i>
   <i type="int" name="NGY">    40</i>
   <i type="int" name="NGZ">    80</i>
   <i type="int" name="NGXF">    80</i>
   <i type="int" name="NGYF">    80</i>
   <i type="int" name="NGZF">   160</i>
   <i type="logical" name="ADDGRID"> F  </i>
  </separator>
  <separator name="ionic" >
   <i type="int" name="NSW">  1000</i>
   <i type="int" name="IBRION">     3</i>
   <i type="int" name="MDALGO">     0</i>
   <i type="int" name="ISIF">     2</i>
   <i name="PSTRESS">      0.00000000</i>
   <i name="EDIFFG">     -0.02600000</i>
   <i type="int" name="NFREE">     0</i>
   <i name="POTIM">      0.00000000</i>
   <i name="SMASS">     -3.00000000</i>
   <i name="SCALEE">      1.00000000</i>
  </separator>
  <separator name="ionic md" >
   <i name="TEBEG">      0.00010000</i>
   <i name="TEEND">      0.00010000</i>
   <i type="int" name="NBLOCK">     1</i>
   <i type="int" name="KBLOCK">  1000</i>
   <i type="int" name="NPACO">   256</i>
   <i name="APACO">     10.00000000</i>
  </separator>
  <separator name="symmetry" >
   <i type="int" name="ISYM">     0</i>
   <i name="SYMPREC">      0.00001000</i>
  </separator>
  <separator name="dos" >
   <i type="int" name="LORBIT">     0</i>
   <v name="RWIGS">     -1.00000000     -1.00000000     -1.00000000</v>
   <i type="int" name="NEDOS">   301</i>
   <i name="EMIN">     10.00000000</i>
   <i name="EMAX">    -10.00000000</i>
   <i name="EFERMI">      0.00000000</i>
  </separator>
  <separator name="writing" >
   <i type="int" name="NWRITE">     0</i>
   <i type="logical" name="LWAVE"> F  </i>
   <i type="logical" name="LDOWNSAMPLE"> F  </i>
   <i type="logical" name="LCHARG"> F  </i>
   <i type="logical" name="LPARD"> F  </i>
   <i type="logical" name="LVTOT"> F  </i>
   <i type="logical" name="LVHAR"> F  </i>
   <i type="logical" name="LELF"> F  </i>
   <i type="logical" name="LOPTICS"> F  </i>
   <v name="STM">      0.00000000      0.00000000      0.00000000      0.00000000      0.00000000      0.00000000      0.00000000</v>
  </separator>
  <separator name="performance" >
   <i type="int" name="NPAR">     4</i>
   <i type="int" name="NSIM">     4</i>
   <i type="int" name="NBLK">    -1</i>
   <i type="logical" name="LPLANE"> T  </i>
   <i type="logical" name="LSCALAPACK"> T  </i>
   <i type="logical" name="LSCAAWARE"> F  </i>
   <i type="logical" name="LSCALU"> F  </i>
   <i type="logical" name="LASYNC"> F  </i>
   <i type="logical" name="LORBITALREAL"> F  </i>
  </separator>
  <separator name="miscellaneous" >
   <i type="int" name="IDIOT">     3</i>
   <i type="int" name="PHON_NSTRUCT">    -1</i>
   <i type="logical" name="LMUSIC"> F  </i>
   <v name="POMASS">    106.42000000     12.01100000     16.00000000</v>
   <v name="DARWINR">      0.00000000      0.00000000      0.00000000</v>
   <v name="DARWINV">      1.00000000      1.00000000      1.00000000</v>
   <i type="logical" name="LCORR"> T  </i>
  </separator>
  <i type="logical" name="GGA_COMPAT"> T  </i>
  <i type="logical" name="LBERRY"> F  </i>
  <i type="int" name="ICORELEVEL">     0</i>
  <i type="logical" name="LDAU"> F  </i>
  <i type="int" name="I_CONSTRAINED_M">     0</i>
  <separator name="electronic exchange-correlation" >
   <i type="string" name="GGA    ">PE</i>
   <i type="string" name="XC_C">1</i>
   <i type="int" name="VOSKOWN">     0</i>
   <i type="logical" name="LHFCALC"> F  </i>
   <i type="string" name="PRECFOCK"></i>
   <i type="logical" name="LSYMGRAD"> F  </i>
   <i type="logical" name="LHFONE"> F  </i>
   <i type="logical" name="LRHFCALC"> F  </i>
   <i type="logical" name="LTHOMAS"> F  </i>
   <i type="logical" name="LMODELHF"> F  </i>
   <i type="logical" name="LFOCKACE"> F  </i>
   <i name="ENCUT4O">     -1.00000000</i>
   <i type="int" name="EXXOEP">     0</i>
   <i type="int" name="FOURORBIT">     0</i>
   <i name="AEXX">      0.00000000</i>
   <i name="HFALPHA">      0.00000000</i>
   <i name="MCALPHA">      0.00000000</i>
   <i name="ALDAX">      1.00000000</i>
   <i name="AGGAX">      1.00000000</i>
   <i name="AMGGAX">      1.00000000</i>
   <i name="ALDAC">      1.00000000</i>
   <i name="AGGAC">      1.00000000</i>
   <i name="AMGGAC">      1.00000000</i>
   <i type="int" name="NKREDX">     1</i>
   <i type="int" name="NKREDY">     1</i>
   <i type="int" name="NKREDZ">     1</i>
   <i type="logical" name="SHIFTRED"> F  </i>
   <i type="logical" name="ODDONLY"> F  </i>
   <i type="logical" name="EVENONLY"> F  </i>
   <i type="int" name="LMAXFOCK">     0</i>
   <i type="int" name="NMAXFOCKAE">     0</i>
   <i type="logical" name="LFOCKAEDFT"> F  </i>
   <i name="HFSCREEN">      0.00000000</i>
   <i name="HFSCREENC">      0.00000000</i>
   <i type="int" name="NBANDSGWLOW">     0</i>
  </separator>
  <separator name="vdW DFT" >
   <i type="logical" name="LUSE_VDW"> F  </i>
   <i type="int" name="IVDW_NL">    -1</i>
   <i type="logical" name="LSPIN_VDW"> F  </i>
   <i name="ZAB_VDW">     -0.84910000</i>
   <i name="GAMMA_VDW">      1.39626340</i>
   <i name="ALPHA_VDW">      0.00000000</i>
   <i name="PARAM1">      0.12340000</i>
   <i name="PARAM2">      1.00000000</i>
   <i name="BPARAM">      6.30000000</i>
   <i name="CPARAM">      0.00930000</i>
  </separator>
  <separator name="model GW" >
   <i type="int" name="MODEL_GW">     0</i>
   <i name="MODEL_EPS0">     15.20235803</i>
   <i name="MODEL_ALPHA">      1.00000000</i>
  </separator>
  <separator name="linear response parameters" >
   <i type="logical" name="LEPSILON"> F  </i>
   <i type="logical" name="LRPA"> F  </i>
   <i type="logical" name="LNABLA"> F  </i>
   <i type="logical" name="LVEL"> F  </i>
   <i name="CSHIFT">      0.10000000</i>
   <i name="OMEGAMAX">     -1.00000000</i>
   <i name="DEG_THRESHOLD">      0.00200000</i>
   <i name="RTIME">     -0.10000000</i>
   <i name="WPLASMAI">      0.00000000</i>
   <v name="DFIELD">      0.00000000      0.00000000      0.00000000</v>
   <v name="WPLASMA">      0.00000000      0.00000000      0.00000000      0.00000000      0.00000000      0.00000000      0.00000000      0.00000000      0.00000000</v>
  </separator>
  <separator name="orbital magnetization" >
   <i type="logical" name="NUCIND"> F  </i>
   <v name="MAGPOS">      0.00000000      0.00000000      0.00000000</v>
   <i type="logical" name="LNICSALL"> T  </i>
   <i type="logical" name="ORBITALMAG"> F  </i>
   <i type="logical" name="LMAGBLOCH"> F  </i>
   <i type="logical" name="LCHIMAG"> F  </i>
   <i type="logical" name="LGAUGE"> T  </i>
   <i type="int" name="MAGATOM">     0</i>
   <v name="MAGDIPOL">      0.00000000      0.00000000      0.00000000</v>
   <v name="AVECCONST">      0.00000000      0.00000000      0.00000000</v>
  </separator>
  <separator name="response functions" >
   <i type="logical" name="LALL_IN_ONE"> F  </i>
   <i type="int" name="IALL_IN_ONE">    -1</i>
   <i type="int" name="NBANDS_WAVE">    -1</i>
   <i type="logical" name="LFINITE_TEMPERATURE"> F  </i>
   <i type="logical" name="LADDER"> F  </i>
   <i type="logical" name="LRPAFORCE"> F  </i>
   <i type="logical" name="LFXC"> F  </i>
   <i type="logical" name="LHARTREE"> T  </i>
   <i type="int" name="IBSE">     2</i>
   <v type="int" name="KPOINT">    -1     0     0     0</v>
   <i type="logical" name="LTCTC"> F  </i>
   <i type="logical" name="LTCTE"> F  </i>
   <i type="logical" name="LTETE"> F  </i>
   <i type="logical" name="LTRIPLET"> F  </i>
   <i type="logical" name="LFXCEPS"> F  </i>
   <i type="logical" name="LFXHEG"> F  </i>
   <i type="int" name="NATURALO">     2</i>
   <i type="logical" name="LHOLEGF"> F  </i>
   <i type="logical" name="L2ORDER"> F  </i>
   <i type="logical" name="LDMP1"> F  </i>
   <i type="logical" name="LMP2LT"> F  </i>
   <i type="logical" name="LSMP2LT"> F  </i>
   <i type="logical" name="LGWLF"> F  </i>
   <i name="ENCUTGW">     -1.60000002</i>
   <i name="ENCUTGWSOFT">     -1.60000002</i>
   <i name="ENCUTLF">     -1.00000000</i>
   <i type="logical" name="ESF_SPLINES"> F  </i>
   <i name="ESF_CONV">      0.01000000</i>
   <i type="int" name="ESF_NINTER">    15</i>
   <i type="int" name="LMAXMP2">    -1</i>
   <i name="SCISSOR">      0.00000000</i>
   <i type="int" name="NOMEGA">     0</i>
   <i type="int" name="NOMEGAR">     0</i>
   <i type="int" name="NBANDSGW">    -1</i>
   <i type="int" name="NBANDSO">    -1</i>
   <i type="int" name="NBANDSV">    -1</i>
   <i type="int" name="NELMGW">     1</i>
   <i type="int" name="NELMHF">     1</i>
   <i type="int" name="DIM">     3</i>
   <i type="int" name="IESPILON">     4</i>
   <i type="int" name="ANTIRES">     0</i>
   <i name="OMEGAMAX">    -30.00000000</i>
   <i name="OMEGAMIN">    -30.00000000</i>
   <i name="OMEGATL">   -200.00000000</i>
   <i type="int" name="OMEGAGRID">     0</i>
   <i name="CSHIFT">     -0.10000000</i>
   <i type="logical" name="LSELFENERGY"> F  </i>
   <i type="logical" name="LSPECTRAL"> F  </i>
   <i type="logical" name="LSPECTRALGW"> F  </i>
   <i type="logical" name="LSINGLES"> F  </i>
   <i type="logical" name="LFERMIGW"> F  </i>
   <i type="logical" name="ODDONLYGW"> F  </i>
   <i type="logical" name="EVENONLYGW"> F  </i>
   <i type="int" name="NKREDLFX">     1</i>
   <i type="int" name="NKREDLFY">     1</i>
   <i type="int" name="NKREDLFZ">     1</i>
   <i type="int" name="MAXMEM">  2800</i>
   <i type="int" name="TELESCOPE">     0</i>
   <i type="int" name="NTAUPAR">    -1</i>
   <i type="int" name="NOMEGAPAR">    -1</i>
   <i name="DAMP_NEWTON">      0.80000001</i>
   <i name="LAMBDA">      1.00000000</i>
  </separator>
  <separator name="External order field" >
   <i name="OFIELD_KAPPA">      0.00000000</i>
   <v name="OFIELD_K">      0.00000000      0.00000000      0.00000000</v>
   <i name="OFIELD_Q6_NEAR">      0.00000000</i>
   <i name="OFIELD_Q6_FAR">      0.00000000</i>
   <i name="OFIELD_A">      0.00000000</i>
  </separator>
  <separator name="optional k-points parameters" >
   <i type="int" name="KPOINTS_OPT_MODE">     1</i>
   <i type="logical" name="LKPOINTS_OPT"> F  </i>
  </separator>
 </parameters>
 <atominfo>
  <atoms>      39 </atoms>
  <types>       3 </types>
  <array name="atoms" >
   <dimension dim="1">ion</dimension>
   <field type="string">element</field>
   <field type="int">atomtype</field>
   <set>
    <rc><c>Pd</c><c>   1</c></rc>
    <rc><c>Pd</c><c>   1</c></rc>
    <rc><c>Pd</c><c>   1</c></rc>
    <rc><c>Pd</c><c>   1</c></rc>
    <rc><c>Pd</c><c>   1</c></rc>
    <rc><c>Pd</c><c>   1</c></rc>
    <rc><c>Pd</c><c>   1</c></rc>
    <rc><c>Pd</c><c>   1</c></rc>
    <rc><c>Pd</c><c>   1</c></rc>
    <rc><c>Pd</c><c>   1</c></rc>
    <rc><c>Pd</c><c>   1</c></rc>
    <rc><c>Pd</c><c>   1</c></rc>
    <rc><c>Pd</c><c>   1</c></rc>
    <rc><c>Pd</c><c>   1</c></rc>
    <rc><c>Pd</c><c>   1</c></rc>
    <rc><c>Pd</c><c>   1</c></rc>
    <rc><c>Pd</c><c>   1</c></rc>
    <rc><c>Pd</c><c>   1</c></rc>
    <rc><c>Pd</c><c>   1</c></rc>
    <rc><c>Pd</c><c>   1</c></rc>
    <rc><c>Pd</c><c>   1</c></rc>
    <rc><c>Pd</c><c>   1</c></rc>
    <rc><c>Pd</c><c>   1</c></rc>
    <rc><c>Pd</c><c>   1</c></rc>
    <rc><c>Pd</c><c>   1</c></rc>
    <rc><c>Pd</c><c>   1</c></rc>
    <rc><c>Pd</c><c>   1</c></rc>
    <rc><c>Pd</c><c>   1</c></rc>
    <rc><c>Pd</c><c>   1</c></rc>
    <rc><c>Pd</c><c>   1</c></rc>
    <rc><c>Pd</c><c>   1</c></rc>
    <rc><c>Pd</c><c>   1</c></rc>
    <rc><c>Pd</c><c>   1</c></rc>
    <rc><c>Pd</c><c>   1</c></rc>
    <rc><c>Pd</c><c>   1</c></rc>
    <rc><c>Pd</c><c>   1</c></rc>
    <rc><c>C </c><c>   2</c></rc>
    <rc><c>O </c><c>   3</c></rc>
    <rc><c>O </c><c>   3</c></rc>
   </set>
  </array>
  <array name="atomtypes" >
   <dimension dim="1">type</dimension>
   <field type="int">atomspertype</field>
   <field type="string">element</field>
   <field>mass</field>
   <field>valence</field>
   <field type="string">pseudopotential</field>
   <set>
    <rc><c>  36</c><c>Pd</c><c>    106.42000000</c><c>     10.00000000</c><c>  PAW_PBE Pd 04Jan2005                  </c></rc>
    <rc><c>   1</c><c>C </c><c>     12.01100000</c><c>      4.00000000</c><c>  PAW_PBE C 08Apr2002                   </c></rc>
    <rc><c>   2</c><c>O </c><c>     16.00000000</c><c>      6.00000000</c><c>  PAW_PBE O 08Apr2002                   </c></rc>
   </set>
  </array>
 </atominfo>
 <structure name="initialpos" >
  <crystal>
   <varray name="basis" >
    <v>       8.30990028       0.00000000       0.00000000 </v>
    <v>      -4.15495014       7.19658475       0.00000000 </v>
    <v>       0.00000000       0.00000000      16.52350044 </v>
   </varray>
   <i name="volume">    988.15327180 </i>
   <varray name="rec_basis" >
    <v>       0.12033839       0.06947740       0.00000000 </v>
    <v>       0.00000000       0.13895480       0.00000000 </v>
    <v>       0.00000000       0.00000000       0.06051986 </v>
   </varray>
  </crystal>
  <varray name="positions" >
   <v>       0.99888673       0.99930412       0.43815121 </v>
   <v>       0.11093000       0.22330000       0.16024000 </v>
   <v>       0.22179300       0.11229515       0.29925006 </v>
   <v>       0.33265289       0.99988498       0.43791549 </v>
   <v>       0.44426000       0.22330000       0.16024000 </v>
   <v>       0.55461723       0.11148825       0.29817508 </v>
   <v>       0.66568869       0.00000202       0.43673390 </v>
   <v>       0.77760000       0.22330000       0.16024000 </v>
   <v>       0.88854671       0.11178380       0.29869797 </v>
   <v>       0.99756697       0.33281188       0.43793492 </v>
   <v>       0.11093000       0.55664000       0.16024000 </v>
   <v>       0.22163550       0.44466174       0.29901070 </v>
   <v>       0.33190265       0.33249791       0.44105823 </v>
   <v>       0.44426000       0.55664000       0.16024000 </v>
   <v>       0.55370602       0.44447125       0.29879957 </v>
   <v>       0.66531879       0.33329911       0.43653091 </v>
   <v>       0.77760000       0.55664000       0.16024000 </v>
   <v>       0.88818852       0.44476714       0.29812010 </v>
   <v>       0.99860343       0.66632902       0.43632761 </v>
   <v>       0.11093000       0.88997000       0.16024000 </v>
   <v>       0.22182194       0.77845350       0.29839700 </v>
   <v>       0.33336296       0.66754222       0.43743157 </v>
   <v>       0.44426000       0.88997000       0.16024000 </v>
   <v>       0.55463053       0.77819730       0.29819923 </v>
   <v>       0.66593780       0.66668921       0.43656724 </v>
   <v>       0.77760000       0.88997000       0.16024000 </v>
   <v>       0.88830834       0.77867640       0.29806995 </v>
   <v>       0.99982000       0.00108000       0.02337000 </v>
   <v>       0.33315000       0.00108000       0.02337000 </v>
   <v>       0.66649000       0.00108000       0.02337000 </v>
   <v>       0.99982000       0.33441000       0.02337000 </v>
   <v>       0.33315000       0.33441000       0.02337000 </v>
   <v>       0.66649000       0.33441000       0.02337000 </v>
   <v>       0.99982000       0.66775000       0.02337000 </v>
   <v>       0.33315000       0.66775000       0.02337000 </v>
   <v>       0.66649000       0.66775000       0.02337000 </v>
   <v>       0.23595677       0.15207906       0.65827231 </v>
   <v>       0.24766068       0.29631013       0.64435320 </v>
   <v>       0.22233645       0.00981152       0.67852374 </v>
  </varray>
  <varray name="selective"  type="logical" >
   <v type="logical" >  T  T  T </v>
   <v type="logical" >  F  F  F </v>
   <v type="logical" >  T  T  T </v>
   <v type="logical" >  T  T  T </v>
   <v type="logical" >  F  F  F </v>
   <v type="logical" >  T  T  T </v>
   <v type="logical" >  T  T  T </v>
   <v type="logical" >  F  F  F </v>
   <v type="logical" >  T  T  T </v>
   <v type="logical" >  T  T  T </v>
   <v type="logical" >  F  F  F </v>
   <v type="logical" >  T  T  T </v>
   <v type="logical" >  T  T  T </v>
   <v type="logical" >  F  F  F </v>
   <v type="logical" >  T  T  T </v>
   <v type="logical" >  T  T  T </v>
   <v type="logical" >  F  F  F </v>
   <v type="logical" >  T  T  T </v>
   <v type="logical" >  T  T  T </v>
   <v type="logical" >  F  F  F </v>
   <v type="logical" >  T  T  T </v>
   <v type="logical" >  T  T  T </v>
   <v type="logical" >  F  F  F </v>
   <v type="logical" >  T  T  T </v>
   <v type="logical" >  T  T  T </v>
   <v type="logical" >  F  F  F </v>
   <v type="logical" >  T  T  T </v>
   <v type="logical" >  F  F  F </v>
   <v type="logical" >  F  F  F </v>
   <v type="logical" >  F  F  F </v>
   <v type="logical" >  F  F  F </v>
   <v type="logical" >  F  F  F </v>
   <v type="logical" >  F  F  F </v>
   <v type="logical" >  F  F  F </v>
   <v type="logical" >  F  F  F </v>
   <v type="logical" >  F  F  F </v>
   <v type="logical" >  T  T  T </v>
   <v type="logical" >  T  T  T </v>
   <v type="logical" >  T  T  T </v>
  </varray>
  <nose>
   <v>      -3.00000000       0.00000000       0.00010000       0.00010000 </v>
  </nose>
 </structure>
 <calculation>
  <scstep>
   <time name="dav">   14.52   14.62</time>
   <time name="total">   14.64   14.73</time>
   <energy>
    <i name="alphaZ">    918.22725072 </i>
    <i name="ewald">  20630.71927917 </i>
    <i name="hartreedc"> -53270.30875731 </i>
    <i name="XCdc">   -993.42600157 </i>
    <i name="pawpsdc">  29844.20032359 </i>
    <i name="pawaedc"> -27608.36462881 </i>
    <i name="eentropy">     -1.26022300 </i>
    <i name="bandstr">   2419.30705294 </i>
    <i name="atom">  30161.86332653 </i>
    <i name="e_fr_energy">   2100.95762227 </i>
    <i name="e_wo_entrp">   2102.21784527 </i>
    <i name="e_0_energy">   2101.58773377 </i>
   </energy>
  </scstep>
  <scstep>
   <time name="dav">   15.51   15.61</time>
   <time name="total">   15.55   15.65</time>
   <energy>
    <i name="e_fr_energy">    -94.96622978 </i>
    <i name="e_wo_entrp">    -91.45698560 </i>
    <i name="e_0_energy">    -93.21160769 </i>
   </energy>
  </scstep>
  <scstep>
   <time name="dav">   16.33   16.43</time>
   <time name="total">   16.37   16.46</time>
   <energy>
    <i name="e_fr_energy">   -210.79406082 </i>
    <i name="e_wo_entrp">   -205.57111424 </i>
    <i name="e_0_energy">   -208.18258753 </i>
   </energy>
  </scstep>
  <scstep>
   <time name="dav">   16.76   16.86</time>
   <time name="total">   16.79   16.89</time>
   <energy>
    <i name="e_fr_energy">   -214.18671606 </i>
    <i name="e_wo_entrp">   -208.92111374 </i>
    <i name="e_0_energy">   -211.55391490 </i>
   </energy>
  </scstep>
  <scstep>
   <time name="dav">   20.38   20.51</time>
   <time name="total">   20.77   20.90</time>
   <energy>
    <i name="e_fr_energy">   -214.34744969 </i>
    <i name="e_wo_entrp">   -209.08147154 </i>
    <i name="e_0_energy">   -211.71446061 </i>
   </energy>
  </scstep>
  <scstep>
   <time name="dav">   15.71   15.81</time>
   <time name="total">   16.17   16.27</time>
   <energy>
    <i name="e_fr_energy">   -204.82090159 </i>
    <i name="e_wo_entrp">   -199.62228331 </i>
    <i name="e_0_energy">   -202.22159245 </i>
   </energy>
  </scstep>
  <scstep>
   <time name="dav">   16.02   16.11</time>
   <time name="total">   16.48   16.58</time>
   <energy>
    <i name="e_fr_energy">   -208.48841338 </i>
    <i name="e_wo_entrp">   -203.75600383 </i>
    <i name="e_0_energy">   -206.12220861 </i>
   </energy>
  </scstep>
  <scstep>
   <time name="dav">   16.91   17.01</time>
   <time name="total">   17.36   17.47</time>
   <energy>
    <i name="e_fr_energy">   -206.14936993 </i>
    <i name="e_wo_entrp">   -201.30865679 </i>
    <i name="e_0_energy">   -203.72901336 </i>
   </energy>
  </scstep>
  <scstep>
   <time name="dav">   16.78   16.88</time>
   <time name="total">   17.23   17.34</time>
   <energy>
    <i name="e_fr_energy">   -208.04998964 </i>
    <i name="e_wo_entrp">   -203.38287271 </i>
    <i name="e_0_energy">   -205.71643117 </i>
   </energy>
  </scstep>
  <scstep>
   <time name="dav">   16.85   16.95</time>
   <time name="total">   17.31   17.41</time>
   <energy>
    <i name="e_fr_energy">   -204.99401546 </i>
    <i name="e_wo_entrp">   -199.96904302 </i>
    <i name="e_0_energy">   -202.48152924 </i>
   </energy>
  </scstep>
  <scstep>
   <time name="dav">   16.30   16.40</time>
   <time name="total">   16.77   16.87</time>
   <energy>
    <i name="e_fr_energy">   -203.99790147 </i>
    <i name="e_wo_entrp">   -198.79448921 </i>
    <i name="e_0_energy">   -201.39619534 </i>
   </energy>
  </scstep>
  <scstep>
   <time name="dav">   15.68   15.77</time>
   <time name="total">   16.14   16.23</time>
   <energy>
    <i name="e_fr_energy">   -203.99590725 </i>
    <i name="e_wo_entrp">   -198.77477323 </i>
    <i name="e_0_energy">   -201.38534024 </i>
   </energy>
  </scstep>
  <scstep>
   <time name="dav">   15.31   15.41</time>
   <time name="total">   15.77   15.87</time>
   <energy>
    <i name="e_fr_energy">   -203.98926249 </i>
    <i name="e_wo_entrp">   -198.76480033 </i>
    <i name="e_0_energy">   -201.37703141 </i>
   </energy>
  </scstep>
  <scstep>
   <time name="dav">   15.72   15.82</time>
   <time name="total">   16.18   16.28</time>
   <energy>
    <i name="e_fr_energy">   -203.98814852 </i>
    <i name="e_wo_entrp">   -198.75893544 </i>
    <i name="e_0_energy">   -201.37354198 </i>
   </energy>
  </scstep>
  <scstep>
   <time name="dav">   15.53   15.62</time>
   <time name="total">   15.98   16.08</time>
   <energy>
    <i name="e_fr_energy">   -203.98493850 </i>
    <i name="e_wo_entrp">   -198.75399040 </i>
    <i name="e_0_energy">   -201.36946445 </i>
   </energy>
  </scstep>
  <scstep>
   <time name="dav">   15.58   15.67</time>
   <time name="total">   16.03   16.13</time>
   <energy>
    <i name="e_fr_energy">   -203.98139897 </i>
    <i name="e_wo_entrp">   -198.74717853 </i>
    <i name="e_0_energy">   -201.36428875 </i>
   </energy>
  </scstep>
  <scstep>
   <time name="dav">   15.54   15.64</time>
   <time name="total">   16.00   16.10</time>
   <energy>
    <i name="e_fr_energy">   -203.98081552 </i>
    <i name="e_wo_entrp">   -198.74623121 </i>
    <i name="e_0_energy">   -201.36352337 </i>
   </energy>
  </scstep>
  <scstep>
   <time name="dav">   15.45   15.54</time>
   <time name="total">   15.90   16.00</time>
   <energy>
    <i name="e_fr_energy">   -203.98063439 </i>
    <i name="e_wo_entrp">   -198.74523824 </i>
    <i name="e_0_energy">   -201.36293631 </i>
   </energy>
  </scstep>
  <scstep>
   <time name="dav">   15.47   15.57</time>
   <time name="total">   15.93   16.03</time>
   <energy>
    <i name="e_fr_energy">   -203.98054914 </i>
    <i name="e_wo_entrp">   -198.74541754 </i>
    <i name="e_0_energy">   -201.36298334 </i>
   </energy>
  </scstep>
  <scstep>
   <time name="dav">   15.58   15.68</time>
   <time name="total">   16.04   16.14</time>
   <energy>
    <i name="e_fr_energy">   -203.98059582 </i>
    <i name="e_wo_entrp">   -198.74617046 </i>
    <i name="e_0_energy">   -201.36338314 </i>
   </energy>
  </scstep>
  <scstep>
   <time name="dav">   15.57   15.66</time>
   <time name="total">   16.03   16.13</time>
   <energy>
    <i name="e_fr_energy">   -203.98072831 </i>
    <i name="e_wo_entrp">   -198.74619572 </i>
    <i name="e_0_energy">   -201.36346201 </i>
   </energy>
  </scstep>
  <scstep>
   <time name="dav">   15.12   15.21</time>
   <time name="total">   15.58   15.68</time>
   <energy>
    <i name="e_fr_energy">   -203.98086279 </i>
    <i name="e_wo_entrp">   -198.74612410 </i>
    <i name="e_0_energy">   -201.36349344 </i>
   </energy>
  </scstep>
  <scstep>
   <time name="dav">   13.88   13.97</time>
   <time name="total">   14.35   14.44</time>
   <energy>
    <i name="e_fr_energy">   -203.98097951 </i>
    <i name="e_wo_entrp">   -198.74582299 </i>
    <i name="e_0_energy">   -201.36340125 </i>
   </energy>
  </scstep>
  <scstep>
   <time name="dav">   11.35   11.42</time>
   <time name="total">   11.81   11.89</time>
   <energy>
    <i name="e_fr_energy">   -203.98100985 </i>
    <i name="e_wo_entrp">   -198.74577563 </i>
    <i name="e_0_energy">   -201.36339274 </i>
   </energy>
  </scstep>
  <scstep>
   <time name="dav">   10.84   10.90</time>
   <time name="total">   11.29   11.36</time>
   <energy>
    <i name="e_fr_energy">   -203.98105375 </i>
    <i name="e_wo_entrp">   -198.74580653 </i>
    <i name="e_0_energy">   -201.36343014 </i>
   </energy>
  </scstep>
  <scstep>
   <time name="dav">   10.76   10.82</time>
   <time name="total">   11.22   11.29</time>
   <energy>
    <i name="e_fr_energy">   -203.98107792 </i>
    <i name="e_wo_entrp">   -198.74584683 </i>
    <i name="e_0_energy">   -201.36346238 </i>
   </energy>
  </scstep>
  <scstep>
   <time name="dav">   10.77   10.83</time>
   <time name="total">   11.24   11.31</time>
   <energy>
    <i name="e_fr_energy">   -203.98109721 </i>
    <i name="e_wo_entrp">   -198.74588979 </i>
    <i name="e_0_energy">   -201.36349350 </i>
   </energy>
  </scstep>
  <scstep>
   <time name="dav">   10.52   10.58</time>
   <time name="total">   10.62   10.69</time>
   <energy>
    <i name="alphaZ">    918.22725072 </i>
    <i name="ewald">  20630.71927917 </i>
    <i name="hartreedc"> -53212.02237075 </i>
    <i name="XCdc">   -999.29384102 </i>
    <i name="pawpsdc">  35508.87923248 </i>
    <i name="pawaedc"> -33354.27284044 </i>
    <i name="eentropy">     -5.23520634 </i>
    <i name="bandstr">    147.15406920 </i>
    <i name="atom">  30161.86332653 </i>
    <i name="e_fr_energy">   -203.98110044 </i>
    <i name="e_wo_entrp">   -198.74589411 </i>
    <i name="e_0_energy">   -201.36349727 </i>
   </energy>
  </scstep>
  <structure>
   <crystal>
    <varray name="basis" >
     <v>       8.30990028       0.00000000       0.00000000 </v>
     <v>      -4.15495014       7.19658475       0.00000000 </v>
     <v>       0.00000000       0.00000000      16.52350044 </v>
    </varray>
    <i name="volume">    988.15327180 </i>
    <varray name="rec_basis" >
     <v>       0.12033839       0.06947740       0.00000000 </v>
     <v>       0.00000000       0.13895480       0.00000000 </v>
     <v>       0.00000000       0.00000000       0.06051986 </v>
    </varray>
   </crystal>
   <varray name="positions" >
    <v>       0.99888673       0.99930412       0.43815121 </v>
    <v>       0.11093000       0.22330000       0.16024000 </v>
    <v>       0.22179300       0.11229515       0.29925006 </v>
    <v>       0.33265289       0.99988498       0.43791549 </v>
    <v>       0.44426000       0.22330000       0.16024000 </v>
    <v>       0.55461723       0.11148825       0.29817508 </v>
    <v>       0.66568869       0.00000202       0.43673390 </v>
    <v>       0.77760000       0.22330000       0.16024000 </v>
    <v>       0.88854671       0.11178380       0.29869797 </v>
    <v>       0.99756697       0.33281188       0.43793492 </v>
    <v>       0.11093000       0.55664000       0.16024000 </v>
    <v>       0.22163550       0.44466174       0.29901070 </v>
    <v>       0.33190265       0.33249791       0.44105823 </v>
    <v>       0.44426000       0.55664000       0.16024000 </v>
    <v>       0.55370602       0.44447125       0.29879957 </v>
    <v>       0.66531879       0.33329911       0.43653091 </v>
    <v>       0.77760000       0.55664000       0.16024000 </v>
    <v>       0.88818852       0.44476714       0.29812010 </v>
    <v>       0.99860343       0.66632902       0.43632761 </v>
    <v>       0.11093000       0.88997000       0.16024000 </v>
    <v>       0.22182194       0.77845350       0.29839700 </v>
    <v>       0.33336296       0.66754222       0.43743157 </v>
    <v>       0.44426000       0.88997000       0.16024000 </v>
    <v>       0.55463053       0.77819730       0.29819923 </v>
    <v>       0.66593780       0.66668921       0.43656724 </v>
    <v>       0.77760000       0.88997000       0.16024000 </v>
    <v>       0.88830834       0.77867640       0.29806995 </v>
    <v>       0.99982000       0.00108000       0.02337000 </v>
    <v>       0.33315000       0.00108000       0.02337000 </v>
    <v>       0.66649000       0.00108000       0.02337000 </v>
    <v>       0.99982000       0.33441000       0.02337000 </v>
    <v>       0.33315000       0.33441000       0.02337000 </v>
    <v>       0.66649000       0.33441000       0.02337000 </v>
    <v>       0.99982000       0.66775000       0.02337000 </v>
    <v>       0.33315000       0.66775000       0.02337000 </v>
    <v>       0.66649000       0.66775000       0.02337000 </v>
    <v>       0.23595677       0.15207906       0.65827231 </v>
    <v>       0.24766068       0.29631013       0.64435320 </v>
    <v>       0.22233645       0.00981152       0.67852374 </v>
   </varray>
  </structure>
  <varray name="forces" >
   <v>      -0.00529135       0.03110108      -0.07771230 </v>
   <v>       0.00669458      -0.00455916       0.19833607 </v>
   <v>       0.00209818      -0.00202050       0.02277847 </v>
   <v>      -0.01647944      -0.00288195      -0.04887673 </v>
   <v>      -0.01630574      -0.00167981       0.17441513 </v>
   <v>       0.00167928       0.00222812       0.01014495 </v>
   <v>       0.00263279      -0.00116882       0.01496238 </v>
   <v>       0.00291380      -0.00880170       0.15569248 </v>
   <v>       0.00325432      -0.00256026      -0.01034471 </v>
   <v>       0.07275370       0.02783729      -0.05820569 </v>
   <v>       0.01273175      -0.00579484       0.16456986 </v>
   <v>       0.00365478       0.00027446       0.04256818 </v>
   <v>      -0.03005096       0.03936926      -0.23053700 </v>
   <v>      -0.00733667      -0.01842570       0.17692002 </v>
   <v>       0.00891908       0.00384633       0.00158147 </v>
   <v>      -0.00228806      -0.00836287       0.02955497 </v>
   <v>      -0.01415873      -0.01597820       0.15780231 </v>
   <v>       0.00002023       0.00366156       0.00500006 </v>
   <v>       0.02690943       0.01561375       0.03041520 </v>
   <v>       0.00322626       0.01689940       0.17904810 </v>
   <v>      -0.00451709      -0.00000791      -0.00145841 </v>
   <v>      -0.02862667      -0.05404712      -0.02808504 </v>
   <v>      -0.00640596      -0.00447502       0.14840132 </v>
   <v>       0.00597259       0.00031557      -0.00737503 </v>
   <v>      -0.02142720      -0.00735153       0.02362398 </v>
   <v>      -0.00456309       0.00767835       0.16329205 </v>
   <v>       0.00243405      -0.00407167       0.01393065 </v>
   <v>       0.00260595      -0.00730865      -0.13393132 </v>
   <v>      -0.00349933       0.00041728      -0.14250003 </v>
   <v>       0.00235738       0.00065124      -0.14047898 </v>
   <v>      -0.00167645       0.00095214      -0.13795268 </v>
   <v>       0.00008542       0.00039663      -0.13942865 </v>
   <v>      -0.00028547       0.00221769      -0.14169695 </v>
   <v>      -0.00112093       0.00099642      -0.14606446 </v>
   <v>      -0.00259445      -0.00093334      -0.14380555 </v>
   <v>       0.00127125      -0.00096257      -0.14311576 </v>
   <v>      -0.00382611      -0.22385277       0.70891171 </v>
   <v>      -0.01276620       0.14883208      -0.34451717 </v>
   <v>       0.02100507       0.07195575      -0.34586290 </v>
  </varray>
  <varray name="stress" >
   <v>     -22.49791701      -0.41551831       0.21111974 </v>
   <v>      -0.41551796     -21.70974216       0.00876470 </v>
   <v>       0.21111981       0.00876479      -7.89167807 </v>
  </varray>
  <energy>
   <i name="e_fr_energy">   -203.98110044 </i>
   <i name="e_wo_entrp">   -198.74589411 </i>
   <i name="e_0_energy">   -201.36349727 </i>
  </energy>
  <time name="totalsc">  599.60  602.73</time>
 </calculation>
 <calculation>
  <scstep>
   <time name="dav">   14.27   14.38</time>
   <time name="total">   14.72   14.83</time>
   <energy>
    <i name="alphaZ">    918.22725072 </i>
    <i name="ewald">  20632.72401876 </i>
    <i name="hartreedc"> -53214.03167571 </i>
    <i name="XCdc">   -999.29256778 </i>
    <i name="pawpsdc">  35508.89510995 </i>
    <i name="pawaedc"> -33354.28743870 </i>
    <i name="eentropy">     -5.23526862 </i>
    <i name="bandstr">    147.15415657 </i>
    <i name="atom">  30161.86332653 </i>
    <i name="e_fr_energy">   -203.98308827 </i>
    <i name="e_wo_entrp">   -198.74781965 </i>
    <i name="e_0_energy">   -201.36545396 </i>
   </energy>
  </scstep>
  <scstep>
   <time name="dav">   14.86   14.97</time>
   <time name="total">   15.32   15.44</time>
   <energy>
    <i name="e_fr_energy">   -203.98313325 </i>
    <i name="e_wo_entrp">   -198.74788420 </i>
    <i name="e_0_energy">   -201.36550873 </i>
   </energy>
  </scstep>
  <scstep>
   <time name="dav">   10.85   10.93</time>
   <time name="total">   11.30   11.39</time>
   <energy>
    <i name="e_fr_energy">   -203.98313934 </i>
    <i name="e_wo_entrp">   -198.74787254 </i>
    <i name="e_0_energy">   -201.36550594 </i>
   </energy>
  </scstep>
  <scstep>
   <time name="dav">   10.80   10.87</time>
   <time name="total">   11.26   11.33</time>
   <energy>
    <i name="e_fr_energy">   -203.98312900 </i>
    <i name="e_wo_entrp">   -198.74787302 </i>
    <i name="e_0_energy">   -201.36550101 </i>
   </energy>
  </scstep>
  <scstep>
   <time name="dav">   10.68   10.75</time>
   <time name="total">   10.78   10.85</time>
   <energy>
    <i name="alphaZ">    918.22725072 </i>
    <i name="ewald">  20632.72401876 </i>
    <i name="hartreedc"> -53214.07691278 </i>
    <i name="XCdc">   -999.29287712 </i>
    <i name="pawpsdc">  35508.87223784 </i>
    <i name="pawaedc"> -33354.26548372 </i>
    <i name="eentropy">     -5.23524872 </i>
    <i name="bandstr">    147.20056228 </i>
    <i name="atom">  30161.86332653 </i>
    <i name="e_fr_energy">   -203.98312621 </i>
    <i name="e_wo_entrp">   -198.74787749 </i>
    <i name="e_0_energy">   -201.36550185 </i>
   </energy>
  </scstep>
  <structure>
   <crystal>
    <varray name="basis" >
     <v>       8.30990028       0.00000000       0.00000000 </v>
     <v>      -4.15495014       7.19658475       0.00000000 </v>
     <v>       0.00000000       0.00000000      16.52350044 </v>
    </varray>
    <i name="volume">    988.15327180 </i>
    <varray name="rec_basis" >
     <v>       0.12033839       0.06947740       0.00000000 </v>
     <v>       0.00000000       0.13895480       0.00000000 </v>
     <v>       0.00000000       0.00000000       0.06051986 </v>
    </varray>
   </crystal>
   <varray name="positions" >
    <v>       0.99889022       0.99931429       0.43814009 </v>
    <v>       0.11093000       0.22330000       0.16024000 </v>
    <v>       0.22179339       0.11229478       0.29925426 </v>
    <v>       0.33264695       0.99988374       0.43790888 </v>
    <v>       0.44426000       0.22330000       0.16024000 </v>
    <v>       0.55461769       0.11148866       0.29817668 </v>
    <v>       0.66568893       0.00000117       0.43673604 </v>
    <v>       0.77760000       0.22330000       0.16024000 </v>
    <v>       0.88854722       0.11178276       0.29869662 </v>
    <v>       0.99759336       0.33282124       0.43792670 </v>
    <v>       0.11093000       0.55664000       0.16024000 </v>
    <v>       0.22163652       0.44466135       0.29901773 </v>
    <v>       0.33189938       0.33251159       0.44102658 </v>
    <v>       0.44426000       0.55664000       0.16024000 </v>
    <v>       0.55370833       0.44447196       0.29880033 </v>
    <v>       0.66531617       0.33329568       0.43653525 </v>
    <v>       0.77760000       0.55664000       0.16024000 </v>
    <v>       0.88818903       0.44476801       0.29812091 </v>
    <v>       0.99861392       0.66633396       0.43633203 </v>
    <v>       0.11093000       0.88997000       0.16024000 </v>
    <v>       0.22182058       0.77845344       0.29839695 </v>
    <v>       0.33334462       0.66752297       0.43742748 </v>
    <v>       0.44426000       0.88997000       0.16024000 </v>
    <v>       0.55463210       0.77819712       0.29819806 </v>
    <v>       0.66592980       0.66668631       0.43657072 </v>
    <v>       0.77760000       0.88997000       0.16024000 </v>
    <v>       0.88830824       0.77867497       0.29807208 </v>
    <v>       0.99982000       0.00108000       0.02337000 </v>
    <v>       0.33315000       0.00108000       0.02337000 </v>
    <v>       0.66649000       0.00108000       0.02337000 </v>
    <v>       0.99982000       0.33441000       0.02337000 </v>
    <v>       0.33315000       0.33441000       0.02337000 </v>
    <v>       0.66649000       0.33441000       0.02337000 </v>
    <v>       0.99982000       0.66775000       0.02337000 </v>
    <v>       0.33315000       0.66775000       0.02337000 </v>
    <v>       0.66649000       0.66775000       0.02337000 </v>
    <v>       0.23590956       0.15201151       0.65834769 </v>
    <v>       0.24767354       0.29636907       0.64426491 </v>
    <v>       0.22235058       0.00985434       0.67844859 </v>
   </varray>
  </structure>
  <varray name="forces" >
   <v>      -0.00601225       0.02923373      -0.07543693 </v>
   <v>       0.00689381      -0.00431887       0.19839824 </v>
   <v>       0.00229197      -0.00228754       0.02069570 </v>
   <v>      -0.01549953      -0.00297471      -0.04812419 </v>
   <v>      -0.01633199      -0.00154063       0.17445368 </v>
   <v>       0.00188539       0.00231360       0.01008514 </v>
   <v>       0.00232047      -0.00125669       0.01389912 </v>
   <v>       0.00276832      -0.00867534       0.15566239 </v>
   <v>       0.00273740      -0.00257873      -0.01054266 </v>
   <v>       0.07016940       0.02719209      -0.05685961 </v>
   <v>       0.01287050      -0.00575071       0.16475820 </v>
   <v>       0.00341479       0.00078721       0.03979877 </v>
   <v>      -0.02868564       0.03883227      -0.22607582 </v>
   <v>      -0.00735407      -0.01845336       0.17701147 </v>
   <v>       0.00942534       0.00421073       0.00085033 </v>
   <v>      -0.00172923      -0.00790928       0.02826374 </v>
   <v>      -0.01425158      -0.01591048       0.15782942 </v>
   <v>      -0.00025324       0.00376037       0.00510715 </v>
   <v>       0.02579557       0.01514819       0.02949472 </v>
   <v>       0.00320542       0.01689609       0.17914939 </v>
   <v>      -0.00436563      -0.00011413      -0.00166186 </v>
   <v>      -0.02767432      -0.05161701      -0.02702176 </v>
   <v>      -0.00640891      -0.00451703       0.14850147 </v>
   <v>       0.00588170       0.00037288      -0.00695001 </v>
   <v>      -0.02068346      -0.00683023       0.02232663 </v>
   <v>      -0.00451655       0.00746609       0.16322663 </v>
   <v>       0.00233463      -0.00439763       0.01370909 </v>
   <v>       0.00261233      -0.00738055      -0.13446367 </v>
   <v>      -0.00343492       0.00047753      -0.14261059 </v>
   <v>       0.00229220       0.00056482      -0.14088583 </v>
   <v>      -0.00167478       0.00111526      -0.13870375 </v>
   <v>       0.00020712       0.00062018      -0.13938400 </v>
   <v>      -0.00041047       0.00237517      -0.14180246 </v>
   <v>      -0.00120028       0.00098123      -0.14636376 </v>
   <v>      -0.00247127      -0.00092789      -0.14361859 </v>
   <v>       0.00122932      -0.00104538      -0.14284937 </v>
   <v>      -0.09326861      -0.02498289       0.62667411 </v>
   <v>       0.03461919       0.04543411      -0.30687499 </v>
   <v>       0.06327185      -0.02431245      -0.29966558 </v>
  </varray>
  <varray name="stress" >
   <v>     -22.48810460      -0.40553895       0.21569238 </v>
   <v>      -0.40553883     -21.70854039      -0.00392401 </v>
   <v>       0.21569240      -0.00392394      -7.83896905 </v>
  </varray>
  <energy>
   <i name="e_fr_energy">   -203.98312621 </i>
   <i name="e_wo_entrp">   -198.74787749 </i>
   <i name="e_0_energy">   -201.36550185 </i>
  </energy>
  <time name="totalsc">  178.79  179.60</time>
 </calculation>
 <calculation>
  <scstep>
   <time name="dav">   14.04   14.13</time>
   <time name="total">   14.49   14.59</time>
   <energy>
    <i name="alphaZ">    918.22725072 </i>
    <i name="ewald">  20636.82642844 </i>
    <i name="hartreedc"> -53218.20682084 </i>
    <i name="XCdc">   -999.29034951 </i>
    <i name="pawpsdc">  35508.91019203 </i>
    <i name="pawaedc"> -33354.30371423 </i>
    <i name="eentropy">     -5.23534919 </i>
    <i name="bandstr">    147.22279977 </i>
    <i name="atom">  30161.86332653 </i>
    <i name="e_fr_energy">   -203.98623629 </i>
    <i name="e_wo_entrp">   -198.75088709 </i>
    <i name="e_0_energy">   -201.36856169 </i>
   </energy>
  </scstep>
  <scstep>
   <time name="dav">   14.69   14.79</time>
   <time name="total">   15.14   15.24</time>
   <energy>
    <i name="e_fr_energy">   -203.98635667 </i>
    <i name="e_wo_entrp">   -198.75097645 </i>
    <i name="e_0_energy">   -201.36866656 </i>
   </energy>
  </scstep>
  <scstep>
   <time name="dav">   13.97   14.06</time>
   <time name="total">   14.43   14.52</time>
   <energy>
    <i name="e_fr_energy">   -203.98635609 </i>
    <i name="e_wo_entrp">   -198.75107134 </i>
    <i name="e_0_energy">   -201.36871372 </i>
   </energy>
  </scstep>
  <scstep>
   <time name="dav">   10.83   10.90</time>
   <time name="total">   10.94   11.00</time>
   <energy>
    <i name="alphaZ">    918.22725072 </i>
    <i name="ewald">  20636.82642844 </i>
    <i name="hartreedc"> -53218.28340660 </i>
    <i name="XCdc">   -999.29098698 </i>
    <i name="pawpsdc">  35509.07021487 </i>
    <i name="pawaedc"> -33354.46636458 </i>
    <i name="eentropy">     -5.23530334 </i>
    <i name="bandstr">    147.30248742 </i>
    <i name="atom">  30161.86332653 </i>
    <i name="e_fr_energy">   -203.98635353 </i>
    <i name="e_wo_entrp">   -198.75105019 </i>
    <i name="e_0_energy">   -201.36870186 </i>
   </energy>
  </scstep>
  <structure>
   <crystal>
    <varray name="basis" >
     <v>       8.30990028       0.00000000       0.00000000 </v>
     <v>      -4.15495014       7.19658475       0.00000000 </v>
     <v>       0.00000000       0.00000000      16.52350044 </v>
    </varray>
    <i name="volume">    988.15327180 </i>
    <varray name="rec_basis" >
     <v>       0.12033839       0.06947740       0.00000000 </v>
     <v>       0.00000000       0.13895480       0.00000000 </v>
     <v>       0.00000000       0.00000000       0.06051986 </v>
    </varray>
   </crystal>
   <varray name="positions" >
    <v>       0.99889642       0.99933432       0.43811740 </v>
    <v>       0.11093000       0.22330000       0.16024000 </v>
    <v>       0.22179422       0.11229379       0.29926237 </v>
    <v>       0.33263511       0.99988108       0.43789520 </v>
    <v>       0.44426000       0.22330000       0.16024000 </v>
    <v>       0.55461884       0.11148962       0.29818002 </v>
    <v>       0.66568922      -0.00000065       0.43674019 </v>
    <v>       0.77760000       0.22330000       0.16024000 </v>
    <v>       0.88854796       0.11178058       0.29869371 </v>
    <v>       0.99764690       0.33284043       0.43790981 </v>
    <v>       0.11093000       0.55664000       0.16024000 </v>
    <v>       0.22163869       0.44466094       0.29903159 </v>
    <v>       0.33189326       0.33253993       0.44096126 </v>
    <v>       0.44426000       0.55664000       0.16024000 </v>
    <v>       0.55371369       0.44447375       0.29880169 </v>
    <v>       0.66531123       0.33328884       0.43654398 </v>
    <v>       0.77760000       0.55664000       0.16024000 </v>
    <v>       0.88818995       0.44476994       0.29812265 </v>
    <v>       0.99863509       0.66634402       0.43634102 </v>
    <v>       0.11093000       0.88997000       0.16024000 </v>
    <v>       0.22181777       0.77845325       0.29839679 </v>
    <v>       0.33330761       0.66748435       0.43741921 </v>
    <v>       0.44426000       0.88997000       0.16024000 </v>
    <v>       0.55463538       0.77819681       0.29819577 </v>
    <v>       0.66591370       0.66668063       0.43657764 </v>
    <v>       0.77760000       0.88997000       0.16024000 </v>
    <v>       0.88830785       0.77867172       0.29807647 </v>
    <v>       0.99982000       0.00108000       0.02337000 </v>
    <v>       0.33315000       0.00108000       0.02337000 </v>
    <v>       0.66649000       0.00108000       0.02337000 </v>
    <v>       0.99982000       0.33441000       0.02337000 </v>
    <v>       0.33315000       0.33441000       0.02337000 </v>
    <v>       0.66649000       0.33441000       0.02337000 </v>
    <v>       0.99982000       0.66775000       0.02337000 </v>
    <v>       0.33315000       0.66775000       0.02337000 </v>
    <v>       0.66649000       0.66775000       0.02337000 </v>
    <v>       0.23582686       0.15201397       0.65848195 </v>
    <v>       0.24769334       0.29641720       0.64409353 </v>
    <v>       0.22237211       0.00987290       0.67830671 </v>
   </varray>
  </structure>
  <varray name="forces" >
   <v>      -0.00612547       0.02795588      -0.07334746 </v>
   <v>       0.00708652      -0.00423798       0.19815623 </v>
   <v>       0.00200348      -0.00359418       0.01433395 </v>
   <v>      -0.01458056      -0.00266942      -0.04622279 </v>
   <v>      -0.01636631      -0.00179908       0.17384993 </v>
   <v>       0.00225799       0.00243209       0.00862924 </v>
   <v>       0.00229245      -0.00091259       0.01527452 </v>
   <v>       0.00295980      -0.00872742       0.15490194 </v>
   <v>       0.00239584      -0.00237183      -0.01212502 </v>
   <v>       0.06541725       0.02563061      -0.05431980 </v>
   <v>       0.01320749      -0.00599905       0.16436671 </v>
   <v>       0.00292639       0.00090781       0.03410893 </v>
   <v>      -0.02658182       0.03657784      -0.22000150 </v>
   <v>      -0.00758205      -0.01871194       0.17626499 </v>
   <v>       0.00921383       0.00391329      -0.00094394 </v>
   <v>      -0.00071302      -0.00723129       0.02919841 </v>
   <v>      -0.01398535      -0.01587941       0.15720910 </v>
   <v>      -0.00016893       0.00347700       0.00417362 </v>
   <v>       0.02368628       0.01411060       0.03063079 </v>
   <v>       0.00319692       0.01717207       0.17860569 </v>
   <v>      -0.00418396      -0.00013605      -0.00335851 </v>
   <v>      -0.02669481      -0.04833077      -0.02423156 </v>
   <v>      -0.00642152      -0.00434242       0.14736547 </v>
   <v>       0.00575555       0.00066077      -0.00736584 </v>
   <v>      -0.01932161      -0.00607865       0.02452907 </v>
   <v>      -0.00420561       0.00767502       0.16214202 </v>
   <v>       0.00232600      -0.00421456       0.01129487 </v>
   <v>       0.00269516      -0.00725626      -0.13293003 </v>
   <v>      -0.00335368       0.00046321      -0.14179137 </v>
   <v>       0.00241430       0.00071914      -0.13967195 </v>
   <v>      -0.00156560       0.00094810      -0.13693148 </v>
   <v>       0.00014076       0.00037937      -0.13876608 </v>
   <v>      -0.00014603       0.00213645      -0.14084253 </v>
   <v>      -0.00099059       0.00107832      -0.14567298 </v>
   <v>      -0.00251252      -0.00085828      -0.14330912 </v>
   <v>       0.00134889      -0.00084347      -0.14279108 </v>
   <v>      -0.15396587       0.12482635       0.53034109 </v>
   <v>       0.06758883      -0.03358370      -0.26160904 </v>
   <v>       0.09055156      -0.09328557      -0.24914449 </v>
  </varray>
  <varray name="stress" >
   <v>     -22.49381377      -0.39702166       0.21696773 </v>
   <v>      -0.39702168     -21.72735297      -0.01485791 </v>
   <v>       0.21696749      -0.01485784      -7.82146160 </v>
  </varray>
  <energy>
   <i name="e_fr_energy">   -203.98635353 </i>
   <i name="e_wo_entrp">   -198.75105019 </i>
   <i name="e_0_energy">   -201.36870186 </i>
  </energy>
  <time name="totalsc">  182.55  183.32</time>
 </calculation>
 <calculation>
  <scstep>
   <time name="dav">   13.96   14.05</time>
   <time name="total">   14.41   14.50</time>
   <energy>
    <i name="alphaZ">    918.22725072 </i>
    <i name="ewald">  20642.78951686 </i>
    <i name="hartreedc"> -53224.20681115 </i>
    <i name="XCdc">   -999.28729993 </i>
    <i name="pawpsdc">  35509.11124909 </i>
    <i name="pawaedc"> -33354.50780215 </i>
    <i name="eentropy">     -5.23553544 </i>
    <i name="bandstr">    147.25593019 </i>
    <i name="atom">  30161.86332653 </i>
    <i name="e_fr_energy">   -203.99017529 </i>
    <i name="e_wo_entrp">   -198.75463985 </i>
    <i name="e_0_energy">   -201.37240757 </i>
   </energy>
  </scstep>
  <scstep>
   <time name="dav">   14.66   14.75</time>
   <time name="total">   15.12   15.21</time>
   <energy>
    <i name="e_fr_energy">   -203.99044488 </i>
    <i name="e_wo_entrp">   -198.75528922 </i>
    <i name="e_0_energy">   -201.37286705 </i>
   </energy>
  </scstep>
  <scstep>
   <time name="dav">   15.00   15.09</time>
   <time name="total">   15.45   15.55</time>
   <energy>
    <i name="e_fr_energy">   -203.99038192 </i>
    <i name="e_wo_entrp">   -198.75491844 </i>
    <i name="e_0_energy">   -201.37265018 </i>
   </energy>
  </scstep>
  <scstep>
   <time name="dav">   13.30   13.39</time>
   <time name="total">   13.76   13.85</time>
   <energy>
    <i name="e_fr_energy">   -203.99036706 </i>
    <i name="e_wo_entrp">   -198.75481531 </i>
    <i name="e_0_energy">   -201.37259118 </i>
   </energy>
  </scstep>
  <scstep>
   <time name="dav">   11.16   11.23</time>
   <time name="total">   11.62   11.69</time>
   <energy>
    <i name="e_fr_energy">   -203.99033762 </i>
    <i name="e_wo_entrp">   -198.75495602 </i>
    <i name="e_0_energy">   -201.37264682 </i>
   </energy>
  </scstep>
  <scstep>
   <time name="dav">   11.90   11.97</time>
   <time name="total">   12.00   12.07</time>
   <energy>
    <i name="alphaZ">    918.22725072 </i>
    <i name="ewald">  20642.78951686 </i>
    <i name="hartreedc"> -53224.37347596 </i>
    <i name="XCdc">   -999.28809596 </i>
    <i name="pawpsdc">  35509.70412052 </i>
    <i name="pawaedc"> -33355.10728957 </i>
    <i name="eentropy">     -5.23542535 </i>
    <i name="bandstr">    147.42972685 </i>
    <i name="atom">  30161.86332653 </i>
    <i name="e_fr_energy">   -203.99034536 </i>
    <i name="e_wo_entrp">   -198.75492001 </i>
    <i name="e_0_energy">   -201.37263269 </i>
   </energy>
  </scstep>
  <structure>
   <crystal>
    <varray name="basis" >
     <v>       8.30990028       0.00000000       0.00000000 </v>
     <v>      -4.15495014       7.19658475       0.00000000 </v>
     <v>       0.00000000       0.00000000      16.52350044 </v>
    </varray>
    <i name="volume">    988.15327180 </i>
    <varray name="rec_basis" >
     <v>       0.12033839       0.06947740       0.00000000 </v>
     <v>       0.00000000       0.13895480       0.00000000 </v>
     <v>       0.00000000       0.00000000       0.06051986 </v>
    </varray>
   </crystal>
   <varray name="positions" >
    <v>       0.99890513       0.99936381       0.43808328 </v>
    <v>       0.11093000       0.22330000       0.16024000 </v>
    <v>       0.22179447       0.11229071       0.29927164 </v>
    <v>       0.33261805       0.99987734       0.43787487 </v>
    <v>       0.44426000       0.22330000       0.16024000 </v>
    <v>       0.55462113       0.11149130       0.29818444 </v>
    <v>       0.66568990      -0.00000299       0.43674730 </v>
    <v>       0.77760000       0.22330000       0.16024000 </v>
    <v>       0.88854888       0.11177747       0.29868840 </v>
    <v>       0.99772386       0.33286827       0.43788489 </v>
    <v>       0.11093000       0.55664000       0.16024000 </v>
    <v>       0.22164166       0.44466053       0.29905004 </v>
    <v>       0.33188492       0.33258109       0.44086282 </v>
    <v>       0.44426000       0.55664000       0.16024000 </v>
    <v>       0.55372176       0.44447629       0.29880281 </v>
    <v>       0.66530505       0.33327914       0.43655792 </v>
    <v>       0.77760000       0.55664000       0.16024000 </v>
    <v>       0.88819132       0.44477268       0.29812485 </v>
    <v>       0.99866514       0.66635844       0.43635548 </v>
    <v>       0.11093000       0.88997000       0.16024000 </v>
    <v>       0.22181359       0.77845295       0.29839565 </v>
    <v>       0.33325346       0.66742870       0.43740779 </v>
    <v>       0.44426000       0.88997000       0.16024000 </v>
    <v>       0.55464053       0.77819671       0.29819203 </v>
    <v>       0.66589070       0.66667280       0.43658941 </v>
    <v>       0.77760000       0.88997000       0.16024000 </v>
    <v>       0.88830738       0.77866691       0.29808205 </v>
    <v>       0.99982000       0.00108000       0.02337000 </v>
    <v>       0.33315000       0.00108000       0.02337000 </v>
    <v>       0.66649000       0.00108000       0.02337000 </v>
    <v>       0.99982000       0.33441000       0.02337000 </v>
    <v>       0.33315000       0.33441000       0.02337000 </v>
    <v>       0.66649000       0.33441000       0.02337000 </v>
    <v>       0.99982000       0.66775000       0.02337000 </v>
    <v>       0.33315000       0.66775000       0.02337000 </v>
    <v>       0.66649000       0.66775000       0.02337000 </v>
    <v>       0.23572581       0.15218440       0.65864760 </v>
    <v>       0.24771320       0.29640171       0.64385774 </v>
    <v>       0.22239384       0.00982047       0.67811665 </v>
   </varray>
  </structure>
  <varray name="forces" >
   <v>      -0.00651621       0.02526655      -0.07242008 </v>
   <v>       0.00740278      -0.00390188       0.19915930 </v>
   <v>       0.00255700      -0.00427531       0.01100924 </v>
   <v>      -0.01336128      -0.00275188      -0.04681451 </v>
   <v>      -0.01620825      -0.00180307       0.17501055 </v>
   <v>       0.00284442       0.00256837       0.00919397 </v>
   <v>       0.00206312      -0.00091072       0.01280544 </v>
   <v>       0.00294102      -0.00858341       0.15602917 </v>
   <v>       0.00156127      -0.00241446      -0.01218583 </v>
   <v>       0.05975270       0.02294278      -0.05270075 </v>
   <v>       0.01347629      -0.00614930       0.16561059 </v>
   <v>       0.00247797       0.00172028       0.02950962 </v>
   <v>      -0.02453706       0.03506312      -0.21348932 </v>
   <v>      -0.00758762      -0.01887458       0.17753986 </v>
   <v>       0.01011019       0.00390219      -0.00131245 </v>
   <v>       0.00047463      -0.00662319       0.02681818 </v>
   <v>      -0.01377997      -0.01574040       0.15820583 </v>
   <v>      -0.00046308       0.00362340       0.00546123 </v>
   <v>       0.02119828       0.01339699       0.02632817 </v>
   <v>       0.00320572       0.01713805       0.17942976 </v>
   <v>      -0.00392400      -0.00036130      -0.00314754 </v>
   <v>      -0.02587995      -0.04471334      -0.02468986 </v>
   <v>      -0.00628701      -0.00423127       0.14859071 </v>
   <v>       0.00580548       0.00083823      -0.00603864 </v>
   <v>      -0.01797034      -0.00519273       0.02186350 </v>
   <v>      -0.00388238       0.00747263       0.16294297 </v>
   <v>       0.00240472      -0.00494522       0.01215872 </v>
   <v>       0.00287560      -0.00728311      -0.13319629 </v>
   <v>      -0.00329879       0.00046820      -0.14240304 </v>
   <v>       0.00257749       0.00074779      -0.14091846 </v>
   <v>      -0.00141843       0.00104437      -0.13706823 </v>
   <v>       0.00022829       0.00040085      -0.13867294 </v>
   <v>       0.00000779       0.00225545      -0.14198284 </v>
   <v>      -0.00091039       0.00109924      -0.14569701 </v>
   <v>      -0.00242060      -0.00091170      -0.14446938 </v>
   <v>       0.00157995      -0.00082359      -0.14363891 </v>
   <v>      -0.09814006       0.03771147       0.47317068 </v>
   <v>       0.04229704       0.00427914      -0.22837168 </v>
   <v>       0.05874369      -0.04144866      -0.22161971 </v>
  </varray>
  <varray name="stress" >
   <v>     -22.45881928      -0.38522305       0.20727965 </v>
   <v>      -0.38522286     -21.71398149       0.00257958 </v>
   <v>       0.20727985       0.00257918      -7.71533288 </v>
  </varray>
  <energy>
   <i name="e_fr_energy">   -203.99034536 </i>
   <i name="e_wo_entrp">   -198.75492001 </i>
   <i name="e_0_energy">   -201.37263269 </i>
  </energy>
  <time name="totalsc">  183.28  184.13</time>
 </calculation>
 <calculation>
  <scstep>
   <time name="dav">   13.96   14.04</time>
   <time name="total">   14.41   14.50</time>
   <energy>
    <i name="alphaZ">    918.22725072 </i>
    <i name="ewald">  20651.25018355 </i>
    <i name="hartreedc"> -53232.87524057 </i>
    <i name="XCdc">   -999.28308632 </i>
    <i name="pawpsdc">  35509.77329446 </i>
    <i name="pawaedc"> -33355.17763689 </i>
    <i name="eentropy">     -5.23565699 </i>
    <i name="bandstr">    147.46335679 </i>
    <i name="atom">  30161.86332653 </i>
    <i name="e_fr_energy">   -203.99420873 </i>
    <i name="e_wo_entrp">   -198.75855174 </i>
    <i name="e_0_energy">   -201.37638023 </i>
   </energy>
  </scstep>
  <scstep>
   <time name="dav">   14.67   14.76</time>
   <time name="total">   15.13   15.22</time>
   <energy>
    <i name="e_fr_energy">   -203.99456941 </i>
    <i name="e_wo_entrp">   -198.75908180 </i>
    <i name="e_0_energy">   -201.37682561 </i>
   </energy>
  </scstep>
  <scstep>
   <time name="dav">   15.02   15.11</time>
   <time name="total">   15.48   15.57</time>
   <energy>
    <i name="e_fr_energy">   -203.99459525 </i>
    <i name="e_wo_entrp">   -198.75895784 </i>
    <i name="e_0_energy">   -201.37677654 </i>
   </energy>
  </scstep>
  <scstep>
   <time name="dav">   14.15   14.23</time>
   <time name="total">   14.60   14.69</time>
   <energy>
    <i name="e_fr_energy">   -203.99454643 </i>
    <i name="e_wo_entrp">   -198.75891486 </i>
    <i name="e_0_energy">   -201.37673065 </i>
   </energy>
  </scstep>
  <scstep>
   <time name="dav">   11.51   11.58</time>
   <time name="total">   11.96   12.04</time>
   <energy>
    <i name="e_fr_energy">   -203.99451206 </i>
    <i name="e_wo_entrp">   -198.75898961 </i>
    <i name="e_0_energy">   -201.37675083 </i>
   </energy>
  </scstep>
  <scstep>
   <time name="dav">   12.26   12.34</time>
   <time name="total">   12.72   12.81</time>
   <energy>
    <i name="e_fr_energy">   -203.99452821 </i>
    <i name="e_wo_entrp">   -198.75885684 </i>
    <i name="e_0_energy">   -201.37669252 </i>
   </energy>
  </scstep>
  <scstep>
   <time name="dav">   11.24   11.31</time>
   <time name="total">   11.69   11.76</time>
   <energy>
    <i name="e_fr_energy">   -203.99450694 </i>
    <i name="e_wo_entrp">   -198.75898603 </i>
    <i name="e_0_energy">   -201.37674648 </i>
   </energy>
  </scstep>
  <scstep>
   <time name="dav">    9.40    9.46</time>
   <time name="total">    9.51    9.57</time>
   <energy>
    <i name="alphaZ">    918.22725072 </i>
    <i name="ewald">  20651.25018355 </i>
    <i name="hartreedc"> -53233.14897238 </i>
    <i name="XCdc">   -999.28397753 </i>
    <i name="pawpsdc">  35510.48342531 </i>
    <i name="pawaedc"> -33355.89762157 </i>
    <i name="eentropy">     -5.23558180 </i>
    <i name="bandstr">    147.74746208 </i>
    <i name="atom">  30161.86332653 </i>
    <i name="e_fr_energy">   -203.99450509 </i>
    <i name="e_wo_entrp">   -198.75892329 </i>
    <i name="e_0_energy">   -201.37671419 </i>
   </energy>
  </scstep>
  <structure>
   <crystal>
    <varray name="basis" >
     <v>       8.30990028       0.00000000       0.00000000 </v>
     <v>      -4.15495014       7.19658475       0.00000000 </v>
     <v>       0.00000000       0.00000000      16.52350044 </v>
    </varray>
    <i name="volume">    988.15327180 </i>
    <varray name="rec_basis" >
     <v>       0.12033839       0.06947740       0.00000000 </v>
     <v>       0.00000000       0.13895480       0.00000000 </v>
     <v>       0.00000000       0.00000000       0.06051986 </v>
    </varray>
   </crystal>
   <varray name="positions" >
    <v>       0.99891488       0.99940187       0.43803470 </v>
    <v>       0.11093000       0.22330000       0.16024000 </v>
    <v>       0.22179503       0.11228511       0.29928242 </v>
    <v>       0.33259539       0.99987188       0.43784498 </v>
    <v>       0.44426000       0.22330000       0.16024000 </v>
    <v>       0.55462547       0.11149404       0.29819117 </v>
    <v>       0.66569062      -0.00000622       0.43675582 </v>
    <v>       0.77760000       0.22330000       0.16024000 </v>
    <v>       0.88854899       0.11177298       0.29868068 </v>
    <v>       0.99782417       0.33290392       0.43785002 </v>
    <v>       0.11093000       0.55664000       0.16024000 </v>
    <v>       0.22164598       0.44466140       0.29907312 </v>
    <v>       0.33187506       0.33263782       0.44072490 </v>
    <v>       0.44426000       0.55664000       0.16024000 </v>
    <v>       0.55373487       0.44448008       0.29880405 </v>
    <v>       0.66529844       0.33326632       0.43657632 </v>
    <v>       0.77760000       0.55664000       0.16024000 </v>
    <v>       0.88819301       0.44477697       0.29812890 </v>
    <v>       0.99870428       0.66637814       0.43637330 </v>
    <v>       0.11093000       0.88997000       0.16024000 </v>
    <v>       0.22180775       0.77845216       0.29839411 </v>
    <v>       0.33317991       0.66735492       0.43739100 </v>
    <v>       0.44426000       0.88997000       0.16024000 </v>
    <v>       0.55464821       0.77819694       0.29818762 </v>
    <v>       0.66586039       0.66666314       0.43660446 </v>
    <v>       0.77760000       0.88997000       0.16024000 </v>
    <v>       0.88830625       0.77865878       0.29809065 </v>
    <v>       0.99982000       0.00108000       0.02337000 </v>
    <v>       0.33315000       0.00108000       0.02337000 </v>
    <v>       0.66649000       0.00108000       0.02337000 </v>
    <v>       0.99982000       0.33441000       0.02337000 </v>
    <v>       0.33315000       0.33441000       0.02337000 </v>
    <v>       0.66649000       0.33441000       0.02337000 </v>
    <v>       0.99982000       0.66775000       0.02337000 </v>
    <v>       0.33315000       0.66775000       0.02337000 </v>
    <v>       0.66649000       0.66775000       0.02337000 </v>
    <v>       0.23559045       0.15228675       0.65885389 </v>
    <v>       0.24773937       0.29643882       0.64355182 </v>
    <v>       0.22242350       0.00982320       0.67786895 </v>
   </varray>
  </structure>
  <varray name="forces" >
   <v>      -0.00733802       0.02228516      -0.06955172 </v>
   <v>       0.00762184      -0.00346192       0.19989909 </v>
   <v>       0.00289029      -0.00507012       0.00575955 </v>
   <v>      -0.01194671      -0.00253107      -0.04542635 </v>
   <v>      -0.01614728      -0.00186693       0.17559702 </v>
   <v>       0.00345042       0.00271627       0.00879633 </v>
   <v>       0.00060633      -0.00076418       0.01030855 </v>
   <v>       0.00278164      -0.00843894       0.15643540 </v>
   <v>       0.00044357      -0.00233158      -0.01316118 </v>
   <v>       0.05431576       0.02113326      -0.05036416 </v>
   <v>       0.01378122      -0.00630856       0.16668825 </v>
   <v>       0.00157765       0.00265491       0.02226411 </v>
   <v>      -0.02178608       0.03358480      -0.20558888 </v>
   <v>      -0.00786823      -0.01896158       0.17811791 </v>
   <v>       0.01165665       0.00463291      -0.00327323 </v>
   <v>       0.00166561      -0.00586464       0.02656758 </v>
   <v>      -0.01367211      -0.01554920       0.15897073 </v>
   <v>      -0.00080627       0.00354205       0.00561449 </v>
   <v>       0.01907729       0.01224866       0.02694518 </v>
   <v>       0.00306513       0.01730771       0.18015082 </v>
   <v>      -0.00357238      -0.00041790      -0.00407453 </v>
   <v>      -0.02451887      -0.03939515      -0.02236042 </v>
   <v>      -0.00626700      -0.00397594       0.14887775 </v>
   <v>       0.00556670       0.00127526      -0.00524985 </v>
   <v>      -0.01655543      -0.00394421       0.02027882 </v>
   <v>      -0.00367372       0.00741080       0.16295125 </v>
   <v>       0.00223971      -0.00539771       0.01167966 </v>
   <v>       0.00282402      -0.00729973      -0.13382870 </v>
   <v>      -0.00320670       0.00052968      -0.14231703 </v>
   <v>       0.00256126       0.00084857      -0.14020569 </v>
   <v>      -0.00150228       0.00117524      -0.13787452 </v>
   <v>       0.00022640       0.00054252      -0.13943087 </v>
   <v>       0.00009466       0.00235950      -0.14170123 </v>
   <v>      -0.00096175       0.00117395      -0.14635786 </v>
   <v>      -0.00242229      -0.00078623      -0.14374727 </v>
   <v>       0.00163651      -0.00064998      -0.14323491 </v>
   <v>      -0.12295041       0.12806187       0.34684335 </v>
   <v>       0.05992218      -0.05152990      -0.16599278 </v>
   <v>       0.06719072      -0.07893766      -0.15900466 </v>
  </varray>
  <varray name="stress" >
   <v>     -22.46371095      -0.37094194       0.19757400 </v>
   <v>      -0.37094164     -21.74331127      -0.00102567 </v>
   <v>       0.19757411      -0.00102589      -7.66542330 </v>
  </varray>
  <energy>
   <i name="e_fr_energy">   -203.99450509 </i>
   <i name="e_wo_entrp">   -198.75892329 </i>
   <i name="e_0_energy">   -201.37671419 </i>
  </energy>
  <time name="totalsc">  192.54  193.48</time>
 </calculation>
 <calculation>
  <scstep>
   <time name="dav">   14.03   14.12</time>
   <time name="total">   14.75   14.84</time>
   <energy>
    <i name="alphaZ">    918.22725072 </i>
    <i name="ewald">  20662.13879970 </i>
    <i name="hartreedc"> -53244.02979516 </i>
    <i name="XCdc">   -999.27717342 </i>
    <i name="pawpsdc">  35510.48797747 </i>
    <i name="pawaedc"> -33355.90245641 </i>
    <i name="eentropy">     -5.23589288 </i>
    <i name="bandstr">    147.73037958 </i>
    <i name="atom">  30161.86332653 </i>
    <i name="e_fr_energy">   -203.99758387 </i>
    <i name="e_wo_entrp">   -198.76169099 </i>
    <i name="e_0_energy">   -201.37963743 </i>
   </energy>
  </scstep>
  <scstep>
   <time name="dav">   14.75   14.84</time>
   <time name="total">   15.21   15.30</time>
   <energy>
    <i name="e_fr_energy">   -203.99812579 </i>
    <i name="e_wo_entrp">   -198.76248466 </i>
[...]
    <v>       0.44426000       0.88997000       0.16024000 </v>
    <v>       0.55569852       0.77940124       0.29798464 </v>
    <v>       0.66731011       0.66896173       0.43648238 </v>
    <v>       0.77760000       0.88997000       0.16024000 </v>
    <v>       0.88886107       0.77910857       0.29780351 </v>
    <v>       0.99982000       0.00108000       0.02337000 </v>
    <v>       0.33315000       0.00108000       0.02337000 </v>
    <v>       0.66649000       0.00108000       0.02337000 </v>
    <v>       0.99982000       0.33441000       0.02337000 </v>
    <v>       0.33315000       0.33441000       0.02337000 </v>
    <v>       0.66649000       0.33441000       0.02337000 </v>
    <v>       0.99982000       0.66775000       0.02337000 </v>
    <v>       0.33315000       0.66775000       0.02337000 </v>
    <v>       0.66649000       0.66775000       0.02337000 </v>
    <v>       0.21778965       0.14970896       0.63083581 </v>
    <v>       0.23250960       0.29513191       0.61575487 </v>
    <v>       0.20337533       0.00500609       0.64645398 </v>
   </varray>
  </structure>
  <varray name="forces" >
   <v>      -0.00047105      -0.00099918       0.00143744 </v>
   <v>       0.00075655       0.00151691       0.12151648 </v>
   <v>      -0.00035484      -0.00122008       0.00098364 </v>
   <v>      -0.00198159      -0.00265790       0.00187170 </v>
   <v>       0.00682704       0.00657805       0.11895788 </v>
   <v>      -0.00054583      -0.00079457       0.00108718 </v>
   <v>      -0.00102457      -0.00252491      -0.00039050 </v>
   <v>      -0.00662951       0.00651413       0.12589705 </v>
   <v>      -0.00016771      -0.00113191       0.00174497 </v>
   <v>      -0.00015477      -0.00271469       0.00272859 </v>
   <v>      -0.00506608       0.00623608       0.11532208 </v>
   <v>       0.00000071      -0.00157036       0.00257782 </v>
   <v>      -0.00227774      -0.00471461       0.00459531 </v>
   <v>       0.00430442       0.00475978       0.12466050 </v>
   <v>      -0.00018297      -0.00067103       0.00124732 </v>
   <v>      -0.00158413      -0.00290929       0.00018139 </v>
   <v>       0.00228873      -0.00407770       0.12293754 </v>
   <v>      -0.00013337      -0.00087833       0.00139774 </v>
   <v>      -0.00113539      -0.00286813       0.00039269 </v>
   <v>       0.00088652       0.00217988       0.12494155 </v>
   <v>      -0.00015025      -0.00104320       0.00145909 </v>
   <v>      -0.00109656      -0.00321593       0.00132228 </v>
   <v>       0.00112755       0.00758140       0.12793924 </v>
   <v>      -0.00062490      -0.00106611       0.00096987 </v>
   <v>      -0.00180392      -0.00325139      -0.00013879 </v>
   <v>      -0.00137562       0.00341463       0.12837784 </v>
   <v>      -0.00028042      -0.00062602       0.00131470 </v>
   <v>       0.00268992      -0.00680210      -0.13646721 </v>
   <v>      -0.00262473       0.00064657      -0.14380914 </v>
   <v>       0.00179091      -0.00030194      -0.14173543 </v>
   <v>      -0.00067325       0.00058991      -0.14099171 </v>
   <v>      -0.00048871       0.00001556      -0.14400376 </v>
   <v>      -0.00023023       0.00061567      -0.14235864 </v>
   <v>      -0.00021349       0.00134073      -0.14926247 </v>
   <v>      -0.00143077      -0.00077915      -0.14598055 </v>
   <v>      -0.00038077      -0.00023008      -0.14461219 </v>
   <v>       0.00293060       0.00586459       0.05409102 </v>
   <v>       0.00805846       0.00992523       0.08458672 </v>
   <v>       0.00142176      -0.01073050       0.01521077 </v>
  </varray>
  <varray name="stress" >
   <v>     -20.52870387      -0.31561698       0.17766950 </v>
   <v>      -0.31561666     -20.18635964      -0.32840873 </v>
   <v>       0.17766942      -0.32840904      -3.58657213 </v>
  </varray>
  <energy>
   <i name="e_fr_energy">   -203.97574927 </i>
   <i name="e_wo_entrp">   -198.74417450 </i>
   <i name="e_0_energy">   -201.35996189 </i>
  </energy>
  <time name="totalsc">  162.76  163.39</time>
 </calculation>
 <calculation>
  <scstep>
   <time name="dav">   13.98   14.07</time>
   <time name="total">   14.43   14.52</time>
   <energy>
    <i name="alphaZ">    918.22725072 </i>
    <i name="ewald">  21720.56706893 </i>
    <i name="hartreedc"> -54304.77312572 </i>
    <i name="XCdc">   -998.92451031 </i>
    <i name="pawpsdc">  35553.63197411 </i>
    <i name="pawaedc"> -33399.62794534 </i>
    <i name="eentropy">     -5.23156232 </i>
    <i name="bandstr">    150.29182830 </i>
    <i name="atom">  30161.86332653 </i>
    <i name="e_fr_energy">   -203.97569509 </i>
    <i name="e_wo_entrp">   -198.74413277 </i>
    <i name="e_0_energy">   -201.35991393 </i>
   </energy>
  </scstep>
  <scstep>
   <time name="dav">   10.52   10.58</time>
   <time name="total">   10.97   11.04</time>
   <energy>
    <i name="e_fr_energy">   -203.97570723 </i>
    <i name="e_wo_entrp">   -198.74414132 </i>
    <i name="e_0_energy">   -201.35992427 </i>
   </energy>
  </scstep>
  <scstep>
   <time name="dav">    9.96   10.02</time>
   <time name="total">   10.41   10.47</time>
   <energy>
    <i name="e_fr_energy">   -203.97571161 </i>
    <i name="e_wo_entrp">   -198.74416073 </i>
    <i name="e_0_energy">   -201.35993617 </i>
   </energy>
  </scstep>
  <scstep>
   <time name="dav">    9.50    9.56</time>
   <time name="total">    9.60    9.66</time>
   <energy>
    <i name="alphaZ">    918.22725072 </i>
    <i name="ewald">  21720.56706893 </i>
    <i name="hartreedc"> -54304.76998241 </i>
    <i name="XCdc">   -998.92462779 </i>
    <i name="pawpsdc">  35553.65740418 </i>
    <i name="pawaedc"> -33399.65370039 </i>
    <i name="eentropy">     -5.23155202 </i>
    <i name="bandstr">    150.28910601 </i>
    <i name="atom">  30161.86332653 </i>
    <i name="e_fr_energy">   -203.97570623 </i>
    <i name="e_wo_entrp">   -198.74415422 </i>
    <i name="e_0_energy">   -201.35993022 </i>
   </energy>
  </scstep>
  <structure>
   <crystal>
    <varray name="basis" >
     <v>       8.30990028       0.00000000       0.00000000 </v>
     <v>      -4.15495014       7.19658475       0.00000000 </v>
     <v>       0.00000000       0.00000000      16.52350044 </v>
    </varray>
    <i name="volume">    988.15327180 </i>
    <varray name="rec_basis" >
     <v>       0.12033839       0.06947740       0.00000000 </v>
     <v>       0.00000000       0.13895480       0.00000000 </v>
     <v>       0.00000000       0.00000000       0.06051986 </v>
    </varray>
   </crystal>
   <varray name="positions" >
    <v>       0.99986723       1.00142569       0.43577915 </v>
    <v>       0.11093000       0.22330000       0.16024000 </v>
    <v>       0.22241834       0.11273826       0.29782769 </v>
    <v>       0.33385436       1.00200517       0.43627240 </v>
    <v>       0.44426000       0.22330000       0.16024000 </v>
    <v>       0.55570200       0.11274203       0.29803653 </v>
    <v>       0.66711777       0.00216530       0.43655746 </v>
    <v>       0.77760000       0.22330000       0.16024000 </v>
    <v>       0.88893883       0.11275454       0.29782929 </v>
    <v>       1.00010619       0.33532862       0.43621353 </v>
    <v>       0.11093000       0.55664000       0.16024000 </v>
    <v>       0.22233268       0.44621647       0.29775464 </v>
    <v>       0.33400164       0.33594738       0.43588172 </v>
    <v>       0.44426000       0.55664000       0.16024000 </v>
    <v>       0.55565668       0.44605620       0.29796463 </v>
    <v>       0.66726444       0.33554937       0.43655889 </v>
    <v>       0.77760000       0.55664000       0.16024000 </v>
    <v>       0.88895578       0.44605917       0.29796904 </v>
    <v>       1.00039018       0.66879250       0.43652296 </v>
    <v>       0.11093000       0.88997000       0.16024000 </v>
    <v>       0.22221111       0.77926946       0.29787581 </v>
    <v>       0.33380126       0.66915792       0.43629636 </v>
    <v>       0.44426000       0.88997000       0.16024000 </v>
    <v>       0.55569958       0.77940305       0.29798493 </v>
    <v>       0.66731174       0.66896447       0.43648170 </v>
    <v>       0.77760000       0.88997000       0.16024000 </v>
    <v>       0.88886213       0.77910987       0.29780333 </v>
    <v>       0.99982000       0.00108000       0.02337000 </v>
    <v>       0.33315000       0.00108000       0.02337000 </v>
    <v>       0.66649000       0.00108000       0.02337000 </v>
    <v>       0.99982000       0.33441000       0.02337000 </v>
    <v>       0.33315000       0.33441000       0.02337000 </v>
    <v>       0.66649000       0.33441000       0.02337000 </v>
    <v>       0.99982000       0.66775000       0.02337000 </v>
    <v>       0.33315000       0.66775000       0.02337000 </v>
    <v>       0.66649000       0.66775000       0.02337000 </v>
    <v>       0.21773086       0.14966643       0.63080696 </v>
    <v>       0.23248308       0.29510805       0.61575493 </v>
    <v>       0.20328497       0.00493080       0.64639944 </v>
   </varray>
  </structure>
  <varray name="forces" >
   <v>      -0.00043683      -0.00104682       0.00236044 </v>
   <v>       0.00072266       0.00157105       0.12131920 </v>
   <v>       0.00023632      -0.00046202       0.00255098 </v>
   <v>      -0.00200462      -0.00272242       0.00230467 </v>
   <v>       0.00686915       0.00664060       0.11872622 </v>
   <v>      -0.00058254      -0.00088919       0.00037312 </v>
   <v>      -0.00113860      -0.00261344      -0.00010460 </v>
   <v>      -0.00666164       0.00656395       0.12574058 </v>
   <v>      -0.00022768      -0.00115140       0.00093436 </v>
   <v>      -0.00021911      -0.00274313       0.00310392 </v>
   <v>      -0.00508608       0.00625624       0.11520070 </v>
   <v>       0.00001120      -0.00160486       0.00179047 </v>
   <v>      -0.00223487      -0.00476434       0.00479385 </v>
   <v>       0.00430297       0.00478538       0.12454222 </v>
   <v>      -0.00026125      -0.00072798       0.00050744 </v>
   <v>      -0.00163802      -0.00293340       0.00057433 </v>
   <v>       0.00229063      -0.00408155       0.12274048 </v>
   <v>      -0.00016100      -0.00087503       0.00066283 </v>
   <v>      -0.00118114      -0.00293078       0.00053962 </v>
   <v>       0.00088578       0.00215141       0.12470951 </v>
   <v>      -0.00021456      -0.00109713       0.00074597 </v>
   <v>      -0.00110819      -0.00329594       0.00187509 </v>
   <v>       0.00112324       0.00760595       0.12780360 </v>
   <v>      -0.00061134      -0.00112406       0.00019515 </v>
   <v>      -0.00180142      -0.00339490       0.00021550 </v>
   <v>      -0.00139465       0.00341766       0.12821208 </v>
   <v>      -0.00030310      -0.00072404       0.00061496 </v>
   <v>       0.00272243      -0.00678254      -0.13599580 </v>
   <v>      -0.00271220       0.00069024      -0.14346137 </v>
   <v>       0.00180869      -0.00028553      -0.14154605 </v>
   <v>      -0.00064890       0.00056780      -0.14081419 </v>
   <v>      -0.00048835      -0.00003958      -0.14362553 </v>
   <v>      -0.00028820       0.00063561      -0.14211487 </v>
   <v>      -0.00026150       0.00139982      -0.14896486 </v>
   <v>      -0.00144861      -0.00077685      -0.14584368 </v>
   <v>      -0.00034689      -0.00022133      -0.14434872 </v>
   <v>       0.00695763      -0.00254830       0.05622386 </v>
   <v>       0.00622349       0.01372375       0.08348842 </v>
   <v>      -0.00069287      -0.00617288       0.01397010 </v>
  </varray>
  <varray name="stress" >
   <v>     -20.53352320      -0.31481615       0.17724408 </v>
   <v>      -0.31481627     -20.19228426      -0.32809480 </v>
   <v>       0.17724396      -0.32809475      -3.60412370 </v>
  </varray>
  <energy>
   <i name="e_fr_energy">   -203.97570623 </i>
   <i name="e_wo_entrp">   -198.74415422 </i>
   <i name="e_0_energy">   -201.35993022 </i>
  </energy>
  <time name="totalsc">  167.01  167.67</time>
 </calculation>
 <calculation>
  <scstep>
   <time name="dav">   13.95   14.04</time>
   <time name="total">   14.40   14.50</time>
   <energy>
    <i name="alphaZ">    918.22725072 </i>
    <i name="ewald">  21721.53706186 </i>
    <i name="hartreedc"> -54305.73042613 </i>
    <i name="XCdc">   -998.92426619 </i>
    <i name="pawpsdc">  35553.65585115 </i>
    <i name="pawaedc"> -33399.65218349 </i>
    <i name="eentropy">     -5.23156716 </i>
    <i name="bandstr">    150.27930490 </i>
    <i name="atom">  30161.86332653 </i>
    <i name="e_fr_energy">   -203.97564781 </i>
    <i name="e_wo_entrp">   -198.74408065 </i>
    <i name="e_0_energy">   -201.35986423 </i>
   </energy>
  </scstep>
  <scstep>
   <time name="dav">   10.78   10.85</time>
   <time name="total">   11.24   11.31</time>
   <energy>
    <i name="e_fr_energy">   -203.97566673 </i>
    <i name="e_wo_entrp">   -198.74415594 </i>
    <i name="e_0_energy">   -201.35991133 </i>
   </energy>
  </scstep>
  <scstep>
   <time name="dav">   10.21   10.27</time>
   <time name="total">   10.66   10.72</time>
   <energy>
    <i name="e_fr_energy">   -203.97566692 </i>
    <i name="e_wo_entrp">   -198.74407480 </i>
    <i name="e_0_energy">   -201.35987086 </i>
   </energy>
  </scstep>
  <scstep>
   <time name="dav">    9.72    9.78</time>
   <time name="total">    9.82    9.88</time>
   <energy>
    <i name="alphaZ">    918.22725072 </i>
    <i name="ewald">  21721.53706186 </i>
    <i name="hartreedc"> -54305.71801960 </i>
    <i name="XCdc">   -998.92429644 </i>
    <i name="pawpsdc">  35553.67434319 </i>
    <i name="pawaedc"> -33399.67087184 </i>
    <i name="eentropy">     -5.23157369 </i>
    <i name="bandstr">    150.26711168 </i>
    <i name="atom">  30161.86332653 </i>
    <i name="e_fr_energy">   -203.97566759 </i>
    <i name="e_wo_entrp">   -198.74409391 </i>
    <i name="e_0_energy">   -201.35988075 </i>
   </energy>
  </scstep>
  <structure>
   <crystal>
    <varray name="basis" >
     <v>       8.30990028       0.00000000       0.00000000 </v>
     <v>      -4.15495014       7.19658475       0.00000000 </v>
     <v>       0.00000000       0.00000000      16.52350044 </v>
    </varray>
    <i name="volume">    988.15327180 </i>
    <varray name="rec_basis" >
     <v>       0.12033839       0.06947740       0.00000000 </v>
     <v>       0.00000000       0.13895480       0.00000000 </v>
     <v>       0.00000000       0.00000000       0.06051986 </v>
    </varray>
   </crystal>
   <varray name="positions" >
    <v>       0.99986893       1.00142847       0.43577746 </v>
    <v>       0.11093000       0.22330000       0.16024000 </v>
    <v>       0.22242091       0.11274089       0.29782813 </v>
    <v>       0.33385668       1.00200820       0.43627167 </v>
    <v>       0.44426000       0.22330000       0.16024000 </v>
    <v>       0.55570342       0.11274416       0.29803617 </v>
    <v>       0.66712007       0.00216856       0.43655696 </v>
    <v>       0.77760000       0.22330000       0.16024000 </v>
    <v>       0.88893996       0.11275608       0.29782914 </v>
    <v>       1.00010814       0.33533196       0.43621367 </v>
    <v>       0.11093000       0.55664000       0.16024000 </v>
    <v>       0.22233360       0.44621775       0.29775448 </v>
    <v>       0.33400387       0.33595074       0.43588063 </v>
    <v>       0.44426000       0.55664000       0.16024000 </v>
    <v>       0.55565840       0.44605851       0.29796427 </v>
    <v>       0.66726641       0.33555201       0.43655863 </v>
    <v>       0.77760000       0.55664000       0.16024000 </v>
    <v>       0.88895737       0.44606114       0.29796870 </v>
    <v>       1.00039161       0.66879443       0.43652210 </v>
    <v>       0.11093000       0.88997000       0.16024000 </v>
    <v>       0.22221232       0.77927117       0.29787538 </v>
    <v>       0.33380287       0.66916088       0.43629627 </v>
    <v>       0.44426000       0.88997000       0.16024000 </v>
    <v>       0.55570073       0.77940502       0.29798463 </v>
    <v>       0.66731328       0.66896720       0.43648119 </v>
    <v>       0.77760000       0.88997000       0.16024000 </v>
    <v>       0.88886323       0.77911117       0.29780253 </v>
    <v>       0.99982000       0.00108000       0.02337000 </v>
    <v>       0.33315000       0.00108000       0.02337000 </v>
    <v>       0.66649000       0.00108000       0.02337000 </v>
    <v>       0.99982000       0.33441000       0.02337000 </v>
    <v>       0.33315000       0.33441000       0.02337000 </v>
    <v>       0.66649000       0.33441000       0.02337000 </v>
    <v>       0.99982000       0.66775000       0.02337000 </v>
    <v>       0.33315000       0.66775000       0.02337000 </v>
    <v>       0.66649000       0.66775000       0.02337000 </v>
    <v>       0.21765873       0.14959816       0.63077604 </v>
    <v>       0.23245273       0.29508783       0.61575725 </v>
    <v>       0.20317618       0.00484813       0.64633298 </v>
   </varray>
  </structure>
  <varray name="forces" >
   <v>      -0.00048447      -0.00093747       0.00172916 </v>
   <v>       0.00072534       0.00151768       0.12083628 </v>
   <v>      -0.00048478      -0.00131924      -0.00010507 </v>
   <v>      -0.00210888      -0.00264634       0.00249412 </v>
   <v>       0.00681746       0.00656298       0.11822919 </v>
   <v>      -0.00052535      -0.00083816       0.00011231 </v>
   <v>      -0.00091422      -0.00256565       0.00030548 </v>
   <v>      -0.00656488       0.00649119       0.12515274 </v>
   <v>      -0.00013191      -0.00110746       0.00078649 </v>
   <v>       0.00002651      -0.00297134       0.00335700 </v>
   <v>      -0.00502102       0.00623444       0.11444565 </v>
   <v>      -0.00003714      -0.00161939       0.00165933 </v>
   <v>      -0.00239099      -0.00490614       0.00536685 </v>
   <v>       0.00425788       0.00478893       0.12381717 </v>
   <v>      -0.00018971      -0.00077931       0.00030060 </v>
   <v>      -0.00163104      -0.00300533       0.00119439 </v>
   <v>       0.00231365      -0.00406958       0.12210209 </v>
   <v>      -0.00011726      -0.00103768       0.00043874 </v>
   <v>      -0.00115583      -0.00268169       0.00149361 </v>
   <v>       0.00090966       0.00228832       0.12419016 </v>
   <v>      -0.00013524      -0.00096888       0.00053165 </v>
   <v>      -0.00102100      -0.00326547       0.00210388 </v>
   <v>       0.00114613       0.00765632       0.12707653 </v>
   <v>      -0.00062088      -0.00102201       0.00010733 </v>
   <v>      -0.00180970      -0.00313710       0.00079593 </v>
   <v>      -0.00140068       0.00354561       0.12760412 </v>
   <v>      -0.00030080      -0.00046428       0.00047770 </v>
   <v>       0.00262781      -0.00676818      -0.13572121 </v>
   <v>      -0.00253053       0.00061277      -0.14296241 </v>
   <v>       0.00175319      -0.00027936      -0.14066391 </v>
   <v>      -0.00071446       0.00060845      -0.13988366 </v>
   <v>      -0.00053083       0.00006725      -0.14315443 </v>
   <v>      -0.00015191       0.00056920      -0.14138774 </v>
   <v>      -0.00013964       0.00129130      -0.14841193 </v>
   <v>      -0.00144286      -0.00075391      -0.14494036 </v>
   <v>      -0.00044833      -0.00020132      -0.14378641 </v>
   <v>      -0.00156929       0.01635671       0.05196125 </v>
   <v>       0.01031420       0.00491073       0.08562026 </v>
   <v>       0.00368179      -0.01615658       0.01672710 </v>
  </varray>
  <varray name="stress" >
   <v>     -20.52391298      -0.31620480       0.17809526 </v>
   <v>      -0.31620473     -20.18274333      -0.32871166 </v>
   <v>       0.17809504      -0.32871168      -3.57606296 </v>
  </varray>
  <energy>
   <i name="e_fr_energy">   -203.97566759 </i>
   <i name="e_wo_entrp">   -198.74409391 </i>
   <i name="e_0_energy">   -201.35988075 </i>
  </energy>
