PBE-grap                                
           1
     8.309900    0.000000    0.000000
    -4.154950    7.196585    0.000000
     0.000000    0.000000   16.523500
   Pd   C    O 
    36     1     2
Direct configuration=     1
   0.99889022  0.99931429  0.43814009
   0.11093000  0.22330000  0.16024000
   0.22179339  0.11229478  0.29925426
   0.33264695  0.99988374  0.43790888
   0.44426000  0.22330000  0.16024000
   0.55461769  0.11148866  0.29817668
   0.66568893  0.00000117  0.43673604
   0.77760000  0.22330000  0.16024000
   0.88854722  0.11178276  0.29869662
   0.99759336  0.33282124  0.43792670
   0.11093000  0.55664000  0.16024000
   0.22163652  0.44466135  0.29901773
   0.33189938  0.33251159  0.44102658
   0.44426000  0.55664000  0.16024000
   0.55370833  0.44447196  0.29880033
   0.66531617  0.33329568  0.43653525
   0.77760000  0.55664000  0.16024000
   0.88818903  0.44476801  0.29812091
   0.99861392  0.66633396  0.43633203
   0.11093000  0.88997000  0.16024000
   0.22182058  0.77845344  0.29839695
   0.33334462  0.66752297  0.43742748
   0.44426000  0.88997000  0.16024000
   0.55463210  0.77819712  0.29819806
   0.66592980  0.66668631  0.43657072
   0.77760000  0.88997000  0.16024000
   0.88830824  0.77867497  0.29807208
   0.99982000  0.00108000  0.02337000
   0.33315000  0.00108000  0.02337000
   0.66649000  0.00108000  0.02337000
   0.99982000  0.33441000  0.02337000
   0.33315000  0.33441000  0.02337000
   0.66649000  0.33441000  0.02337000
   0.99982000  0.66775000  0.02337000
   0.33315000  0.66775000  0.02337000
   0.66649000  0.66775000  0.02337000
   0.23590956  0.15201151  0.65834769
   0.24767354  0.29636907  0.64426491
   0.22235058  0.00985434  0.67844859
Direct configuration=     2
   0.99889642  0.99933432  0.43811740
   0.11093000  0.22330000  0.16024000
   0.22179422  0.11229379  0.29926237
   0.33263511  0.99988108  0.43789520
   0.44426000  0.22330000  0.16024000
   0.55461884  0.11148962  0.29818002
   0.66568922 -0.00000065  0.43674019
   0.77760000  0.22330000  0.16024000
   0.88854796  0.11178058  0.29869371
   0.99764690  0.33284043  0.43790981
   0.11093000  0.55664000  0.16024000
   0.22163869  0.44466094  0.29903159
   0.33189326  0.33253993  0.44096126
   0.44426000  0.55664000  0.16024000
   0.55371369  0.44447375  0.29880169
   0.66531123  0.33328884  0.43654398
   0.77760000  0.55664000  0.16024000
   0.88818995  0.44476994  0.29812265
   0.99863509  0.66634402  0.43634102
   0.11093000  0.88997000  0.16024000
   0.22181777  0.77845325  0.29839679
   0.33330761  0.66748435  0.43741921
   0.44426000  0.88997000  0.16024000
   0.55463538  0.77819681  0.29819577
   0.66591370  0.66668063  0.43657764
   0.77760000  0.88997000  0.16024000
   0.88830785  0.77867172  0.29807647
   0.99982000  0.00108000  0.02337000
   0.33315000  0.00108000  0.02337000
   0.66649000  0.00108000  0.02337000
   0.99982000  0.33441000  0.02337000
   0.33315000  0.33441000  0.02337000
   0.66649000  0.33441000  0.02337000
   0.99982000  0.66775000  0.02337000
   0.33315000  0.66775000  0.02337000
   0.66649000  0.66775000  0.02337000
   0.23582686  0.15201397  0.65848195
   0.24769334  0.29641720  0.64409353
   0.22237211  0.00987290  0.67830671
Direct configuration=     3
   0.99890513  0.99936381  0.43808328
   0.11093000  0.22330000  0.16024000
   0.22179447  0.11229071  0.29927164
   0.33261805  0.99987734  0.43787487
   0.44426000  0.22330000  0.16024000
   0.55462113  0.11149130  0.29818444
   0.66568990 -0.00000299  0.43674730
   0.77760000  0.22330000  0.16024000
   0.88854888  0.11177747  0.29868840
   0.99772386  0.33286827  0.43788489
   0.11093000  0.55664000  0.16024000
   0.22164166  0.44466053  0.29905004
   0.33188492  0.33258109  0.44086282
   0.44426000  0.55664000  0.16024000
   0.55372176  0.44447629  0.29880281
   0.66530505  0.33327914  0.43655792
   0.77760000  0.55664000  0.16024000
   0.88819132  0.44477268  0.29812485
   0.99866514  0.66635844  0.43635548
   0.11093000  0.88997000  0.16024000
   0.22181359  0.77845295  0.29839565
   0.33325346  0.66742870  0.43740779
   0.44426000  0.88997000  0.16024000
   0.55464053  0.77819671  0.29819203
   0.66589070  0.66667280  0.43658941
   0.77760000  0.88997000  0.16024000
   0.88830738  0.77866691  0.29808205
   0.99982000  0.00108000  0.02337000
   0.33315000  0.00108000  0.02337000
   0.66649000  0.00108000  0.02337000
   0.99982000  0.33441000  0.02337000
   0.33315000  0.33441000  0.02337000
   0.66649000  0.33441000  0.02337000
   0.99982000  0.66775000  0.02337000
   0.33315000  0.66775000  0.02337000
   0.66649000  0.66775000  0.02337000
   0.23572581  0.15218440  0.65864760
   0.24771320  0.29640171  0.64385774
   0.22239384  0.00982047  0.67811665
Direct configuration=     4
   0.99891488  0.99940187  0.43803470
   0.11093000  0.22330000  0.16024000
   0.22179503  0.11228511  0.29928242
   0.33259539  0.99987188  0.43784498
   0.44426000  0.22330000  0.16024000
   0.55462547  0.11149404  0.29819117
   0.66569062 -0.00000622  0.43675582
   0.77760000  0.22330000  0.16024000
   0.88854899  0.11177298  0.29868068
   0.99782417  0.33290392  0.43785002
   0.11093000  0.55664000  0.16024000
   0.22164598  0.44466140  0.29907312
   0.33187506  0.33263782  0.44072490
   0.44426000  0.55664000  0.16024000
   0.55373487  0.44448008  0.29880405
   0.66529844  0.33326632  0.43657632
   0.77760000  0.55664000  0.16024000
   0.88819301  0.44477697  0.29812890
   0.99870428  0.66637814  0.43637330
   0.11093000  0.88997000  0.16024000
   0.22180775  0.77845216  0.29839411
   0.33317991  0.66735492  0.43739100
   0.44426000  0.88997000  0.16024000
   0.55464821  0.77819694  0.29818762
   0.66586039  0.66666314  0.43660446
   0.77760000  0.88997000  0.16024000
   0.88830625  0.77865878  0.29809065
   0.99982000  0.00108000  0.02337000
   0.33315000  0.00108000  0.02337000
   0.66649000  0.00108000  0.02337000
   0.99982000  0.33441000  0.02337000
   0.33315000  0.33441000  0.02337000
   0.66649000  0.33441000  0.02337000
   0.99982000  0.66775000  0.02337000
   0.33315000  0.66775000  0.02337000
   0.66649000  0.66775000  0.02337000
   0.23559045  0.15228675  0.65885389
   0.24773937  0.29643882  0.64355182
   0.22242350  0.00982320  0.67786895
Direct configuration=     5
   0.99892323  0.99944717  0.43797106
   0.11093000  0.22330000  0.16024000
   0.22179549  0.11227561  0.29929175
   0.33256786  0.99986500  0.43780531
   0.44426000  0.22330000  0.16024000
   0.55463287  0.11149826  0.29819989
   0.66568913 -0.00001010  0.43676508
   0.77760000  0.22330000  0.16024000
   0.88854708  0.11176711  0.29866915
   0.99794797  0.33294844  0.43780456
   0.11093000  0.55664000  0.16024000
   0.22165120  0.44466485  0.29909726
   0.33186601  0.33271168  0.44054334
   0.44426000  0.55664000  0.16024000
   0.55375685  0.44448712  0.29880366
   0.66529273  0.33325077  0.43660114
   0.77760000  0.55664000  0.16024000
   0.88819460  0.44478280  0.29813451
   0.99875224  0.66640259  0.43639821
   0.11093000  0.88997000  0.16024000
   0.22180038  0.77845099  0.29839104
   0.33308865  0.66726682  0.43737034
   0.44426000  0.88997000  0.16024000
   0.55465878  0.77819834  0.29818241
   0.66582348  0.66665298  0.43662346
   0.77760000  0.88997000  0.16024000
   0.88830395  0.77864671  0.29810186
   0.99982000  0.00108000  0.02337000
   0.33315000  0.00108000  0.02337000
   0.66649000  0.00108000  0.02337000
   0.99982000  0.33441000  0.02337000
   0.33315000  0.33441000  0.02337000
   0.66649000  0.33441000  0.02337000
   0.99982000  0.66775000  0.02337000
   0.33315000  0.66775000  0.02337000
   0.66649000  0.66775000  0.02337000
   0.23546160  0.15261951  0.65902728
   0.24775109  0.29636420  0.64321060
   0.22244053  0.00973720  0.67760132
Direct configuration=     6
   0.99892856  0.99948147  0.43791677
   0.11093000  0.22330000  0.16024000
   0.22179549  0.11226459  0.29929367
   0.33254659  0.99985917  0.43777124
   0.44426000  0.22330000  0.16024000
   0.55464097  0.11150241  0.29820713
   0.66568573 -0.00001328  0.43677154
   0.77760000  0.22330000  0.16024000
   0.88854290  0.11176179  0.29865756
   0.99804036  0.33298258  0.43776618
   0.11093000  0.55664000  0.16024000
   0.22165513  0.44467051  0.29911039
   0.33186478  0.33277320  0.44038706
   0.44426000  0.55664000  0.16024000
   0.55378139  0.44449542  0.29880082
   0.66529133  0.33323885  0.43662265
   0.77760000  0.55664000  0.16024000
   0.88819517  0.44478818  0.29813977
   0.99878768  0.66642276  0.43641952
   0.11093000  0.88997000  0.16024000
   0.22179395  0.77844925  0.29838721
   0.33301598  0.66720077  0.43735331
   0.44426000  0.88997000  0.16024000
   0.55466815  0.77820021  0.29817857
   0.66579615  0.66664715  0.43663950
   0.77760000  0.88997000  0.16024000
   0.88830087  0.77863402  0.29811129
   0.99982000  0.00108000  0.02337000
   0.33315000  0.00108000  0.02337000
   0.66649000  0.00108000  0.02337000
   0.99982000  0.33441000  0.02337000
   0.33315000  0.33441000  0.02337000
   0.66649000  0.33441000  0.02337000
   0.99982000  0.66775000  0.02337000
   0.33315000  0.66775000  0.02337000
   0.66649000  0.66775000  0.02337000
   0.23532443  0.15230088  0.65917550
   0.24777389  0.29659340  0.64292278
   0.22247003  0.00997688  0.67736792
Direct configuration=     7
   0.99892980  0.99948712  0.43790806
   0.11093000  0.22330000  0.16024000
   0.22179542  0.11226246  0.29929312
   0.33254350  0.99985851  0.43776562
   0.44426000  0.22330000  0.16024000
   0.55464251  0.11150319  0.29820827
   0.66568565 -0.00001381  0.43677249
   0.77760000  0.22330000  0.16024000
   0.88854191  0.11176091  0.29865540
   0.99805427  0.33298779  0.43775991
   0.11093000  0.55664000  0.16024000
   0.22165552  0.44467191  0.29911146
   0.33186495  0.33278290  0.44036195
   0.44426000  0.55664000  0.16024000
   0.55378570  0.44449675  0.29879998
   0.66529153  0.33323707  0.43662621
   0.77760000  0.55664000  0.16024000
   0.88819516  0.44478906  0.29814069
   0.99879274  0.66642572  0.43642287
   0.11093000  0.88997000  0.16024000
   0.22179284  0.77844883  0.29838641
   0.33300471  0.66719118  0.43735057
   0.44426000  0.88997000  0.16024000
   0.55466955  0.77820053  0.29817817
   0.66579233  0.66664674  0.43664207
   0.77760000  0.88997000  0.16024000
   0.88830025  0.77863166  0.29811258
   0.99982000  0.00108000  0.02337000
   0.33315000  0.00108000  0.02337000
   0.66649000  0.00108000  0.02337000
   0.99982000  0.33441000  0.02337000
   0.33315000  0.33441000  0.02337000
   0.66649000  0.33441000  0.02337000
   0.99982000  0.66775000  0.02337000
   0.33315000  0.66775000  0.02337000
   0.66649000  0.66775000  0.02337000
   0.23533031  0.15253754  0.65915635
   0.24776375  0.29648810  0.64289492
   0.22246014  0.00987079  0.67735204
Direct configuration=     8
   0.99893353  0.99950141  0.43788528
   0.11093000  0.22330000  0.16024000
   0.22179513  0.11225676  0.29929132
   0.33253527  0.99985678  0.43775114
   0.44426000  0.22330000  0.16024000
   0.55464647  0.11150526  0.29821130
   0.66568535 -0.00001528  0.43677510
   0.77760000  0.22330000  0.16024000
   0.88853938  0.11175859  0.29864962
   0.99809032  0.33300126  0.43774343
   0.11093000  0.55664000  0.16024000
   0.22165639  0.44467551  0.29911384
   0.33186560  0.33280840  0.44029593
   0.44426000  0.55664000  0.16024000
   0.55379714  0.44450018  0.29879766
   0.66529208  0.33323238  0.43663552
   0.77760000  0.55664000  0.16024000
   0.88819504  0.44479134  0.29814321
   0.99880569  0.66643334  0.43643186
   0.11093000  0.88997000  0.16024000
   0.22178976  0.77844762  0.29838430
   0.33297518  0.66716621  0.43734337
   0.44426000  0.88997000  0.16024000
   0.55467314  0.77820114  0.29817717
   0.66578325  0.66664637  0.43664887
   0.77760000  0.88997000  0.16024000
   0.88829854  0.77862525  0.29811601
   0.99982000  0.00108000  0.02337000
   0.33315000  0.00108000  0.02337000
   0.66649000  0.00108000  0.02337000
   0.99982000  0.33441000  0.02337000
   0.33315000  0.33441000  0.02337000
   0.66649000  0.33441000  0.02337000
   0.99982000  0.66775000  0.02337000
   0.33315000  0.66775000  0.02337000
   0.66649000  0.66775000  0.02337000
   0.23531179  0.15278203  0.65914351
   0.24775082  0.29639735  0.64279539
   0.22245036  0.00979171  0.67728187
Direct configuration=     9
   0.99893635  0.99951257  0.43786655
   0.11093000  0.22330000  0.16024000
   0.22179480  0.11225167  0.29928902
   0.33252874  0.99985538  0.43773918
   0.44426000  0.22330000  0.16024000
   0.55464989  0.11150706  0.29821377
   0.66568502 -0.00001650  0.43677703
   0.77760000  0.22330000  0.16024000
   0.88853714  0.11175667  0.29864463
   0.99811777  0.33301120  0.43772996
   0.11093000  0.55664000  0.16024000
   0.22165701  0.44467874  0.29911482
   0.33186736  0.33282954  0.44024194
   0.44426000  0.55664000  0.16024000
   0.55380729  0.44450327  0.29879545
   0.66529293  0.33322871  0.43664274
   0.77760000  0.55664000  0.16024000
   0.88819486  0.44479325  0.29814535
   0.99881505  0.66643916  0.43643916
   0.11093000  0.88997000  0.16024000
   0.22178717  0.77844651  0.29838244
   0.33295147  0.66714670  0.43733721
   0.44426000  0.88997000  0.16024000
   0.55467611  0.77820160  0.29817643
   0.66577617  0.66664626  0.43665410
   0.77760000  0.88997000  0.16024000
   0.88829704  0.77861970  0.29811880
   0.99982000  0.00108000  0.02337000
   0.33315000  0.00108000  0.02337000
   0.66649000  0.00108000  0.02337000
   0.99982000  0.33441000  0.02337000
   0.33315000  0.33441000  0.02337000
   0.66649000  0.33441000  0.02337000
   0.99982000  0.66775000  0.02337000
   0.33315000  0.66775000  0.02337000
   0.66649000  0.66775000  0.02337000
   0.23527255  0.15270053  0.65915803
   0.24775075  0.29646594  0.64269589
   0.22245359  0.00987187  0.67720599
Direct configuration=    10
   0.99893950  0.99952571  0.43784347
   0.11093000  0.22330000  0.16024000
   0.22179439  0.11224528  0.29928552
   0.33252027  0.99985368  0.43772443
   0.44426000  0.22330000  0.16024000
   0.55465426  0.11150934  0.29821681
   0.66568460 -0.00001793  0.43677951
   0.77760000  0.22330000  0.16024000
   0.88853419  0.11175433  0.29863832
   0.99815036  0.33302368  0.43771348
   0.11093000  0.55664000  0.16024000
   0.22165772  0.44468295  0.29911518
   0.33187061  0.33285526  0.44017503
   0.44426000  0.55664000  0.16024000
   0.55382022  0.44450727  0.29879249
   0.66529433  0.33322440  0.43665217
   0.77760000  0.55664000  0.16024000
   0.88819462  0.44479562  0.29814806
   0.99882527  0.66644536  0.43644850
   0.11093000  0.88997000  0.16024000
   0.22178399  0.77844512  0.29838006
   0.33292284  0.66712371  0.43732984
   0.44426000  0.88997000  0.16024000
   0.55467978  0.77820224  0.29817563
   0.66576789  0.66664644  0.43666098
   0.77760000  0.88997000  0.16024000
   0.88829510  0.77861275  0.29812224
   0.99982000  0.00108000  0.02337000
   0.33315000  0.00108000  0.02337000
   0.66649000  0.00108000  0.02337000
   0.99982000  0.33441000  0.02337000
   0.33315000  0.33441000  0.02337000
   0.66649000  0.33441000  0.02337000
   0.99982000  0.66775000  0.02337000
   0.33315000  0.66775000  0.02337000
   0.66649000  0.66775000  0.02337000
   0.23524528  0.15282292  0.65914084
   0.24773961  0.29644001  0.64258569
   0.22244636  0.00985993  0.67712771
Direct configuration=    11
   0.99894281  0.99954144  0.43781477
   0.11093000  0.22330000  0.16024000
   0.22179389  0.11223701  0.29928016
   0.33250973  0.99985183  0.43770657
   0.44426000  0.22330000  0.16024000
   0.55465999  0.11151223  0.29822049
   0.66568399 -0.00001962  0.43678255
   0.77760000  0.22330000  0.16024000
   0.88853021  0.11175145  0.29863028
   0.99818660  0.33303686  0.43769280
   0.11093000  0.55664000  0.16024000
   0.22165913  0.44468804  0.29911438
   0.33187393  0.33288460  0.44009179
   0.44426000  0.55664000  0.16024000
   0.55383705  0.44451324  0.29878890
   0.66529656  0.33321934  0.43666383
   0.77760000  0.55664000  0.16024000
   0.88819426  0.44479862  0.29815144
   0.99883719  0.66645305  0.43646022
   0.11093000  0.88997000  0.16024000
   0.22178019  0.77844339  0.29837695
   0.33288879  0.66709735  0.43732078
   0.44426000  0.88997000  0.16024000
   0.55468442  0.77820322  0.29817474
   0.66575839  0.66664723  0.43666950
   0.77760000  0.88997000  0.16024000
   0.88829258  0.77860394  0.29812640
   0.99982000  0.00108000  0.02337000
   0.33315000  0.00108000  0.02337000
   0.66649000  0.00108000  0.02337000
   0.99982000  0.33441000  0.02337000
   0.33315000  0.33441000  0.02337000
   0.66649000  0.33441000  0.02337000
   0.99982000  0.66775000  0.02337000
   0.33315000  0.66775000  0.02337000
   0.66649000  0.66775000  0.02337000
   0.23519873  0.15281480  0.65912716
   0.24773052  0.29648999  0.64243802
   0.22244264  0.00992960  0.67702073
Direct configuration=    12
   0.99894643  0.99955957  0.43778139
   0.11093000  0.22330000  0.16024000
   0.22179323  0.11222695  0.29927213
   0.33249825  0.99985021  0.43768601
   0.44426000  0.22330000  0.16024000
   0.55466601  0.11151349  0.29822379
   0.66568312 -0.00002150  0.43678644
   0.77760000  0.22330000  0.16024000
   0.88852527  0.11174814  0.29862020
   0.99822621  0.33305119  0.43766905
   0.11093000  0.55664000  0.16024000
   0.22166066  0.44469457  0.29911138
   0.33188106  0.33291795  0.43999457
   0.44426000  0.55664000  0.16024000
   0.55385631  0.44452023  0.29878402
   0.66529832  0.33321241  0.43667772
   0.77760000  0.55664000  0.16024000
   0.88819377  0.44480219  0.29815517
   0.99885038  0.66646256  0.43647402
   0.11093000  0.88997000  0.16024000
   0.22177654  0.77844253  0.29837315
   0.33285009  0.66706851  0.43731035
   0.44426000  0.88997000  0.16024000
   0.55468982  0.77820444  0.29817359
   0.66574780  0.66664863  0.43667984
   0.77760000  0.88997000  0.16024000
   0.88828944  0.77859342  0.29813088
   0.99982000  0.00108000  0.02337000
   0.33315000  0.00108000  0.02337000
   0.66649000  0.00108000  0.02337000
   0.99982000  0.33441000  0.02337000
   0.33315000  0.33441000  0.02337000
   0.66649000  0.33441000  0.02337000
   0.99982000  0.66775000  0.02337000
   0.33315000  0.66775000  0.02337000
   0.66649000  0.66775000  0.02337000
   0.23516379  0.15298595  0.65907525
   0.24771028  0.29645948  0.64227972
   0.22242767  0.00992164  0.67691144
Direct configuration=    13
   0.99894937  0.99957535  0.43775006
   0.11093000  0.22330000  0.16024000
   0.22179292  0.11221729  0.29926284
   0.33248819  0.99984897  0.43766725
   0.44426000  0.22330000  0.16024000
   0.55467221  0.11151527  0.29822713
   0.66568196 -0.00002328  0.43678952
   0.77760000  0.22330000  0.16024000
   0.88852031  0.11174507  0.29861016
   0.99826035  0.33306433  0.43764618
   0.11093000  0.55664000  0.16024000
   0.22166105  0.44469995  0.29910599
   0.33188936  0.33294859  0.43990374
   0.44426000  0.55664000  0.16024000
   0.55387649  0.44452751  0.29877860
   0.66530120  0.33320770  0.43668988
   0.77760000  0.55664000  0.16024000
   0.88819338  0.44480513  0.29815866
   0.99886149  0.66647124  0.43648659
   0.11093000  0.88997000  0.16024000
   0.22177247  0.77844116  0.29836944
   0.33281464  0.66704389  0.43729984
   0.44426000  0.88997000  0.16024000
   0.55469495  0.77820539  0.29817298
   0.66573914  0.66665071  0.43668860
   0.77760000  0.88997000  0.16024000
   0.88828622  0.77858273  0.29813525
   0.99982000  0.00108000  0.02337000
   0.33315000  0.00108000  0.02337000
   0.66649000  0.00108000  0.02337000
   0.99982000  0.33441000  0.02337000
   0.33315000  0.33441000  0.02337000
   0.66649000  0.33441000  0.02337000
   0.99982000  0.66775000  0.02337000
   0.33315000  0.66775000  0.02337000
   0.66649000  0.66775000  0.02337000
   0.23510989  0.15287271  0.65904635
   0.24770108  0.29656918  0.64211713
   0.22242339  0.01005594  0.67679418
Direct configuration=    14
   0.99895065  0.99958383  0.43773241
   0.11093000  0.22330000  0.16024000
   0.22179287  0.11221149  0.29925655
   0.33248280  0.99984829  0.43765645
   0.44426000  0.22330000  0.16024000
   0.55467615  0.11151636  0.29822878
   0.66568143 -0.00002383  0.43679100
   0.77760000  0.22330000  0.16024000
   0.88851687  0.11174313  0.29860388
   0.99827877  0.33307154  0.43763330
   0.11093000  0.55664000  0.16024000
   0.22166124  0.44470368  0.29910144
   0.33189430  0.33296605  0.43985227
   0.44426000  0.55664000  0.16024000
   0.55388857  0.44453183  0.29877455
   0.66530339  0.33320529  0.43669717
   0.77760000  0.55664000  0.16024000
   0.88819305  0.44480697  0.29816053
   0.99886732  0.66647620  0.43649382
   0.11093000  0.88997000  0.16024000
   0.22177010  0.77844021  0.29836695
   0.33279560  0.66703101  0.43729430
   0.44426000  0.88997000  0.16024000
   0.55469801  0.77820614  0.29817250
   0.66573466  0.66665236  0.43669385
   0.77760000  0.88997000  0.16024000
   0.88828415  0.77857623  0.29813751
   0.99982000  0.00108000  0.02337000
   0.33315000  0.00108000  0.02337000
   0.66649000  0.00108000  0.02337000
   0.99982000  0.33441000  0.02337000
   0.33315000  0.33441000  0.02337000
   0.66649000  0.33441000  0.02337000
   0.99982000  0.66775000  0.02337000
   0.33315000  0.66775000  0.02337000
   0.66649000  0.66775000  0.02337000
   0.23510570  0.15308700  0.65899197
   0.24768358  0.29649355  0.64204408
   0.22240752  0.00999084  0.67674772
Direct configuration=    15
   0.99895165  0.99959036  0.43771827
   0.11093000  0.22330000  0.16024000
   0.22179276  0.11220683  0.29925154
   0.33247872  0.99984793  0.43764789
   0.44426000  0.22330000  0.16024000
   0.55467910  0.11151779  0.29823007
   0.66568101 -0.00002427  0.43679222
   0.77760000  0.22330000  0.16024000
   0.88851424  0.11174160  0.29859909
   0.99829237  0.33307650  0.43762318
   0.11093000  0.55664000  0.16024000
   0.22166137  0.44470668  0.29909769
   0.33189850  0.33297970  0.43981190
   0.44426000  0.55664000  0.16024000
   0.55389815  0.44453524  0.29877140
   0.66530486  0.33320332  0.43670226
   0.77760000  0.55664000  0.16024000
   0.88819277  0.44480829  0.29816200
   0.99887167  0.66648006  0.43649965
   0.11093000  0.88997000  0.16024000
   0.22176840  0.77843947  0.29836504
   0.33278130  0.66702148  0.43728965
   0.44426000  0.88997000  0.16024000
   0.55470032  0.77820666  0.29817222
   0.66573154  0.66665399  0.43669756
   0.77760000  0.88997000  0.16024000
   0.88828251  0.77857125  0.29813924
   0.99982000  0.00108000  0.02337000
   0.33315000  0.00108000  0.02337000
   0.66649000  0.00108000  0.02337000
   0.99982000  0.33441000  0.02337000
   0.33315000  0.33441000  0.02337000
   0.66649000  0.33441000  0.02337000
   0.99982000  0.66775000  0.02337000
   0.33315000  0.66775000  0.02337000
   0.66649000  0.66775000  0.02337000
   0.23508277  0.15302134  0.65897638
   0.24768006  0.29654960  0.64197641
   0.22240520  0.01005709  0.67669894
Direct configuration=    16
   0.99895436  0.99959893  0.43769962
   0.11093000  0.22330000  0.16024000
   0.22179249  0.11220063  0.29924368
   0.33247296  0.99984788  0.43763623
   0.44426000  0.22330000  0.16024000
   0.55468309  0.11152007  0.29823144
   0.66568063 -0.00002460  0.43679437
   0.77760000  0.22330000  0.16024000
   0.88851114  0.11173989  0.29859195
   0.99831100  0.33308318  0.43760945
   0.11093000  0.55664000  0.16024000
   0.22166138  0.44471061  0.29909152
   0.33190420  0.33299819  0.43975608
   0.44426000  0.55664000  0.16024000
   0.55391057  0.44453942  0.29876684
   0.66530685  0.33320089  0.43670991
   0.77760000  0.55664000  0.16024000
   0.88819255  0.44481023  0.29816370
   0.99887745  0.66648545  0.43650813
   0.11093000  0.88997000  0.16024000
   0.22176581  0.77843842  0.29836199
   0.33276159  0.66700870  0.43728411
   0.44426000  0.88997000  0.16024000
   0.55470337  0.77820719  0.29817155
   0.66572730  0.66665619  0.43670331
   0.77760000  0.88997000  0.16024000
   0.88828068  0.77856465  0.29814082
   0.99982000  0.00108000  0.02337000
   0.33315000  0.00108000  0.02337000
   0.66649000  0.00108000  0.02337000
   0.99982000  0.33441000  0.02337000
   0.33315000  0.33441000  0.02337000
   0.66649000  0.33441000  0.02337000
   0.99982000  0.66775000  0.02337000
   0.33315000  0.66775000  0.02337000
   0.66649000  0.66775000  0.02337000
   0.23506491  0.15308485  0.65893294
   0.24766796  0.29655055  0.64189034
   0.22239437  0.01007160  0.67664025
Direct configuration=    17
   0.99895793  0.99961087  0.43767472
   0.11093000  0.22330000  0.16024000
   0.22179204  0.11219156  0.29923256
   0.33246572  0.99984773  0.43762028
   0.44426000  0.22330000  0.16024000
   0.55468886  0.11152292  0.29823359
   0.66567990 -0.00002515  0.43679664
   0.77760000  0.22330000  0.16024000
   0.88850602  0.11173713  0.29858256
   0.99833480  0.33309213  0.43759129
   0.11093000  0.55664000  0.16024000
   0.22166139  0.44471674  0.29908257
   0.33191217  0.33302141  0.43968158
   0.44426000  0.55664000  0.16024000
   0.55392860  0.44454575  0.29876065
   0.66530996  0.33319783  0.43671983
   0.77760000  0.55664000  0.16024000
   0.88819203  0.44481293  0.29816636
   0.99888464  0.66649254  0.43651901
   0.11093000  0.88997000  0.16024000
   0.22176244  0.77843683  0.29835815
   0.33273594  0.66699311  0.43727688
   0.44426000  0.88997000  0.16024000
   0.55470761  0.77820822  0.29817109
   0.66572206  0.66665952  0.43671058
   0.77760000  0.88997000  0.16024000
   0.88827780  0.77855526  0.29814326
   0.99982000  0.00108000  0.02337000
   0.33315000  0.00108000  0.02337000
   0.66649000  0.00108000  0.02337000
   0.99982000  0.33441000  0.02337000
   0.33315000  0.33441000  0.02337000
   0.66649000  0.33441000  0.02337000
   0.99982000  0.66775000  0.02337000
   0.33315000  0.66775000  0.02337000
   0.66649000  0.66775000  0.02337000
   0.23503730  0.15311461  0.65887852
   0.24765391  0.29658043  0.64177332
   0.22238163  0.01011918  0.67655968
Direct configuration=    18
   0.99896150  0.99962576  0.43764266
   0.11093000  0.22330000  0.16024000
   0.22179196  0.11217985  0.29921734
   0.33245643  0.99984800  0.43759975
   0.44426000  0.22330000  0.16024000
   0.55469642  0.11152676  0.29823649
   0.66567881 -0.00002576  0.43679918
   0.77760000  0.22330000  0.16024000
   0.88849930  0.11173364  0.29857043
   0.99836442  0.33310380  0.43756776
   0.11093000  0.55664000  0.16024000
   0.22166101  0.44472492  0.29906949
   0.33192568  0.33305014  0.43958616
   0.44426000  0.55664000  0.16024000
   0.55395264  0.44455422  0.29875223
   0.66531479  0.33319450  0.43673199
   0.77760000  0.55664000  0.16024000
   0.88819129  0.44481652  0.29817013
   0.99889275  0.66650132  0.43653269
   0.11093000  0.88997000  0.16024000
   0.22175771  0.77843440  0.29835334
   0.33270533  0.66697389  0.43726778
   0.44426000  0.88997000  0.16024000
   0.55471248  0.77821072  0.29817104
   0.66571619  0.66666430  0.43671948
   0.77760000  0.88997000  0.16024000
   0.88827398  0.77854297  0.29814656
   0.99982000  0.00108000  0.02337000
   0.33315000  0.00108000  0.02337000
   0.66649000  0.00108000  0.02337000
   0.99982000  0.33441000  0.02337000
   0.33315000  0.33441000  0.02337000
   0.66649000  0.33441000  0.02337000
   0.99982000  0.66775000  0.02337000
   0.33315000  0.66775000  0.02337000
   0.66649000  0.66775000  0.02337000
   0.23500927  0.15319924  0.65880113
   0.24763398  0.29659433  0.64163520
   0.22236259  0.01015430  0.67646625
Direct configuration=    19
   0.99896587  0.99964069  0.43760710
   0.11093000  0.22330000  0.16024000
   0.22179151  0.11216531  0.29919545
   0.33244607  0.99984890  0.43757612
   0.44426000  0.22330000  0.16024000
   0.55470596  0.11153176  0.29823863
   0.66567774 -0.00002594  0.43680310
   0.77760000  0.22330000  0.16024000
   0.88849117  0.11172971  0.29855440
   0.99839802  0.33311702  0.43754148
   0.11093000  0.55664000  0.16024000
   0.22166048  0.44473567  0.29905008
   0.33194240  0.33308365  0.43947415
   0.44426000  0.55664000  0.16024000
   0.55398306  0.44456541  0.29873990
   0.66532161  0.33319165  0.43674776
   0.77760000  0.55664000  0.16024000
   0.88819057  0.44482129  0.29817354
   0.99889969  0.66651177  0.43654971
   0.11093000  0.88997000  0.16024000
   0.22175196  0.77843132  0.29834630
   0.33267079  0.66695378  0.43725807
   0.44426000  0.88997000  0.16024000
   0.55471718  0.77821224  0.29817072
   0.66571030  0.66667073  0.43673119
   0.77760000  0.88997000  0.16024000
   0.88826928  0.77852950  0.29814979
   0.99982000  0.00108000  0.02337000
   0.33315000  0.00108000  0.02337000
   0.66649000  0.00108000  0.02337000
   0.99982000  0.33441000  0.02337000
   0.33315000  0.33441000  0.02337000
   0.66649000  0.33441000  0.02337000
   0.99982000  0.66775000  0.02337000
   0.33315000  0.66775000  0.02337000
   0.66649000  0.66775000  0.02337000
   0.23497004  0.15318505  0.65872269
   0.24761664  0.29666525  0.64147640
   0.22234433  0.01024918  0.67635639
Direct configuration=    20
   0.99896739  0.99965129  0.43757472
   0.11093000  0.22330000  0.16024000
   0.22179097  0.11215323  0.29917510
   0.33243800  0.99984960  0.43755379
   0.44426000  0.22330000  0.16024000
   0.55471301  0.11153621  0.29824117
   0.66567692 -0.00002580  0.43680475
   0.77760000  0.22330000  0.16024000
   0.88848423  0.11172643  0.29854087
   0.99842484  0.33312954  0.43751758
   0.11093000  0.55664000  0.16024000
   0.22165990  0.44474581  0.29903149
   0.33195604  0.33311069  0.43937844
   0.44426000  0.55664000  0.16024000
   0.55401058  0.44457517  0.29872965
   0.66532910  0.33319021  0.43675932
   0.77760000  0.55664000  0.16024000
   0.88819019  0.44482573  0.29817754
   0.99890483  0.66652061  0.43656266
   0.11093000  0.88997000  0.16024000
   0.22174681  0.77842823  0.29834092
   0.33264256  0.66693911  0.43724782
   0.44426000  0.88997000  0.16024000
   0.55472151  0.77821351  0.29817163
   0.66570655  0.66667713  0.43673932
   0.77760000  0.88997000  0.16024000
   0.88826526  0.77851752  0.29815332
   0.99982000  0.00108000  0.02337000