 vasp.6.2.0 18Jan21 (build Jan 15 2025 16:08:48) gamma-only                     
  
 executed on             LinuxIFC date 2025.03.07  10:53:52
 running on   96 total cores
 each image running on   24 cores
 distrk:  each k-point on   24 cores,    1 groups
 distr:  one band on NCORE=   6 cores,    4 groups


--------------------------------------------------------------------------------------------------------


 INCAR:
   SYSTEM = LiMox
   LWAVE = .FALSE.
   LCHARG = .FALSE.
   ISTART = 0
   ISMEAR = 0
   SIGMA = 0.05
   ICHARG = 2
   IBRION = 2
   POTIM = 0.2
   ISIF = 2
   NSW = 1200
   NELM = 800
   NELMIN = 2
   ISYM = 0
   ISPIN = 2
   IDIPOL = 3
   LMAXMIX = 4
   ADDGRID = .TRUE.
   ALGO = VeryFast
   NELMDL = 10
   AMIX = 0.2
   BMIX = 0.00001
   AMIX_MAG = 0.8
   BMIX_MAG = 0.00001
   LREAL = Auto
   PREC = Accurate
   EDIFF = 1E-06
   EDIFFG = -0.03
   ENCUT = 400.0
   GGA = PE
   NEDOS = 903
   NPAR = 4
   NNODE = 8
   NCORE = 8
   NWRITE = 0
   IMAGES = 4
   SPRING = -5
   ICHAIN = 0
   LCLIMB = TRUE
   IOPT = 0

 POTCAR:    PAW_PBE Mo 08Apr2002                  
 POTCAR:    PAW_PBE S 06Sep2000                   
 POTCAR:    PAW_PBE Li 17Jan2003                  
 -----------------------------------------------------------------------------
|                                                                             |
|           W    W    AA    RRRRR   N    N  II  N    N   GGGG   !!!           |
|           W    W   A  A   R    R  NN   N  II  NN   N  G    G  !!!           |
|           W    W  A    A  R    R  N N  N  II  N N  N  G       !!!           |
|           W WW W  AAAAAA  RRRRR   N  N N  II  N  N N  G  GGG   !            |
|           WW  WW  A    A  R   R   N   NN  II  N   NN  G    G                |
|           W    W  A    A  R    R  N    N  II  N    N   GGGG   !!!           |
|                                                                             |
|     You use a magnetic or noncollinear calculation, but did not specify     |
|     the initial magnetic moment with the MAGMOM tag. Note that a            |
|     default of 1 will be used for all atoms. This ferromagnetic setup       |
|     may break the symmetry of the crystal, in particular it may rule        |
|     out finding an antiferromagnetic solution. Thence, we recommend         |
|     setting the initial magnetic moment manually or verifying carefully     |
|     that this magnetic setup is desired.                                    |
|                                                                             |
 -----------------------------------------------------------------------------

 -----------------------------------------------------------------------------
|                                                                             |
|           W    W    AA    RRRRR   N    N  II  N    N   GGGG   !!!           |
|           W    W   A  A   R    R  NN   N  II  NN   N  G    G  !!!           |
|           W    W  A    A  R    R  N N  N  II  N N  N  G       !!!           |
|           W WW W  AAAAAA  RRRRR   N  N N  II  N  N N  G  GGG   !            |
|           WW  WW  A    A  R   R   N   NN  II  N   NN  G    G                |
|           W    W  A    A  R    R  N    N  II  N    N   GGGG   !!!           |
|                                                                             |
|     The value NCORE = 8 specified in the INCAR file was overwritten,        |
|     because it was not compatible with the 24 processes available:          |
|     NCORE = 6                                                               |
|     was used instead, please check that this makes sense for your           |
|     machine.                                                                |
|                                                                             |
 -----------------------------------------------------------------------------

 POTCAR:    PAW_PBE Mo 08Apr2002                  
  local pseudopotential read in
  partial core-charges read in
  partial kinetic energy density read in
  atomic valenz-charges read in
  non local Contribution for L=           2  read in
    real space projection operators read in
  non local Contribution for L=           2  read in
    real space projection operators read in
  non local Contribution for L=           0  read in
    real space projection operators read in
  non local Contribution for L=           0  read in
    real space projection operators read in
  non local Contribution for L=           1  read in
    real space projection operators read in
  non local Contribution for L=           1  read in
    real space projection operators read in
    PAW grid and wavefunctions read in
 
   number of l-projection  operators is LMAX  =           6
   number of lm-projection operators is LMMAX =          18
 
 POTCAR:    PAW_PBE S 06Sep2000                   
  local pseudopotential read in
  partial core-charges read in
  partial kinetic energy density read in
  atomic valenz-charges read in
  non local Contribution for L=           0  read in
    real space projection operators read in
  non local Contribution for L=           0  read in
    real space projection operators read in
  non local Contribution for L=           1  read in
    real space projection operators read in
  non local Contribution for L=           1  read in
    real space projection operators read in
    PAW grid and wavefunctions read in
 
   number of l-projection  operators is LMAX  =           4
   number of lm-projection operators is LMMAX =           8
 
 POTCAR:    PAW_PBE Li 17Jan2003                  
  local pseudopotential read in
  partial core-charges read in
  partial kinetic energy density read in
  atomic valenz-charges read in
  non local Contribution for L=           0  read in
    real space projection operators read in
  non local Contribution for L=           0  read in
    real space projection operators read in
  non local Contribution for L=           1  read in
    real space projection operators read in
    PAW grid and wavefunctions read in
 
   number of l-projection  operators is LMAX  =           3
   number of lm-projection operators is LMMAX =           5
 
 Optimization of the real space projectors (new method)

 maximal supplied QI-value         = 13.61
 optimisation between [QCUT,QGAM] = [ 10.20, 20.41] = [ 29.16,116.64] Ry 
 Optimized for a Real-space Cutoff    1.65 Angstroem

   l    n(q)    QCUT    max X(q) W(low)/X(q) W(high)/X(q)  e(spline) 
   2      9    10.205    80.908    0.21E-03    0.30E-03    0.60E-06
   2      9    10.205    79.000    0.21E-03    0.30E-03    0.60E-06
   0     10    10.205    52.066    0.39E-04    0.38E-04    0.19E-06
   0     10    10.205    24.514    0.33E-04    0.32E-04    0.16E-06
   1     10    10.205    16.033    0.64E-04    0.17E-03    0.19E-06
   1     10    10.205    11.179    0.49E-04    0.13E-03    0.15E-06
 Optimization of the real space projectors (new method)

 maximal supplied QI-value         = 19.84
 optimisation between [QCUT,QGAM] = [ 10.12, 20.44] = [ 28.68,116.96] Ry 
 Optimized for a Real-space Cutoff    1.42 Angstroem

   l    n(q)    QCUT    max X(q) W(low)/X(q) W(high)/X(q)  e(spline) 
   0      9    10.119   187.594    0.52E-04    0.93E-04    0.64E-07
   0      9    10.119   164.243    0.51E-04    0.92E-04    0.63E-07
   1      8    10.119    67.533    0.16E-03    0.17E-03    0.23E-06
   1      8    10.119    50.729    0.16E-03    0.16E-03    0.23E-06
 Optimization of the real space projectors (new method)

 maximal supplied QI-value         = 18.33
 optimisation between [QCUT,QGAM] = [ 10.08, 20.35] = [ 28.46,115.93] Ry 
 Optimized for a Real-space Cutoff    1.30 Angstroem

   l    n(q)    QCUT    max X(q) W(low)/X(q) W(high)/X(q)  e(spline) 
   0      8    10.082    33.825    0.15E-03    0.68E-04    0.45E-07
   0      8    10.082     8.944    0.11E-03    0.57E-04    0.35E-07
   1      7    10.082     4.214    0.54E-04    0.21E-03    0.44E-07
  PAW_PBE Mo 08Apr2002                  :
 energy of atom  1       EATOM= -217.5176
 kinetic energy error for atom=    0.0025 (will be added to EATOM!!)
  PAW_PBE S 06Sep2000                   :
 energy of atom  2       EATOM= -276.8230
 kinetic energy error for atom=    0.0046 (will be added to EATOM!!)
  PAW_PBE Li 17Jan2003                  :
 energy of atom  3       EATOM=   -5.3001
 kinetic energy error for atom=    0.0000 (will be added to EATOM!!)
 
 
 POSCAR: Mo  S Li
  positions in cartesian coordinates
  No initial velocities read in
 exchange correlation table for  LEXCH =        8
   RHO(1)=    0.500       N(1)  =     2000
   RHO(2)=  100.500       N(2)  =     4000

 VTST: version 4.0, (05/15/20)

 CHAIN: initializing optimizer
 
 OPT: Using VASP Conjugate-Gradient optimizer
 CHAIN: Read ICHAIN            0
 CHAIN: Running the NEB
 NEB:          SPRING     -5.000000
 NEB:          LCLIMB      T
 NEB:     LTANGENTOLD      F
 NEB:           LDNEB      F
 NEB:        LDNEBORG      F
 NEB:        LNEBCELL      F
 NEB:          EFIRST      0.000000
 NEB:           ELAST      0.000000
 
 POSCAR: Mo  S Li
  positions in cartesian coordinates
  No initial velocities read in
 
 POSCAR: Mo  S Li
  positions in cartesian coordinates
  No initial velocities read in
 
 POSCAR: Mo  S Li
  positions in cartesian coordinates
  No initial velocities read in
 
 POSCAR: Mo  S Li
  positions in cartesian coordinates
  No initial velocities read in
 


--------------------------------------------------------------------------------------------------------


 ion  position               nearest neighbor table
   1  0.536  0.088  0.673- 135 2.30  52 2.33  99 2.35 209 2.39 174 2.57 203 2.61  36 2.75  25 2.82

   2  0.864  0.423  0.657-  95 2.13 112 2.38 131 2.39  64 2.40 211 2.45 149 2.46 191 2.86  19 3.26

   3  0.762  0.562  0.013- 115 2.33 187 2.38 221 2.41  58 2.45 256 2.46 249 2.52  12 2.96  47 2.99

   4  0.898  0.797  0.840- 217 2.13 178 2.26 201 2.29 177 2.43 167 2.94  13 2.97  17 3.30  22 3.46

   5  0.279  0.462  0.163- 165 2.34 146 2.39  71 2.39 128 2.42 219 2.42 106 2.45 120 2.47  28 2.67

   6  0.535  0.532  0.376- 157 2.31 109 2.34  89 2.39 244 2.44 183 2.51 142 2.55  30 2.71  20 3.11

   7  0.645  0.913  0.739- 108 2.34 204 2.37 224 2.40 223 2.42 214 2.49 175 2.55  37 3.15  36 3.28

   8  0.061  0.977  0.738- 132 2.22 153 2.35 248 2.39 156 2.44 102 2.51 240 2.59 197 2.64  10 2.89

   9  0.762  0.246  0.136-  77 2.27  79 2.29  76 2.31  78 2.34 145 2.44  14 2.78
  10  0.973  0.908  0.735-  94 2.37 182 2.38 132 2.44 248 2.47 177 2.49 156 2.51  17 2.74   8 2.89
                            22 2.92
  11  0.365  0.964  0.083- 230 2.22  53 2.38  59 2.40  97 2.46 105 2.49 220 2.49  16 2.84
  12  0.704  0.507  0.117- 221 2.23 207 2.30  91 2.33 115 2.34  84 2.38   3 2.96
  13  0.908  0.684  0.739- 228 2.32 130 2.37 178 2.43  66 2.45 201 2.47 246 2.66  34 2.76   4 2.97

  14  0.877  0.264  0.189-  78 2.29 122 2.29  79 2.36 253 2.41 252 2.43 181 2.54   9 2.78
  15  0.184  0.541  0.554-  57 2.23 199 2.29 159 2.42  80 2.47 243 2.48 161 2.56  40 2.74
  16  0.417  0.919  0.960- 220 2.34 105 2.36 241 2.38 232 2.50 198 2.56 230 2.59  11 2.84  32 2.86
                            39 2.92
  17  0.884  0.933  0.766- 167 2.23 236 2.31  94 2.35 177 2.36 193 2.49  10 2.74  22 2.96   4 3.30

  18  0.626  0.071  0.230- 137 2.39 133 2.44 136 2.45 234 2.45  56 2.46 147 2.52  38 2.73  27 2.93
                            24 2.99  32 3.08
  19  0.728  0.385  0.567-  64 2.32 168 2.39  73 2.43 216 2.47 227 2.48 191 2.50 112 2.71  30 2.86
                             2 3.26
  20  0.587  0.490  0.225- 143 2.32 212 2.43 207 2.45  89 2.46 183 2.48 168 2.54 255 2.57  30 2.81
                             6 3.11
  21  0.350  0.087  0.316- 121 2.22  59 2.26  54 2.36 203 2.43 124 2.48  48 2.81  52 3.05
  22  0.849  0.854  0.536- 238 2.32 182 2.33  94 2.43 167 2.44 201 2.58  62 2.72  10 2.92  17 2.96
                             4 3.46
  23  0.210  0.684  0.493- 205 2.29 161 2.35  68 2.41 192 2.45  88 2.55  80 2.57  45 2.69  41 2.85
                           257 3.07
  24  0.490  0.104  0.073- 213 2.38 137 2.43 210 2.45 218 2.45 136 2.50 105 2.59  26 2.82  32 2.97
                            44 2.99  18 2.99
  25  0.602  0.081  0.568- 224 2.38  52 2.39  99 2.40 206 2.42 111 2.57 136 2.67   1 2.82  36 2.86
                            37 2.98
  26  0.481  0.193  0.919- 213 2.28 210 2.39 174 2.41 235 2.46 170 2.48 154 2.60  44 2.72  24 2.82
                            27 3.07
  27  0.626  0.174  0.107-  56 2.38 145 2.47  76 2.51 174 2.54 133 2.54 154 2.59 213 2.63  38 2.81
                            18 2.93  26 3.07
  28  0.257  0.352  0.075- 165 2.29 200 2.47 123 2.47 104 2.47 120 2.48  71 2.49 146 2.60   5 2.67
                            43 3.21
  29  0.835  0.968  0.036- 113 2.15 117 2.28 175 2.34 141 2.43 193 2.57  37 2.91
  30  0.606  0.436  0.444-  89 2.35 157 2.37 168 2.40  73 2.44 227 2.49 255 2.50   6 2.71  20 2.81
                            19 2.86
  31  0.339  0.777  0.254- 176 2.31 148 2.39 231 2.39 251 2.43  98 2.53  93 2.59 245 2.60  35 2.79

  32  0.527  0.985  0.174-  82 2.38 136 2.39 241 2.42 137 2.42 105 2.42  97 2.53  39 2.82  16 2.86
                            24 2.97  18 3.08
  33  0.018  0.193  0.948- 164 2.17  96 2.35 101 2.42 188 2.54 126 2.56  61 2.57 184 2.63  42 2.85

  34  0.870  0.677  0.477- 233 2.13 130 2.31 228 2.36 254 2.38  62 2.47  13 2.76
  35  0.211  0.750  0.046- 251 2.21 231 2.33 155 2.37 169 2.42 185 2.42  93 2.45  31 2.79
  36  0.520  0.991  0.519- 224 2.33 135 2.37  52 2.41 223 2.45  97 2.48 124 2.74   1 2.75  25 2.86
                             7 3.28
  37  0.720  0.028  0.812- 111 2.22 117 2.31 175 2.32  99 2.40 224 2.68  29 2.91  25 2.98   7 3.15

  38  0.738  0.124  0.336- 160 2.31  56 2.34 133 2.34 125 2.43 145 2.44 234 2.54  18 2.73  27 2.81

  39  0.516  0.874  0.232- 241 2.40  82 2.42 150 2.44  60 2.45 220 2.45  97 2.49 166 2.58  32 2.82
                            16 2.92
  40  0.190  0.466  0.721- 159 2.37  57 2.40 103 2.44  83 2.46 243 2.52 146 2.55  86 2.59  15 2.74

  41  0.345  0.669  0.681- 161 2.30 192 2.32  92 2.38 242 2.39 151 2.44  50 2.63  23 2.85  45 2.89
                           257 2.98
  42  0.104  0.177  0.892- 247 2.30 188 2.42 240 2.44 101 2.44 195 2.46  61 2.58  33 2.85  43 2.91
                            48 3.41
  43  0.218  0.223  0.953- 247 2.29  74 2.36 195 2.37 200 2.43 104 2.49 123 2.62  42 2.91  48 3.01
                            28 3.21
  44  0.377  0.181  0.901- 218 2.25 210 2.31 152 2.32 235 2.36 170 2.61  26 2.72  24 2.99
  45  0.279  0.765  0.695- 205 2.30 192 2.31 139 2.37 151 2.48 144 2.51 198 2.66  23 2.69  41 2.89

  46  0.209  0.247  0.312- 225 2.23 129 2.35  72 2.40 188 2.47 123 2.49 180 2.57  48 2.87
  47  0.866  0.580  0.001- 256 2.19 249 2.22  67 2.32 246 2.38  63 2.44   3 2.99
  48  0.253  0.169  0.205- 195 2.36  54 2.39 121 2.46 123 2.47 225 2.54 188 2.60  21 2.81  46 2.87
                            43 3.01  42 3.41
  49  0.225  0.884  0.253- 194 2.09  93 2.12
  50  0.414  0.584  0.695-  92 2.04 162 2.32  41 2.63
  51  0.049  0.779  0.331- 229 2.08 138 2.09
  52  0.490  0.088  0.441-   1 2.33  25 2.39  36 2.41  21 3.05
  53  0.311  0.929  0.158- 176 2.07  11 2.38
  54  0.365  0.186  0.364- 186 2.21  21 2.36  48 2.39
  55  0.037  0.469  0.645-  83 2.05 100 2.05
  56  0.670  0.084  0.111-  38 2.34  27 2.38  18 2.46
  57  0.098  0.502  0.506-  15 2.23  40 2.40
  58  0.691  0.634  0.842- 208 2.07   3 2.45
  59  0.345  0.057  0.134-  21 2.26  11 2.40
  60  0.603  0.806  0.309- 150 2.00  39 2.45
  61  0.081  0.275  0.952- 184 2.09  33 2.57  42 2.58
  62  0.836  0.770  0.363- 254 2.05  34 2.47  22 2.72
  63  0.960  0.542  0.035-  67 2.05  47 2.44
  64  0.774  0.473  0.608-  19 2.32   2 2.40
  65  0.178  0.056  0.416-  90 2.07 202 2.09
  66  0.987  0.608  0.822- 196 2.03  13 2.45
  67  0.949  0.524  0.177-  63 2.05  47 2.32
  68  0.139  0.737  0.286-  88 2.03  23 2.41
  69  0.675  0.224  0.682- 206 2.05 158 2.06
  70  0.015  0.061  0.404- 237 1.99 116 2.11
  71  0.223  0.400  0.200- 120 2.08   5 2.39  28 2.49
  72  0.156  0.224  0.401- 180 2.05  46 2.40
  73  0.694  0.428  0.690- 227 2.04  19 2.43  30 2.44
  74  0.249  0.161  0.848- 152 2.08  43 2.36
  75  0.554  0.736  0.912- 163 2.02  87 2.22
  76  0.665  0.200  0.981-   9 2.31  27 2.51
  77  0.738  0.339  0.076- 122 2.13   9 2.27
  78  0.866  0.240  0.348-  14 2.29   9 2.34
  79  0.789  0.208  0.009-   9 2.29  14 2.36
  80  0.115  0.617  0.392- 119 2.12  15 2.47  23 2.57
  81  0.403  0.624  0.305-  98 2.12 142 2.13
  82  0.609  0.936  0.376-  32 2.38  39 2.42 224 2.49
  83  0.126  0.503  0.787-  55 2.05  40 2.46
  84  0.602  0.463  0.954- 143 2.04  12 2.38 115 2.79
  85  0.273  0.471  0.457- 199 1.96
  86  0.259  0.393  0.709- 172 2.03  40 2.59 159 2.68
  87  0.562  0.643  0.876- 162 1.96  75 2.22
  88  0.166  0.663  0.246-  68 2.03 257 2.42  23 2.55
  89  0.643  0.528  0.463-  30 2.35   6 2.39  20 2.46
  90  0.222  0.024  0.609- 239 2.04  65 2.07
  91  0.805  0.468  0.271- 187 2.04  12 2.33
  92  0.402  0.656  0.597-  50 2.04  41 2.38 257 2.62
  93  0.248  0.796  0.264-  49 2.12  35 2.45  31 2.59
  94  0.875  0.955  0.573-  17 2.35  10 2.37  22 2.43
  95  0.897  0.492  0.614-   2 2.13
  96  0.015  0.259  0.090- 180 2.11  33 2.35
  97  0.480  0.961  0.285-  11 2.46  36 2.48  39 2.49  32 2.53
  98  0.434  0.711  0.351- 148 2.00  81 2.12  31 2.53
  99  0.648  0.092  0.805-   1 2.35  25 2.40  37 2.40
 100  0.054  0.383  0.646-  55 2.05 103 2.06
 101  0.989  0.188  0.721- 184 2.15  33 2.42  42 2.44
 102  0.988  0.062  0.630- 240 2.08 237 2.19   8 2.51
 103  0.129  0.377  0.642- 100 2.06  40 2.44
 104  0.316  0.279  0.049- 200 2.08  28 2.47  43 2.49
 105  0.418  0.018  0.014-  16 2.36  32 2.42  11 2.49  24 2.59
 106  0.257  0.560  0.082- 128 2.08   5 2.45
 107  0.431  0.856  0.621- 245 1.99 114 2.21
 108  0.635  0.914  0.910- 214 2.05   7 2.34 135 2.78
 109  0.567  0.616  0.510- 142 2.03   6 2.34
 110  0.482  0.331  0.726- 171 2.01 140 2.13
 111  0.720  0.084  0.674-  37 2.22  25 2.57
 112  0.780  0.377  0.442- 131 2.04   2 2.38  19 2.71
 113  0.816  0.920  0.148-  29 2.15
 114  0.358  0.872  0.646- 232 2.04 198 2.09 107 2.21
 115  0.690  0.486  0.916-   3 2.33  12 2.34  84 2.79
 116  0.053  0.145  0.451- 250 2.01  70 2.11
 117  0.799  0.057  0.039-  29 2.28  37 2.31
 118  0.595  0.779  0.553- 166 2.06 204 2.06
 119  0.054  0.647  0.432- 229 2.03  80 2.12
 120  0.170  0.422  0.995-  71 2.08   5 2.47  28 2.48
 121  0.256  0.068  0.254-  21 2.22  48 2.46
 122  0.829  0.352  0.128-  77 2.13  14 2.29 252 2.78
 123  0.237  0.273  0.167-  28 2.47  48 2.47  46 2.49  43 2.62
 124  0.400  0.997  0.440- 203 2.07  21 2.48  36 2.74
 125  0.842  0.137  0.562- 160 2.02  38 2.43
 126  0.904  0.207  0.857- 215 2.03  33 2.56
 127  0.101  0.531  0.066- 196 1.94
 128  0.266  0.548  0.256- 106 2.08 219 2.08   5 2.42 257 2.74
 129  0.258  0.326  0.465- 172 2.11  46 2.35
 130  0.831  0.621  0.554-  34 2.31  13 2.37
 131  0.866  0.337  0.551- 112 2.04   2 2.39
 132  0.985  0.922  0.561-   8 2.22  10 2.44
 133  0.662  0.165  0.348-  38 2.34  18 2.44  27 2.54 213 2.57
 134  0.495  0.270  0.491- 186 2.02 171 2.15
 135  0.544  0.995  0.736-   1 2.30  36 2.37 108 2.78
 136  0.567  0.071  0.316-  32 2.39  18 2.45  24 2.50  25 2.67
 137  0.535  0.030  0.015-  18 2.39  32 2.42  24 2.43
 138  0.024  0.834  0.425- 189 2.03  51 2.09
 139  0.223  0.850  0.587- 144 2.03  45 2.37
 140  0.578  0.305  0.884- 154 2.06 110 2.13
 141  0.945  0.939  0.203- 189 2.11  29 2.43 193 2.73
 142  0.489  0.586  0.475- 109 2.03  81 2.13   6 2.55
 143  0.547  0.453  0.009-  84 2.04  20 2.32
 144  0.242  0.844  0.770- 139 2.03  45 2.51 230 2.56
 145  0.731  0.222  0.272-   9 2.44  38 2.44  27 2.47
 146  0.273  0.435  0.969-   5 2.39  40 2.55  28 2.60
 147  0.685  0.977  0.297- 234 2.10 173 2.11  18 2.52
 148  0.393  0.745  0.168-  98 2.00  31 2.39
 149  0.966  0.396  0.880- 211 2.04   2 2.46
 150  0.516  0.771  0.191-  60 2.00  39 2.44
 151  0.348  0.694  0.876- 242 2.07  41 2.44  45 2.48
 152  0.270  0.202  0.739-  74 2.08  44 2.32
 153  0.159  0.939  0.815- 197 2.04   8 2.35
 154  0.568  0.272  0.019- 140 2.06  27 2.59  26 2.60
 155  0.106  0.782  0.946- 169 2.07  35 2.37
 156  0.040  0.989  0.900- 248 2.04   8 2.44  10 2.51
 157  0.530  0.454  0.475-   6 2.31  30 2.37
 158  0.747  0.225  0.668-  69 2.06 216 2.07
 159  0.281  0.506  0.767- 243 2.08  40 2.37  15 2.42  86 2.68
 160  0.837  0.093  0.412- 125 2.02  38 2.31
 161  0.268  0.598  0.570-  41 2.30  23 2.35  15 2.56 257 2.94
 162  0.515  0.596  0.907-  87 1.96  50 2.32 212 2.79
 163  0.575  0.764  0.795-  75 2.02 226 2.06
 164  0.014  0.104  0.980-  33 2.17
 165  0.355  0.389  0.254-  28 2.29   5 2.34
 166  0.516  0.828  0.415- 118 2.06 223 2.20  39 2.58
 167  0.798  0.877  0.638-  17 2.23  22 2.44   4 2.94
 168  0.642  0.395  0.326-  19 2.39  30 2.40  20 2.54 255 2.69
 169  0.115  0.745  0.807- 185 2.06 155 2.07  35 2.42
 170  0.381  0.245  0.743- 235 2.07  26 2.48  44 2.61
 171  0.485  0.348  0.575- 110 2.01 134 2.15
 172  0.203  0.349  0.524-  86 2.03 129 2.11
 173  0.743  0.960  0.240- 238 2.09 147 2.11
 174  0.539  0.141  0.859- 209 2.10  26 2.41  27 2.54   1 2.57
 175  0.753  0.936  0.809-  37 2.32  29 2.34   7 2.55
 176  0.371  0.872  0.311-  53 2.07  31 2.31
 177  0.973  0.874  0.919-  17 2.36   4 2.43  10 2.49
 178  0.977  0.733  0.963-   4 2.26  13 2.43
 179  0.758  0.654  0.690- 208 2.03 246 2.12
 180  0.107  0.287  0.261-  72 2.05  96 2.11  46 2.57
 181  0.925  0.180  0.148- 215 2.10 250 2.15  14 2.54
 182  0.947  0.817  0.616- 228 2.30  22 2.33  10 2.38
 183  0.509  0.568  0.160- 212 2.11  20 2.48   6 2.51 244 2.67
 184  0.985  0.275  0.776-  61 2.09 101 2.15  33 2.63
 185  0.156  0.667  0.893- 169 2.06  35 2.42
 186  0.414  0.238  0.314- 134 2.02  54 2.21
 187  0.846  0.511  0.209-  91 2.04   3 2.38
 188  0.138  0.176  0.122-  42 2.42  46 2.47  33 2.54  48 2.60
 189  0.934  0.863  0.270- 138 2.03 141 2.11
 190  0.424  0.429  0.109- 244 2.06 255 2.09
 191  0.832  0.349  0.779- 211 2.12  19 2.50   2 2.86
 192  0.293  0.745  0.534-  45 2.31  41 2.32  23 2.45 257 2.70
 193  0.902  0.987  0.963- 236 2.09  17 2.49  29 2.57 141 2.73
 194  0.133  0.882  0.190- 222 2.06  49 2.09
 195  0.205  0.127  0.985-  48 2.36  43 2.37  42 2.46
 196  0.048  0.598  0.030- 127 1.94  66 2.03
 197  0.117  0.973  0.628- 153 2.04 239 2.16   8 2.64
 198  0.384  0.826  0.814- 114 2.09  16 2.56  45 2.66
 199  0.190  0.480  0.416-  85 1.96  15 2.29
 200  0.231  0.306  0.865- 104 2.08  43 2.43  28 2.47
 201  0.831  0.763  0.616-   4 2.29  13 2.47  22 2.58
 202  0.097  0.005  0.277- 222 2.05  65 2.09
 203  0.418  0.070  0.561- 124 2.07  21 2.43   1 2.61
 204  0.667  0.838  0.642- 118 2.06   7 2.37
 205  0.196  0.714  0.647-  23 2.29  45 2.30
 206  0.596  0.181  0.517-  69 2.05  25 2.42
 207  0.688  0.507  0.277-  12 2.30  20 2.45
 208  0.728  0.691  0.790- 179 2.03  58 2.07
 209  0.523  0.187  0.701- 174 2.10   1 2.39
 210  0.412  0.113  0.823-  44 2.31  26 2.39  24 2.45
 211  0.895  0.419  0.887- 149 2.04 191 2.12   2 2.45
 212  0.592  0.591  0.193- 183 2.11  20 2.43 162 2.79
 213  0.546  0.193  0.155-  26 2.28  24 2.38 133 2.57  27 2.63
 214  0.702  0.856  0.951- 108 2.05 226 2.18   7 2.49
 215  0.888  0.151  0.950- 126 2.03 181 2.10
 216  0.733  0.281  0.528- 158 2.07  19 2.47
 217  0.853  0.800  0.931-   4 2.13
 218  0.425  0.156  0.117-  44 2.25  24 2.45
 219  0.356  0.512  0.381- 128 2.08   5 2.42
 220  0.400  0.864  0.085-  16 2.34  39 2.45  11 2.49
 221  0.718  0.601  0.117-  12 2.23   3 2.41
 222  0.123  0.921  0.325- 202 2.05 194 2.06
 223  0.533  0.890  0.572- 166 2.20   7 2.42  36 2.45
 224  0.619  0.980  0.572-  36 2.33  25 2.38   7 2.40  82 2.49  37 2.68
 225  0.284  0.181  0.442-  46 2.23  48 2.54
 226  0.673  0.767  0.918- 163 2.06 214 2.18
 227  0.651  0.351  0.594-  73 2.04  19 2.48  30 2.49
 228  0.962  0.723  0.674- 182 2.30  13 2.32  34 2.36
 229  0.999  0.704  0.279- 119 2.03  51 2.08
 230  0.301  0.940  0.860-  11 2.22 144 2.56  16 2.59
 231  0.287  0.689  0.221-  35 2.33 257 2.34  31 2.39
 232  0.388  0.951  0.739- 114 2.04  16 2.50
 233  0.914  0.620  0.424-  34 2.13
 234  0.728  0.043  0.449- 147 2.10  18 2.45  38 2.54
 235  0.426  0.270  0.945- 170 2.07  44 2.36  26 2.46
 236  0.865  0.029  0.782- 193 2.09  17 2.31
 237  0.946  0.073  0.416-  70 1.99 102 2.19
 238  0.770  0.876  0.306- 173 2.09  22 2.32
 239  0.174  0.047  0.680-  90 2.04 197 2.16
 240  0.083  0.086  0.764- 102 2.08  42 2.44   8 2.59
 241  0.525  0.898  0.061-  16 2.38  39 2.40  32 2.42
 242  0.434  0.697  0.913- 151 2.07  41 2.39
 243  0.233  0.567  0.797- 159 2.08  15 2.48  40 2.52
 244  0.426  0.514  0.167- 190 2.06   6 2.44 183 2.67
 245  0.412  0.780  0.522- 107 1.99  31 2.60
 246  0.857  0.638  0.838- 179 2.12  47 2.38  13 2.66
 247  0.114  0.237  0.766-  43 2.29  42 2.30
 248  0.090  0.918  0.919- 156 2.04   8 2.39  10 2.47
 249  0.846  0.638  0.112-  47 2.22   3 2.52
 250  0.026  0.170  0.270- 116 2.01 181 2.15
 251  0.264  0.809  0.020-  35 2.21  31 2.43
 252  0.950  0.331  0.216- 253 2.02  14 2.43 122 2.78
 253  0.986  0.285  0.384- 252 2.02  14 2.41
 254  0.767  0.709  0.285-  62 2.05  34 2.38
 255  0.517  0.408  0.196- 190 2.09  30 2.50  20 2.57 168 2.69
 256  0.784  0.522  0.863-  47 2.19   3 2.46
 257  0.281  0.653  0.382- 231 2.34  88 2.42  92 2.62 192 2.70 128 2.74 161 2.94  41 2.98  23 3.07

 

IMPORTANT INFORMATION: All symmetrisations will be switched off!
NOSYMM: (Re-)initialisation of all symmetry stuff for point group C_1.


----------------------------------------------------------------------------------------

                                     Primitive cell                                     

  volume of cell :    6163.4969

  direct lattice vectors                    reciprocal lattice vectors
    27.120398187  0.402360350 -2.402807027     0.039265674 -0.000001116  0.027010185
     0.301744657 23.362465222 -0.437691370    -0.000563784  0.042826122  0.000808004
    -7.129577944 -0.289405483 10.364511012     0.009079162  0.001808280  0.102778985

  length of vectors
    27.229604721 23.368513107 12.583231926     0.047658611  0.042837453  0.103195062

  position of ions in fractional coordinates (direct lattice)
     0.536396134  0.087657096  0.672564936
     0.864328800  0.422746233  0.657315189
     0.761644704  0.561898309  0.012744065
     0.897642127  0.797249643  0.840085979
     0.278878419  0.461618346  0.163056749
     0.535013786  0.531593536  0.376134418
     0.645236464  0.912910689  0.739411432
     0.060525519  0.977270030  0.737761365
     0.762340053  0.245776319  0.136349017
     0.973172072  0.907961308  0.734511855
     0.365349817  0.963884803  0.083457277
     0.703678985  0.507170738  0.117342816
     0.908019887  0.683604863  0.739260030
     0.876604566  0.263900348  0.189458582
     0.184402747  0.541248818  0.554013942
     0.417354700  0.919455970  0.960438690
     0.884176640  0.933357296  0.765703316
     0.626465773  0.070763149  0.229514618
     0.727852236  0.384690862  0.567211329
     0.586561223  0.490140552  0.225349783
     0.350331359  0.086840646  0.315587165
     0.848546026  0.853779651  0.536107582
     0.209933308  0.683994894  0.492821839
     0.489961809  0.103893442  0.073241489
     0.602177672  0.081126194  0.567829391
     0.481404915  0.193466944  0.919441644
     0.626178143  0.174357895  0.106891760
     0.256714714  0.352101590  0.075210159
     0.834668783  0.968217886  0.035632290
     0.606099059  0.435594613  0.443745818
     0.339214290  0.776887285  0.253946127
     0.527375367  0.985498624  0.173584123
     0.018444262  0.193265316  0.947680090
     0.870252228  0.677135259  0.477211410
     0.210665167  0.749821527  0.045770001
     0.519872698  0.991468011  0.518967716
     0.720142534  0.027576397  0.812380364
     0.738133007  0.123700685  0.335568782
     0.516279590  0.873698113  0.232146862
     0.189530981  0.466187052  0.721491438
     0.344573313  0.668864146  0.681063935
     0.104342298  0.176783652  0.891585883
     0.218315403  0.222582771  0.952622891
     0.377120991  0.180946200  0.900698565
     0.279335033  0.764648923  0.695482085
     0.209012133  0.246689832  0.311731149
     0.866382420  0.579878719  0.000726510
     0.252934336  0.168808522  0.205223793
     0.224956165  0.884453980  0.252595504
     0.413874680  0.583787737  0.695473505
     0.048830356  0.779273115  0.330748899
     0.489852811  0.088176806  0.440526407
     0.310745644  0.929109231  0.158171273
     0.364907325  0.186339081  0.363806283
     0.036816714  0.469396565  0.645115150
     0.670211029  0.083961944  0.111032786
     0.098247187  0.502439307  0.505804490
     0.691016975  0.633570419  0.842296027
     0.344539368  0.057188780  0.134399245
     0.602728301  0.806317581  0.308587773
     0.081077287  0.275061124  0.952304253
     0.836080814  0.770135254  0.363054933
     0.959690586  0.541908474  0.034663135
     0.774428900  0.473335082  0.608266526
     0.177985529  0.055785391  0.415686776
     0.987433289  0.607605192  0.822346049
     0.949054349  0.524364916  0.176958451
     0.139193955  0.737113745  0.286097396
     0.675144924  0.223880525  0.682091596
     0.014925342  0.061296436  0.403558287
     0.222889971  0.400072055  0.199964559
     0.156426513  0.223949199  0.401188842
     0.693851339  0.427731059  0.690383931
     0.248602410  0.161260012  0.848437067
     0.554496763  0.735663181  0.912469316
     0.665394183  0.200021788  0.980562126
     0.738319385  0.338837486  0.076381668
     0.865689485  0.240413601  0.347796943
     0.789280609  0.207664148  0.009040647
     0.114946015  0.617155894  0.391517251
     0.403228481  0.624182400  0.305306172
     0.608564560  0.935846972  0.375744367
     0.126396818  0.503201243  0.787392280
     0.601813017  0.463158916  0.953825009
     0.272651335  0.470816991  0.456958777
     0.259041387  0.392656717  0.709294076
     0.562309746  0.643464660  0.875635868
     0.166333085  0.663206550  0.245917428
     0.642884805  0.528327836  0.462706994
     0.221884129  0.023945436  0.608739491
     0.804948669  0.467751236  0.271388278
     0.401878372  0.656493654  0.597231763
     0.248141609  0.796423066  0.263836073
     0.874689187  0.955046832  0.572644511
     0.896975464  0.492206921  0.613584660
     0.015343389  0.259185993  0.089993468
     0.479757187  0.961117114  0.284746446
     0.433701931  0.710954103  0.351489216
     0.647563093  0.091830575  0.804944084
     0.054049197  0.383348643  0.645669147
     0.988686480  0.187727715  0.720867497
     0.987547590  0.061895332  0.630260638
     0.128641383  0.377233183  0.641943892
     0.315954983  0.278981988  0.049130105
     0.417855750  0.017808315  0.014239547
     0.257234939  0.559581475  0.081739328
     0.431097779  0.855873926  0.620684079
     0.634599935  0.914287955  0.909916403
     0.567259639  0.616498139  0.510097159
     0.482280062  0.330538443  0.726355296
     0.719796884  0.084066861  0.674419592
     0.780120306  0.377193780  0.442469301
     0.816168500  0.919890483  0.148486058
     0.358482731  0.871792033  0.646155950
     0.689861056  0.485977350  0.916161208
     0.053251324  0.144728445  0.450701089
     0.798850896  0.057200656  0.039096045
     0.594602454  0.778971957  0.553329555
     0.053843618  0.647306819  0.432142128
     0.170091794  0.422058024  0.994902786
     0.255699429  0.067715818  0.254030332
     0.828509062  0.351767598  0.127933965
     0.237114666  0.272711697  0.166620921
     0.400179548  0.996983433  0.440498925
     0.842129350  0.136600136  0.561846914
     0.903883292  0.207214953  0.856558707
     0.100562124  0.531121139  0.066462445
     0.265859405  0.548183092  0.255681823
     0.258424545  0.326395927  0.464732063
     0.830912711  0.620684109  0.553979655
     0.866360778  0.336590517  0.550963733
     0.985237542  0.921567046  0.561240599
     0.662295637  0.164701334  0.347801644
     0.495018544  0.269975012  0.491493973
     0.543539661  0.995214411  0.735711395
     0.567311856  0.071346717  0.315504547
     0.535001774  0.030222305  0.015007492
     0.023846387  0.834125422  0.424911886
     0.223003211  0.850021995  0.586507210
     0.578045524  0.304569595  0.884428091
     0.945231198  0.938761125  0.202850527
     0.488883397  0.585530849  0.475255026
     0.546572959  0.453410150  0.008940497
     0.242039276  0.844147372  0.769788117
     0.730584109  0.222375148  0.271642693
     0.272684708  0.435099212  0.969456022
     0.685303412  0.976804950  0.296528706
     0.392611340  0.744512007  0.168234319
     0.965549494  0.396385802  0.879962327
     0.516279516  0.770744190  0.191207469
     0.347680852  0.693737226  0.875631505
     0.269736333  0.202257401  0.738744536
     0.158658147  0.938755928  0.814724391
     0.567871981  0.271719329  0.018733705
     0.106312086  0.781820231  0.946375985
     0.040162362  0.989413662  0.899928260
     0.530049352  0.453767477  0.475110889
     0.746598552  0.225436392  0.668364562
     0.280737055  0.505599693  0.766592069
     0.837197751  0.093395473  0.412281594
     0.268243919  0.597972719  0.570109828
     0.514787070  0.596050181  0.906675918
     0.575144370  0.764281837  0.795431236
     0.013712977  0.104031301  0.980290595
     0.355341662  0.388549050  0.254116861
     0.515939001  0.828169885  0.414774676
     0.798216908  0.877243557  0.638127708
     0.642452925  0.395004019  0.326303002
     0.115211279  0.744805849  0.806845896
     0.381190595  0.245209177  0.742552864
     0.485127423  0.347692512  0.575250450
     0.203050927  0.349423822  0.524059106
     0.742612820  0.959973015  0.240373500
     0.538667684  0.140735199  0.859254564
     0.753398372  0.935582321  0.809139879
     0.370721113  0.871636470  0.310985182
     0.973005950  0.874408169  0.919407143
     0.977334278  0.733021628  0.963214599
     0.757649569  0.653878818  0.690457284
     0.107446104  0.287381673  0.260776133
     0.924508202  0.179710697  0.147980785
     0.947175643  0.817389777  0.616356779
     0.508634258  0.567577977  0.159759868
     0.985216609  0.275138422  0.775995742
     0.155511781  0.667086572  0.893194680
     0.414370919  0.237804745  0.313819202
     0.846281595  0.511285969  0.209138398
     0.137723999  0.176109224  0.121681485
     0.934497714  0.862648823  0.270102619
     0.423955790  0.429391857  0.109313249
     0.831688574  0.348659966  0.778909363
     0.292844612  0.744691586  0.534338124
     0.901815296  0.987186918  0.963135890
     0.133266327  0.882280348  0.189703642
     0.204756070  0.126853179  0.985000443
     0.048371147  0.597930090  0.029859655
     0.117139489  0.972665360  0.628258121
     0.384337802  0.826245064  0.814459700
     0.190385165  0.479550454  0.415533078
     0.231170860  0.306082957  0.864815501
     0.830670981  0.762609043  0.615764484
     0.096841032  0.005130585  0.276763654
     0.417949357  0.069745823  0.560689610
     0.667111998  0.837932301  0.641565391
     0.195652368  0.713745703  0.647151894
     0.596290244  0.180780334  0.517109796
     0.688360025  0.507399939  0.276830869
     0.728257422  0.691471325  0.790020862
     0.522540701  0.187076797  0.700616735
     0.411637610  0.112772233  0.822892205
     0.894848731  0.419328514  0.887132417
     0.592016986  0.590627030  0.192727458
     0.545708184  0.192564613  0.154510306
     0.702125010  0.855869342  0.950893659
     0.888346232  0.150862357  0.949958563
     0.733340967  0.280946652  0.528457566
     0.853163974  0.799539919  0.931336470
     0.424597670  0.155552477  0.117282507
     0.356432415  0.512166259  0.381323830
     0.400212675  0.863843356  0.084503478
     0.718004722  0.600812055  0.117284124
     0.123082309  0.921129499  0.324884842
     0.532910021  0.889712254  0.572429223
     0.618881984  0.980467457  0.572457481
     0.283652483  0.181291217  0.442251089
     0.673011206  0.766784483  0.917552640
     0.650823135  0.351168256  0.594125274
     0.962433946  0.722816232  0.674256098
     0.998753631  0.703562856  0.279446356
     0.300961208  0.940290069  0.859581077
     0.286954561  0.689412472  0.221164592
     0.387891513  0.951231537  0.738974201
     0.914205574  0.619504975  0.424375462
     0.727766014  0.043107998  0.448681802
     0.425878229  0.270461247  0.945185610
     0.864879914  0.028811518  0.782260378
     0.945797060  0.072751248  0.415678636
     0.769505984  0.875827919  0.306119811
     0.174285721  0.047386026  0.680002548
     0.083037511  0.086150890  0.764182090
     0.524687108  0.897812410  0.060562710
     0.433512566  0.696515769  0.913060092
     0.233340955  0.566796397  0.796672257
     0.425535729  0.513805781  0.166735810
     0.411854633  0.780321485  0.521791230
     0.856573343  0.637711705  0.837641691
     0.113538947  0.237310290  0.765745459
     0.089660089  0.917550949  0.919400445
     0.845728452  0.638148470  0.112386089
     0.026107942  0.170172397  0.269658040
     0.263599885  0.809415805  0.019612789
     0.950438284  0.331122891  0.216023760
     0.986393676  0.285216832  0.383789502
     0.767112841  0.709220547  0.285466526
     0.517398106  0.408162839  0.196026940
     0.784360097  0.522494482  0.863397947
     0.280561506  0.652609849  0.381975348

  ion indices of the primitive-cell ions
   primitive index   ion index
                 1           1
                 2           2
                 3           3
                 4           4
                 5           5
                 6           6
                 7           7
                 8           8
                 9           9
                10          10
                11          11
                12          12
                13          13
                14          14
                15          15
                16          16
                17          17
                18          18
                19          19
                20          20
                21          21
                22          22
                23          23
                24          24
                25          25
                26          26
                27          27
                28          28
                29          29
                30          30
                31          31
                32          32
                33          33
                34          34
                35          35
                36          36
                37          37
                38          38
                39          39
                40          40
                41          41
                42          42
                43          43
                44          44
                45          45
                46          46
                47          47
                48          48
                49          49
                50          50
                51          51
                52          52
                53          53
                54          54
                55          55
                56          56
                57          57
                58          58
                59          59
                60          60
                61          61
                62          62
                63          63
                64          64
                65          65
                66          66
                67          67
                68          68
                69          69
                70          70
                71          71
                72          72
                73          73
                74          74
                75          75
                76          76
                77          77
                78          78
                79          79
                80          80
                81          81
                82          82
                83          83
                84          84
                85          85
                86          86
                87          87
                88          88
                89          89
                90          90
                91          91
                92          92
                93          93
                94          94
                95          95
                96          96
                97          97
                98          98
                99          99
               100         100
               101         101
               102         102
               103         103
               104         104
               105         105
               106         106
               107         107
               108         108
               109         109
               110         110
               111         111
               112         112
               113         113
               114         114
               115         115
               116         116
               117         117
               118         118
               119         119
               120         120
               121         121
               122         122
               123         123
               124         124
               125         125
               126         126
               127         127
               128         128
               129         129
               130         130
               131         131
               132         132
               133         133
               134         134
               135         135
               136         136
               137         137
               138         138
               139         139
               140         140
               141         141
               142         142
               143         143
               144         144
               145         145
               146         146
               147         147
               148         148
               149         149
               150         150
               151         151
               152         152
               153         153
               154         154
               155         155
               156         156
               157         157
               158         158
               159         159
               160         160
               161         161
               162         162
               163         163
               164         164
               165         165
               166         166
               167         167
               168         168
               169         169
               170         170
               171         171
               172         172
               173         173
               174         174
               175         175
               176         176
               177         177
               178         178
               179         179
               180         180
               181         181
               182         182
               183         183
               184         184
               185         185
               186         186
               187         187
               188         188
               189         189
               190         190
               191         191
               192         192
               193         193
               194         194
               195         195
               196         196
               197         197
               198         198
               199         199
               200         200
               201         201
               202         202
               203         203
               204         204
               205         205
               206         206
               207         207
               208         208
               209         209
               210         210
               211         211
               212         212
               213         213
               214         214
               215         215
               216         216
               217         217
               218         218
               219         219
               220         220
               221         221
               222         222
               223         223
               224         224
               225         225
               226         226
               227         227
               228         228
               229         229
               230         230
               231         231
               232         232
               233         233
               234         234
               235         235
               236         236
               237         237
               238         238
               239         239
               240         240
               241         241
               242         242
               243         243
               244         244
               245         245
               246         246
               247         247
               248         248
               249         249
               250         250
               251         251
               252         252
               253         253
               254         254
               255         255
               256         256
               257         257

----------------------------------------------------------------------------------------

 
 
 KPOINTS: Automatic_mesh                          

Automatic generation of k-mesh.
 Grid dimensions read from file:
 generate k-points for:    1    1    1

 Generating k-lattice:

  Cartesian coordinates                     Fractional coordinates (reciprocal lattice)
     0.039265674 -0.000001116  0.027010185     1.000000000 -0.000000000  0.000000000
    -0.000563784  0.042826122  0.000808004     0.000000000  1.000000000 -0.000000000
     0.009079162  0.001808280  0.102778985    -0.000000000  0.000000000  1.000000000

  Length of vectors
     0.047658611  0.042837453  0.103195062

  Shift w.r.t. Gamma in fractional coordinates (k-lattice)
     0.000000000  0.000000000  0.000000000

 
 Subroutine IBZKPT returns following result:
 ===========================================
 
 Found      1 irreducible k-points:
 
 Following reciprocal coordinates:
            Coordinates               Weight
  0.000000  0.000000  0.000000      1.000000
 
 Following cartesian coordinates:
            Coordinates               Weight
  0.000000  0.000000  0.000000      1.000000
 


--------------------------------------------------------------------------------------------------------




 Dimension of arrays:
   k-points           NKPTS =      1   k-points in BZ     NKDIM =      1   number of bands    NBANDS=   1052
   number of dos      NEDOS =    903   number of ions     NIONS =    257
   non local maximal  LDIM  =      6   non local SUM 2l+1 LMDIM =     18
   total plane-waves  NPLWV = ******
   max r-space proj   IRMAX =   7414   max aug-charges    IRDMAX= 201780
   dimension x,y,z NGX =   180 NGY =  160 NGZ =   84
   dimension x,y,z NGXF=   360 NGYF=  320 NGZF=  168
   support grid    NGXF=   720 NGYF=  640 NGZF=  336
   ions per type =              48 208   1
   NGX,Y,Z   is equivalent  to a cutoff of  10.99, 11.38, 11.10 a.u.
   NGXF,Y,Z  is equivalent  to a cutoff of  21.98, 22.77, 22.20 a.u.

 SYSTEM =  LiMox                                   
 POSCAR =  Mo  S Li                                

 Startparameter for this run:
   NWRITE =      0    write-flag & timer
   PREC   = accura    normal or accurate (medium, high low for compatibility)
   ISTART =      0    job   : 0-new  1-cont  2-samecut
   ICHARG =      2    charge: 1-file 2-atom 10-const
   ISPIN  =      2    spin polarized calculation?
   LNONCOLLINEAR =      F non collinear calculations
   LSORBIT =      F    spin-orbit coupling
   INIWAV =      1    electr: 0-lowe 1-rand  2-diag
   LASPH  =      F    aspherical Exc in radial PAW
   METAGGA=      F    non-selfconsistent MetaGGA calc.

 Electronic Relaxation 1
   ENCUT  =  400.0 eV  29.40 Ry    5.42 a.u.  44.40 38.11 20.52*2*pi/ulx,y,z
   ENINI  =  400.0     initial cutoff
   ENAUG  =  345.3 eV  augmentation charge cutoff
   NELM   =    800;   NELMIN=  2; NELMDL= 10     # of ELM steps 
   EDIFF  = 0.1E-05   stopping-criterion for ELM
   LREAL  =      T    real-space projection
   NLSPLINE    = F    spline interpolate recip. space projectors
   LCOMPAT=      F    compatible to vasp.4.4
   GGA_COMPAT  = T    GGA compatible to vasp.4.4-vasp.4.6
   LMAXPAW     = -100 max onsite density
   LMAXMIX     =    4 max onsite mixed and CHGCAR
   VOSKOWN=      0    Vosko Wilk Nusair interpolation
   ROPT   =   -0.00025  -0.00025  -0.00025
 Ionic relaxation
   EDIFFG = -.3E-01   stopping-criterion for IOM
   NSW    =   1200    number of steps for IOM
   NBLOCK =      1;   KBLOCK =   1200    inner block; outer block 
   IBRION =      2    ionic relax: 0-MD 1-quasi-New 2-CG
   NFREE  =      1    steps in history (QN), initial steepest desc. (CG)
   ISIF   =      2    stress and relaxation
   IWAVPR =     11    prediction:  0-non 1-charg 2-wave 3-comb
   ISYM   =      0    0-nonsym 1-usesym 2-fastsym
   LCORR  =      T    Harris-Foulkes like correction to forces

   POTIM  = 0.2000    time-step for ionic-motion
   TEIN   =    0.0    initial temperature
   TEBEG  =    0.0;   TEEND  =   0.0 temperature during run
   SMASS  =  -3.00    Nose mass-parameter (am)
   estimated Nose-frequenzy (Omega)   =  0.10E-29 period in steps = 0.31E+47 mass=  -0.169E-25a.u.
   SCALEE = 1.0000    scale energy and forces
   NPACO  =    256;   APACO  = 16.0  distance and # of slots for P.C.
   PSTRESS=    0.0 pullay stress

  Mass of Ions in am
   POMASS =  95.94 32.07  7.01
  Ionic Valenz
   ZVAL   =   6.00  6.00  1.00
  Atomic Wigner-Seitz radii
   RWIGS  =  -1.00 -1.00 -1.00
  virtual crystal weights 
   VCA    =   1.00  1.00  1.00
   NELECT =    1537.0000    total number of electrons
   NUPDOWN=      -1.0000    fix difference up-down

 DOS related values:
   EMIN   =  10.00;   EMAX   =-10.00  energy-range for DOS
   EFERMI =   0.00
   ISMEAR =     0;   SIGMA  =   0.05  broadening in eV -4-tet -1-fermi 0-gaus

 Electronic relaxation 2 (details)
   IALGO  =     48    algorithm
   LDIAG  =      T    sub-space diagonalisation (order eigenvalues)
   LSUBROT=      F    optimize rotation matrix (better conditioning)
   TURBO    =      0    0=normal 1=particle mesh
   IRESTART =      0    0=no restart 2=restart with 2 vectors
   NREBOOT  =      0    no. of reboots
   NMIN     =      0    reboot dimension
   EREF     =   0.00    reference energy to select bands
   IMIX   =      4    mixing-type and parameters
     AMIX     =   0.20;   BMIX     =  0.00
     AMIX_MAG =   0.80;   BMIX_MAG =  0.00
     AMIN     =   0.10
     WC   =   100.;   INIMIX=   1;  MIXPRE=   1;  MAXMIX= -45

 Intra band minimization:
   WEIMIN = 0.0010     energy-eigenvalue tresh-hold
   EBREAK =  0.24E-09  absolut break condition
   DEPER  =   0.30     relativ break condition  

   TIME   =   0.40     timestep for ELM

  volume/ion in A,a.u.               =      23.98       161.84
  Fermi-wavevector in a.u.,A,eV,Ry     =   1.030442  1.947254 14.446823  1.061812
  Thomas-Fermi vector in A             =   2.164541
 
 Write flags
   LWAVE        =      F    write WAVECAR
   LDOWNSAMPLE  =      F    k-point downsampling of WAVECAR
   LCHARG       =      F    write CHGCAR
   LVTOT        =      F    write LOCPOT, total local potential
   LVHAR        =      F    write LOCPOT, Hartree potential only
   LELF         =      F    write electronic localiz. function (ELF)
   LORBIT       =      0    0 simple, 1 ext, 2 COOP (PROOUT), +10 PAW based schemes


 Dipole corrections
   LMONO  =      F    monopole corrections only (constant potential shift)
   LDIPOL =      F    correct potential (dipole corrections)
   IDIPOL =      3    1-x, 2-y, 3-z, 4-all directions 
   EPSILON=  1.0000000 bulk dielectric constant

 Exchange correlation treatment:
   GGA     =    PE    GGA type
   LEXCH   =     8    internal setting for exchange type
   VOSKOWN=      0    Vosko Wilk Nusair interpolation
   LHFCALC =     F    Hartree Fock is set to
   LHFONE  =     F    Hartree Fock one center treatment
   AEXX    =    0.0000 exact exchange contribution

 Linear response parameters
   LEPSILON=     F    determine dielectric tensor
   LRPA    =     F    only Hartree local field effects (RPA)
   LNABLA  =     F    use nabla operator in PAW spheres
   LVEL    =     F    velocity operator in full k-point grid
   LINTERFAST=   F  fast interpolation
   KINTER  =     0    interpolate to denser k-point grid
   CSHIFT  =0.1000    complex shift for real part using Kramers Kronig
   OMEGAMAX=  -1.0    maximum frequency
   DEG_THRESHOLD= 0.2000000E-02 threshold for treating states as degnerate
   RTIME   =   -0.100 relaxation time in fs
  (WPLASMAI=    0.000 imaginary part of plasma frequency in eV, 0.658/RTIME)
   DFIELD  = 0.0000000 0.0000000 0.0000000 field for delta impulse in time
 
 Orbital magnetization related:
   ORBITALMAG=     F  switch on orbital magnetization
   LCHIMAG   =     F  perturbation theory with respect to B field
   DQ        =  0.001000  dq finite difference perturbation B field
   LLRAUG    =     F  two centre corrections for induced B field



--------------------------------------------------------------------------------------------------------


 conjugate gradient relaxation of ions
 charge density and potential will be updated during run
 spin polarized calculation
 RMM-DIIS sequential band-by-band
 perform sub-space diagonalisation
    before iterative eigenvector-optimisation
 modified Broyden-mixing scheme, WC =      100.0
 initial mixing is a Kerker type mixing with AMIX =  0.2000 and BMIX =      0.0000
 Hartree-type preconditioning will be used
 using additional bands          283
 real space projection scheme for non local part
 use partial core corrections
 calculate Harris-corrections to forces 
   (improved forces if not selfconsistent)
 use gradient corrections 
 use of overlap-Matrix (Vanderbilt PP)
 Gauss-broadening in eV      SIGMA  =   0.05


--------------------------------------------------------------------------------------------------------


  energy-cutoff  :      400.00
  volume of cell :     6163.50
      direct lattice vectors                 reciprocal lattice vectors
    27.120398187  0.402360350 -2.402807027     0.039265674 -0.000001116  0.027010185
     0.301744657 23.362465222 -0.437691370    -0.000563784  0.042826122  0.000808004
    -7.129577944 -0.289405483 10.364511012     0.009079162  0.001808280  0.102778985

  length of vectors
    27.229604721 23.368513107 12.583231926     0.047658611  0.042837453  0.103195062


 
 k-points in units of 2pi/SCALE and weight: Automatic_mesh                          
   0.00000000  0.00000000  0.00000000       1.000
 
 k-points in reciprocal lattice and weights: Automatic_mesh                          
   0.00000000  0.00000000  0.00000000       1.000
 
 position of ions in fractional coordinates (direct lattice) 
   0.53639613  0.08765710  0.67256494
   0.86432880  0.42274623  0.65731519
   0.76164470  0.56189831  0.01274406
   0.89764213  0.79724964  0.84008598
   0.27887842  0.46161835  0.16305675
   0.53501379  0.53159354  0.37613442
   0.64523646  0.91291069  0.73941143
   0.06052552  0.97727003  0.73776137
   0.76234005  0.24577632  0.13634902
   0.97317207  0.90796131  0.73451185
   0.36534982  0.96388480  0.08345728
   0.70367898  0.50717074  0.11734282
   0.90801989  0.68360486  0.73926003
   0.87660457  0.26390035  0.18945858
   0.18440275  0.54124882  0.55401394
   0.41735470  0.91945597  0.96043869
   0.88417664  0.93335730  0.76570332
   0.62646577  0.07076315  0.22951462
   0.72785224  0.38469086  0.56721133
   0.58656122  0.49014055  0.22534978
   0.35033136  0.08684065  0.31558716
   0.84854603  0.85377965  0.53610758
   0.20993331  0.68399489  0.49282184
   0.48996181  0.10389344  0.07324149
   0.60217767  0.08112619  0.56782939
   0.48140492  0.19346694  0.91944164
   0.62617814  0.17435790  0.10689176
   0.25671471  0.35210159  0.07521016
   0.83466878  0.96821789  0.03563229
   0.60609906  0.43559461  0.44374582
   0.33921429  0.77688728  0.25394613
   0.52737537  0.98549862  0.17358412
   0.01844426  0.19326532  0.94768009
   0.87025223  0.67713526  0.47721141
   0.21066517  0.74982153  0.04577000
   0.51987270  0.99146801  0.51896772
   0.72014253  0.02757640  0.81238036
   0.73813301  0.12370069  0.33556878
   0.51627959  0.87369811  0.23214686
   0.18953098  0.46618705  0.72149144
   0.34457331  0.66886415  0.68106394
   0.10434230  0.17678365  0.89158588
   0.21831540  0.22258277  0.95262289
   0.37712099  0.18094620  0.90069856
   0.27933503  0.76464892  0.69548208
   0.20901213  0.24668983  0.31173115
   0.86638242  0.57987872  0.00072651
   0.25293434  0.16880852  0.20522379
   0.22495616  0.88445398  0.25259550
   0.41387468  0.58378774  0.69547351
   0.04883036  0.77927311  0.33074890
   0.48985281  0.08817681  0.44052641
   0.31074564  0.92910923  0.15817127
   0.36490732  0.18633908  0.36380628
   0.03681671  0.46939657  0.64511515
   0.67021103  0.08396194  0.11103279
   0.09824719  0.50243931  0.50580449
   0.69101698  0.63357042  0.84229603
   0.34453937  0.05718878  0.13439925
   0.60272830  0.80631758  0.30858777
   0.08107729  0.27506112  0.95230425
   0.83608081  0.77013525  0.36305493
   0.95969059  0.54190847  0.03466313
   0.77442890  0.47333508  0.60826653
   0.17798553  0.05578539  0.41568678
   0.98743329  0.60760519  0.82234605
   0.94905435  0.52436492  0.17695845
   0.13919396  0.73711375  0.28609740
   0.67514492  0.22388052  0.68209160
   0.01492534  0.06129644  0.40355829
   0.22288997  0.40007205  0.19996456
   0.15642651  0.22394920  0.40118884
   0.69385134  0.42773106  0.69038393
   0.24860241  0.16126001  0.84843707
   0.55449676  0.73566318  0.91246932
   0.66539418  0.20002179  0.98056213
   0.73831939  0.33883749  0.07638167
   0.86568948  0.24041360  0.34779694
   0.78928061  0.20766415  0.00904065
   0.11494601  0.61715589  0.39151725
   0.40322848  0.62418240  0.30530617
   0.60856456  0.93584697  0.37574437
   0.12639682  0.50320124  0.78739228
   0.60181302  0.46315892  0.95382501
   0.27265134  0.47081699  0.45695878
   0.25904139  0.39265672  0.70929408
   0.56230975  0.64346466  0.87563587
   0.16633308  0.66320655  0.24591743
   0.64288481  0.52832784  0.46270699
   0.22188413  0.02394544  0.60873949
   0.80494867  0.46775124  0.27138828
   0.40187837  0.65649365  0.59723176
   0.24814161  0.79642307  0.26383607
   0.87468919  0.95504683  0.57264451
   0.89697546  0.49220692  0.61358466
   0.01534339  0.25918599  0.08999347
   0.47975719  0.96111711  0.28474645
   0.43370193  0.71095410  0.35148922
   0.64756309  0.09183058  0.80494408
   0.05404920  0.38334864  0.64566915
   0.98868648  0.18772771  0.72086750
   0.98754759  0.06189533  0.63026064
   0.12864138  0.37723318  0.64194389
   0.31595498  0.27898199  0.04913010
   0.41785575  0.01780831  0.01423955
   0.25723494  0.55958148  0.08173933
   0.43109778  0.85587393  0.62068408
   0.63459993  0.91428796  0.90991640
   0.56725964  0.61649814  0.51009716
   0.48228006  0.33053844  0.72635530
   0.71979688  0.08406686  0.67441959
   0.78012031  0.37719378  0.44246930
   0.81616850  0.91989048  0.14848606
   0.35848273  0.87179203  0.64615595
   0.68986106  0.48597735  0.91616121
   0.05325132  0.14472844  0.45070109
   0.79885090  0.05720066  0.03909604
   0.59460245  0.77897196  0.55332956
   0.05384362  0.64730682  0.43214213
   0.17009179  0.42205802  0.99490279
   0.25569943  0.06771582  0.25403033
   0.82850906  0.35176760  0.12793397
   0.23711467  0.27271170  0.16662092
   0.40017955  0.99698343  0.44049892
   0.84212935  0.13660014  0.56184691
   0.90388329  0.20721495  0.85655871
   0.10056212  0.53112114  0.06646245
   0.26585940  0.54818309  0.25568182
   0.25842455  0.32639593  0.46473206
   0.83091271  0.62068411  0.55397965
   0.86636078  0.33659052  0.55096373
   0.98523754  0.92156705  0.56124060
   0.66229564  0.16470133  0.34780164
   0.49501854  0.26997501  0.49149397
   0.54353966  0.99521441  0.73571139
   0.56731186  0.07134672  0.31550455
   0.53500177  0.03022230  0.01500749
   0.02384639  0.83412542  0.42491189
   0.22300321  0.85002200  0.58650721
   0.57804552  0.30456960  0.88442809
   0.94523120  0.93876112  0.20285053
   0.48888340  0.58553085  0.47525503
   0.54657296  0.45341015  0.00894050
   0.24203928  0.84414737  0.76978812
   0.73058411  0.22237515  0.27164269
   0.27268471  0.43509921  0.96945602
   0.68530341  0.97680495  0.29652871
   0.39261134  0.74451201  0.16823432
   0.96554949  0.39638580  0.87996233
   0.51627952  0.77074419  0.19120747
   0.34768085  0.69373723  0.87563150
   0.26973633  0.20225740  0.73874454
   0.15865815  0.93875593  0.81472439
   0.56787198  0.27171933  0.01873371
   0.10631209  0.78182023  0.94637598
   0.04016236  0.98941366  0.89992826
   0.53004935  0.45376748  0.47511089
   0.74659855  0.22543639  0.66836456
   0.28073706  0.50559969  0.76659207
   0.83719775  0.09339547  0.41228159
   0.26824392  0.59797272  0.57010983
   0.51478707  0.59605018  0.90667592
   0.57514437  0.76428184  0.79543124
   0.01371298  0.10403130  0.98029059
   0.35534166  0.38854905  0.25411686
   0.51593900  0.82816989  0.41477468
   0.79821691  0.87724356  0.63812771
   0.64245292  0.39500402  0.32630300
   0.11521128  0.74480585  0.80684590
   0.38119059  0.24520918  0.74255286
   0.48512742  0.34769251  0.57525045
   0.20305093  0.34942382  0.52405911
   0.74261282  0.95997301  0.24037350
   0.53866768  0.14073520  0.85925456
   0.75339837  0.93558232  0.80913988
   0.37072111  0.87163647  0.31098518
   0.97300595  0.87440817  0.91940714
   0.97733428  0.73302163  0.96321460
   0.75764957  0.65387882  0.69045728
   0.10744610  0.28738167  0.26077613
   0.92450820  0.17971070  0.14798079
   0.94717564  0.81738978  0.61635678
   0.50863426  0.56757798  0.15975987
   0.98521661  0.27513842  0.77599574
   0.15551178  0.66708657  0.89319468
   0.41437092  0.23780475  0.31381920
   0.84628159  0.51128597  0.20913840
   0.13772400  0.17610922  0.12168148
   0.93449771  0.86264882  0.27010262
   0.42395579  0.42939186  0.10931325
   0.83168857  0.34865997  0.77890936
   0.29284461  0.74469159  0.53433812
   0.90181530  0.98718692  0.96313589
   0.13326633  0.88228035  0.18970364
   0.20475607  0.12685318  0.98500044
   0.04837115  0.59793009  0.02985965
   0.11713949  0.97266536  0.62825812
   0.38433780  0.82624506  0.81445970
   0.19038517  0.47955045  0.41553308
   0.23117086  0.30608296  0.86481550
   0.83067098  0.76260904  0.61576448
   0.09684103  0.00513059  0.27676365
   0.41794936  0.06974582  0.56068961
   0.66711200  0.83793230  0.64156539
   0.19565237  0.71374570  0.64715189
   0.59629024  0.18078033  0.51710980
   0.68836002  0.50739994  0.27683087
   0.72825742  0.69147132  0.79002086
   0.52254070  0.18707680  0.70061674
   0.41163761  0.11277223  0.82289220
   0.89484873  0.41932851  0.88713242
   0.59201699  0.59062703  0.19272746
   0.54570818  0.19256461  0.15451031
   0.70212501  0.85586934  0.95089366
   0.88834623  0.15086236  0.94995856
   0.73334097  0.28094665  0.52845757
   0.85316397  0.79953992  0.93133647
   0.42459767  0.15555248  0.11728251
   0.35643241  0.51216626  0.38132383
   0.40021268  0.86384336  0.08450348
   0.71800472  0.60081205  0.11728412
   0.12308231  0.92112950  0.32488484
   0.53291002  0.88971225  0.57242922
   0.61888198  0.98046746  0.57245748
   0.28365248  0.18129122  0.44225109
   0.67301121  0.76678448  0.91755264
   0.65082313  0.35116826  0.59412527
   0.96243395  0.72281623  0.67425610
   0.99875363  0.70356286  0.27944636
   0.30096121  0.94029007  0.85958108
   0.28695456  0.68941247  0.22116459
   0.38789151  0.95123154  0.73897420
   0.91420557  0.61950498  0.42437546
   0.72776601  0.04310800  0.44868180
   0.42587823  0.27046125  0.94518561
   0.86487991  0.02881152  0.78226038
   0.94579706  0.07275125  0.41567864
   0.76950598  0.87582792  0.30611981
   0.17428572  0.04738603  0.68000255
   0.08303751  0.08615089  0.76418209
   0.52468711  0.89781241  0.06056271
   0.43351257  0.69651577  0.91306009
   0.23334095  0.56679640  0.79667226
   0.42553573  0.51380578  0.16673581
   0.41185463  0.78032149  0.52179123
   0.85657334  0.63771171  0.83764169
   0.11353895  0.23731029  0.76574546
   0.08966009  0.91755095  0.91940045
   0.84572845  0.63814847  0.11238609
   0.02610794  0.17017240  0.26965804
   0.26359988  0.80941580  0.01961279
   0.95043828  0.33112289  0.21602376
   0.98639368  0.28521683  0.38378950
   0.76711284  0.70922055  0.28546653
   0.51739811  0.40816284  0.19602694
   0.78436010  0.52249448  0.86339795
   0.28056151  0.65260985  0.38197535
 
 position of ions in cartesian coordinates  (Angst):
   9.77862266  2.06906641  5.64358353
  18.88212276 10.03393518  4.55090282
  20.73479765 13.43009713 -1.94393729
  18.59551927 18.74376717  6.20127028
   6.54005884 10.84956266  0.81786608
  11.98851278 12.52574847  2.38024052
  12.50284431 21.37347207  5.71368609
  -3.32356498 22.64227797  7.07336199
  19.77701655  6.00921595 -0.52613933
  21.43002705 21.39120857  4.87710468
   9.60426445 22.64157447 -0.43475530
  18.40048557 12.09793160 -0.69658815
  19.56152300 16.12210014  5.18106421
  22.50273567  6.46324328 -0.25817295
   1.21450928 12.55876838  5.06209945
   4.74874407 21.37072888  8.54921663
  18.80171666 21.93968625  5.40311217
  15.37501126  1.83884382  0.84255801
  15.81174349  9.11603171  3.96160373
  14.44902238 11.62168311  0.71171659
   7.27732638  2.07843836  2.39111859
  19.44830877 20.13266620  3.14390860
   2.38625499 15.92165042  4.30404949
  12.79712774  2.60315164 -0.46364472
  12.30739373  1.97326738  4.40284900
   6.55903974  4.44747154  8.28816112
  16.27271901  4.29444445 -0.47301937
   6.53223336  8.30748674  0.00856877
  22.67466114 22.94548213 -2.06001736
  13.40536577 10.29201175  2.95221334
   7.62351949 18.21299516  1.47692409
  13.36241735 23.18563607  0.10058907
  -6.19802658  4.24831164  9.69333217
  20.40359295 16.03159634  2.55863848
   5.61325706 17.58919658 -0.35999448
  10.69830397 23.22212099  3.69573585
  13.74694417  0.69890208  6.67749174
  17.66332330  3.08983297  1.65027244
  12.61023264 20.55228763  0.78315836
   0.13689569 10.75873497  6.81845353
   4.69109321 15.56785435  5.93819541
  -3.47348287  3.91405528  8.91276062
  -0.80383532  5.01222941  9.25147810
   3.86067038  4.11842073  8.34995263
   2.84791232 17.77520088  6.20246331
   3.52041809  5.75716410  2.62075109
  23.66643181 13.89578409 -2.32802776
   5.44745793  3.98616107  1.44540583
   4.56688069 20.68043626  1.69038476
   6.44216839 13.60397363  5.95826296
  -0.79865985 18.12966789  2.96963957
  10.17084283  2.12963415  3.35022479
   7.58020494 21.78553819  0.48604299
   7.35887353  4.39487700  2.81231333
  -3.45927690 10.79437465  6.39238880
  17.41010815  2.19909085 -0.49633666
  -0.79006133 11.63136903  4.78643383
  12.92661684 14.83603962  6.79229770
   8.40309136  1.43580398  0.54008981
  14.38943297 18.99077343  1.39720333
  -4.50768088  6.18312616  9.55496297
  20.31880035 18.22359376  1.41686444
  25.94357530 13.03642761 -2.18387350
  16.80896285 11.19383820  4.23640723
   1.88020009  1.25459656  3.85630850
  21.09994534 14.35446771  5.88465948
  24.63531710 12.58110620 -0.67581665
   1.95766194 17.19400221  2.30817507
  13.51472872  5.30465147  5.34931232
  -2.45392318  1.32124923  4.11999267
   4.73992146  9.37848071  1.36186520
   1.44961768  5.17883894  3.68424281
  14.02444412 10.07222936  5.30108678
   0.74185750  3.62191683  8.12570959
   8.75463434 17.14593936  7.80295613
  11.11511661  4.65695025  8.47668532
  19.58118906  8.19104416 -1.13068661
  21.07074165  5.86431917  1.41943351
  21.40380993  5.16650525 -1.89367991
   0.51225243 14.35122559  3.51156796
   8.94735650 14.65632548  1.92226971
  14.10800125 21.99981211  2.02253129
  -2.03400432 11.57900296  7.63698195
   9.66079463 10.78663758  8.23716860
   4.27855607 10.97690330  3.87495320
   2.08682023  9.07238329  6.55719734
   9.20131206 15.00575807  7.44277686
   2.95785106 15.48989594  1.85886780
  14.29580643 12.46780211  3.01975907
   1.68475569  0.47252924  5.76566170
  20.03678597 11.17316016  0.67393980
   6.83918452 15.32616793  4.93703740
   5.08897579 18.62989291  1.78970798
  19.92738564 22.49846218  3.41545526
  20.10025291 11.68249966  3.98881129
  -0.14728865  6.03535270  0.78242762
  11.27109592 22.56469325  1.37782107
   9.47072591 16.68242207  2.28973333
  11.85096672  2.17298710  6.74668923
  -3.02183937  8.79085639  6.39438680
  21.73073585  4.57496744  5.01364949
  22.30786813  1.66097665  4.13236598
  -0.97415539  8.67907524  6.17922241
   8.30272936  6.63061622 -0.37207735
  11.23626594  0.58005372 -0.86423534
   6.56239778 13.15304808 -0.01582174
   7.52458328 19.98915210  5.02263357
  10.99916451 21.35202361  7.50584145
  11.93355484 14.48353419  3.65405626
   8.00075883  7.70603205  6.22481772
  14.73821777  2.05844611  5.22370094
  18.11637018  8.99801300  2.54640493
  21.35374381 21.77633058 -0.82473815
   5.37843379 20.32444921  5.45414978
  12.32410486 11.36605960  7.62525184
  -1.72544038  3.27220411  4.47999735
  21.40367609  1.64645965 -1.53930939
  12.41589975 18.27781311  3.96532601
  -1.42540924 15.01928327  4.06624541
  -2.35292602  9.64082378  9.71825197
   5.14397416  1.61137399  1.98886516
  21.66352449  8.51449268 -0.81874005
   5.32499662  6.41840208  1.03784003
   8.01329171 23.32552435  3.16763068
  18.87437029  3.36755381  3.74000550
  18.46929873  4.95684615  6.61525883
   2.41369862 12.42952675  0.21475223
   5.55272075 12.83988399  1.77127321
   3.79372134  7.59489729  4.05291559
  18.77233056 14.67471250  3.47353725
  19.66947480  8.05272155  3.48144915
  22.99670379 21.76407247  3.04628674
  15.53174020  4.01365500  1.94133701
  10.00241894  6.36421661  3.78649493
   9.79600094 23.25644196  5.88367117
  13.15783767  1.80379024  1.87568160
  14.41158346  0.91698780 -1.14318874
  -2.13102601 19.37384918  3.98161616
   2.12287661 19.77859855  5.17097946
   9.46312802  7.09212083  7.64442535
  24.47207396 22.25339162 -0.57964928
  10.04702545 13.73860998  3.49481169
  14.89634840 10.81011071 -1.41909918
   1.33065413 19.59596973  7.02742772
  17.94413471  5.41057485  0.96265937
   0.61479446  9.99414183  9.20228971
  16.76632257 23.01049356  0.99918409
   9.67298872 17.50291917  0.47443068
  20.03193405  9.39438241  6.62685548
  12.87104544 18.15887825  0.40390379
   3.39569157 16.09389225  7.93643958
   2.10945010  4.61996598  6.92007520
  -1.22250434 21.75970476  7.65210964
  15.34934070  6.57110090 -1.28925030
  -3.62812517 18.03413733  9.21108092
  -5.02833913 22.87085783  8.79775613
  11.12473129 10.67689806  3.45207563
  15.55091701  5.37372314  5.03466805
   2.30078483 11.70315676  7.04949835
  19.79392420  2.39948711  2.22059409
   3.39067450 13.91305466  5.00264372
   7.67686864 13.86993455  7.89943253
  10.15767330 17.85672096  6.52777531
  -6.58576590  2.15224374 10.08174942
   7.94250400  9.14689626  1.60991500
  11.28519862 19.43564547  2.69675202
  17.36308270 20.63106528  4.31195852
  15.21636681  9.39233137  1.66539080
  -2.40315375 17.21335158  7.75973761
   5.11794275  5.66716798  6.67294396
   9.16047032  8.15166962  4.64434003
   1.87593851  8.09343596  4.79078439
  18.71586050 22.65656871  0.28682659
   8.52522579  3.25598673  7.54984031
  14.94594496 21.92647756  6.16657198
   8.09992276 20.42273937  1.95093028
  20.09717191 20.55374799  6.80853902
  19.85956657 17.23967328  7.31406541
  15.82239342 15.38124717  5.04956930
   1.14147325  6.68170636  2.31886037
  24.07221677  4.52764391 -0.76632415
  21.54005989 19.29896913  3.75459189
  12.82660679 13.41843963  0.18525896
  21.26996616  6.59974648  5.55510531
  -1.94926986 15.38886317  8.59188326
   9.07226218  5.63161052  2.15284413
  21.61470313 12.22488502 -0.08961959
   2.92073207  4.13454501  0.85316341
  23.67853210 20.45143878  0.17648995
  10.84805921 10.17059946 -0.07364669
  17.10763656  8.25477420  5.92202206
   4.35716389 17.36101995  4.50855920
  17.88871589 23.14723794  7.38346122
   2.52795233 20.61096376  1.25980573
  -1.43129402  2.76092418  9.66153607
   1.27938024 13.97994201 -0.06845465
  -1.00884908 22.58917159  5.80439740
   4.86595535 19.22205477  7.15634662
   2.34544781 11.15982669  3.63944325
   0.19603514  6.99358409  8.27396095
  18.36810008 17.97245070  4.05236831
   0.65470744  0.07873120  2.63358401
   7.35851815  1.63533397  4.77649484
  13.77109415 19.65891111  4.67981443
   0.90761920 16.56629260  5.92489771
  12.53940377  4.31374342  3.84769380
  16.84801593 12.05096584  0.99313571
  14.32676374 16.21886032  6.13566684
   9.23285967  4.37806250  5.92410350
   5.33093020  2.56211452  7.49043014
  18.07030432  9.89985850  6.86100841
  14.85988951 13.98093123  0.31651093
  13.75633531  4.67363927  0.20590844
  12.52069339 20.00253116  7.79387027
  17.36502182  3.60702865  7.64530027
  16.20559377  6.70573521  3.59215951
  16.73936765 18.75296902  7.25290698
  10.72602022  3.77098840  0.12726560
   7.10245448 11.99852348  2.87162597
  10.51211310 20.31808431 -0.46389338
  18.81767947 14.29140470 -0.77260445
   1.29969534 21.47535588  2.66835905
  10.64001912 20.83462931  4.26304967
  12.99879641 22.98947810  4.01704575
   4.59440833  4.22155038  3.82280450
  11.94194195 17.91922407  7.55725343
  13.52068327  8.29407848  4.44031222
  21.51253638 17.07888093  4.35942128
  25.30655791 16.75794831  0.18856920
   2.31746503 21.83982142  7.77442898
   6.41353829 16.15782778  1.30101652
   5.53822716 22.16532267  6.31073195
  21.95493358 14.71818693  1.93063259
  16.55139982  1.17008232  2.88281818
   4.89282290  6.21645608  8.65470491
  17.88739503  0.79471102  6.01699622
  22.70873195  1.95990007  2.00389539
  18.95108003 20.68252524  0.94046544
  -0.10713453  0.98038359  6.60837848
  -3.17028983  1.82494969  7.68314307
  14.06884683 21.16869731 -1.02598374
   5.45747023 16.18250910  8.11691540
   0.81939044 13.10508693  7.44836320
  10.50698061 12.12673414  0.48076655
   7.68496823 18.24493829  4.07696377
  17.45100452 15.00075059  6.34444517
  -2.30861337  5.36822604  7.55989640
  -3.84645371 21.20624826  8.91209601
  22.32778488 15.21648387 -1.14660749
  -1.16314163  3.90811099  2.65765839
   7.25333982 19.01033469 -0.78437700
  24.33602103  8.05574725 -0.18966878
  24.10119475  6.94918323  1.48283992
  18.98315337 16.79518057  0.80507711
  12.75761426  9.68713934  0.60986622
  15.27415512 12.27248246  6.83534025
   5.08253828 15.24891597  2.99921084
 


--------------------------------------------------------------------------------------------------------


 use parallel FFT for orbitals z direction half grid
 k-point   1 :   0.0000 0.0000 0.0000  plane waves:   56003

 maximum and minimum number of plane-waves per node :      9339     9328

 maximum number of plane-waves:     56003
 maximum index in each direction: 
   IXMAX=   34   IYMAX=   38   IZMAX=   20
   IXMIN=  -44   IYMIN=  -38   IZMIN=    0


 real space projection operators:
  total allocation   :     107994.15 KBytes
  max/ min on nodes  :      18043.55      17964.30


 parallel 3D FFT for wavefunctions:
    minimum data exchange during FFTs selected (reduces bandwidth)
 parallel 3D FFT for charge:
    minimum data exchange during FFTs selected (reduces bandwidth)


 total amount of memory used by VASP MPI-rank0   363854. kBytes
=======================================================================

   base      :      30000. kBytes
   nonlr-proj:      22109. kBytes
   fftplans  :     126658. kBytes
   grid      :     104064. kBytes
   one-center:        668. kBytes
   wavefun   :      80355. kBytes
 
     INWAV:  cpu time    0.0000: real time    0.0000
 Broyden mixing: mesh for mixing (old mesh)
   NGX = 89   NGY = 77   NGZ = 41
  (NGX  =360   NGY  =320   NGZ  =168)
  gives a total of 280973 points

 initial charge density was supplied:
 charge density of overlapping atoms calculated
 number of electron    1537.0000000 magnetization     257.0000000
 keeping initial charge density in first step


--------------------------------------------------------------------------------------------------------


 Maximum index for non-local projection operator         1217
 Maximum index for augmentation-charges         8289 (set IRDMAX)


--------------------------------------------------------------------------------------------------------


 First call to EWALD:  gamma=   0.097
 Maximum number of real-space cells 2x 2x 5
 Maximum number of reciprocal cells 4x 3x 2

    FEWALD:  cpu time    0.0313: real time    0.0322


--------------------------------------- Iteration      1(   1)  ---------------------------------------


    POTLOK:  cpu time    2.2524: real time    2.2620
    SETDIJ:  cpu time    2.2848: real time    2.2934
    EDDIAG:  cpu time   22.3417: real time   22.4406
  RMM-DIIS:  cpu time   52.8031: real time   52.9922
    ORTHCH:  cpu time    2.0927: real time    2.1027
       DOS:  cpu time    0.0115: real time    0.0117
    --------------------------------------------
      LOOP:  cpu time   81.7862: real time   82.1025

 eigenvalue-minimisations  :  2104
 total energy-change (2. order) : 0.1918705E+05  (-0.4746756E+05)
 number of electron    1537.0000000 magnetization     257.0000000
 augmentation part     1537.0000000 magnetization     257.0000000

 Free energy of the ion-electron system (eV)
  ---------------------------------------------------
  alpha Z        PSCENC =      2674.94624358
  Ewald energy   TEWEN  =    -49799.72759913
  -Hartree energ DENC   =    -20974.12558650
  -exchange      EXHF   =         0.00000000
  -V(xc)+E(xc)   XCENC  =      -373.75686403
  PAW double counting   =     57971.91619422   -53884.73619297
  entropy T*S    EENTRO =        -0.06685186
  eigenvalues    EBANDS =     15548.35006016
  atomic energy  EATOM  =     68024.25456431
  Solvation  Ediel_sol  =         0.00000000
  ---------------------------------------------------
  free energy    TOTEN  =     19187.05396780 eV

  energy without entropy =    19187.12081965  energy(sigma->0) =    19187.08739373


--------------------------------------------------------------------------------------------------------




--------------------------------------- Iteration      1(   2)  ---------------------------------------


    EDDIAG:  cpu time   22.0686: real time   22.1569
  RMM-DIIS:  cpu time   52.7821: real time   52.9652
    ORTHCH:  cpu time    2.1007: real time    2.1101
       DOS:  cpu time    0.0032: real time    0.0032
    --------------------------------------------
      LOOP:  cpu time   76.9546: real time   77.2353

 eigenvalue-minimisations  :  2104
 total energy-change (2. order) :-0.1365337E+05  (-0.1387047E+05)
 number of electron    1537.0000000 magnetization     257.0000000
 augmentation part     1537.0000000 magnetization     257.0000000

 Free energy of the ion-electron system (eV)
  ---------------------------------------------------
  alpha Z        PSCENC =      2674.94624358
  Ewald energy   TEWEN  =    -49799.72759913
  -Hartree energ DENC   =    -20974.12558650
  -exchange      EXHF   =         0.00000000
  -V(xc)+E(xc)   XCENC  =      -373.75686403
  PAW double counting   =     57971.91619422   -53884.73619297
  entropy T*S    EENTRO =        -0.14690706
  eigenvalues    EBANDS =      1895.06089180
  atomic energy  EATOM  =     68024.25456431
  Solvation  Ediel_sol  =         0.00000000
  ---------------------------------------------------
  free energy    TOTEN  =      5533.68474424 eV

  energy without entropy =     5533.83165130  energy(sigma->0) =     5533.75819777


--------------------------------------------------------------------------------------------------------




[...]
      0.13942      0.11555      0.07569
      0.01874      0.00715      0.01807
     -0.00555      0.05336     -0.02798
     -0.03759     -0.00935     -0.01549
     -0.03396      0.01128     -0.04271
      0.00312     -0.03293     -0.03147
     -0.01657     -0.01175     -0.02763
      0.00230      0.01582      0.00547
     -0.01979     -0.04900      0.01250
     -0.01721      0.02410     -0.04791
      0.02176     -0.06025     -0.00672
      0.01037      0.00271      0.00795
      0.01151     -0.05825     -0.00218
     -0.02128     -0.03726      0.00542
     -0.01879     -0.03248     -0.01815
     -0.03497      0.01702      0.01762
     -0.03476      0.03800      0.04048
     -0.03182      0.00558     -0.00897
      0.04509      0.00062      0.03773
      0.00791     -0.00824      0.01691
      0.01745     -0.02448      0.04682
      0.00404     -0.02168      0.01781
      0.00352      0.07337     -0.07974
      0.00338      0.02618      0.02994
      0.04549      0.06374      0.03765
      0.01943     -0.03125      0.09759
     -0.03463     -0.02533     -0.06513
      0.00770      0.01698      0.03278
      0.03529      0.05701     -0.02086
     -0.01995      0.05956      0.04131
      0.04157      0.01097     -0.02542
     -0.03742      0.02145     -0.00454
     -0.00467      0.01944     -0.02671
      0.01162     -0.01682     -0.00474
     -0.03363     -0.02282      0.03947
      0.01176      0.02713     -0.02535
     -0.01720      0.02792      0.00023
     -0.02358     -0.03312      0.02272
      0.00249     -0.01804      0.00693
     -0.00429     -0.00410      0.02142
      0.02206      0.03236     -0.00395
      0.01674     -0.00161     -0.00967
      0.01067      0.08217     -0.03369
      0.01093      0.02187      0.04084
      0.00324     -0.00377      0.01393
      0.02949     -0.04602     -0.02830
      0.00906      0.00392     -0.05252
     -0.01801      0.04570      0.00565
      0.02070      0.02017     -0.00206
     -0.01207      0.03590     -0.04468
      0.00348     -0.00283      0.00320
     -0.02163      0.03919     -0.00135
     -0.00465      0.00792     -0.02368
     -0.02326     -0.01437     -0.03729
     -0.00690     -0.04862     -0.02556
      0.01841     -0.01226     -0.05637
      0.03332      0.04112     -0.04320
      0.00665      0.01832      0.02852
     -0.01426     -0.02494      0.00503
     -0.00895     -0.00294     -0.00762
     -0.03214      0.00185     -0.00253
     -0.02871     -0.00448      0.08479
      0.04080      0.01726     -0.00928
      0.03482     -0.03976     -0.02507
     -0.06865      0.00183      0.04616
     -0.01604      0.00860     -0.02603
     -0.03788      0.03095     -0.02682
     -0.02466     -0.02529     -0.03767
      0.01209     -0.01891     -0.03943
     -0.01672      0.00973     -0.00054
     -0.00683     -0.00213      0.01234
      0.01404     -0.00803     -0.01053
     -0.03198     -0.02440      0.02629
     -0.03594      0.01579     -0.00336
     -0.01124     -0.01580      0.03660
     -0.00994     -0.02866     -0.03105
     -0.00774      0.04416      0.02321
      0.00140     -0.02820     -0.02307
      0.00455      0.00100      0.01327
     -0.02979     -0.00393     -0.00114
      0.00549      0.00008     -0.00214
     -0.00571     -0.03566      0.04181
     -0.00542      0.02761     -0.02632
     -0.00871      0.01604      0.03413
     -0.00418      0.02852     -0.01832
     -0.02946     -0.01573      0.00029
     -0.00718     -0.06266      0.00641
     -0.03189     -0.00494      0.01382
      0.01112      0.00068      0.05907
     -0.03308      0.01572     -0.00172
      0.02730      0.03299      0.02523
      0.00974      0.02852      0.02505
     -0.02277     -0.01972     -0.03247
      0.04000      0.04941      0.03547
     -0.01236      0.01041     -0.01990
     -0.04479      0.03045     -0.01036
      0.01451     -0.03200     -0.00119
      0.01091     -0.01026     -0.01370
      0.02434     -0.03247      0.00462
     -0.01027     -0.01209     -0.01557
     -0.00934      0.03351      0.01031
     -0.07243      0.27874     -0.19138
      0.01214     -0.02867     -0.03569
     -0.01785      0.00491      0.02670
      0.04482     -0.02539      0.01504
     -0.00099     -0.02898      0.00722
      0.02666      0.01425      0.02895
     -0.01633      0.02214     -0.02040
      0.01070      0.00475     -0.02270
      0.01111      0.03076     -0.03970
      0.02258      0.01052      0.00473
     -0.08753      0.02616     -0.01880
      0.03219     -0.10285      0.08384
      0.03090      0.03802     -0.02335
      0.00503     -0.00110      0.01209
     -0.04127     -0.05222     -0.01884
      0.01935      0.05913     -0.01838
     -0.00486     -0.02572      0.02799
      0.02663      0.01012     -0.03621
     -0.02527     -0.00042      0.00059
     -0.01459     -0.04988     -0.02322
     -0.00712     -0.02290      0.04746
      0.02987      0.01391     -0.03096
     -0.02514     -0.00781      0.03475
      0.01293     -0.00837     -0.04513
     -0.05641     -0.02883      0.06433
     -0.01625      0.02296     -0.01003
      0.03292      0.02657     -0.00043
      0.01330      0.01119      0.00595
      0.02245     -0.02032     -0.03165
     -0.04238     -0.00859      0.13678
      0.03706     -0.02187      0.01947
      0.01661      0.01190      0.00068
      0.01441      0.00414     -0.05415
     -0.01591     -0.00186      0.00831
      0.00607      0.18376      0.18128
      0.00787      0.04156      0.00047
     -0.03773     -0.02340     -0.02341
      0.00390     -0.00385      0.00454
     -0.00885     -0.02993     -0.00722
     -0.01713     -0.00769     -0.01843
     -0.01022      0.07405      0.03167
     -0.00745     -0.00957     -0.02442
      0.02265     -0.02119     -0.03192
      0.00214     -0.03282      0.00270
     -0.02144     -0.05503      0.00224
      0.01513     -0.01038     -0.00407
      0.00023     -0.02875      0.02172
     -0.00060      0.04061     -0.00701
     -0.06501      0.00555     -0.03767
      0.00947     -0.00597     -0.00584
     -0.07827      0.02470      0.07729
     -0.02250     -0.01712      0.01117
      0.03121      0.02685     -0.01554
     -0.00150      0.00795      0.00086
      0.01678      0.00254     -0.04334
     -0.04544      0.00926     -0.04602
      0.00111      0.01527     -0.02011
      0.01535     -0.02422     -0.06044
      0.03244     -0.00859      0.02259
     -0.00318      0.05365      0.04268
     -0.01982      0.01361      0.03876
      0.01524      0.02804     -0.02268
      0.00084      0.00173     -0.02369
      0.00440     -0.01551     -0.00743
     -0.02942      0.03640      0.04136
     -0.01247      0.02990     -0.02108
     -0.01123     -0.04096     -0.00175
     -0.07518     -0.03687      0.02083
     -0.01302     -0.02489     -0.00203
     -0.02176      0.04363      0.00712
     -0.02925     -0.00544     -0.02977
     -0.00783      0.01464     -0.04161
      0.03542      0.00187      0.04128
     -0.03054      0.00437      0.04847
     -0.00967      0.03740      0.00060
     -0.04050     -0.01307      0.01025
      0.05498      0.04809     -0.00789
      0.02172     -0.01684     -0.02020
      0.02107     -0.02279      0.02452
      0.00113      0.00231      0.01082
      0.04309      0.00852      0.00853
      0.00486      0.01080     -0.02721
      0.04635     -0.02161      0.04072
     -0.00169     -0.01878     -0.00485
      0.00360     -0.02017     -0.02098
      0.00295      0.00249      0.00544
     -0.00110      0.03121      0.01043
     -0.01602     -0.00733      0.03929
      0.01396     -0.07951      0.00208
      0.01174      0.00115     -0.01842
      0.01009     -0.03477     -0.04441

 NEB: forces: par spring, perp REAL, dneb     0.336284    0.727121    0.000000
 NEB: distance to prev, next image, angle between     0.119161    0.186418  113.871871
 NEB: projections on to tangent (spring, REAL)     0.336284   -0.172804

 stress matrix after NEB project (eV)
     49.60384      2.14413      0.14658
      2.14413     50.66369      3.13456
      0.14658      3.13456     54.71330
  FORCES: max atom, RMS     0.338343    0.046620
  FORCE total and by dimension    0.747372    0.298938
  Stress total and by dimension   89.720591   54.713301


--------------------------------------------------------------------------------------------------------


    WAVPRE:  cpu time  455.3953: real time  456.9541
    FEWALD:  cpu time    0.0556: real time    0.0558

 real space projection operators:
  total allocation   :     108005.75 KBytes
  max/ min on nodes  :      18045.50      17969.52

    ORTHCH:  cpu time   15.4272: real time   15.4829
     LOOP+:  cpu time 3627.0249: real time 3640.4446


--------------------------------------- Iteration      8(   1)  ---------------------------------------


    POTLOK:  cpu time    2.2758: real time    2.2839
    SETDIJ:  cpu time    2.4622: real time    2.4709
    EDDIAG:  cpu time   22.4599: real time   22.5410
  RMM-DIIS:  cpu time   52.7765: real time   52.9572
    ORTHCH:  cpu time    2.1211: real time    2.1305
       DOS:  cpu time    0.0084: real time    0.0084
    --------------------------------------------
      LOOP:  cpu time   82.1038: real time   82.3919

 eigenvalue-minimisations  :  2104
 total energy-change (2. order) :-0.2199565E-02  (-0.7206173E-01)
 number of electron    1536.9999993 magnetization      -0.7006087
 augmentation part     -120.0546645 magnetization      -0.0636503

  free energy =  -0.143697569133E+04  energy without entropy=  -0.143694483295E+04


--------------------------------------------------------------------------------------------------------




--------------------------------------- Iteration      8(   2)  ---------------------------------------


    EDDIAG:  cpu time   22.0429: real time   22.1234
  RMM-DIIS:  cpu time   52.8157: real time   52.9955
    ORTHCH:  cpu time    2.4950: real time    2.5052
       DOS:  cpu time    0.0041: real time    0.0041
    --------------------------------------------
      LOOP:  cpu time   77.3576: real time   77.6282

 eigenvalue-minimisations  :  2104
 total energy-change (2. order) :-0.6332027E-02  (-0.6884786E-02)
 number of electron    1536.9999993 magnetization      -0.7006087
 augmentation part     -120.0546645 magnetization      -0.0636503

  free energy =  -0.143698202336E+04  energy without entropy=  -0.143695117063E+04


--------------------------------------------------------------------------------------------------------




--------------------------------------- Iteration      8(   3)  ---------------------------------------


    EDDIAG:  cpu time   22.0086: real time   22.0877
  RMM-DIIS:  cpu time   52.9043: real time   53.0873
    ORTHCH:  cpu time    2.3473: real time    2.3571
       DOS:  cpu time    0.0026: real time    0.0027
    --------------------------------------------
      LOOP:  cpu time   77.2629: real time   77.5347

 eigenvalue-minimisations  :  2104
 total energy-change (2. order) :-0.1439454E-02  (-0.1438022E-02)
 number of electron    1536.9999993 magnetization      -0.7006087
 augmentation part     -120.0546645 magnetization      -0.0636503

  free energy =  -0.143698346281E+04  energy without entropy=  -0.143695261152E+04


--------------------------------------------------------------------------------------------------------




--------------------------------------- Iteration      8(   4)  ---------------------------------------


    EDDIAG:  cpu time   22.1435: real time   22.2245
  RMM-DIIS:  cpu time   52.7807: real time   52.9629
    ORTHCH:  cpu time    2.1120: real time    2.1202
       DOS:  cpu time    0.0078: real time    0.0078
    --------------------------------------------
      LOOP:  cpu time   77.0439: real time   77.3155

 eigenvalue-minimisations  :  2104
 total energy-change (2. order) :-0.3861404E-03  (-0.3891497E-03)
 number of electron    1536.9999993 magnetization      -0.7006087
 augmentation part     -120.0546645 magnetization      -0.0636503

  free energy =  -0.143698384895E+04  energy without entropy=  -0.143695299809E+04


--------------------------------------------------------------------------------------------------------




--------------------------------------- Iteration      8(   5)  ---------------------------------------


    EDDIAG:  cpu time   21.9944: real time   22.0737
  RMM-DIIS:  cpu time   52.8354: real time   53.0168
    ORTHCH:  cpu time    2.1369: real time    2.1453
       DOS:  cpu time    0.0106: real time    0.0106
    --------------------------------------------
      LOOP:  cpu time   76.9772: real time   77.2464

 eigenvalue-minimisations  :  2104
 total energy-change (2. order) :-0.1191791E-03  (-0.1192439E-03)
 number of electron    1536.9999993 magnetization      -0.7006087
 augmentation part     -120.0546645 magnetization      -0.0636503

  free energy =  -0.143698396813E+04  energy without entropy=  -0.143695311743E+04


--------------------------------------------------------------------------------------------------------




--------------------------------------- Iteration      8(   6)  ---------------------------------------


    EDDIAG:  cpu time   22.0943: real time   22.1734
  RMM-DIIS:  cpu time   52.8374: real time   53.0198
    ORTHCH:  cpu time    2.1704: real time    2.1790
       DOS:  cpu time    0.0034: real time    0.0034
    --------------------------------------------
      LOOP:  cpu time   77.1055: real time   77.3757

 eigenvalue-minimisations  :  2104
 total energy-change (2. order) :-0.3971599E-04  (-0.3987064E-04)
 number of electron    1536.9999993 magnetization      -0.7006087
 augmentation part     -120.0546645 magnetization      -0.0636503

  free energy =  -0.143698400785E+04  energy without entropy=  -0.143695315720E+04


--------------------------------------------------------------------------------------------------------




--------------------------------------- Iteration      8(   7)  ---------------------------------------


    EDDIAG:  cpu time   21.9450: real time   22.0242
  RMM-DIIS:  cpu time   52.8198: real time   53.0052
    ORTHCH:  cpu time    2.1015: real time    2.1096
       DOS:  cpu time    0.0065: real time    0.0065
    --------------------------------------------
      LOOP:  cpu time   76.8728: real time   77.1455

 eigenvalue-minimisations  :  2104
 total energy-change (2. order) :-0.1433837E-04  (-0.1435691E-04)
 number of electron    1536.9999993 magnetization      -0.7006087
 augmentation part     -120.0546645 magnetization      -0.0636503

  free energy =  -0.143698402219E+04  energy without entropy=  -0.143695317157E+04


--------------------------------------------------------------------------------------------------------




--------------------------------------- Iteration      8(   8)  ---------------------------------------


    EDDIAG:  cpu time   22.0133: real time   22.0917
  RMM-DIIS:  cpu time   91.3738: real time   91.6877
    ORTHCH:  cpu time    2.1375: real time    2.1461
       DOS:  cpu time    0.0064: real time    0.0064
    --------------------------------------------
      LOOP:  cpu time  115.5310: real time  115.9319

 eigenvalue-minimisations  :  4282
 total energy-change (2. order) :-0.7255920E-05  (-0.7273215E-05)
 number of electron    1536.9999993 magnetization      -0.7006087
 augmentation part     -120.0546645 magnetization      -0.0636503

  free energy =  -0.143698402944E+04  energy without entropy=  -0.143695317885E+04


--------------------------------------------------------------------------------------------------------




--------------------------------------- Iteration      8(   9)  ---------------------------------------


    EDDIAG:  cpu time   21.9941: real time   22.0722
  RMM-DIIS:  cpu time   87.6611: real time   87.9661
    ORTHCH:  cpu time    2.0458: real time    2.0533
       DOS:  cpu time    0.0030: real time    0.0030
    --------------------------------------------
      LOOP:  cpu time  111.7039: real time  112.0947

 eigenvalue-minimisations  :  4158
 total energy-change (2. order) :-0.2173110E-05  (-0.2217020E-05)
 number of electron    1536.9999993 magnetization      -0.7006087
 augmentation part     -120.0546645 magnetization      -0.0636503

  free energy =  -0.143698403162E+04  energy without entropy=  -0.143695318102E+04


--------------------------------------------------------------------------------------------------------




--------------------------------------- Iteration      8(  10)  ---------------------------------------


    EDDIAG:  cpu time   22.0906: real time   22.1708
  RMM-DIIS:  cpu time   63.6375: real time   63.8562
    ORTHCH:  cpu time    2.0945: real time    2.1029
       DOS:  cpu time    0.0054: real time    0.0054
    CHARGE:  cpu time   12.8216: real time   12.8680
    MIXING:  cpu time    0.2628: real time    0.2637
    --------------------------------------------
      LOOP:  cpu time  100.9125: real time  101.2671

 eigenvalue-minimisations  :  2793
 total energy-change (2. order) :-0.1616136E-06  (-0.1773765E-06)
 number of electron    1536.9999993 magnetization      -0.7011828
 augmentation part     -120.0554364 magnetization      -0.0637719

  free energy =  -0.143698403178E+04  energy without entropy=  -0.143695318119E+04


--------------------------------------------------------------------------------------------------------




--------------------------------------- Iteration      8(  11)  ---------------------------------------


    POTLOK:  cpu time    2.2326: real time    2.2405
    SETDIJ:  cpu time    2.2902: real time    2.2977
    EDDIAG:  cpu time   22.1379: real time   22.2179
  RMM-DIIS:  cpu time  144.2667: real time  144.7647
    ORTHCH:  cpu time    1.9800: real time    1.9879
       DOS:  cpu time    0.0029: real time    0.0029
    CHARGE:  cpu time   12.8507: real time   12.8919
    MIXING:  cpu time    0.2638: real time    0.2647
    --------------------------------------------
      LOOP:  cpu time  186.0248: real time  186.6682

 eigenvalue-minimisations  :  6653
 total energy-change (2. order) : 0.1598313E-03  (-0.7193992E-04)
 number of electron    1536.9999993 magnetization      -0.7058542
 augmentation part     -120.0569365 magnetization      -0.0612184

 eigenvalues of (default mixing * dielectric matrix)
  average eigenvalue GAMMA=   0.8077
  0.8077

  free energy =  -0.143698387195E+04  energy without entropy=  -0.143695348631E+04


--------------------------------------------------------------------------------------------------------




--------------------------------------- Iteration      8(  12)  ---------------------------------------


    POTLOK:  cpu time    2.1979: real time    2.2056
    SETDIJ:  cpu time    2.2941: real time    2.3017
    EDDIAG:  cpu time   22.0175: real time   22.0978
  RMM-DIIS:  cpu time  144.1098: real time  144.6017
    ORTHCH:  cpu time    2.0421: real time    2.0496
       DOS:  cpu time    0.0036: real time    0.0036
    CHARGE:  cpu time   12.7778: real time   12.8198
    MIXING:  cpu time    0.2307: real time    0.2315
    --------------------------------------------
      LOOP:  cpu time  185.6735: real time  186.3113

 eigenvalue-minimisations  :  6636
 total energy-change (2. order) :-0.1446929E-03  (-0.7259194E-04)
 number of electron    1536.9999993 magnetization      -0.6976112
 augmentation part     -120.0495004 magnetization      -0.0758715

 eigenvalues of (default mixing * dielectric matrix)
  average eigenvalue GAMMA=   1.0806
  1.8455  0.3156

  free energy =  -0.143698401664E+04  energy without entropy=  -0.143695236177E+04


--------------------------------------------------------------------------------------------------------




--------------------------------------- Iteration      8(  13)  ---------------------------------------


    POTLOK:  cpu time    2.2096: real time    2.2171
    SETDIJ:  cpu time    2.3067: real time    2.3149
    EDDIAG:  cpu time   21.9680: real time   22.0458
