 vasp.6.2.0 18Jan21 (build Jan 15 2025 16:08:48) gamma-only                     
  
 04/POSCAR found :  3 types and     257 ions
 -----------------------------------------------------------------------------
|                                                                             |
|           W    W    AA    RRRRR   N    N  II  N    N   GGGG   !!!           |
|           W    W   A  A   R    R  NN   N  II  NN   N  G    G  !!!           |
|           W    W  A    A  R    R  N N  N  II  N N  N  G       !!!           |
|           W WW W  AAAAAA  RRRRR   N  N N  II  N  N N  G  GGG   !            |
|           WW  WW  A    A  R   R   N   NN  II  N   NN  G    G                |
|           W    W  A    A  R    R  N    N  II  N    N   GGGG   !!!           |
|                                                                             |
|     You use a magnetic or noncollinear calculation, but did not specify     |
|     the initial magnetic moment with the MAGMOM tag. Note that a            |
|     default of 1 will be used for all atoms. This ferromagnetic setup       |
|     may break the symmetry of the crystal, in particular it may rule        |
|     out finding an antiferromagnetic solution. Thence, we recommend         |
|     setting the initial magnetic moment manually or verifying carefully     |
|     that this magnetic setup is desired.                                    |
|                                                                             |
 -----------------------------------------------------------------------------

 scaLAPACK will be used
 -----------------------------------------------------------------------------
|                                                                             |
|           W    W    AA    RRRRR   N    N  II  N    N   GGGG   !!!           |
|           W    W   A  A   R    R  NN   N  II  NN   N  G    G  !!!           |
|           W    W  A    A  R    R  N N  N  II  N N  N  G       !!!           |
|           W WW W  AAAAAA  RRRRR   N  N N  II  N  N N  G  GGG   !            |
|           WW  WW  A    A  R   R   N   NN  II  N   NN  G    G                |
|           W    W  A    A  R    R  N    N  II  N    N   GGGG   !!!           |
|                                                                             |
|     The value NCORE = 8 specified in the INCAR file was overwritten,        |
|     because it was not compatible with the 24 processes available:          |
|     NCORE = 6                                                               |
|     was used instead, please check that this makes sense for your           |
|     machine.                                                                |
|                                                                             |
 -----------------------------------------------------------------------------

 LDA part: xc-table for Pade appr. of Perdew
 WARNING: it is not advised to use IBRION=2 with the NEB.
 00/POSCAR found :  3 types and     257 ions
 05/POSCAR found :  3 types and     257 ions
 Jacobian:    46.2307827691976     
 00/POSCAR found :  3 types and     257 ions
 05/POSCAR found :  3 types and     257 ions
 POSCAR, INCAR and KPOINTS ok, starting setup
 FFT: planning ...
 WAVECAR not read
 entering main loop
       N       E                     dE             d eps       ncg     rms          rms(c)
RMM:   1     0.191870539678E+05    0.19187E+05   -0.47468E+05  2104   0.923E+02
RMM:   2     0.553368474424E+04   -0.13653E+05   -0.13870E+05  2104   0.234E+02
RMM:   3     0.132489930792E+04   -0.42088E+04   -0.46297E+04  2104   0.127E+02
RMM:   4    -0.231138808367E+03   -0.15560E+04   -0.14265E+04  2104   0.846E+01
RMM:   5    -0.900155444687E+03   -0.66902E+03   -0.57416E+03  2104   0.508E+01
RMM:   6    -0.119960808972E+04   -0.29945E+03   -0.25660E+03  2104   0.350E+01
RMM:   7    -0.133725011537E+04   -0.13764E+03   -0.12245E+03  2104   0.229E+01
RMM:   8    -0.143835079179E+04   -0.10110E+03   -0.94367E+02  4616   0.160E+01
RMM:   9    -0.146468292051E+04   -0.26332E+02   -0.25093E+02  5084   0.751E+00
RMM:  10    -0.146817425058E+04   -0.34913E+01   -0.26392E+01  5561   0.255E+00    0.205E+02
RMM:  11    -0.146775135662E+04    0.42289E+00   -0.20194E+02  4992   0.799E+00    0.135E+02
RMM:  12    -0.272822065445E+04   -0.12605E+04   -0.16833E+03  6379   0.160E+01    0.206E+02
RMM:  13    -0.153221302412E+04    0.11960E+04   -0.35249E+02  5398   0.878E+00    0.961E+01
RMM:  14    -0.204686197705E+04   -0.51465E+03   -0.93783E+02  6312   0.124E+01    0.154E+02
RMM:  15    -0.150918306772E+04    0.53768E+03   -0.23914E+02  5214   0.683E+00    0.545E+01
RMM:  16    -0.153558092868E+04   -0.26398E+02   -0.21035E+02  5195   0.626E+00    0.566E+01
RMM:  17    -0.148051101095E+04    0.55070E+02   -0.92153E+01  4692   0.457E+00    0.345E+01
RMM:  18    -0.147652282582E+04    0.39882E+01   -0.55369E+01  4495   0.346E+00    0.346E+01
RMM:  19    -0.144427432029E+04    0.32249E+02   -0.18395E+01  4232   0.238E+00    0.172E+01
RMM:  20    -0.143948583908E+04    0.47885E+01   -0.47510E+00  4215   0.139E+00    0.136E+01
RMM:  21    -0.143909101276E+04    0.39483E+00   -0.21151E+00  4348   0.840E-01    0.121E+01
RMM:  22    -0.143982889534E+04   -0.73788E+00   -0.16600E+00  4236   0.685E-01    0.118E+01
RMM:  23    -0.143908804645E+04    0.74085E+00   -0.10458E+00  4229   0.606E-01    0.103E+01
RMM:  24    -0.143873595565E+04    0.35209E+00   -0.13029E+00  4396   0.618E-01    0.896E+00
RMM:  25    -0.143777505264E+04    0.96090E+00   -0.72867E-01  4248   0.514E-01    0.655E+00
RMM:  26    -0.143754306698E+04    0.23199E+00   -0.38504E-01  4235   0.391E-01    0.553E+00
RMM:  27    -0.143745178751E+04    0.91279E-01   -0.22388E-01  4227   0.299E-01    0.475E+00
RMM:  28    -0.143730281153E+04    0.14898E+00   -0.11950E-01  4264   0.214E-01    0.391E+00
RMM:  29    -0.143719204260E+04    0.11077E+00   -0.90375E-02  4272   0.175E-01    0.339E+00
RMM:  30    -0.143710902280E+04    0.83020E-01   -0.56563E-02  4247   0.143E-01    0.302E+00
RMM:  31    -0.143703453211E+04    0.74491E-01   -0.38456E-02  4262   0.118E-01    0.236E+00
RMM:  32    -0.143697985785E+04    0.54674E-01   -0.34478E-02  4370   0.107E-01    0.197E+00
RMM:  33    -0.143694817946E+04    0.31678E-01   -0.20801E-02  4269   0.901E-02    0.172E+00
RMM:  34    -0.143693444719E+04    0.13732E-01   -0.10345E-02  4536   0.632E-02    0.151E+00
RMM:  35    -0.143693489905E+04   -0.45186E-03   -0.32415E-03  4778   0.365E-02    0.148E+00
RMM:  36    -0.143693533235E+04   -0.43331E-03   -0.76355E-04  5232   0.170E-02    0.147E+00
RMM:  37    -0.143693905777E+04   -0.37254E-02   -0.11589E-03  4288   0.239E-02    0.144E+00
RMM:  38    -0.143694426416E+04   -0.52064E-02   -0.22727E-02  6490   0.991E-02    0.121E+00
RMM:  39    -0.143692491290E+04    0.19351E-01   -0.24222E-02  6761   0.970E-02    0.908E-01
RMM:  40    -0.143691395171E+04    0.10961E-01   -0.64615E-03  5587   0.429E-02    0.668E-01
RMM:  41    -0.143691097064E+04    0.29811E-02   -0.26752E-03  4974   0.304E-02    0.562E-01
RMM:  42    -0.143690758628E+04    0.33844E-02   -0.31895E-03  5182   0.339E-02    0.459E-01
RMM:  43    -0.143690407329E+04    0.35130E-02   -0.29824E-03  5172   0.313E-02    0.319E-01
RMM:  44    -0.143690245260E+04    0.16207E-02   -0.25731E-03  5031   0.341E-02    0.224E-01
RMM:  45    -0.143690149477E+04    0.95783E-03   -0.70957E-04  4301   0.195E-02    0.231E-01
RMM:  46    -0.143690157869E+04   -0.83926E-04   -0.25261E-04  4247   0.126E-02    0.206E-01
RMM:  47    -0.143690208306E+04   -0.50437E-03   -0.13564E-03  5143   0.259E-02    0.119E-01
RMM:  48    -0.143690193361E+04    0.14945E-03   -0.32416E-04  4333   0.122E-02    0.798E-02
RMM:  49    -0.143690189812E+04    0.35490E-04   -0.13899E-04  4265   0.793E-03    0.589E-02
RMM:  50    -0.143690188084E+04    0.17279E-04   -0.71393E-05  4269   0.554E-03    0.451E-02
RMM:  51    -0.143690187801E+04    0.28363E-05   -0.49567E-05  4214   0.475E-03    0.332E-02
RMM:  52    -0.143690187298E+04    0.50238E-05   -0.29766E-05  4156   0.354E-03    0.273E-02
RMM:  53    -0.143690187629E+04   -0.33034E-05   -0.21950E-05  4131   0.311E-03    0.250E-02
RMM:  54    -0.143690188805E+04   -0.11764E-04   -0.18868E-05  4145   0.304E-03    0.193E-02
RMM:  55    -0.143690189818E+04   -0.10135E-04   -0.17072E-05  4131   0.278E-03    0.164E-02
RMM:  56    -0.143690191192E+04   -0.13740E-04   -0.29990E-05  4692   0.334E-03    0.168E-02
RMM:  57    -0.143690191748E+04   -0.55534E-05   -0.39755E-06  3335   0.152E-03    0.154E-02
RMM:  58    -0.143690192773E+04   -0.10248E-04   -0.84708E-06  3843   0.186E-03    0.150E-02
RMM:  59    -0.143690194056E+04   -0.12832E-04   -0.13468E-05  4000   0.229E-03    0.145E-02
RMM:  60    -0.143690194826E+04   -0.77005E-05   -0.54571E-06  3586   0.153E-03    0.144E-02
RMM:  61    -0.143690195469E+04   -0.64342E-05   -0.41564E-06  3307   0.131E-03    0.144E-02
RMM:  62    -0.143690195320E+04    0.14955E-05   -0.46183E-07  2537   0.593E-04    0.146E-02
RMM:  63    -0.143690199233E+04   -0.39131E-04   -0.96222E-05  5517   0.603E-03    0.155E-02
RMM:  64    -0.143690208139E+04   -0.89061E-04   -0.61428E-04  6692   0.152E-02    0.188E-02
RMM:  65    -0.143690211390E+04   -0.32509E-04   -0.14128E-04  6002   0.704E-03    0.198E-02
RMM:  66    -0.143690211031E+04    0.35867E-05   -0.40354E-06  3160   0.166E-03    0.165E-02
RMM:  67    -0.143690212824E+04   -0.17931E-04   -0.62564E-05  5098   0.484E-03    0.131E-02
RMM:  68    -0.143690214583E+04   -0.17586E-04   -0.19561E-04  6285   0.848E-03    0.102E-02
RMM:  69    -0.143690214640E+04   -0.57151E-06   -0.32866E-06  2947   0.133E-03
   1 F= -.13163194E+04 E0= -.13163008E+04  d E =-.131632E+04  mag=    -0.5062
 curvature:   0.00 expect dE= 0.000E+00 dE for cont linesearch  0.000E+00
 trial: gam= 0.00000 g(F)=  0.529E-01 g(S)=  0.000E+00 ort = 0.000E+00 (trialstep = 0.100E+01)
 search vector abs. value=  0.529E-01
 bond charge predicted
       N       E                     dE             d eps       ncg     rms          rms(c)
RMM:   1    -0.143691007524E+04   -0.79294E-02   -0.51079E-01  2104   0.509E-01
RMM:   2    -0.143691342802E+04   -0.33528E-02   -0.34968E-02  2104   0.174E-01
RMM:   3    -0.143691408525E+04   -0.65723E-03   -0.65730E-03  2104   0.669E-02
RMM:   4    -0.143691425449E+04   -0.16924E-03   -0.17006E-03  2104   0.362E-02
RMM:   5    -0.143691430539E+04   -0.50903E-04   -0.50957E-04  2104   0.187E-02
RMM:   6    -0.143691432220E+04   -0.16808E-04   -0.16856E-04  2104   0.108E-02
RMM:   7    -0.143691432825E+04   -0.60512E-05   -0.60608E-05  2104   0.615E-03
RMM:   8    -0.143691433153E+04   -0.32792E-05   -0.32853E-05  4158   0.373E-03
RMM:   9    -0.143691433235E+04   -0.81463E-06   -0.83921E-06  3928   0.181E-03
RMM:  10    -0.143691433242E+04   -0.71726E-07   -0.76628E-07  2663   0.694E-04    0.260E-01
RMM:  11    -0.143691480770E+04   -0.47528E-03   -0.10957E-03  6983   0.152E-02    0.269E-01
RMM:  12    -0.143691477858E+04    0.29115E-04   -0.13955E-03  6770   0.152E-02    0.259E-01
RMM:  13    -0.143691447569E+04    0.30289E-03   -0.10748E-03  6871   0.143E-02    0.177E-01
RMM:  14    -0.143691463727E+04   -0.16158E-03   -0.15510E-03  7127   0.177E-02    0.151E-01
RMM:  15    -0.143691404930E+04    0.58796E-03   -0.70243E-04  6729   0.117E-02    0.617E-02
RMM:  16    -0.143691403021E+04    0.19095E-04   -0.17968E-04  6235   0.576E-03    0.508E-02
RMM:  17    -0.143691397196E+04    0.58246E-04   -0.75211E-05  5632   0.378E-03    0.312E-02
RMM:  18    -0.143691395901E+04    0.12957E-04   -0.20880E-05  4481   0.229E-03    0.176E-02
RMM:  19    -0.143691396366E+04   -0.46492E-05   -0.14045E-05  4254   0.184E-03    0.185E-02
RMM:  20    -0.143691395693E+04    0.67257E-05   -0.97304E-06  4013   0.158E-03    0.117E-02
RMM:  21    -0.143691395456E+04    0.23698E-05   -0.37895E-06  3420   0.115E-03    0.713E-03
RMM:  22    -0.143691395351E+04    0.10483E-05   -0.13708E-06  2669   0.797E-04    0.431E-03
RMM:  23    -0.143691395315E+04    0.36278E-06   -0.45410E-07  2503   0.498E-04
   2 F= -.13166956E+04 E0= -.13166774E+04  d E =-.376145E+00  mag=    -0.5312
 trial-energy change:   -0.376145  1 .order   -0.044983   -0.052871   -0.037095
 step:   3.3515(harm=  3.3515)  dis= 0.01287  next Energy= -5292.989733 (dE=-0.398E+04)
 bond charge predicted
       N       E                     dE             d eps       ncg     rms          rms(c)
RMM:   1    -0.143690486368E+04    0.90898E-02   -0.28239E+00  2104   0.120E+00
RMM:   2    -0.143692346370E+04   -0.18600E-01   -0.19345E-01  2104   0.410E-01
RMM:   3    -0.143692709973E+04   -0.36360E-02   -0.36361E-02  2104   0.157E-01
RMM:   4    -0.143692803673E+04   -0.93700E-03   -0.94149E-03  2104   0.851E-02
RMM:   5    -0.143692831882E+04   -0.28209E-03   -0.28239E-03  2104   0.440E-02
RMM:   6    -0.143692841210E+04   -0.93271E-04   -0.93538E-04  2104   0.254E-02
RMM:   7    -0.143692844573E+04   -0.33635E-04   -0.33688E-04  2104   0.145E-02
RMM:   8    -0.143692846409E+04   -0.18357E-04   -0.18391E-04  4498   0.878E-03
RMM:   9    -0.143692846881E+04   -0.47197E-05   -0.48607E-05  4543   0.421E-03
RMM:  10    -0.143692846916E+04   -0.35540E-06   -0.38674E-06  3263   0.141E-03    0.610E-01
RMM:  11    -0.143693049763E+04   -0.20285E-02   -0.56243E-03  7103   0.347E-02    0.617E-01
RMM:  12    -0.143693081777E+04   -0.32015E-03   -0.73394E-03  6966   0.350E-02    0.586E-01
RMM:  13    -0.143692927446E+04    0.15433E-02   -0.60278E-03  7034   0.338E-02    0.416E-01
RMM:  14    -0.143693006659E+04   -0.79213E-03   -0.85101E-03  7200   0.414E-02    0.364E-01
RMM:  15    -0.143692689543E+04    0.31712E-02   -0.37984E-03  6924   0.274E-02    0.154E-01
RMM:  16    -0.143692669004E+04    0.20539E-03   -0.99335E-04  6379   0.134E-02    0.121E-01
RMM:  17    -0.143692638869E+04    0.30135E-03   -0.40275E-04  5942   0.878E-03    0.667E-02
RMM:  18    -0.143692635964E+04    0.29044E-04   -0.16034E-04  5213   0.584E-03    0.512E-02
RMM:  19    -0.143692632869E+04    0.30955E-04   -0.94318E-05  4916   0.456E-03    0.393E-02
RMM:  20    -0.143692629847E+04    0.30217E-04   -0.41165E-05  4387   0.361E-03    0.224E-02
RMM:  21    -0.143692629255E+04    0.59231E-05   -0.17216E-05  4044   0.269E-03    0.148E-02
RMM:  22    -0.143692628934E+04    0.32043E-05   -0.67448E-06  3814   0.184E-03    0.964E-03
RMM:  23    -0.143692628750E+04    0.18465E-05   -0.23086E-06  2811   0.112E-03    0.578E-03
RMM:  24    -0.143692628705E+04    0.44693E-06   -0.83765E-07  2654   0.680E-04
   3 F= -.13175551E+04 E0= -.13175379E+04  d E =-.123565E+01  mag=    -0.5889
 curvature:  -1.68 expect dE=-0.768E-01 dE for cont linesearch -0.847E-04
 trial: gam= 0.83605 g(F)=  0.458E-01 g(S)=  0.000E+00 ort = 0.164E-02 (trialstep = 0.909E+00)
 search vector abs. value=  0.855E-01
 bond charge predicted
       N       E                     dE             d eps       ncg     rms          rms(c)
RMM:   1    -0.143693171660E+04   -0.54291E-02   -0.46208E-01  2104   0.472E-01
RMM:   2    -0.143693548676E+04   -0.37702E-02   -0.40597E-02  2104   0.188E-01
RMM:   3    -0.143693631267E+04   -0.82591E-03   -0.82536E-03  2104   0.745E-02
RMM:   4    -0.143693653069E+04   -0.21802E-03   -0.21954E-03  2104   0.407E-02
RMM:   5    -0.143693659702E+04   -0.66334E-04   -0.66377E-04  2104   0.211E-02
RMM:   6    -0.143693661885E+04   -0.21825E-04   -0.21902E-04  2104   0.123E-02
RMM:   7    -0.143693662663E+04   -0.77788E-05   -0.77888E-05  2104   0.693E-03
RMM:   8    -0.143693663050E+04   -0.38751E-05   -0.38840E-05  4171   0.420E-03
RMM:   9    -0.143693663162E+04   -0.11216E-05   -0.11447E-05  3977   0.208E-03
RMM:  10    -0.143693663172E+04   -0.94529E-07   -0.10192E-06  2681   0.782E-04    0.215E-01
RMM:  11    -0.143693693439E+04   -0.30268E-03   -0.11309E-03  6824   0.149E-02    0.228E-01
RMM:  12    -0.143693683017E+04    0.10422E-03   -0.10733E-03  6649   0.133E-02    0.211E-01
RMM:  13    -0.143693644043E+04    0.38975E-03   -0.54892E-04  6551   0.102E-02    0.136E-01
RMM:  14    -0.143693679676E+04   -0.35633E-03   -0.89105E-04  6961   0.136E-02    0.138E-01
RMM:  15    -0.143693638533E+04    0.41143E-03   -0.58734E-04  6663   0.106E-02    0.715E-02
RMM:  16    -0.143693632164E+04    0.63693E-04   -0.18480E-04  6180   0.581E-03    0.472E-02
RMM:  17    -0.143693627877E+04    0.42865E-04   -0.66877E-05  5342   0.356E-03    0.299E-02
RMM:  18    -0.143693626833E+04    0.10444E-04   -0.24037E-05  4486   0.229E-03    0.199E-02
RMM:  19    -0.143693626599E+04    0.23391E-05   -0.14450E-05  4244   0.181E-03    0.167E-02
RMM:  20    -0.143693626005E+04    0.59455E-05   -0.64447E-06  3735   0.142E-03    0.906E-03
RMM:  21    -0.143693625902E+04    0.10215E-05   -0.27394E-06  3173   0.104E-03    0.629E-03
RMM:  22    -0.143693625847E+04    0.55258E-06   -0.10853E-06  2608   0.732E-04
   4 F= -.13178131E+04 E0= -.13177962E+04  d E =-.258027E+00  mag=    -0.6059
 trial-energy change:   -0.258027  1 .order   -0.037224   -0.042904   -0.031544
 step:   3.4327(harm=  3.4327)  dis= 0.01559  next Energy= -5297.715681 (dE=-0.398E+04)
 bond charge predicted
       N       E                     dE             d eps       ncg     rms          rms(c)
RMM:   1    -0.143691531941E+04    0.20940E-01   -0.35657E+00  2104   0.131E+00
RMM:   2    -0.143694442200E+04   -0.29103E-01   -0.31315E-01  2104   0.521E-01
RMM:   3    -0.143695078926E+04   -0.63673E-02   -0.63623E-02  2104   0.207E-01
RMM:   4    -0.143695247055E+04   -0.16813E-02   -0.16929E-02  2104   0.113E-01
RMM:   5    -0.143695298226E+04   -0.51172E-03   -0.51204E-03  2104   0.586E-02
RMM:   6    -0.143695315073E+04   -0.16847E-03   -0.16906E-03  2104   0.341E-02
RMM:   7    -0.143695321082E+04   -0.60090E-04   -0.60167E-04  2104   0.193E-02
RMM:   8    -0.143695324083E+04   -0.30007E-04   -0.30074E-04  4457   0.117E-02
RMM:   9    -0.143695324978E+04   -0.89517E-05   -0.91324E-05  4605   0.574E-03
RMM:  10    -0.143695325056E+04   -0.77774E-06   -0.83668E-06  3782   0.195E-03    0.600E-01
RMM:  11    -0.143695472298E+04   -0.14724E-02   -0.81330E-03  6947   0.403E-02    0.614E-01
RMM:  12    -0.143695461123E+04    0.11174E-03   -0.76514E-03  6840   0.358E-02    0.562E-01
RMM:  13    -0.143695186990E+04    0.27413E-02   -0.45412E-03  6765   0.289E-02    0.380E-01
RMM:  14    -0.143695418535E+04   -0.23155E-02   -0.68645E-03  6985   0.377E-02    0.354E-01
RMM:  15    -0.143695117609E+04    0.30093E-02   -0.44700E-03  6846   0.289E-02    0.179E-01
RMM:  16    -0.143695071512E+04    0.46097E-03   -0.13653E-03  6297   0.158E-02    0.121E-01
RMM:  17    -0.143695039120E+04    0.32392E-03   -0.47839E-04  5675   0.961E-03    0.721E-02
RMM:  18    -0.143695031023E+04    0.80973E-04   -0.13227E-04  4784   0.570E-03    0.437E-02
RMM:  19    -0.143695034213E+04   -0.31898E-04   -0.83456E-05  4608   0.462E-03    0.481E-02
RMM:  20    -0.143695029182E+04    0.50305E-04   -0.53312E-05  4304   0.384E-03    0.274E-02
RMM:  21    -0.143695028037E+04    0.11456E-04   -0.20474E-05  3962   0.278E-03    0.169E-02
RMM:  22    -0.143695027626E+04    0.41031E-05   -0.74371E-06  3801   0.190E-03    0.108E-02
RMM:  23    -0.143695027515E+04    0.11125E-05   -0.26859E-06  3152   0.118E-03    0.678E-03
RMM:  24    -0.143695027462E+04    0.53618E-06   -0.11719E-06  2668   0.766E-04
   5 F= -.13185153E+04 E0= -.13184991E+04  d E =-.960190E+00  mag=    -0.6514
 curvature:  -3.11 expect dE=-0.132E+00 dE for cont linesearch -0.602E-03
 trial: gam= 0.87832 g(F)=  0.425E-01 g(S)=  0.000E+00 ort = 0.407E-02 (trialstep = 0.105E+01)
 search vector abs. value=  0.116E+00
 bond charge predicted
       N       E                     dE             d eps       ncg     rms          rms(c)
RMM:   1    -0.143695399960E+04   -0.37244E-02   -0.67078E-01  2104   0.568E-01
RMM:   2    -0.143695950991E+04   -0.55103E-02   -0.59241E-02  2104   0.225E-01
RMM:   3    -0.143696073154E+04   -0.12216E-02   -0.12209E-02  2104   0.899E-02
RMM:   4    -0.143696105723E+04   -0.32568E-03   -0.32813E-03  2104   0.494E-02
RMM:   5    -0.143696115741E+04   -0.10018E-03   -0.10026E-03  2104   0.257E-02
RMM:   6    -0.143696119076E+04   -0.33355E-04   -0.33487E-04  2104   0.150E-02
RMM:   7    -0.143696120281E+04   -0.12053E-04   -0.12070E-04  2104   0.850E-03
RMM:   8    -0.143696120915E+04   -0.63336E-05   -0.63495E-05  4272   0.517E-03
RMM:   9    -0.143696121081E+04   -0.16575E-05   -0.17020E-05  4089   0.249E-03
RMM:  10    -0.143696121094E+04   -0.13159E-06   -0.14345E-06  2731   0.906E-04    0.225E-01
RMM:  11    -0.143696142908E+04   -0.21815E-03   -0.77276E-04  6771   0.130E-02    0.216E-01
RMM:  12    -0.143696157442E+04   -0.14534E-03   -0.11973E-03  6673   0.140E-02    0.218E-01
RMM:  13    -0.143696114279E+04    0.43163E-03   -0.99548E-04  6862   0.140E-02    0.138E-01
RMM:  14    -0.143696104717E+04    0.95624E-04   -0.82969E-04  6903   0.137E-02    0.970E-02
RMM:  15    -0.143696087875E+04    0.16842E-03   -0.35948E-04  6391   0.819E-03    0.594E-02
RMM:  16    -0.143696083539E+04    0.43364E-04   -0.13573E-04  5840   0.501E-03    0.464E-02
RMM:  17    -0.143696079177E+04    0.43618E-04   -0.61112E-05  4999   0.347E-03    0.293E-02
RMM:  18    -0.143696078757E+04    0.41976E-05   -0.25769E-05  4523   0.250E-03    0.235E-02
RMM:  19    -0.143696078274E+04    0.48342E-05   -0.16662E-05  4277   0.202E-03    0.183E-02
RMM:  20    -0.143696077682E+04    0.59111E-05   -0.66835E-06  3782   0.153E-03    0.941E-03
RMM:  21    -0.143696077597E+04    0.85557E-06   -0.22051E-06  2851   0.104E-03
   6 F= -.13187595E+04 E0= -.13187435E+04  d E =-.244265E+00  mag=    -0.6658
 trial-energy change:   -0.244265  1 .order   -0.041265   -0.048179   -0.034351
 step:   3.6430(harm=  3.6430)  dis= 0.02032  next Energy= -5302.641277 (dE=-0.398E+04)
 bond charge predicted
       N       E                     dE             d eps       ncg     rms          rms(c)
RMM:   1    -0.143693145346E+04    0.29323E-01   -0.41342E+00  2104   0.141E+00
RMM:   2    -0.143696557538E+04   -0.34122E-01   -0.36569E-01  2104   0.560E-01
RMM:   3    -0.143697311393E+04   -0.75386E-02   -0.75317E-02  2104   0.223E-01
RMM:   4    -0.143697512440E+04   -0.20105E-02   -0.20253E-02  2104   0.123E-01
RMM:   5    -0.143697574309E+04   -0.61869E-03   -0.61917E-03  2104   0.638E-02
RMM:   6    -0.143697594926E+04   -0.20617E-03   -0.20697E-03  2104   0.372E-02
RMM:   7    -0.143697602383E+04   -0.74568E-04   -0.74677E-04  2104   0.211E-02
RMM:   8    -0.143697606315E+04   -0.39319E-04   -0.39414E-04  4475   0.129E-02
RMM:   9    -0.143697607367E+04   -0.10515E-04   -0.10793E-04  4622   0.620E-03
RMM:  10    -0.143697607453E+04   -0.86529E-06   -0.94202E-06  3842   0.208E-03    0.553E-01
RMM:  11    -0.143697692404E+04   -0.84951E-03   -0.43831E-03  6850   0.311E-02    0.515E-01
RMM:  12    -0.143697842215E+04   -0.14981E-02   -0.71853E-03  6778   0.344E-02    0.515E-01
RMM:  13    -0.143697619530E+04    0.22268E-02   -0.66033E-03  6908   0.356E-02    0.358E-01
RMM:  14    -0.143697632064E+04   -0.12533E-03   -0.60097E-03  6919   0.353E-02    0.317E-01
RMM:  15    -0.143697450253E+04    0.18181E-02   -0.30996E-03  6647   0.238E-02    0.186E-01
RMM:  16    -0.143697374527E+04    0.75726E-03   -0.10369E-03  6063   0.139E-02    0.104E-01
RMM:  17    -0.143697357561E+04    0.16966E-03   -0.32514E-04  5179   0.840E-03    0.687E-02
RMM:  18    -0.143697359505E+04   -0.19442E-04   -0.17173E-04  4915   0.633E-03    0.648E-02
RMM:  19    -0.143697352529E+04    0.69763E-04   -0.11090E-04  4671   0.519E-03    0.401E-02
RMM:  20    -0.143697349860E+04    0.26690E-04   -0.39927E-05  4168   0.379E-03    0.215E-02
RMM:  21    -0.143697349379E+04    0.48132E-05   -0.13179E-05  3938   0.258E-03    0.134E-02
RMM:  22    -0.143697349177E+04    0.20194E-05   -0.45807E-06  3708   0.157E-03    0.840E-03
RMM:  23    -0.143697349088E+04    0.88912E-06   -0.16359E-06  2700   0.937E-04
   7 F= -.13193487E+04 E0= -.13193333E+04  d E =-.833432E+00  mag=    -0.7006
 curvature:  -4.57 expect dE=-0.197E+00 dE for cont linesearch -0.922E-03
 trial: gam= 1.00175 g(F)=  0.431E-01 g(S)=  0.000E+00 ort = 0.483E-02 (trialstep = 0.107E+01)
 search vector abs. value=  0.169E+00
 bond charge predicted
       N       E                     dE             d eps       ncg     rms          rms(c)
RMM:   1    -0.143697569133E+04   -0.21996E-02   -0.72062E-01  2104   0.581E-01
RMM:   2    -0.143698202336E+04   -0.63320E-02   -0.68848E-02  2104   0.243E-01
RMM:   3    -0.143698346281E+04   -0.14395E-02   -0.14380E-02  2104   0.970E-02
RMM:   4    -0.143698384895E+04   -0.38614E-03   -0.38915E-03  2104   0.535E-02
RMM:   5    -0.143698396813E+04   -0.11918E-03   -0.11924E-03  2104   0.278E-02
RMM:   6    -0.143698400785E+04   -0.39716E-04   -0.39871E-04  2104   0.163E-02
RMM:   7    -0.143698402219E+04   -0.14338E-04   -0.14357E-04  2104   0.921E-03
RMM:   8    -0.143698402944E+04   -0.72559E-05   -0.72732E-05  4282   0.562E-03
RMM:   9    -0.143698403162E+04   -0.21731E-05   -0.22170E-05  4158   0.275E-03
RMM:  10    -0.143698403178E+04   -0.16161E-06   -0.17738E-06  2793   0.977E-04    0.228E-01
RMM:  11    -0.143698387195E+04    0.15983E-03   -0.71940E-04  6653   0.123E-02    0.199E-01
RMM:  12    -0.143698401664E+04   -0.14469E-03   -0.72592E-04  6636   0.116E-02    0.182E-01
