LiMox                                   
           1
    27.120398    0.402360   -2.402807
     0.301745   23.362465   -0.437691
    -7.129578   -0.289405   10.364511
   Mo   S    Li
    48   208     1
Direct configuration=     1
   0.53639613  0.08765710  0.67256494
   0.86432880  0.42274623  0.65731519
   0.76164470  0.56189831  0.01274406
   0.89764213  0.79724964  0.84008598
   0.27887842  0.46161835  0.16305675
   0.53501379  0.53159354  0.37613442
   0.64523646  0.91291069  0.73941143
   0.06052552  0.97727003  0.73776137
   0.76234005  0.24577632  0.13634902
   0.97317207  0.90796131  0.73451185
   0.36534982  0.96388480  0.08345728
   0.70367898  0.50717074  0.11734282
   0.90801989  0.68360486  0.73926003
   0.87660457  0.26390035  0.18945858
   0.18440275  0.54124882  0.55401394
   0.41735470  0.91945597  0.96043869
   0.88417664  0.93335730  0.76570332
   0.62646577  0.07076315  0.22951462
   0.72785224  0.38469086  0.56721133
   0.58656122  0.49014055  0.22534978
   0.35033136  0.08684065  0.31558716
   0.84854603  0.85377965  0.53610758
   0.20993331  0.68399489  0.49282184
   0.48996181  0.10389344  0.07324149
   0.60217767  0.08112619  0.56782939
   0.48140492  0.19346694  0.91944164
   0.62617814  0.17435790  0.10689176
   0.25671471  0.35210159  0.07521016
   0.83466878  0.96821789  0.03563229
   0.60609906  0.43559461  0.44374582
   0.33921429  0.77688728  0.25394613
   0.52737537  0.98549862  0.17358412
   0.01844426  0.19326532  0.94768009
   0.87025223  0.67713526  0.47721141
   0.21066517  0.74982153  0.04577000
   0.51987270  0.99146801  0.51896772
   0.72014253  0.02757640  0.81238036
   0.73813301  0.12370069  0.33556878
   0.51627959  0.87369811  0.23214686
   0.18953098  0.46618705  0.72149144
   0.34457331  0.66886415  0.68106394
   0.10434230  0.17678365  0.89158588
   0.21831540  0.22258277  0.95262289
   0.37712099  0.18094620  0.90069856
   0.27933503  0.76464892  0.69548208
   0.20901213  0.24668983  0.31173115
   0.86638242  0.57987872  0.00072651
   0.25293434  0.16880852  0.20522379
   0.22495616  0.88445398  0.25259550
   0.41387468  0.58378774  0.69547351
   0.04883036  0.77927311  0.33074890
   0.48985281  0.08817681  0.44052641
   0.31074564  0.92910923  0.15817127
   0.36490732  0.18633908  0.36380628
   0.03681671  0.46939657  0.64511515
   0.67021103  0.08396194  0.11103279
   0.09824719  0.50243931  0.50580449
   0.69101698  0.63357042  0.84229603
   0.34453937  0.05718878  0.13439925
   0.60272830  0.80631758  0.30858777
   0.08107729  0.27506112  0.95230425
   0.83608081  0.77013525  0.36305493
   0.95969059  0.54190847  0.03466313
   0.77442890  0.47333508  0.60826653
   0.17798553  0.05578539  0.41568678
   0.98743329  0.60760519  0.82234605
   0.94905435  0.52436492  0.17695845
   0.13919396  0.73711375  0.28609740
   0.67514492  0.22388052  0.68209160
   0.01492534  0.06129644  0.40355829
   0.22288997  0.40007205  0.19996456
   0.15642651  0.22394920  0.40118884
   0.69385134  0.42773106  0.69038393
   0.24860241  0.16126001  0.84843707
   0.55449676  0.73566318  0.91246932
   0.66539418  0.20002179  0.98056213
   0.73831939  0.33883749  0.07638167
   0.86568948  0.24041360  0.34779694
   0.78928061  0.20766415  0.00904065
   0.11494601  0.61715589  0.39151725
   0.40322848  0.62418240  0.30530617
   0.60856456  0.93584697  0.37574437
   0.12639682  0.50320124  0.78739228
   0.60181302  0.46315892  0.95382501
   0.27265134  0.47081699  0.45695878
   0.25904139  0.39265672  0.70929408
   0.56230975  0.64346466  0.87563587
   0.16633308  0.66320655  0.24591743
   0.64288481  0.52832784  0.46270699
   0.22188413  0.02394544  0.60873949
   0.80494867  0.46775124  0.27138828
   0.40187837  0.65649365  0.59723176
   0.24814161  0.79642307  0.26383607
   0.87468919  0.95504683  0.57264451
   0.89697546  0.49220692  0.61358466
   0.01534339  0.25918599  0.08999347
   0.47975719  0.96111711  0.28474645
   0.43370193  0.71095410  0.35148922
   0.64756309  0.09183058  0.80494408
   0.05404920  0.38334864  0.64566915
   0.98868648  0.18772771  0.72086750
   0.98754759  0.06189533  0.63026064
   0.12864138  0.37723318  0.64194389
   0.31595498  0.27898199  0.04913010
   0.41785575  0.01780831  0.01423955
   0.25723494  0.55958148  0.08173933
   0.43109778  0.85587393  0.62068408
   0.63459993  0.91428796  0.90991640
   0.56725964  0.61649814  0.51009716
   0.48228006  0.33053844  0.72635530
   0.71979688  0.08406686  0.67441959
   0.78012031  0.37719378  0.44246930
   0.81616850  0.91989048  0.14848606
   0.35848273  0.87179203  0.64615595
   0.68986106  0.48597735  0.91616121
   0.05325132  0.14472844  0.45070109
   0.79885090  0.05720066  0.03909604
   0.59460245  0.77897196  0.55332956
   0.05384362  0.64730682  0.43214213
   0.17009179  0.42205802  0.99490279
   0.25569943  0.06771582  0.25403033
   0.82850906  0.35176760  0.12793397
   0.23711467  0.27271170  0.16662092
   0.40017955  0.99698343  0.44049892
   0.84212935  0.13660014  0.56184691
   0.90388329  0.20721495  0.85655871
   0.10056212  0.53112114  0.06646245
   0.26585940  0.54818309  0.25568182
   0.25842455  0.32639593  0.46473206
   0.83091271  0.62068411  0.55397965
   0.86636078  0.33659052  0.55096373
   0.98523754  0.92156705  0.56124060
   0.66229564  0.16470133  0.34780164
   0.49501854  0.26997501  0.49149397
   0.54353966  0.99521441  0.73571139
   0.56731186  0.07134672  0.31550455
   0.53500177  0.03022230  0.01500749
   0.02384639  0.83412542  0.42491189
   0.22300321  0.85002200  0.58650721
   0.57804552  0.30456960  0.88442809
   0.94523120  0.93876112  0.20285053
   0.48888340  0.58553085  0.47525503
   0.54657296  0.45341015  0.00894050
   0.24203928  0.84414737  0.76978812
   0.73058411  0.22237515  0.27164269
   0.27268471  0.43509921  0.96945602
   0.68530341  0.97680495  0.29652871
   0.39261134  0.74451201  0.16823432
   0.96554949  0.39638580  0.87996233
   0.51627952  0.77074419  0.19120747
   0.34768085  0.69373723  0.87563150
   0.26973633  0.20225740  0.73874454
   0.15865815  0.93875593  0.81472439
   0.56787198  0.27171933  0.01873371
   0.10631209  0.78182023  0.94637598
   0.04016236  0.98941366  0.89992826
   0.53004935  0.45376748  0.47511089
   0.74659855  0.22543639  0.66836456
   0.28073706  0.50559969  0.76659207
   0.83719775  0.09339547  0.41228159
   0.26824392  0.59797272  0.57010983
   0.51478707  0.59605018  0.90667592
   0.57514437  0.76428184  0.79543124
   0.01371298  0.10403130  0.98029059
   0.35534166  0.38854905  0.25411686
   0.51593900  0.82816989  0.41477468
   0.79821691  0.87724356  0.63812771
   0.64245292  0.39500402  0.32630300
   0.11521128  0.74480585  0.80684590
   0.38119059  0.24520918  0.74255286
   0.48512742  0.34769251  0.57525045
   0.20305093  0.34942382  0.52405911
   0.74261282  0.95997301  0.24037350
   0.53866768  0.14073520  0.85925456
   0.75339837  0.93558232  0.80913988
   0.37072111  0.87163647  0.31098518
   0.97300595  0.87440817  0.91940714
   0.97733428  0.73302163  0.96321460
   0.75764957  0.65387882  0.69045728
   0.10744610  0.28738167  0.26077613
   0.92450820  0.17971070  0.14798079
   0.94717564  0.81738978  0.61635678
   0.50863426  0.56757798  0.15975987
   0.98521661  0.27513842  0.77599574
   0.15551178  0.66708657  0.89319468
   0.41437092  0.23780475  0.31381920
   0.84628159  0.51128597  0.20913840
   0.13772400  0.17610922  0.12168148
   0.93449771  0.86264882  0.27010262
   0.42395579  0.42939186  0.10931325
   0.83168857  0.34865997  0.77890936
   0.29284461  0.74469159  0.53433812
   0.90181530  0.98718692  0.96313589
   0.13326633  0.88228035  0.18970364
   0.20475607  0.12685318  0.98500044
   0.04837115  0.59793009  0.02985965
   0.11713949  0.97266536  0.62825812
   0.38433780  0.82624506  0.81445970
   0.19038517  0.47955045  0.41553308
   0.23117086  0.30608296  0.86481550
   0.83067098  0.76260904  0.61576448
   0.09684103  0.00513059  0.27676365
   0.41794936  0.06974582  0.56068961
   0.66711200  0.83793230  0.64156539
   0.19565237  0.71374570  0.64715189
   0.59629024  0.18078033  0.51710980
   0.68836002  0.50739994  0.27683087
   0.72825742  0.69147132  0.79002086
   0.52254070  0.18707680  0.70061674
   0.41163761  0.11277223  0.82289220
   0.89484873  0.41932851  0.88713242
   0.59201699  0.59062703  0.19272746
   0.54570818  0.19256461  0.15451031
   0.70212501  0.85586934  0.95089366
   0.88834623  0.15086236  0.94995856
   0.73334097  0.28094665  0.52845757
   0.85316397  0.79953992  0.93133647
   0.42459767  0.15555248  0.11728251
   0.35643241  0.51216626  0.38132383
   0.40021268  0.86384336  0.08450348
   0.71800472  0.60081205  0.11728412
   0.12308231  0.92112950  0.32488484
   0.53291002  0.88971225  0.57242922
   0.61888198  0.98046746  0.57245748
   0.28365248  0.18129122  0.44225109
   0.67301121  0.76678448  0.91755264
   0.65082313  0.35116826  0.59412527
   0.96243395  0.72281623  0.67425610
   0.99875363  0.70356286  0.27944636
   0.30096121  0.94029007  0.85958108
   0.28695456  0.68941247  0.22116459
   0.38789151  0.95123154  0.73897420
   0.91420557  0.61950498  0.42437546
   0.72776601  0.04310800  0.44868180
   0.42587823  0.27046125  0.94518561
   0.86487991  0.02881152  0.78226038
   0.94579706  0.07275125  0.41567864
   0.76950598  0.87582792  0.30611981
   0.17428572  0.04738603  0.68000255
   0.08303751  0.08615089  0.76418209
   0.52468711  0.89781241  0.06056271
   0.43351257  0.69651577  0.91306009
   0.23334095  0.56679640  0.79667226
   0.42553573  0.51380578  0.16673581
   0.41185463  0.78032149  0.52179123
   0.85657334  0.63771171  0.83764169
   0.11353895  0.23731029  0.76574546
   0.08966009  0.91755095  0.91940045
   0.84572845  0.63814847  0.11238609
   0.02610794  0.17017240  0.26965804
   0.26359988  0.80941580  0.01961279
   0.95043828  0.33112289  0.21602376
   0.98639368  0.28521683  0.38378950
   0.76711284  0.70922055  0.28546653
   0.51739811  0.40816284  0.19602694
   0.78436010  0.52249448  0.86339795
   0.28056151  0.65260985  0.38197535
Direct configuration=     2
   0.53635231  0.08764241  0.67246957
   0.86434247  0.42272596  0.65734781
   0.76172579  0.56190591  0.01270951
   0.89752956  0.79740882  0.83951135
   0.27887187  0.46162752  0.16314032
   0.53493411  0.53156246  0.37594495
   0.64524018  0.91288656  0.73942689
   0.06053473  0.97726018  0.73775919
   0.76236206  0.24583262  0.13635810
   0.97315088  0.90796626  0.73449388
   0.36539703  0.96385533  0.08354123
   0.70367393  0.50722390  0.11727445
   0.90805898  0.68374813  0.73949374
   0.87656695  0.26393812  0.18944083
   0.18441113  0.54124862  0.55397609
   0.41736436  0.91945394  0.96041031
   0.88422598  0.93324839  0.76579947
   0.62645698  0.07077026  0.22948728
   0.72788388  0.38469188  0.56726253
   0.58654885  0.49015997  0.22518463
   0.35031746  0.08681546  0.31562111
   0.84861266  0.85375749  0.53636720
   0.20992879  0.68397471  0.49286349
   0.48997389  0.10394624  0.07317356
   0.60221939  0.08115193  0.56795703
   0.48137330  0.19350494  0.91941444
   0.62618507  0.17438738  0.10688957
   0.25674441  0.35211932  0.07528866
   0.83469217  0.96819305  0.03567838
   0.60608678  0.43558892  0.44375700
   0.33918462  0.77689281  0.25390721
   0.52738345  0.98546566  0.17356082
   0.01842552  0.19329135  0.94767495
   0.87023688  0.67719149  0.47728469
   0.21065012  0.74981573  0.04574278
   0.51988061  0.99149744  0.51907333
   0.72014599  0.02757208  0.81237052
   0.73814757  0.12368867  0.33558154
   0.51628413  0.87369349  0.23210207
   0.18944096  0.46618520  0.72134829
   0.34459302  0.66886278  0.68113899
   0.10431307  0.17682261  0.89160844
   0.21829409  0.22260502  0.95254697
   0.37713682  0.18097668  0.90070327
   0.27935253  0.76464322  0.69547727
   0.20895596  0.24671766  0.31178950
   0.86633067  0.57988900  0.00072203
   0.25292570  0.16879737  0.20525749
   0.22493682  0.88446786  0.25253974
   0.41389429  0.58379065  0.69551602
   0.04880264  0.77926176  0.33075829
   0.48982760  0.08817853  0.44055809
   0.31072630  0.92909903  0.15813375
   0.36492143  0.18633266  0.36386861
   0.03685508  0.46937998  0.64514174
   0.67023407  0.08396561  0.11113336
   0.09826311  0.50243709  0.50584663
   0.69099660  0.63359201  0.84224562
   0.34452582  0.05718236  0.13442648
   0.60270203  0.80631097  0.30860025
   0.08107113  0.27503157  0.95234636
   0.83607384  0.77012597  0.36310054
   0.95969912  0.54189848  0.03462177
   0.77442192  0.47328587  0.60825768
   0.17797814  0.05575699  0.41570068
   0.98744147  0.60758452  0.82236480
   0.94904932  0.52435211  0.17697647
   0.13917851  0.73713909  0.28612238
   0.67515572  0.22388164  0.68207166
   0.01495231  0.06129160  0.40359080
   0.22292350  0.40009972  0.20005541
   0.15645833  0.22396018  0.40118238
   0.69385035  0.42773556  0.69037183
   0.24861602  0.16129231  0.84840872
   0.55451050  0.73563804  0.91249380
   0.66538245  0.20005093  0.98056952
   0.73834295  0.33879390  0.07639906
   0.86566481  0.24045031  0.34770494
   0.78929913  0.20769678  0.00907419
   0.11495705  0.61716533  0.39152505
   0.40324867  0.62416834  0.30530338
   0.60855159  0.93581530  0.37565187
   0.12640616  0.50318488  0.78735777
   0.60177336  0.46315332  0.95381081
   0.27265125  0.47081561  0.45693608
   0.25903372  0.39267559  0.70927492
   0.56228681  0.64348225  0.87560604
   0.16633087  0.66319502  0.24592361
   0.64287864  0.52831256  0.46266731
   0.22183821  0.02393343  0.60865645
   0.80490157  0.46776081  0.27126522
   0.40189927  0.65648816  0.59730099
   0.24813079  0.79642528  0.26378185
   0.87467600  0.95502628  0.57263182
   0.89698041  0.49217310  0.61361585
   0.01533168  0.25917751  0.08999692
   0.47975986  0.96109347  0.28470388
   0.43372133  0.71094149  0.35152879
   0.64754396  0.09183629  0.80488372
   0.05406248  0.38338024  0.64562585
   0.98869902  0.18770943  0.72091414
   0.98755319  0.06188475  0.63024246
   0.12863873  0.37726039  0.64192879
   0.31595965  0.27898760  0.04913205
   0.41784589  0.01781334  0.01419452
   0.25722642  0.55957008  0.08171331
   0.43109672  0.85587966  0.62070486
   0.63460922  0.91424714  0.90994675
   0.56724157  0.61649963  0.51008366
   0.48228297  0.33053502  0.72633602
   0.71978518  0.08409330  0.67443790
   0.78014159  0.37721912  0.44259161
   0.81616392  0.91989407  0.14846099
   0.35846488  0.87177604  0.64616479
   0.68988978  0.48596603  0.91628334
   0.05323466  0.14472590  0.45064978
   0.79885720  0.05717874  0.03906232
   0.59463193  0.77897648  0.55338059
   0.05385708  0.64730665  0.43215431
   0.17008031  0.42210055  0.99486121
   0.25573350  0.06773797  0.25409049
   0.82850558  0.35168182  0.12801143
   0.23710634  0.27269076  0.16657474
   0.40018008  0.99701072  0.44047516
   0.84212472  0.13659828  0.56185013
   0.90391068  0.20721554  0.85657116
   0.10055774  0.53112493  0.06647013
   0.26584341  0.54816752  0.25566954
   0.25841292  0.32641907  0.46475997
   0.83092594  0.62068271  0.55394068
   0.86639168  0.33660401  0.55104071
   0.98527075  0.92157622  0.56129226
   0.66232543  0.16470388  0.34786233
   0.49501675  0.26998448  0.49153259
   0.54353766  0.99520099  0.73566183
   0.56731761  0.07134844  0.31551211
   0.53499086  0.03022053  0.01502938
   0.02382369  0.83412372  0.42485999
   0.22301373  0.85001123  0.58651326
   0.57803460  0.30457421  0.88436710
   0.94522234  0.93875720  0.20288559
   0.48888247  0.58551871  0.47521870
   0.54661769  0.45344230  0.00904763
   0.24202325  0.84413680  0.76976866
   0.73059043  0.22236210  0.27163234
   0.27268091  0.43509925  0.96941043
   0.68528163  0.97681460  0.29643613
   0.39261862  0.74449556  0.16825990
   0.96551988  0.39637421  0.87989715
   0.51629921  0.77073714  0.19123592
   0.34765391  0.69373952  0.87554973
   0.26973748  0.20228212  0.73875425
   0.15865969  0.93876187  0.81468335
   0.56784153  0.27170505  0.01864378
   0.10634882  0.78181093  0.94641457
   0.04013957  0.98940906  0.89988088
   0.53004908  0.45375956  0.47507618
   0.74660408  0.22544625  0.66839554
   0.28071066  0.50558013  0.76650818
   0.83720196  0.09338440  0.41229950
   0.26823283  0.59795506  0.57004259
   0.51477259  0.59606456  0.90667629
   0.57515292  0.76428626  0.79545702
   0.01369662  0.10406796  0.98027311
   0.35533934  0.38855373  0.25411466
   0.51593842  0.82814512  0.41473049
   0.79832286  0.87713939  0.63833369
   0.64246729  0.39502539  0.32638015
   0.11521547  0.74479243  0.80686710
   0.38117201  0.24521254  0.74254053
   0.48512535  0.34770087  0.57524019
   0.20302396  0.34940282  0.52396163
   0.74261774  0.95996639  0.24039238
   0.53866963  0.14072252  0.85928154
   0.75341395  0.93557460  0.80921936
   0.37072137  0.87161341  0.31099318
   0.97300185  0.87440898  0.91936628
   0.97732717  0.73302216  0.96320010
   0.75765919  0.65387798  0.69053277
   0.10745855  0.28737576  0.26076124
   0.92454417  0.17975187  0.14804291
   0.94714228  0.81736461  0.61633680
   0.50864240  0.56758078  0.15976227
   0.98523325  0.27513311  0.77606636
   0.15552202  0.66709983  0.89324204
   0.41439418  0.23783771  0.31384700
   0.84625920  0.51131146  0.20905504
   0.13772347  0.17610489  0.12171811
   0.93448408  0.86265828  0.27005607
   0.42398139  0.42939099  0.10937906
   0.83167571  0.34867651  0.77879523
   0.29284048  0.74468971  0.53434754
   0.90180283  0.98717695  0.96317744
   0.13326139  0.88229651  0.18968567
   0.20477000  0.12685121  0.98505413
   0.04834413  0.59793311  0.02984791
   0.11711459  0.97268907  0.62821279
   0.38431123  0.82623936  0.81441131
   0.19038953  0.47954751  0.41561558
   0.23116885  0.30607487  0.86476517
   0.83067685  0.76254483  0.61569672
   0.09687363  0.00511763  0.27682468
   0.41797664  0.06975396  0.56068619
   0.66708927  0.83792367  0.64153628
   0.19564257  0.71375550  0.64709168
   0.59630301  0.18078234  0.51713221
   0.68834944  0.50736132  0.27680036
   0.72828434  0.69147205  0.79008893
   0.52253874  0.18710338  0.70063466
   0.41164196  0.11279173  0.82292078
   0.89484746  0.41934643  0.88712625
   0.59199797  0.59061265  0.19272540
   0.54566750  0.19255228  0.15442747
   0.70211047  0.85585452  0.95087826
   0.88838300  0.15086720  0.94997359
   0.73331941  0.28096310  0.52844607
   0.85317531  0.79953312  0.93135018
   0.42460031  0.15556076  0.11723379
   0.35642538  0.51215269  0.38131282
   0.40020349  0.86383746  0.08450911
   0.71799593  0.60076903  0.11735040
   0.12312053  0.92115992  0.32493074
   0.53291870  0.88969717  0.57247611
   0.61888851  0.98047942  0.57251537
   0.28363358  0.18128795  0.44218584
   0.67298660  0.76676279  0.91749807
   0.65081857  0.35115446  0.59407167
   0.96242754  0.72279126  0.67426952
   0.99876126  0.70356814  0.27948213
   0.30093636  0.94029383  0.85951815
   0.28695955  0.68940792  0.22112515
   0.38789382  0.95120492  0.73899206
   0.91421621  0.61951241  0.42440776
   0.72780186  0.04313148  0.44867167
   0.42589004  0.27044149  0.94518426
   0.86487754  0.02884522  0.78223237
   0.94582162  0.07276352  0.41571366
   0.76950809  0.87582371  0.30610566
   0.17425691  0.04738160  0.67992816
   0.08302371  0.08613300  0.76407435
   0.52468522  0.89778841  0.06058690
   0.43351251  0.69651383  0.91300287
   0.23330673  0.56676652  0.79664593
   0.42557069  0.51381582  0.16682485
   0.41183432  0.78032900  0.52175043
   0.85659865  0.63772432  0.83769218
   0.11352643  0.23729706  0.76574121
   0.08967192  0.91754338  0.91942681
   0.84571135  0.63811936  0.11232388
   0.02609833  0.17018852  0.26964448
   0.26360325  0.80940540  0.01968313
   0.95043254  0.33111954  0.21600479
   0.98638113  0.28519716  0.38376370
   0.76711455  0.70921288  0.28550189
   0.51738085  0.40822307  0.19603552
   0.78440365  0.52252828  0.86353230
   0.28054411  0.65260386  0.38201621
Direct configuration=     3
   0.53624925  0.08760786  0.67224531
   0.86437460  0.42267828  0.65742452
   0.76191646  0.56192377  0.01262826
   0.89726485  0.79778311  0.83816014
   0.27885648  0.46164909  0.16333685
   0.53474674  0.53148938  0.37549941
   0.64524891  0.91282983  0.73946324
   0.06055640  0.97723701  0.73775407
   0.76241381  0.24596500  0.13637947
   0.97310104  0.90797791  0.73445163
   0.36550806  0.96378603  0.08373863
   0.70366204  0.50734892  0.11711369
   0.90815089  0.68408500  0.74004330
   0.87647849  0.26402694  0.18939908
   0.18443085  0.54124814  0.55388708
   0.41738708  0.91944916  0.96034359
   0.88434199  0.93299229  0.76602557
   0.62643632  0.07078698  0.22942298
   0.72795830  0.38469429  0.56738292
   0.58651977  0.49020565  0.22479626
   0.35028478  0.08675623  0.31570095
   0.84876933  0.85370540  0.53697769
   0.20991816  0.68392723  0.49296144
   0.49000228  0.10407041  0.07301382
   0.60231751  0.08121246  0.56825717
   0.48129895  0.19359427  0.91935046
   0.62620136  0.17445671  0.10688443
   0.25681425  0.35216100  0.07547325
   0.83474717  0.96813465  0.03578674
   0.60605790  0.43557554  0.44378329
   0.33911486  0.77690580  0.25381571
   0.52740245  0.98538815  0.17350604
   0.01838144  0.19335257  0.94766286
   0.87020080  0.67732372  0.47745700
   0.21061473  0.74980209  0.04567876
   0.51989921  0.99156663  0.51932167
   0.72015412  0.02756194  0.81234739
   0.73818182  0.12366041  0.33561153
   0.51629479  0.87368262  0.23199673
   0.18922930  0.46618086  0.72101170
   0.34463936  0.66885958  0.68131548
   0.10424435  0.17691422  0.89166150
   0.21824397  0.22265735  0.95236844
   0.37717405  0.18104834  0.90071433
   0.27939368  0.76462980  0.69546594
   0.20882386  0.24678309  0.31192671
   0.86620900  0.57991319  0.00071149
   0.25290540  0.16877116  0.20533673
   0.22489133  0.88450048  0.25240863
   0.41394040  0.58379750  0.69561598
   0.04873747  0.77923506  0.33078036
   0.48976830  0.08818260  0.44063258
   0.31068083  0.92907503  0.15804551
   0.36495459  0.18631756  0.36401518
   0.03694529  0.46934098  0.64520427
   0.67028824  0.08397423  0.11136987
   0.09830056  0.50243189  0.50594574
   0.69094870  0.63364279  0.84212711
   0.34449397  0.05716726  0.13449050
   0.60264027  0.80629542  0.30862959
   0.08105665  0.27496208  0.95244539
   0.83605743  0.77010415  0.36320777
   0.95971918  0.54187498  0.03452450
   0.77440550  0.47317015  0.60823687
   0.17796076  0.05569020  0.41573337
   0.98746069  0.60753592  0.82240888
   0.94903751  0.52432200  0.17701884
   0.13914221  0.73719869  0.28618114
   0.67518112  0.22388427  0.68202477
   0.01501574  0.06128024  0.40366726
   0.22300233  0.40016476  0.20026903
   0.15653316  0.22398599  0.40116718
   0.69384801  0.42774613  0.69034338
   0.24864801  0.16136827  0.84834208
   0.55454281  0.73557894  0.91255137
   0.66535485  0.20011945  0.98058690
   0.73839837  0.33869143  0.07643994
   0.86560678  0.24053662  0.34748859
   0.78934269  0.20777352  0.00915307
   0.11498299  0.61718750  0.39154340
   0.40329613  0.62413528  0.30529680
   0.60852109  0.93574082  0.37543437
   0.12642812  0.50314639  0.78727661
   0.60168011  0.46314017  0.95377743
   0.27265104  0.47081237  0.45688272
   0.25901569  0.39271998  0.70922987
   0.56223289  0.64352360  0.87553591
   0.16632566  0.66316789  0.24593816
   0.64286415  0.52827665  0.46257401
   0.22173022  0.02390518  0.60846118
   0.80479083  0.46778333  0.27097584
   0.40194841  0.65647523  0.59746376
   0.24810536  0.79643049  0.26365434
   0.87464501  0.95497796  0.57260199
   0.89699203  0.49209357  0.61368919
   0.01530416  0.25915756  0.09000504
   0.47976613  0.96103787  0.28460377
   0.43376693  0.71091184  0.35162184
   0.64749897  0.09184973  0.80474179
   0.05409370  0.38345454  0.64552405
   0.98872852  0.18766643  0.72102383
   0.98756637  0.06185988  0.63019973
   0.12863248  0.37732436  0.64189327
   0.31597064  0.27900080  0.04913663
   0.41782271  0.01782516  0.01408863
   0.25720638  0.55954329  0.08165213
   0.43109422  0.85589314  0.62075373
   0.63463107  0.91415116  0.91001811
   0.56719910  0.61650314  0.51005191
   0.48228981  0.33052697  0.72629070
   0.71975767  0.08415546  0.67448096
   0.78019163  0.37727871  0.44287922
   0.81615316  0.91990251  0.14840205
   0.35842290  0.87173843  0.64618557
   0.68995733  0.48593942  0.91657054
   0.05319549  0.14471991  0.45052913
   0.79887202  0.05712722  0.03898302
   0.59470124  0.77898713  0.55350061
   0.05388874  0.64730626  0.43218296
   0.17005331  0.42220054  0.99476345
   0.25581361  0.06779006  0.25423194
   0.82849739  0.35148013  0.12819358
   0.23708677  0.27264152  0.16646613
   0.40018134  0.99707488  0.44041927
   0.84211384  0.13659391  0.56185768
   0.90397508  0.20721692  0.85660044
   0.10054742  0.53113386  0.06648821
   0.26580582  0.54813091  0.25564065
   0.25838559  0.32647350  0.46482560
   0.83095706  0.62067940  0.55384902
   0.86646435  0.33663572  0.55122172
   0.98534883  0.92159780  0.56141375
   0.66239547  0.16470988  0.34800504
   0.49501253  0.27000674  0.49162339
   0.54353294  0.99516942  0.73554530
   0.56733112  0.07135250  0.31552989
   0.53496519  0.03021636  0.01508086
   0.02377033  0.83411971  0.42473796
   0.22303846  0.84998591  0.58652749
   0.57800893  0.30458505  0.88422369
   0.94520151  0.93874796  0.20296803
   0.48888030  0.58549017  0.47513327
   0.54672288  0.45351791  0.00929955
   0.24198558  0.84411194  0.76972291
   0.73060529  0.22233142  0.27160801
   0.27267199  0.43509933  0.96930322
   0.68523042  0.97683730  0.29621843
   0.39263575  0.74445690  0.16832004
   0.96545025  0.39634694  0.87974388
   0.51634552  0.77072055  0.19130281
   0.34759056  0.69374493  0.87535743
   0.26974019  0.20234025  0.73877708
   0.15866333  0.93877585  0.81458685
   0.56776991  0.27167149  0.01843232
   0.10643519  0.78178907  0.94650529
   0.04008598  0.98939823  0.89976948
   0.53004844  0.45374094  0.47499455
   0.74661707  0.22546944  0.66846838
   0.28064861  0.50553412  0.76631091
   0.83721186  0.09335838  0.41234159
   0.26820674  0.59791355  0.56988448
   0.51473855  0.59609839  0.90667717
   0.57517302  0.76429666  0.79551764
   0.01365817  0.10415415  0.98023199
   0.35533388  0.38856475  0.25410949
   0.51593706  0.82808688  0.41462658
   0.79857199  0.87689445  0.63881805
   0.64250105  0.39507563  0.32656155
   0.11522532  0.74476088  0.80691697
   0.38112832  0.24522044  0.74251152
   0.48512048  0.34772054  0.57521605
   0.20296054  0.34935343  0.52373243
   0.74262929  0.95995081  0.24043678
   0.53867421  0.14069271  0.85934496
   0.75345058  0.93555643  0.80940624
   0.37072198  0.87155918  0.31101198
   0.97299220  0.87441088  0.91927018
   0.97731045  0.73302342  0.96316601
   0.75768181  0.65387600  0.69071027
   0.10748780  0.28736184  0.26072622
   0.92462875  0.17984867  0.14818899
   0.94706383  0.81730542  0.61628983
   0.50866154  0.56758737  0.15976792
   0.98527239  0.27512063  0.77623240
   0.15554611  0.66713101  0.89335340
   0.41444886  0.23791522  0.31391237
   0.84620653  0.51137140  0.20885903
   0.13772221  0.17609469  0.12180423
   0.93445203  0.86268052  0.26994661
   0.42404158  0.42938895  0.10953381
   0.83164546  0.34871541  0.77852685
   0.29283076  0.74468531  0.53436967
   0.90177352  0.98715352  0.96327513
   0.13324978  0.88233453  0.18964341
   0.20480275  0.12684658  0.98518036
   0.04828059  0.59794020  0.02982028
   0.11705605  0.97274483  0.62810618
   0.38424876  0.82622594  0.81429751
   0.19039979  0.47954060  0.41580958
   0.23116413  0.30605586  0.86464680
   0.83069064  0.76239384  0.61553736
   0.09695030  0.00508716  0.27696819
   0.41804079  0.06977310  0.56067814
   0.66703583  0.83790338  0.64146782
   0.19561955  0.71377853  0.64695009
   0.59633304  0.18078704  0.51718490
   0.68832455  0.50727050  0.27672860
   0.72834763  0.69147374  0.79024899
   0.52253414  0.18716588  0.70067681
   0.41165220  0.11283759  0.82298799
   0.89484447  0.41938857  0.88711176
   0.59195327  0.59057884  0.19272056
   0.54557184  0.19252329  0.15423269
   0.70207628  0.85581967  0.95084206
   0.88846947  0.15087858  0.95000893
   0.73326873  0.28100179  0.52841905
   0.85320196  0.79951712  0.93138241
   0.42460652  0.15558022  0.11711923
   0.35640884  0.51212078  0.38128693
   0.40018189  0.86382361  0.08452237
   0.71797526  0.60066785  0.11750625
   0.12321040  0.92123144  0.32503866
   0.53293910  0.88966171  0.57258638
   0.61890385  0.98050755  0.57265148
   0.28358913  0.18128028  0.44203242
   0.67292874  0.76671179  0.91736976
   0.65080784  0.35112201  0.59394561
   0.96241249  0.72273253  0.67430106
   0.99877921  0.70358055  0.27956626
   0.30087792  0.94030268  0.85937018
   0.28697127  0.68939723  0.22103241
   0.38789923  0.95114234  0.73903405
   0.91424121  0.61952988  0.42448369
   0.72788614  0.04318671  0.44864783
   0.42591782  0.27039505  0.94518107
   0.86487197  0.02892446  0.78216650
   0.94587938  0.07279239  0.41579600
   0.76951306  0.87581382  0.30607238
   0.17418917  0.04737118  0.67975322
   0.08299124  0.08609092  0.76382101
   0.52468079  0.89773199  0.06064377
   0.43351237  0.69650928  0.91286833
   0.23322627  0.56669626  0.79658402
   0.42565291  0.51383943  0.16703422
   0.41178656  0.78034666  0.52165448
   0.85665816  0.63775398  0.83781090
   0.11349700  0.23726596  0.76573121
   0.08969974  0.91752560  0.91948882
   0.84567115  0.63805092  0.11217761
   0.02607574  0.17022644  0.26961260
   0.26361115  0.80938092  0.01984853
   0.95041902  0.33111168  0.21596019
   0.98635163  0.28515091  0.38370304
   0.76711855  0.70919484  0.28558506
   0.51734028  0.40836470  0.19605568
   0.78450606  0.52260775  0.86384823
   0.28050319  0.65258978  0.38211228
Direct configuration=     4
   0.53622333  0.08763040  0.67226046
   0.86439328  0.42266403  0.65749775
   0.76198506  0.56195051  0.01255280
   0.89711561  0.79795144  0.83790168
   0.27886875  0.46165227  0.16333273
   0.53472264  0.53148009  0.37542586
   0.64524542  0.91280442  0.73947705
   0.06057834  0.97723808  0.73779250
   0.76239245  0.24595253  0.13636457
   0.97311301  0.90796964  0.73443705